/*--------------------------------*- C++ -*----------------------------------*\
| =========                 |                                                 |
| \\      /  F ield         | OpenFOAM: The Open Source CFD Toolbox           |
|  \\    /   O peration     | Version:  2512                                  |
|   \\  /    A nd           | Website:  www.openfoam.com                      |
|    \\/     M anipulation  |                                                 |
\*---------------------------------------------------------------------------*/
FoamFile
{
    version     2.0;
    format      ascii;
    arch        "LSB;label=32;scalar=64";
    class       volVectorField;
    location    "69.25";
    object      U;
}
// * * * * * * * * * * * * * * * * * * * * * * * * * * * * * * * * * * * * * //

dimensions      [0 1 -1 0 0 0 0];

internalField   nonuniform List<vector> 
13248
(
(-0.0131831 0.0125741 7.98267e-20)
(-0.0235508 0.027034 0)
(-0.0178769 0.0351967 -1.50751e-19)
(0.0027468 0.0386371 1.42005e-19)
(0.0375217 0.0387934 1.33001e-19)
(0.0858226 0.0369109 0)
(0.147014 0.0339807 0)
(0.220289 0.0307652 3.24184e-19)
(0.304474 0.0278253 -4.37783e-22)
(0.397869 0.0255227 -2.85254e-19)
(0.498146 0.0240244 2.67223e-19)
(0.602389 0.0233171 -1.67364e-19)
(0.707235 0.0232332 0)
(0.809129 0.0234908 -2.91228e-19)
(0.90462 0.023744 5.43956e-19)
(0.990663 0.0236394 -1.29903e-19)
(1.06488 0.0228718 -2.30126e-19)
(1.12576 0.0212099 2.16046e-19)
(1.17271 0.0185959 0)
(1.20604 0.0148235 0)
(1.22706 0.0106948 0)
(1.23674 0.00387192 0)
(1.23868 0.00128146 6.18042e-20)
(1.23068 -0.0164735 2.17085e-19)
(-0.0123341 0.0104219 -2.40957e-19)
(-0.0173967 0.0202622 1.64069e-19)
(-0.00313762 0.024655 -1.46023e-21)
(0.0290031 0.025466 -2.16754e-19)
(0.0780011 0.024284 -1.32859e-19)
(0.142903 0.0224241 -1.25756e-19)
(0.222479 0.0208622 -2.32116e-19)
(0.314965 0.0202677 2.19276e-19)
(0.417872 0.0210215 0)
(0.527914 0.0232174 5.5219e-22)
(0.641129 0.026679 8.58816e-22)
(0.753165 0.0310049 1.66305e-19)
(0.859677 0.0356421 0)
(0.956757 0.0399783 0)
(1.0413 0.0434378 1.96925e-19)
(1.11128 0.0455652 -3.70057e-19)
(1.16585 0.0460828 2.2013e-19)
(1.20533 0.0449138 -2.06676e-19)
(1.23101 0.04217 -9.01489e-20)
(1.24495 0.0381077 -1.63594e-19)
(1.24947 0.033158 -6.63304e-20)
(1.24709 0.0273833 -1.24303e-19)
(1.23985 0.0230637 1.84338e-19)
(1.22922 0.0141673 5.18546e-20)
(-0.0105511 0.00812003 0)
(-0.00776711 0.0134022 0)
(0.018227 0.0146095 7.66806e-20)
(0.0653659 0.0137435 7.07266e-20)
(0.132068 0.0124748 -1.53779e-21)
(0.216584 0.0121336 -1.29514e-19)
(0.316464 0.0135798 0)
(0.428298 0.0172229 -1.0922e-19)
(0.547677 0.0230465 1.02713e-19)
(0.669424 0.0306447 2.8683e-22)
(0.788068 0.0393051 -1.76968e-19)
(0.898445 0.048138 -1.62939e-19)
(0.996264 0.0562301 2.59804e-21)
(1.07854 0.0627914 -1.35499e-19)
(1.14382 0.0672663 3.25078e-19)
(1.19214 0.0693919 0)
(1.22485 0.0691999 -2.10516e-19)
(1.24422 0.0669612 1.02725e-19)
(1.253 0.0631319 9.0075e-20)
(1.25398 0.058169 0)
(1.24974 0.0527883 7.30413e-20)
(1.24213 0.0468067 -2.47866e-19)
(1.23278 0.0425996 2.32684e-19)
(1.22249 0.0341368 1.43515e-19)
(-0.00738014 0.00557779 -8.48671e-20)
(0.00639815 0.00647329 -8.76682e-20)
(0.0476176 0.00539264 7.94227e-20)
(0.113252 0.00421227 0)
(0.200662 0.0045178 0)
(0.306623 0.00748951 -2.58048e-21)
(0.426709 0.0136442 0)
(0.555237 0.0228533 -3.32673e-19)
(0.685633 0.0344315 3.09516e-19)
(0.811148 0.0472848 -3.83051e-19)
(0.925712 0.0601239 8.82818e-20)
(1.02467 0.0717021 0)
(1.10527 0.0810235 1.4725e-19)
(1.16673 0.0874755 -2.72841e-19)
(1.21008 0.090869 6.51005e-20)
(1.23764 0.0913928 1.66936e-19)
(1.2525 0.0895069 -7.52344e-21)
(1.25791 0.0858147 -1.84898e-19)
(1.25684 0.0809359 0)
(1.25168 0.0754278 0)
(1.24415 0.0697757 -6.57173e-20)
(1.23534 0.064061 5.877e-20)
(1.22606 0.0596499 2.09639e-19)
(1.21638 0.0521738 -1.96831e-19)
(-0.00235627 0.0028141 -8.91558e-20)
(0.0260962 -0.000277418 -8.89382e-20)
(0.0861417 -0.00240797 2.50238e-19)
(0.17337 -0.00217299 -1.52107e-19)
(0.283408 0.00164984 1.43172e-19)
(0.410749 0.00979033 2.60795e-19)
(0.548315 0.0220728 -1.84287e-19)
(0.687924 0.0375034 -2.24666e-19)
(0.821297 0.05453 4.11951e-21)
(0.941252 0.0713818 2.88632e-19)
(1.04266 0.0864235 0)
(1.12295 0.0984374 7.95869e-20)
(1.18205 0.106772 0)
(1.22192 0.111346 -1.30662e-19)
(1.24581 0.112532 1.83952e-19)
(1.25747 0.110983 2.04137e-21)
(1.26053 0.107449 -4.81932e-20)
(1.25799 0.102637 9.06592e-20)
(1.25212 0.0971322 7.78444e-20)
(1.24443 0.0913603 -6.97886e-20)
(1.23587 0.0856376 6.57016e-20)
(1.22693 0.0800236 -5.87552e-20)
(1.21793 0.075292 0)
(1.209 0.0684204 -4.43591e-20)
(0.00494653 -1.72953e-05 8.9143e-20)
(0.0521273 -0.00630443 9.34292e-20)
(0.134418 -0.00785889 -8.38181e-20)
(0.245488 -0.0041812 1.5627e-19)
(0.378436 0.00517642 -1.47082e-19)
(0.524738 0.0200573 1.33315e-19)
(0.674403 0.0391885 -6.39112e-20)
(0.817278 0.0604775 1.68616e-19)
(0.944688 0.0815504 -1.05925e-19)
(1.05074 0.100279 1.88188e-19)
(1.13285 0.115165 -4.34504e-19)
(1.19155 0.125502 1.59509e-19)
(1.22969 0.131324 -1.40397e-19)
(1.25135 0.133203 1.31877e-19)
(1.26093 0.131993 1.14229e-19)
(1.26236 0.128596 1.00493e-19)
(1.25875 0.123808 -2.79286e-19)
(1.2523 0.118245 1.73471e-19)
(1.24441 0.112343 -7.78474e-20)
(1.23591 0.106385 2.02793e-19)
(1.22723 0.100553 -6.55178e-20)
(1.21858 0.0949242 -1.59075e-19)
(1.21009 0.0898899 1.46821e-19)
(1.20175 0.0834803 4.43449e-20)
(0.0148699 -0.0026237 0)
(0.0849706 -0.0107691 7.49589e-22)
(0.192391 -0.00972726 1.74845e-19)
(0.328258 -0.000427073 -1.6403e-19)
(0.482382 0.0162593 -1.48222e-19)
(0.642863 0.0387848 2.75598e-19)
(0.797293 0.0644778 -1.28046e-19)
(0.93495 0.0901949 1.7104e-19)
(1.04862 0.113131 -3.58022e-21)
(1.13536 0.131373 -9.70388e-20)
(1.19606 0.14409 2.12596e-19)
(1.23435 0.151414 -3.13703e-19)
(1.25516 0.154126 0)
(1.26353 0.153303 -6.17452e-20)
(1.26382 0.150023 -1.65428e-19)
(1.25931 0.145196 5.19392e-20)
(1.25225 0.139498 2.05378e-21)
(1.244 0.133387 -1.14787e-19)
(1.23533 0.127154 7.08364e-21)
(1.22665 0.12098 1.32853e-19)
(1.21811 0.11497 -5.93609e-20)
(1.20978 0.1092 -2.25209e-20)
(1.20166 0.103791 6.9512e-20)
(1.19373 0.0976519 0)
(0.0276275 -0.00460784 0)
(0.124661 -0.012634 4.73732e-20)
(0.259186 -0.00664213 -2.2755e-19)
(0.41916 0.0103855 8.28759e-20)
(0.590648 0.0356349 -7.79987e-20)
(0.758722 0.0657542 -7.12582e-20)
(0.909945 0.0966728 -1.26287e-19)
(1.035 0.124628 6.28586e-20)
(1.12989 0.147037 5.49199e-20)
(1.19551 0.162793 0)
(1.23613 0.172067 1.25715e-19)
(1.25754 0.175856 -1.87135e-19)
(1.26558 0.175497 1.39506e-19)
(1.26515 0.172298 6.17777e-20)
(1.25988 0.167329 -5.06565e-20)
(1.25217 0.161365 -4.25276e-20)
(1.24344 0.154915 -3.98816e-20)
(1.23445 0.148291 1.18891e-19)
(1.22558 0.141681 0)
(1.21697 0.135195 5.99172e-20)
(1.20868 0.128902 5.0498e-20)
(1.20067 0.122856 -1.25296e-19)
(1.1929 0.117049 -8.58454e-20)
(1.18534 0.111052 7.93088e-20)
(0.0432729 -0.00550037 -5.08135e-20)
(0.170705 -0.0107779 -1.78427e-21)
(0.333047 0.00269426 4.6256e-20)
(0.514656 0.0291937 1.29205e-19)
(0.697986 0.0634025 3.76107e-20)
(0.866313 0.100043 -7.26428e-20)
(1.00719 0.134067 6.64538e-20)
(1.11462 0.161823 -5.84329e-20)
(1.18884 0.181634 1.04734e-19)
(1.2345 0.193577 4.48143e-20)
(1.25829 0.198852 -1.26923e-19)
(1.267 0.199119 3.75671e-20)
(1.26635 0.19599 6.42516e-20)
(1.26048 0.190773 -3.16101e-20)
(1.25209 0.184392 0)
(1.24274 0.177442 4.74633e-20)
(1.23326 0.170277 8.04288e-20)
(1.22402 0.163099 1.38735e-20)
(1.21517 0.156025 -6.71707e-20)
(1.20673 0.149126 2.81565e-20)
(1.19868 0.142449 0)
(1.19096 0.136015 -2.21895e-20)
(1.18351 0.129781 -2.10443e-20)
(1.17624 0.123756 0)
(0.0616484 -0.00480148 0)
(0.222019 -0.00413508 2.65907e-20)
(0.411401 0.0192961 4.92197e-20)
(0.610546 0.0563788 -1.31517e-19)
(0.799246 0.0989863 4.24043e-20)
(0.960936 0.14024 0)
(1.08627 0.174903 6.40011e-20)
(1.17381 0.200245 -8.93358e-20)
(1.22808 0.215969 -5.22383e-20)
(1.25661 0.223416 2.36985e-20)
(1.2674 0.224623 -3.78906e-20)
(1.2672 0.22162 9.20355e-20)
(1.26098 0.216052 4.63114e-20)
(1.25192 0.209078 -3.21372e-20)
(1.24187 0.201427 -2.9426e-21)
(1.23176 0.193523 -8.85747e-20)
(1.22201 0.185598 4.03772e-20)
(1.21276 0.177779 -1.04677e-21)
(1.20404 0.170138 0)
(1.19583 0.162723 -2.81857e-20)
(1.18806 0.155562 0)
(1.18064 0.148649 6.39618e-20)
(1.1735 0.141975 -7.6181e-20)
(1.16652 0.13577 3.47411e-20)
(0.0823523 -0.00202677 -1.37907e-20)
(0.276941 0.0081784 -6.68913e-20)
(0.491056 0.0437411 7.60266e-20)
(0.702467 0.0916977 4.47665e-20)
(0.890039 0.141258 -2.1399e-20)
(1.03961 0.18473 3.5987e-20)
(1.14652 0.217648 -1.74866e-20)
(1.21425 0.238848 2.91811e-20)
(1.25089 0.249602 0)
(1.26577 0.252351 6.63443e-20)
(1.26709 0.249676 -2.65598e-21)
(1.26097 0.243712 -5.3692e-20)
(1.25137 0.235967 2.30666e-20)
(1.24057 0.227387 -2.61057e-20)
(1.22972 0.218508 -9.99298e-21)
(1.21932 0.209614 1.14969e-20)
(1.20955 0.200851 -8.91041e-21)
(1.20044 0.192297 -4.85142e-20)
(1.19195 0.183998 2.97336e-20)
(1.18402 0.175982 6.10814e-21)
(1.17655 0.168258 5.39025e-21)
(1.16946 0.160807 4.75789e-21)
(1.16263 0.153688 0)
(1.15594 0.147133 0)
(0.104804 0.0032583 1.38002e-20)
(0.333456 0.0267778 -1.38247e-20)
(0.568649 0.0760906 -2.53211e-20)
(0.786512 0.134329 0)
(0.967213 0.188747 -1.06159e-20)
(1.10098 0.231947 -9.54406e-21)
(1.18866 0.261116 -1.63849e-20)
(1.23819 0.277016 0)
(1.26022 0.282406 0)
(1.26476 0.280547 0)
(1.25955 0.274265 0)
(1.24971 0.265601 0)
(1.23821 0.255842 -1.44826e-20)
(1.22657 0.24571 6.59774e-21)
(1.21544 0.235577 1.15169e-20)
(1.20506 0.225622 5.39237e-21)
(1.19546 0.215932 1.3377e-20)
(1.18661 0.206551 0)
(1.17845 0.197506 -3.22696e-21)
(1.17088 0.188813 -3.08818e-21)
(1.1638 0.180459 -5.39881e-21)
(1.1571 0.172435 -4.76546e-21)
(1.15066 0.164868 0)
(1.14434 0.157817 3.43554e-21)
(-0.00194287 0.0220256 7.88731e-21)
(-0.00769211 0.0486348 -8.18056e-21)
(-0.0171686 0.0630863 -1.54855e-20)
(-0.0285594 0.0689385 0)
(-0.0408556 0.0689904 -2.06595e-20)
(-0.0535507 0.0653475 6.43686e-21)
(-0.0662916 0.05947 -1.23238e-20)
(-0.0788295 0.0522539 0)
(-0.0910013 0.0441472 0)
(-0.102699 0.0352799 0)
(-0.113849 0.0255847 0)
(-0.1244 0.014894 0)
(-0.134291 0.00300556 -1.5943e-22)
(-0.143451 -0.0102566 -8.04747e-21)
(-0.151827 -0.0250378 1.55151e-20)
(-0.159351 -0.0414179 2.17373e-20)
(-0.165935 -0.0594182 7.04906e-21)
(-0.171483 -0.0789839 0)
(-0.175907 -0.0999628 5.86306e-21)
(-0.179141 -0.122102 -1.68247e-20)
(-0.181153 -0.145049 -1.05674e-20)
(-0.181958 -0.168375 -9.83949e-21)
(-0.181701 -0.191594 0)
(-0.180772 -0.214202 0)
(-0.00350885 0.0254339 -2.38839e-20)
(-0.0107728 0.0569064 4.10614e-20)
(-0.0204321 0.074763 -1.5768e-20)
(-0.0312599 0.0829303 -2.96246e-20)
(-0.0425798 0.0844697 4.17045e-20)
(-0.0540639 0.0816934 -2.64472e-20)
(-0.0654625 0.0762309 3.71961e-20)
(-0.0765806 0.0691099 2.38798e-20)
(-0.0872768 0.0608757 0)
(-0.0974492 0.0517241 -2.08451e-20)
(-0.107022 0.0416283 -2.29175e-22)
(-0.115939 0.0304418 1.83633e-20)
(-0.124145 0.0179761 2.6822e-20)
(-0.13159 0.00403236 3.3658e-20)
(-0.138204 -0.0115567 -1.53463e-20)
(-0.143921 -0.0288997 -4.44201e-20)
(-0.14869 -0.0480234 1.44617e-20)
(-0.152426 -0.0688942 -5.36475e-20)
(-0.15504 -0.0913541 0)
(-0.156475 -0.115109 1.13059e-20)
(-0.156705 -0.139719 1.05536e-20)
(-0.155712 -0.164603 9.82649e-21)
(-0.153545 -0.189019 0)
(-0.150793 -0.212103 0)
(-0.00532671 0.0279853 0)
(-0.0143346 0.0634497 8.49288e-20)
(-0.0240513 0.0843862 -3.19734e-20)
(-0.0339439 0.0948405 3.00111e-20)
(-0.0437246 0.0979847 -8.60091e-20)
(-0.0532716 0.0962511 0)
(-0.0624572 0.0913921 -5.12525e-20)
(-0.0711506 0.0845504 2.43499e-20)
(-0.0792349 0.076369 -4.63661e-20)
(-0.0866094 0.0671211 2.25892e-20)
(-0.0931883 0.0568347 1.24081e-19)
(-0.0988985 0.0453967 -5.83385e-20)
(-0.103677 0.0326291 -9.20829e-20)
(-0.107467 0.0183371 -3.61016e-20)
(-0.110209 0.00234644 -5.06644e-22)
(-0.111812 -0.0154809 1.24991e-19)
(-0.112236 -0.0352208 -5.88781e-20)
(-0.111445 -0.0568484 -1.3174e-21)
(-0.109362 -0.0802248 0)
(-0.105953 -0.105059 -5.02974e-20)
(-0.101229 -0.130868 0)
(-0.0951446 -0.15693 -4.11635e-20)
(-0.0874658 -0.182229 1.58035e-19)
(-0.0788895 -0.20547 -1.33769e-21)
(-0.00722906 0.0294723 0)
(-0.0180746 0.0677631 8.12796e-22)
(-0.0277283 0.0912537 3.31222e-20)
(-0.0363739 0.103829 -3.13969e-20)
(-0.0441273 0.108604 2.86757e-20)
(-0.0510836 0.108029 1.66463e-19)
(-0.0572487 0.103919 -5.21569e-20)
(-0.0625649 0.097503 -5.00725e-20)
(-0.0669435 0.0895121 9.37969e-20)
(-0.0702821 0.0803006 -1.33325e-19)
(-0.0724766 0.0699619 4.24225e-20)
(-0.073427 0.0584292 4.06012e-20)
(-0.0730412 0.0455527 0)
(-0.0712349 0.0311531 3.54956e-20)
(-0.0679329 0.0150602 0)
(-0.0630707 -0.00286796 6.60181e-20)
(-0.0565864 -0.0227403 -1.23425e-19)
(-0.0484317 -0.0445358 2.7871e-20)
(-0.0386055 -0.0681476 1.09319e-19)
(-0.0271329 -0.0933232 5.02426e-20)
(-0.014119 -0.119607 0)
(0.000350249 -0.146245 -1.32195e-19)
(0.0167075 -0.171965 4.13264e-20)
(0.0357355 -0.194729 0)
(-0.00903694 0.0298072 0)
(-0.0216676 0.069558 -1.0603e-19)
(-0.0311611 0.0948793 -3.38337e-20)
(-0.0383409 0.10924 -6.32931e-20)
(-0.043695 0.115536 5.9597e-20)
(-0.0475268 0.116134 -5.58446e-20)
(-0.0499789 0.112845 1.07184e-19)
(-0.0510746 0.10694 5.08341e-20)
(-0.0507591 0.0992215 -1.42969e-19)
(-0.0489307 0.0901179 9.15321e-20)
(-0.0454638 0.0797917 -1.29339e-19)
(-0.0402247 0.0682323 2.89475e-19)
(-0.0330815 0.0553318 -1.55326e-19)
(-0.0239104 0.0409404 7.50387e-20)
(-0.0126047 0.0249067 2.13218e-19)
(0.000907652 0.00710315 -6.46068e-20)
(0.0166879 -0.0125351 -6.31275e-20)
(0.0347749 -0.0339954 -5.89644e-20)
(0.055111 -0.0571719 0)
(0.0775786 -0.0818286 -1.05933e-19)
(0.101936 -0.107568 -9.77509e-20)
(0.127883 -0.133725 1.38742e-19)
(0.155604 -0.158925 1.66025e-19)
(0.188683 -0.180445 -1.57095e-19)
(-0.0105949 0.0290388 0)
(-0.0248173 0.0688062 -1.45531e-19)
(-0.034072 0.0950624 -7.7657e-22)
(-0.0396608 0.110678 1.28725e-19)
(-0.0423671 0.118212 0)
(-0.0426739 0.119857 0)
(-0.0408544 0.117351 0)
(-0.0370162 0.111963 -5.15665e-20)
(-0.0311454 0.104534 -9.01371e-22)
(-0.0231473 0.0955523 9.22377e-20)
(-0.0128784 0.0852439 -1.3219e-19)
(-0.000172176 0.0736577 -7.33036e-22)
(0.0151421 0.0607358 0)
(0.033226 0.0463702 -7.49975e-20)
(0.054215 0.0304465 7.35557e-20)
(0.0782018 0.0128776 -2.04754e-19)
(0.105229 -0.0063548 2.59342e-19)
(0.135269 -0.0272043 6.27304e-20)
(0.168182 -0.0495185 2.35316e-22)
(0.203721 -0.0730177 -2.16509e-19)
(0.241435 -0.0972972 -1.00902e-19)
(0.281067 -0.121743 3.23974e-19)
(0.320451 -0.14552 -2.16033e-19)
(0.371791 -0.164334 0)
(-0.0118024 0.0273478 7.24075e-20)
(-0.0273032 0.0657467 7.31026e-20)
(-0.0362325 0.0919193 -7.00425e-20)
(-0.0401544 0.108071 -1.31084e-19)
(-0.0400444 0.116363 1.23423e-19)
(-0.0365197 0.118756 -1.16897e-19)
(-0.029964 0.116861 1.65394e-19)
(-0.0205639 0.111898 -5.17512e-20)
(-0.00834905 0.10471 9.85173e-20)
(0.00676346 0.0958248 0)
(0.0249298 0.0855178 9.07605e-20)
(0.0463415 0.073896 -1.69308e-19)
(0.0711962 0.0609564 1.62193e-19)
(0.0996753 0.0466461 -1.52333e-19)
(0.131915 0.0309028 0)
(0.167976 0.0136934 1.37877e-19)
(0.20782 -0.00495219 2.62736e-19)
(0.251276 -0.0249223 -2.4636e-19)
(0.298006 -0.045997 -1.15802e-19)
(0.347549 -0.067818 -1.08043e-19)
(0.398898 -0.0899968 3.03726e-19)
(0.452766 -0.111527 9.0739e-20)
(0.501378 -0.133306 -8.72012e-20)
(0.571232 -0.147811 7.58247e-20)
(-0.0126348 0.0250101 -7.24174e-20)
(-0.0290079 0.0608369 2.2555e-19)
(-0.0374611 0.0858608 -7.12753e-20)
(-0.0395999 0.10168 1.32915e-19)
(-0.0364804 0.110072 -1.25145e-19)
(-0.0287986 0.112747 3.36501e-22)
(-0.0170152 0.111155 5.58032e-20)
(-0.00137618 0.106431 2.12277e-19)
(0.0180547 0.0993919 1.57234e-21)
(0.041348 0.0905763 -9.36066e-20)
(0.0686705 0.0802938 0)
(0.100221 0.0687107 -8.64635e-20)
(0.136193 0.0558837 1.61076e-19)
(0.176733 0.0418205 1.54676e-19)
(0.221888 0.026523 -7.23998e-20)
(0.271572 0.0100277 -1.95143e-22)
(0.325515 -0.00756655 -6.53946e-20)
(0.383236 -0.0260747 1.22341e-19)
(0.443984 -0.0452238 1.15765e-19)
(0.506991 -0.0645388 -1.08087e-19)
(0.570163 -0.0839047 9.84403e-20)
(0.635963 -0.101318 -9.01855e-20)
(0.689808 -0.120411 0)
(0.771742 -0.129449 -7.57327e-20)
(-0.0131404 0.0223408 7.42288e-20)
(-0.0299033 0.0546612 -7.56284e-20)
(-0.0375791 0.077519 7.20499e-20)
(-0.0376413 0.0920757 0)
(-0.0311284 0.0998022 0)
(-0.0187564 0.10218 1.20256e-19)
(-0.00101737 0.100497 -1.12198e-19)
(0.0218186 0.0957821 1.06933e-19)
(0.0496759 0.0888052 -5.01481e-19)
(0.0826087 0.0800933 -5.53818e-22)
(0.120765 0.0700052 8.98785e-20)
(0.164317 0.058745 0)
(0.21335 0.0464243 -1.62626e-19)
(0.267831 0.0331198 3.06855e-19)
(0.327539 0.0189087 -2.17574e-19)
(0.392003 0.00389703 -3.44248e-19)
(0.46047 -0.0117555 -5.06921e-22)
(0.531898 -0.027814 2.40978e-19)
(0.604895 -0.0440096 0)
(0.67822 -0.0597649 0)
(0.748787 -0.0754061 -9.84297e-20)
(0.819844 -0.0880003 9.01765e-20)
(0.873878 -0.103655 -3.16032e-19)
(0.954725 -0.106882 2.96309e-19)
(-0.0134114 0.0196282 0)
(-0.0299888 0.0478121 0)
(-0.036321 0.0676339 -2.16914e-19)
(-0.0336626 0.0800575 6.89051e-20)
(-0.0229678 0.0863697 2.93323e-22)
(-0.00491948 0.0878818 1.2108e-19)
(0.0200067 0.0857382 0)
(0.05155 0.0808689 -1.06628e-19)
(0.0896264 0.0739937 1.00388e-19)
(0.134271 0.0656442 -1.90487e-19)
(0.18551 0.0561875 -5.56031e-22)
(0.243296 0.0458548 1.70754e-19)
(0.307418 0.0348254 1.22335e-21)
(0.377383 0.0232309 1.53774e-19)
(0.452372 0.0111913 -2.15498e-19)
(0.531209 -0.00116199 0)
(0.612371 -0.0136703 2.5397e-19)
(0.69405 -0.0261358 -3.58644e-19)
(0.774199 -0.038361 1.08637e-19)
(0.850975 -0.0498917 0)
(0.921368 -0.0611815 9.16934e-20)
(0.987342 -0.069478 3.3624e-19)
(1.0352 -0.0814203 -3.15578e-19)
(1.09948 -0.0803873 -3.38687e-19)
(-0.013529 0.0170712 2.28355e-19)
(-0.0291879 0.0407708 -3.13522e-19)
(-0.0332152 0.0569262 7.62836e-22)
(-0.0266654 0.0665522 6.96143e-20)
(-0.010384 0.070887 -1.29715e-19)
(0.0150145 0.071148 -1.20618e-19)
(0.0490971 0.0683817 2.27269e-19)
(0.0916057 0.0634506 -1.78093e-22)
(0.142391 0.0570314 -2.01081e-19)
(0.201293 0.0496334 3.80044e-19)
(0.268018 0.0416183 1.2051e-21)
(0.342001 0.0332516 -1.68752e-19)
(0.422321 0.0247118 0)
(0.507635 0.0161171 0)
(0.596175 0.00754688 -7.14205e-20)
(0.685811 -0.000942689 -1.31339e-19)
(0.774169 -0.00930005 -2.47258e-19)
(0.858774 -0.0174875 2.321e-19)
(0.93728 -0.0254125 -1.0869e-19)
(1.0076 -0.0330338 1.93646e-19)
(1.06795 -0.04035 -9.71307e-20)
(1.11855 -0.0463102 1.54205e-19)
(1.15352 -0.0548952 -3.71372e-19)
(1.1917 -0.0532658 6.76638e-20)
(-0.0134936 0.0147378 7.7065e-20)
(-0.0272251 0.0338218 0)
(-0.0274659 0.0459904 1.48595e-19)
(-0.0151894 0.0524996 -1.39977e-19)
(0.0088382 0.0546528 1.29835e-19)
(0.0440587 0.0536503 0)
(0.0900433 0.0504949 0)
(0.146416 0.0459946 -1.07479e-19)
(0.212733 0.0407768 -5.91584e-23)
(0.288327 0.0353141 9.47375e-20)
(0.372145 0.0299292 -8.93754e-20)
(0.46265 0.0248154 1.68025e-19)
(0.55779 0.020052 0)
(0.65506 0.0156246 2.96807e-19)
(0.751632 0.0114482 -5.56121e-19)
(0.844557 0.00739288 3.91907e-19)
(0.930995 0.00331892 2.39225e-19)
(1.00843 -0.000932089 -2.24573e-19)
(1.07496 -0.00537855 0)
(1.1292 -0.0103389 0)
(1.171 -0.0151578 0)
(1.2003 -0.0211911 0)
(1.21826 -0.0266179 7.13313e-20)
(1.23135 -0.0299057 -2.43351e-19)
(-0.179362 -0.239572 -5.66686e-21)
(-0.179224 -0.269345 5.70087e-21)
(-0.176359 -0.296307 -1.70472e-22)
(-0.171308 -0.318571 0)
(-0.16355 -0.334156 -4.90298e-21)
(-0.152499 -0.34079 9.50789e-21)
(-0.13751 -0.336157 9.79199e-24)
(-0.117856 -0.318009 -4.49038e-21)
(-0.0928398 -0.284359 0)
(-0.0619586 -0.233943 0)
(-0.024697 -0.166581 -2.50599e-22)
(0.0177164 -0.0835139 -2.44109e-22)
(0.0642635 0.0124825 -4.24372e-21)
(0.114352 0.117079 3.89646e-21)
(0.165431 0.222779 0)
(0.215735 0.32036 0)
(0.262646 0.402719 2.46338e-21)
(0.301916 0.464814 -3.38067e-22)
(0.328568 0.507147 -1.88744e-21)
(0.338212 0.535668 -9.50632e-23)
(0.330874 0.555881 0)
(0.315964 0.563301 0)
(0.311598 0.53994 0)
(0.333916 0.465165 0)
(0.384614 0.33274 0)
(0.453786 0.155288 0)
(0.53036 -0.0409579 6.21183e-22)
(0.604493 -0.221572 -1.03853e-21)
(0.666883 -0.35735 0)
(0.710018 -0.439426 0)
(0.73275 -0.474905 -3.51704e-22)
(0.742028 -0.47595 3.41818e-22)
(0.737056 -0.466345 1.29023e-22)
(0.705911 -0.472887 0)
(0.6505 -0.487449 0)
(0.600054 -0.456043 3.43167e-22)
(0.586715 -0.331313 -3.33583e-22)
(0.615289 -0.12885 0)
(0.665359 0.0882595 3.60012e-22)
(0.716731 0.260427 -5.03482e-22)
(0.761079 0.361379 1.22037e-22)
(0.792301 0.404323 0)
(0.79239 0.434862 -1.69762e-22)
(0.755539 0.465092 1.65079e-22)
(0.700749 0.45616 0)
(0.669215 0.347608 0)
(0.672272 0.151461 -1.08981e-22)
(0.709737 -0.0625748 3.25519e-22)
(0.755634 -0.224244 0)
(0.788912 -0.317894 0)
(0.779528 -0.388866 -4.88561e-23)
(0.743121 -0.40707 6.11071e-24)
(0.695873 -0.382375 -9.14074e-25)
(0.684582 -0.231096 3.17064e-23)
(0.689929 -0.0744323 0)
(0.725374 0.108715 0)
(0.738971 0.235932 0)
(0.722666 0.281048 0)
(0.681166 0.345213 0)
(0.687173 0.141538 0)
(-0.148645 -0.237176 -5.89237e-22)
(-0.1533 -0.268981 -2.31889e-20)
(-0.155594 -0.298283 9.44422e-22)
(-0.156917 -0.323007 2.08558e-20)
(-0.156943 -0.341386 3.02194e-22)
(-0.155077 -0.351273 0)
(-0.150624 -0.350445 -1.68155e-20)
(-0.142598 -0.33675 3.29159e-20)
(-0.129831 -0.308138 -1.60902e-20)
(-0.111153 -0.263086 1.52431e-20)
(-0.0854514 -0.200983 -1.45651e-20)
(-0.0524682 -0.122958 1.40993e-20)
(-0.0124288 -0.0307494 -1.36231e-20)
(0.0331763 0.0711587 -3.63111e-22)
(0.0813208 0.178214 -1.14648e-20)
(0.131064 0.277979 1.11416e-20)
(0.179882 0.366009 -8.72441e-21)
(0.22265 0.437278 8.24953e-21)
(0.254593 0.491543 -6.57077e-21)
(0.272938 0.531802 1.21785e-20)
(0.280692 0.558619 -5.64156e-21)
(0.289132 0.563421 -3.43606e-22)
(0.313777 0.529028 -6.39451e-21)
(0.363324 0.441189 1.34321e-20)
(0.433083 0.299493 -7.01408e-21)
(0.51291 0.117493 5.21134e-22)
(0.593699 -0.0794894 7.74327e-21)
(0.666108 -0.25665 -6.97804e-22)
(0.721734 -0.384392 -1.12563e-20)
(0.755581 -0.455699 8.71871e-21)
(0.767471 -0.48194 -3.70697e-21)
(0.765791 -0.476194 3.06276e-22)
(0.754437 -0.457858 -1.29275e-22)
(0.721791 -0.45372 2.17109e-22)
(0.663671 -0.463821 0)
(0.604194 -0.440678 0)
(0.577933 -0.332416 -1.35204e-21)
(0.596125 -0.143877 9.91391e-22)
(0.641499 0.0673861 9.62267e-22)
(0.694692 0.240244 -2.45909e-23)
(0.745025 0.34599 -1.15619e-21)
(0.781912 0.398033 1.89595e-22)
(0.784819 0.440216 0)
(0.750724 0.478733 0)
(0.700865 0.469369 0)
(0.676958 0.352983 0)
(0.684698 0.147082 5.26131e-22)
(0.722662 -0.0735123 -2.19738e-22)
(0.76645 -0.234934 0)
(0.798318 -0.321132 0)
(0.788514 -0.38322 0)
(0.749746 -0.397384 -7.04137e-23)
(0.704151 -0.375286 1.89018e-23)
(0.689363 -0.230852 -7.14097e-23)
(0.695209 -0.0787602 0)
(0.724845 0.103792 0)
(0.73494 0.236092 3.73816e-23)
(0.71769 0.286782 7.68272e-23)
(0.672062 0.349071 0)
(0.682354 0.140056 0)
(-0.0741206 -0.229191 -1.24787e-21)
(-0.0825237 -0.262335 -5.02667e-20)
(-0.0890874 -0.293424 4.52982e-20)
(-0.0959313 -0.320058 -4.23617e-20)
(-0.103204 -0.340719 -3.04243e-22)
(-0.110288 -0.353454 0)
(-0.11656 -0.356105 -3.16722e-20)
(-0.12093 -0.346881 3.09749e-20)
(-0.121923 -0.323721 2.3132e-22)
(-0.117864 -0.284946 3.65793e-22)
(-0.106949 -0.229532 3.39832e-22)
(-0.0878934 -0.157768 4.07074e-22)
(-0.0598787 -0.0712779 -2.16828e-20)
(-0.0220937 0.0254383 2.14375e-20)
(0.019312 0.131718 0)
(0.0637694 0.232798 4.71972e-22)
(0.11172 0.325879 -1.46499e-20)
(0.156558 0.405371 1.44654e-20)
(0.194545 0.469646 0)
(0.224559 0.518374 0)
(0.251125 0.548188 -1.13043e-20)
(0.284723 0.548657 2.33299e-20)
(0.336231 0.505295 -2.52895e-20)
(0.40781 0.40957 -1.88446e-21)
(0.491661 0.264377 3.17547e-20)
(0.5788 0.0824248 -3.451e-20)
(0.661671 -0.112313 3.18912e-20)
(0.73083 -0.284337 -2.99124e-21)
(0.778253 -0.404048 -1.32023e-20)
(0.801941 -0.465648 0)
(0.803425 -0.483866 0)
(0.791134 -0.473331 1.60981e-21)
(0.772999 -0.448685 -2.15882e-21)
(0.739426 -0.434605 -2.2065e-23)
(0.680519 -0.439073 1.70894e-21)
(0.613848 -0.423057 -1.66089e-21)
(0.57497 -0.331766 0)
(0.581823 -0.158729 3.24186e-22)
(0.621733 0.0448606 2.5361e-21)
(0.676201 0.217342 -4.52368e-21)
(0.731651 0.328084 1.84122e-21)
(0.773396 0.390054 1.67003e-22)
(0.778929 0.444329 -1.77396e-21)
(0.748072 0.491131 1.38948e-21)
(0.703891 0.481467 4.29311e-22)
(0.68785 0.358094 5.2496e-22)
(0.700405 0.143802 -5.27471e-22)
(0.738529 -0.0827 0)
(0.779407 -0.244369 0)
(0.80942 -0.323767 -1.12072e-21)
(0.799153 -0.377124 5.01812e-22)
(0.757809 -0.387692 -2.94846e-22)
(0.713811 -0.36853 3.55327e-22)
(0.69594 -0.230855 3.73035e-22)
(0.702156 -0.0829502 -1.21446e-22)
(0.725773 0.0995459 1.67373e-22)
(0.731909 0.236641 -1.38864e-22)
(0.713905 0.292864 4.28726e-23)
(0.664387 0.353001 0)
(0.67896 0.138342 0)
(0.0435038 -0.217701 -1.0784e-19)
(0.0329371 -0.250003 6.25395e-21)
(0.0234683 -0.281609 9.62801e-20)
(0.0124345 -0.309024 -6.67646e-22)
(-0.000953787 -0.330874 0)
(-0.0160418 -0.34554 0)
(-0.0325023 -0.350862 -5.82882e-20)
(-0.0492217 -0.345632 4.5243e-21)
(-0.064301 -0.327961 7.30126e-20)
(-0.075774 -0.295925 -1.97963e-21)
(-0.0813169 -0.248171 -2.0363e-20)
(-0.0788254 -0.184299 -1.69443e-20)
(-0.0672997 -0.105224 1.69271e-20)
(-0.0423312 -0.0143876 0)
(-0.0112174 0.0862767 -1.37866e-20)
(0.0242877 0.186566 1.25858e-20)
(0.0681656 0.282618 0)
(0.113509 0.368023 0)
(0.157606 0.439342 9.75002e-21)
(0.200205 0.493299 2.66812e-22)
(0.245742 0.523825 -9.14294e-21)
(0.302226 0.52022 -1.23641e-20)
(0.375599 0.471378 1.24682e-20)
(0.463335 0.373177 -1.68589e-20)
(0.556587 0.229626 -1.55044e-21)
(0.647982 0.0511872 1.74861e-20)
(0.731462 -0.139293 2.20264e-21)
(0.796824 -0.30521 -2.54047e-23)
(0.835506 -0.417193 0)
(0.848456 -0.470273 8.11147e-21)
(0.840005 -0.481425 -8.29953e-21)
(0.817834 -0.467505 3.06266e-22)
(0.79243 -0.439124 0)
(0.757933 -0.41644 -1.97454e-22)
(0.700164 -0.413766 2.8452e-21)
(0.62879 -0.402729 -5.64812e-21)
(0.578308 -0.328397 -9.80666e-22)
(0.573189 -0.17285 -3.54554e-22)
(0.606675 0.0210847 3.41206e-21)
(0.661522 0.192094 4.74871e-22)
(0.72097 0.307913 -2.93882e-21)
(0.766693 0.380358 2.49672e-21)
(0.77467 0.44691 8.45521e-24)
(0.74748 0.501912 1.65261e-21)
(0.709505 0.492272 -2.03752e-21)
(0.701307 0.363049 -3.99454e-21)
(0.718831 0.141958 1.02113e-21)
(0.757045 -0.089899 2.00114e-21)
(0.794408 -0.252486 -3.44891e-21)
(0.822047 -0.325944 2.06837e-21)
(0.811265 -0.370702 -2.97389e-22)
(0.767192 -0.377931 4.96167e-22)
(0.72445 -0.361994 2.58858e-22)
(0.703835 -0.231045 -4.47502e-22)
(0.710368 -0.0869768 -2.13176e-23)
(0.728006 0.0960032 -1.00708e-22)
(0.729898 0.237581 0)
(0.711185 0.29924 -5.6749e-23)
(0.658336 0.356967 9.62716e-23)
(0.677212 0.136419 0)
(0.197879 -0.203478 1.11501e-19)
(0.188389 -0.233982 -2.11688e-19)
(0.176664 -0.264313 9.91914e-20)
(0.163132 -0.290645 8.29209e-20)
(0.145457 -0.311882 -1.5397e-19)
(0.124309 -0.326776 8.52313e-21)
(0.0994954 -0.334104 6.14342e-20)
(0.0714247 -0.332258 4.563e-20)
(0.042859 -0.319449 -4.47006e-20)
(0.0161994 -0.293933 0)
(-0.00600283 -0.254154 -2.7937e-20)
(-0.0209839 -0.199122 5.14367e-20)
(-0.0273771 -0.129047 -2.37472e-20)
(-0.0191459 -0.0451412 0)
(-0.00197094 0.0445858 0)
(0.0221023 0.14144 3.38219e-22)
(0.0588418 0.237127 -1.56017e-20)
(0.102244 0.325116 1.51567e-20)
(0.15053 0.400181 0)
(0.203603 0.456774 1.6992e-20)
(0.264713 0.487119 -3.54175e-20)
(0.338816 0.48107 4.22165e-20)
(0.427624 0.430694 -5.20994e-20)
(0.525544 0.334844 -5.80141e-21)
(0.623932 0.196816 7.05877e-20)
(0.717546 0.0241482 -3.70638e-20)
(0.801007 -0.160294 -1.12999e-21)
(0.86234 -0.319059 -1.35695e-20)
(0.892144 -0.423324 2.88003e-21)
(0.894085 -0.469257 1.09367e-20)
(0.876191 -0.474752 4.23338e-22)
(0.845402 -0.458631 -4.20657e-21)
(0.81273 -0.428934 7.21828e-21)
(0.776938 -0.399807 -3.35941e-21)
(0.721786 -0.389209 0)
(0.648422 -0.380514 -2.84942e-21)
(0.588012 -0.322086 2.83491e-21)
(0.570801 -0.18556 -2.84488e-21)
(0.596902 -0.00317689 3.53781e-21)
(0.650848 0.1649 -3.27487e-22)
(0.712909 0.285628 0)
(0.761651 0.368785 -3.04017e-22)
(0.771932 0.447615 9.95041e-22)
(0.748775 0.510743 0)
(0.717285 0.501692 5.24495e-21)
(0.716693 0.367965 -1.8261e-21)
(0.739327 0.141366 1.25575e-21)
(0.777843 -0.0950413 1.22243e-21)
(0.81132 -0.259088 0)
(0.836001 -0.327592 0)
(0.824668 -0.363951 -1.11466e-21)
(0.777842 -0.368029 1.36943e-21)
(0.735743 -0.355624 -5.81471e-22)
(0.712603 -0.231409 1.02274e-22)
(0.719455 -0.0908512 1.86278e-22)
(0.731379 0.0931526 1.00804e-22)
(0.728902 0.238907 -1.26429e-22)
(0.709416 0.305835 0)
(0.65407 0.360898 -1.44455e-22)
(0.677236 0.134307 -2.81632e-23)
(0.378892 -0.187005 1.13939e-19)
(0.371313 -0.21667 -1.13164e-19)
(0.359545 -0.244531 7.68402e-22)
(0.345015 -0.268119 -6.78925e-22)
(0.325264 -0.286939 6.05117e-22)
(0.299976 -0.300193 -5.22016e-22)
(0.269286 -0.307372 8.40938e-22)
(0.233447 -0.306786 0)
(0.19423 -0.297127 -5.36385e-22)
(0.154211 -0.27723 4.09463e-22)
(0.116564 -0.245472 3.03742e-22)
(0.0847606 -0.200444 -3.36132e-22)
(0.0607113 -0.141785 0)
(0.0488252 -0.0688434 0)
(0.0497507 0.0104481 9.18825e-23)
(0.0622388 0.10075 0)
(0.0885933 0.192121 -7.91202e-23)
(0.126854 0.278887 0)
(0.175641 0.354441 -1.05067e-20)
(0.234675 0.411616 2.33467e-20)
(0.305643 0.441613 -2.97901e-20)
(0.390666 0.435044 1.67419e-20)
(0.488199 0.3865 2.80198e-20)
(0.590707 0.296642 -2.72044e-20)
(0.690661 0.167017 -3.82545e-20)
(0.785468 0.00198314 3.72451e-20)
(0.868845 -0.175202 0)
(0.925884 -0.326061 9.98812e-22)
(0.946932 -0.422702 0)
(0.938064 -0.46298 0)
(0.911241 -0.464482 1.08578e-20)
(0.873291 -0.44706 -1.13604e-20)
(0.833788 -0.417913 4.04224e-22)
(0.796 -0.384877 3.20938e-22)
(0.744395 -0.366323 -2.1492e-22)
(0.671813 -0.357165 -1.90954e-21)
(0.603734 -0.312713 1.85427e-21)
(0.574881 -0.1961 -2.7885e-21)
(0.592626 -0.0276667 2.37596e-21)
(0.644086 0.136154 5.88921e-22)
(0.707277 0.261343 -2.31619e-21)
(0.75807 0.355138 -4.78047e-22)
(0.770543 0.446054 1.75593e-21)
(0.75168 0.517405 0)
(0.726725 0.509745 -1.95068e-21)
(0.733253 0.372875 4.09938e-21)
(0.761182 0.14193 -5.15644e-21)
(0.800548 -0.0980666 -1.23018e-21)
(0.829992 -0.264004 0)
(0.851077 -0.328669 4.24023e-22)
(0.839118 -0.356928 -1.05595e-21)
(0.789695 -0.357893 -2.03758e-23)
(0.747441 -0.349281 -9.03979e-23)