/*--------------------------------*- C++ -*----------------------------------*\
| =========                 |                                                 |
| \\      /  F ield         | OpenFOAM: The Open Source CFD Toolbox           |
|  \\    /   O peration     | Version:  2512                                  |
|   \\  /    A nd           | Website:  www.openfoam.com                      |
|    \\/     M anipulation  |                                                 |
\*---------------------------------------------------------------------------*/
FoamFile
{
    version     2.0;
    format      ascii;
    arch        "LSB;label=32;scalar=64";
    class       surfaceScalarField;
    location    "102.25";
    object      phi;
}
// * * * * * * * * * * * * * * * * * * * * * * * * * * * * * * * * * * * * * //

dimensions      [0 3 -1 0 0 0 0];

oriented        oriented;

internalField   nonuniform List<scalar> 
26232
(
9.81014e-05
0.00083398
-0.000932081
0.000486646
0.00129154
-0.00168008
0.00129658
0.000729911
-0.00153984
0.00267731
-0.000762383
-0.000618353
0.00478769
-0.00313319
0.00102281
0.00778558
-0.00635014
0.00335224
0.0118146
-0.0103855
0.00635645
0.0169881
-0.0151992
0.0100258
0.0233718
-0.0207239
0.0143401
0.0309694
-0.0268551
0.0192576
0.0397124
-0.0334505
0.0247074
0.0494602
-0.0403363
0.0305886
0.0600077
-0.0473215
0.036774
0.0711035
-0.0542144
0.0431186
0.082472
-0.0608402
0.0494717
0.0938398
-0.0670563
0.0556884
0.10496
-0.0727618
0.0616419
0.115631
-0.0779033
0.0672323
0.125712
-0.0824725
0.0723911
0.13513
-0.0865082
0.0770902
0.143868
-0.090062
0.0813241
0.151981
-0.0932649
0.0851517
0.159478
-0.0960963
0.0886
-0.0989083
0.0920509
0.166335
0.000159523
0.000674457
0.000764635
0.000686428
0.00196976
-0.000475209
0.0039412
-0.00273383
0.00684725
-0.00603924
0.0108419
-0.0103448
0.0160432
-0.0155868
0.02251
-0.021666
0.0302219
-0.0284358
0.0390683
-0.0357015
0.0488502
-0.0432324
0.0592966
-0.0507828
0.0700924
-0.0581173
0.0809122
-0.0650342
0.0914556
-0.0713837
0.101477
-0.0770777
0.110807
-0.0820914
0.11936
-0.0864569
0.127139
-0.090251
0.134213
-0.093582
0.140715
-0.0965643
0.146794
-0.0993443
0.152637
-0.101939
-0.104724
0.158453
0.000225676
0.000448781
0.00106549
-0.000153391
0.00270028
-0.00211
0.00531071
-0.00534425
0.00906275
-0.00979129
0.0140818
-0.0153638
0.0204226
-0.0219275
0.0280428
-0.0292862
0.03679
-0.0371831
0.0464079
-0.0453194
0.0565622
-0.0533866
0.0668816
-0.0611021
0.0770047
-0.0682404
0.0866237
-0.0746532
0.0955171
-0.0802771
0.103567
-0.0851275
0.110759
-0.0892834
0.117169
-0.0928668
0.122937
-0.0960191
0.128238
-0.098883
0.133256
-0.101582
0.138145
-0.104233
0.143064
-0.106858
-0.109708
0.148047
0.000305454
0.000143327
0.00141259
-0.00126053
0.00352275
-0.00422016
0.0068186
-0.0086401
0.0114391
-0.0144117
0.0174426
-0.0213674
0.0247734
-0.0292583
0.0332445
-0.0377574
0.0425479
-0.0464864
0.0522917
-0.0550632
0.0620565
-0.0631514
0.0714555
-0.0705011
0.0801859
-0.0769708
0.0880607
-0.082528
0.0950175
-0.0872339
0.101106
-0.0912157
0.106458
-0.0946355
0.111253
-0.0976617
0.11568
-0.100447
0.119914
-0.103116
0.124092
-0.105761
0.128311
-0.108452
0.132648
-0.111195
-0.114163
0.137103
0.000404322
-0.000260995
0.00181768
-0.00267388
0.00444625
-0.00684873
0.00845014
-0.012644
0.0139037
-0.0198653
0.020752
-0.0282157
0.0287869
-0.0372933
0.0376583
-0.0466287
0.0469227
-0.0557508
0.0561161
-0.0642566
0.0648291
-0.0718644
0.0727648
-0.0784368
0.0797679
-0.0839738
0.0858226
-0.0885827
0.0910256
-0.0924369
0.0955447
-0.0957348
0.0995748
-0.0986656
0.103302
-0.101389
0.106882
-0.104026
0.110428
-0.106662
0.114017
-0.10935
0.117692
-0.112127
0.121487
-0.114991
-0.118053
0.125378
0.00052318
-0.000784175
0.0022771
-0.0044278
0.00544703
-0.0100187
0.0101346
-0.0173316
0.0163044
-0.0260351
0.0237468
-0.0356581
0.0320842
-0.0456306
0.0408279
-0.0553725
0.049469
-0.0643919
0.0575697
-0.0723574
0.0648304
-0.0791251
0.0711156
-0.084722
0.0764413
-0.0892996
0.0809351
-0.0930765
0.0847842
-0.096286
0.088188
-0.0991386
0.0913244
-0.101802
0.0943328
-0.104397
0.0973112
-0.107005
0.100323
-0.109674
0.103404
-0.112432
0.106575
-0.115297
0.109851
-0.118267
-0.121404
0.113202
0.00065861
-0.00144278
0.00277223
-0.00654142
0.00647098
-0.0137174
0.0117552
-0.0226157
0.0184378
-0.0327177
0.0261346
-0.0433549
0.0343215
-0.0538175
0.0424411
-0.0634921
0.0500153
-0.0719661
0.0567247
-0.0790668
0.0624356
-0.0848361
0.0671791
-0.0894655
0.0710991
-0.0932197
0.0743933
-0.0963706
0.0772619
-0.0991546
0.0798763
-0.101753
0.0823657
-0.104291
0.0848181
-0.10685
0.0872887
-0.109475
0.0898099
-0.112195
0.0923988
-0.115021
0.0950626
-0.11796
0.0978079
-0.121013
-0.124204
0.100607
0.000803895
-0.00224668
0.00327323
-0.00901076
0.00744362
-0.0178878
0.0131723
-0.0283444
0.0200953
-0.0396408
0.0276693
-0.0509289
0.0352865
-0.0614347
0.0424122
-0.0706178
0.0486843
-0.0782382
0.0539484
-0.0843308
0.0582321
-0.0891198
0.0616848
-0.0929181
0.0645093
-0.0960442
0.0669079
-0.0987692
0.0690493
-0.101296
0.0710581
-0.103762
0.073017
-0.10625
0.074977
-0.10881
0.0769675
-0.111466
0.0790043
-0.114232
0.0810953
-0.117112
0.083243
-0.120108
0.0854493
-0.123219
-0.126448
0.0876936
0.000950104
-0.00319678
0.00374376
-0.0118044
0.00828283
-0.0224269
0.0142508
-0.0343124
0.0211101
-0.0465001
0.0282087
-0.0580274
0.0349392
-0.0681653
0.0408702
-0.0765487
0.0457988
-0.0831669
0.0497292
-0.0882612
0.0528042
-0.0921948
0.0552292
-0.0953431
0.05721
-0.0980251
0.058918
-0.100477
0.0604776
-0.102856
0.0619703
-0.105254
0.0634454
-0.107725
0.0649307
-0.110295
0.0664416
-0.112977
0.0679862
-0.115776
0.069568
-0.118694
0.071188
-0.121728
0.0728454
-0.124876
-0.12813
0.0745271
0.00108683
-0.00428361
0.00414554
-0.0148631
0.00891168
-0.027193
0.0148848
-0.0402855
0.0213877
-0.0530029
0.0277326
-0.0643723
0.0333906
-0.0738233
0.0380785
-0.0812366
0.041751
-0.0868394
0.0445303
-0.0910404
0.046619
-0.0942836
0.048229
-0.096953
0.0495381
-0.0993342
0.0506759
-0.101615
0.0517264
-0.103906
0.0527395
-0.106268
0.0537431
-0.108729
0.0547526
-0.111305
0.0557763
-0.114001
0.0568186
-0.116818
0.0578811
-0.119756
0.0589638
-0.122811
0.0600646
-0.125977
-0.129242
0.0611772
0.00120367
-0.00548729
0.00444414
-0.0181036
0.00927065
-0.0320195
0.0150135
-0.0460284
0.0209139
-0.0589033
0.0263236
-0.0697821
0.0308431
-0.0783428
0.0343446
-0.0847381
0.0369079
-0.0894026
0.0387241
-0.0928566
0.0400102
-0.0955696
0.0409549
-0.0978978
0.0416977
-0.100077
0.042329
-0.102246
0.0429023
-0.104479
0.043447
-0.106812
0.0439788
-0.109261
0.0445066
-0.111832
0.0450353
-0.114529
0.0455676
-0.117351
0.0461041
-0.120293
0.0466439
-0.123351
0.0471838
-0.126517
-0.12978
0.0477214
0.00129407
-0.00678136
0.00461627
-0.0214258
0.00932682
-0.0367301
0.0146265
-0.0513281
0.0197448
-0.0640216
0.0241318
-0.0741691
0.0275361
-0.0817471
0.0299632
-0.0871652
0.0315752
-0.0910146
0.0325891
-0.0938706
0.0332069
-0.0961874
0.0335825
-0.0982734
0.0338177
-0.100312
0.0339727
-0.102401
0.03408
-0.104587
0.0341567
-0.106889
0.034212
-0.109316
0.0342513
-0.111872
0.034278
-0.114556
0.0342941
-0.117367
0.0343003
-0.120299
0.0342956
-0.123346
0.0342762
-0.126498
0.0342421
-0.129746
-0.000221698
-0.00190326
0.00212496
-0.000800187
-0.00493628
0.00551477
-0.00168469
-0.0073859
0.0082704
-0.00283021
-0.00931406
0.0104596
-0.0041932
-0.0108069
0.0121699
-0.00573243
-0.0119702
0.0135094
-0.00741088
-0.0129109
0.0145893
-0.00919709
-0.0137203
0.0155065
-0.0110654
-0.0144641
0.0163324
-0.0129949
-0.0151792
0.0171087
-0.0149675
-0.0158757
0.0178484
-0.0169659
-0.016541
0.0185394
-0.0189709
-0.0171455
0.0191505
-0.0209595
-0.0176469
0.0196355
-0.0229034
-0.0179932
0.0199371
-0.0247676
-0.0181247
0.0199889
-0.0265101
-0.0179749
0.0197174
-0.0280819
-0.0174719
0.0190437
-0.0294281
-0.0165398
0.017886
-0.0304905
-0.0151017
0.0161641
-0.031212
-0.0130847
0.0138061
-0.0315422
-0.010418
0.0107482
-0.0314625
-0.00701069
0.00693099
-0.00277785
-0.0310171
0.00233242
-0.000307175
-0.00159608
-0.00107288
-0.00417058
-0.00220308
-0.00625569
-0.00362417
-0.00789297
-0.00527538
-0.00915568
-0.00710725
-0.0101383
-0.00908099
-0.0109372
-0.0111674
-0.0116339
-0.0133448
-0.0122866
-0.015597
-0.0129271
-0.01791
-0.0135627
-0.0202695
-0.0141814
-0.0226588
-0.0147562
-0.0250565
-0.0152492
-0.0274351
-0.0156146
-0.02976
-0.0157998
-0.0319886
-0.0157463
-0.0340708
-0.0153897
-0.0359502
-0.0146604
-0.0375678
-0.0134841
-0.0388684
-0.011784
-0.0398038
-0.00948259
-0.0403337
-0.00648078
-0.00266265
-0.0404489
-0.000370937
-0.00122515
-0.00127202
-0.00326949
-0.00257306
-0.00495465
-0.00417616
-0.00628988
-0.00600556
-0.00732628
-0.00800388
-0.00814002
-0.010129
-0.008812
-0.0123509
-0.00941199
-0.0146479
-0.00998965
-0.0170031
-0.0105719
-0.0194011
-0.0111647
-0.0218253
-0.0117572
-0.0242558
-0.0123257
-0.0266675
-0.0128375
-0.0290292
-0.013253
-0.0313021
-0.0135269
-0.0334399
-0.0136085
-0.0353875
-0.0134422
-0.0370818
-0.012966
-0.0384565
-0.0121095
-0.0394471
-0.0107934
-0.0399975
-0.00893219
-0.0400466
-0.00643168
-0.00312767
-0.0395816
-0.000407618
-0.000817528
-0.00138327
-0.00229384
-0.00277134
-0.00356659
-0.00445573
-0.00460548
-0.00634866
-0.00543336
-0.00838514
-0.00610354
-0.0105182
-0.00667893
-0.012714
-0.00721623
-0.0149468
-0.00775684
-0.017195
-0.00832373
-0.0194372
-0.00892248
-0.0216499
-0.00954449
-0.0238052
-0.0101704
-0.02587
-0.0107727
-0.0278047
-0.0113183
-0.0295625
-0.011769
-0.0310886
-0.0120825
-0.0323183
-0.0122124
-0.0331766
-0.0121077
-0.0335769
-0.0117092
-0.0334281
-0.0109422
-0.032646
-0.00971437
-0.0311443
-0.00793335
-0.00542036
-0.0288516
-0.000415012
-0.000402516
-0.00140075
-0.0013081
-0.00278882
-0.00217852
-0.00445197
-0.00294233
-0.00629345
-0.00359188
-0.00824108
-0.00415592
-0.0102415
-0.00467851
-0.0122544
-0.00520336
-0.0142469
-0.00576428
-0.0161894
-0.00638127
-0.0180513
-0.00706059
-0.019799
-0.00779677
-0.0213943
-0.00857505
-0.0227934
-0.00937359
-0.0239468
-0.010165
-0.0247982
-0.0109176
-0.0252846
-0.0115961
-0.0253344
-0.0121626
-0.0248654
-0.0125768
-0.02378
-0.0127946
-0.0219607
-0.0127615
-0.0192786
-0.0123965
-0.0156228
-0.0115891
-0.0101382
-0.010905
-0.000393602
-8.91369e-06
-0.00132603
-0.00037567
-0.00262843
-0.000876118
-0.0041691
-0.00140166
-0.00584505
-0.00191592
-0.00757685
-0.00242411
-0.00930297
-0.00295238
-0.0109739
-0.00353247
-0.0125465
-0.00419166
-0.0139797
-0.00494804
-0.0152311
-0.00580927
-0.0162544
-0.00677343
-0.016999
-0.00783043
-0.0174093
-0.00896332
-0.0174248
-0.0101495
-0.0169805
-0.0113618
-0.016007
-0.0125696
-0.0144296
-0.0137399
-0.0121669
-0.0148395
-0.00912531
-0.0158361
-0.00518872
-0.0166981
-0.000202795
-0.0173824
0.00599055
-0.0177825
-0.0178218
0.0136742
-0.00034662
0.000337706
-0.00116765
0.000445357
-0.00230405
0.000260287
-0.00362496
-8.07518e-05
-0.00502283
-0.000518051
-0.00641012
-0.00103682
-0.00771471
-0.0016478
-0.00887434
-0.00237283
-0.00983175
-0.00323425
-0.0105306
-0.00424917
-0.0109128
-0.00542713
-0.0109167
-0.00676954
-0.0104771
-0.00826997
-0.00952582
-0.00991461
-0.00799231
-0.011683
-0.0058051
-0.013549
-0.00289276
-0.0154819
0.000815482
-0.0174481
0.00538971
-0.0194138
0.0109007
-0.0213471
0.0174231
-0.0232205
0.0250715
-0.0250308
0.0338926
-0.0266035
-0.0285639
0.0446347
-0.000279321
0.000617027
-0.000940542
0.00110658
-0.00184085
0.0011606
-0.00285266
0.000931061
-0.00386437
0.000493658
-0.00477877
-0.000122422
-0.00551052
-0.000916051
-0.00598071
-0.00190265
-0.00611391
-0.00310105
-0.00583498
-0.0045281
-0.00506747
-0.00619463
-0.00373335
-0.00810367
-0.00175405
-0.0102493
0.000947712
-0.0126164
0.00444574
-0.0151811
0.00880821
-0.0179115
0.0140959
-0.0207696
0.0203612
-0.0237134
0.0276475
-0.0267001
0.0359907
-0.0296904
0.0454082
-0.032638
0.05597
-0.0355926
0.0675346
-0.0381682
-0.0418365
0.0808073
-0.000199551
0.000816578
-0.00066616
0.00157319
-0.00127425
0.00176869
-0.0019005
0.00155731
-0.0024286
0.00102176
-0.00274984
0.000198813
-0.00276267
-0.000903222
-0.00236941
-0.0022959
-0.00147472
-0.00399573
1.5431e-05
-0.00601826
0.00219341
-0.00837261
0.00514769
-0.0110579
0.00896006
-0.0140616
0.0137019
-0.0173583
0.019431
-0.0209101
0.0261885
-0.024669
0.0339978
-0.0285789
0.0428641
-0.0325798
0.0527757
-0.0366117
0.0637073
-0.040622
0.0756134
-0.0445441
0.0884755
-0.0484547
0.102112
-0.0518045
-0.0565549
0.11683
-0.000115843
0.00093242
-0.000368678
0.00182602
-0.000646687
0.0020467
-0.000828662
0.00173928
-0.000791892
0.000984991
-0.000415518
-0.000177561
0.000419734
-0.00173847
0.00182954
-0.00370571
0.00392607
-0.00609226
0.00681564
-0.00890783
0.0105949
-0.0121519
0.0153459
-0.015809
0.0211308
-0.0198465
0.0279866
-0.0242141
0.0359226
-0.0288461
0.0449185
-0.0336649
0.0549258
-0.0385862
0.0658715
-0.0435255
0.0776633
-0.0484034
0.0901936
-0.0531523
0.103356
-0.0577062
0.117013
-0.0621122
0.131129
-0.0659203
-0.0708569
0.145431
-3.58698e-05
0.00096829
-7.02293e-05
0.00186038
2.59583e-06
0.00197387
0.000305621
0.00143626
0.000970116
0.000320496
0.00213021
-0.00133766
0.00391979
-0.00352805
0.00646769
-0.00625362
0.00989313
-0.0095177
0.0142987
-0.0133134
0.0197628
-0.0176159
0.0263315
-0.0223777
0.0340128
-0.0275278
0.0427728
-0.0329741
0.052536
-0.0386093
0.0631895
-0.0443184
0.0745906
-0.0499873
0.0865769
-0.0555118
0.0989775
-0.060804
0.111624
-0.0657991
0.124372
-0.0704541
0.137042
-0.0747821
0.149723
-0.0786016
-0.0828084
0.161675
3.62093e-05
0.000216508
0.000650539
0.00146844
0.00281176
0.00482634
0.00765474
0.0114269
0.0162493
0.0221935
0.029285
0.0374959
0.0467421
0.0568866
0.067749
0.079119
0.0907736
0.102494
0.114081
0.125372
0.136242
0.146612
0.15661
0.165853
-0.0281299
0.00192695
-0.00481414
-0.0247102
0.0127759
-0.0161956
-0.0207326
0.0254869
-0.0294645
-0.0162929
0.0396995
-0.0441391
-0.0115213
0.0549199
-0.0596916
-0.00665939
0.0704926
-0.0753545
-0.00190449
0.0856803
-0.0904352
0.00258256
0.0997641
-0.104251
0.00698898
0.111732
-0.116139
0.0119431
0.120473
-0.125427
0.0182573
0.124754
-0.131068
0.0268019
0.122735
-0.13128
0.0379696
0.112678
-0.123846
0.0513505
0.0935628
-0.106944
0.0658644
0.0655253
-0.0800391
0.0805368
0.0294605
-0.0441329
0.0945762
-0.0127731
-0.00126632
0.107668
-0.0583202
0.0452285
0.119081
-0.101341
0.089928
0.127927
-0.135274
0.126427
0.133545
-0.156717
0.151099
0.13603
-0.166879
0.164394
0.136139
-0.169184
0.169076
0.13415
-0.167342
0.169331
0.12936
-0.166608
0.171398
0.121723
-0.17147
0.179107
0.113701
-0.177933
0.185955
0.109381
-0.170175
0.174495
0.111305
-0.132195
0.130272
0.118913
-0.0634934
0.0558854
0.129458
0.0187594
-0.0293046
0.139825
0.0939623
-0.10433
0.147972
0.149328
-0.157474
0.153387
0.181296
-0.186711
0.155691
0.196739
-0.199042
0.153786
0.208093
-0.206187
0.147531
0.227525
-0.221271
0.139508
0.240528
-0.232505
0.133898
0.222292
-0.216682
0.133179
0.15094
-0.15022
0.13728
0.0445526
-0.0486536
0.143899
-0.0646793
0.0580602
0.15065
-0.149946
0.143195
0.154438
-0.196031
0.192243
0.152649
-0.229334
0.231123
0.14555
-0.242561
0.249661
0.137605
-0.257968
0.265912
0.133806
-0.208625
0.212425
0.136646
-0.124026
0.121186
0.14323
-0.00430237
-0.00228214
0.14816
0.11491
-0.11984
0.147592
0.182687
-0.182118
0.143116
0.288005
-0.283529
0.139456
0.266154
-0.262494
0.14011
0.260949
-0.261603
0.142674
0.132686
-0.13525
0.143603
-0.0276151
0.0266858
0.142422
-0.0973688
0.0985494
0.140516
-0.336529
0.338435
-0.227436
0.22888
-0.0378057
-0.000716274
-0.0343699
0.0093401
-0.0301229
0.0212399
-0.0250826
0.0346592
-0.0193162
0.0491535
-0.0129773
0.0641537
-0.00609767
0.0788007
0.00108828
0.0925782
0.00920587
0.103615
0.0183105
0.111368
0.0289009
0.114164
0.04125
0.110386
0.0551483
0.0987802
0.0698286
0.0788825
0.0842698
0.0510841
0.0976867
0.0160436
0.109777
-0.0248637
0.120349
-0.0688923
0.128873
-0.109865
0.134716
-0.141116
0.137561
-0.159562
0.13768
-0.166997
0.135918
-0.167423
0.132755
-0.164179
0.127395
-0.161247
0.119134
-0.163209
0.109849
-0.168648
0.103929
-0.164255
0.104886
-0.133153
0.112619
-0.0712266
0.12427
0.00710897
0.136237
0.0819945
0.146237
0.139328
0.153429
0.174103
0.157089
0.193079
0.15618
0.209002
0.150886
0.23282
0.143817
0.247597
0.138722
0.227387
0.137706
0.151956
0.140749
0.0415092
0.145845
-0.0697747
0.151146
-0.155247
0.153999
-0.198885
0.151806
-0.227141
0.144479
-0.235234
0.13637
-0.249858
0.132704
-0.204959
0.1359
-0.127222
0.142947
-0.0113495
0.148068
0.109788
0.147702
0.183053
0.143303
0.292403
0.139546
0.269911
0.140301
0.260195
0.143125
0.129862
0.144353
-0.0288429
0.143235
-0.0962511
0.141308
-0.334602
-0.225995
-0.0371215
-0.00317634
-0.033755
0.00597363
-0.0293814
0.0168662
-0.0239418
0.0292196
-0.0173107
0.0425224
-0.00970519
0.0565482
-0.00115788
0.0702534
0.00910557
0.0823147
0.020156
0.0925642
0.0323076
0.0992168
0.0456552
0.100816
0.0600335
0.0960079
0.0749149
0.0838988
0.0894665
0.0643309
0.102807
0.0377436
0.114405
0.00444565
0.124239
-0.0346978
0.132195
-0.0768479
0.137823
-0.115494
0.140723
-0.144016
0.14095
-0.159789
0.138979
-0.165027
0.135632
-0.164075
0.131508
-0.160055
0.125892
-0.155632
0.11751
-0.154827
0.107378
-0.158516
0.0998554
-0.156732
0.0994108
-0.132708
0.10677
-0.0785859
0.119125
-0.00524604
0.132466
0.0686536
0.144251
0.127543
0.153219
0.165136
0.158321
0.187977
0.15862
0.208702
0.154529
0.236911
0.14851
0.253615
0.143849
0.232049
0.142402
0.153403
0.144279
0.0396323
0.147805
-0.0733014
0.151606
-0.159048
0.153541
-0.20082
0.151053
-0.224653
0.143644
-0.227825
0.135434
-0.241648
0.131855
-0.20138
0.135293
-0.13066
0.142733
-0.0187897
0.14806
0.104462
0.147948
0.183165
0.143635
0.296716
0.139748
0.273798
0.140595
0.259347
0.143713
0.126744
0.145259
-0.0303886
0.144195
-0.0951874
0.142226
-0.332633
-0.22456
-0.026692
-0.00533596
-0.0232546
0.00253622
-0.0187281
0.0123398
-0.0131512
0.0236427
-0.00615722
0.0355284
0.00270091
0.0476901
0.0132076
0.0597467
0.0246912
0.0708311
0.0373766
0.0798787
0.0511078
0.0854857
0.0656257
0.0862981
0.0804809
0.0811527
0.095026
0.0693538
0.108485
0.0508715
0.120174
0.0260547
0.129768
-0.00514828
0.1374
-0.0423298
0.142884
-0.082332
0.145779
-0.118388
0.145899
-0.144136
0.143693
-0.157583
0.139896
-0.16123
0.135234
-0.159414
0.130301
-0.155122
0.12462
-0.14995
0.116613
-0.146821
0.106255
-0.148158
0.0973183
-0.147796
0.0950769
-0.130467
0.101453
-0.0849623
0.113994
-0.0177863
0.128478
0.0541692
0.141941
0.11408
0.152658
0.154419
0.159292
0.181342
0.161011
0.206983
0.158332
0.23959
0.153429
0.258518
0.149138
0.236339
0.1471
0.155441
0.147802
0.0389304
0.149741
-0.0752402
0.152025
-0.161332
0.153042
-0.201837
0.150339
-0.22195
0.142977
-0.220464
0.134727
-0.233398
0.131187
-0.197839
0.134765
-0.134239
0.142546
-0.0265701
0.148115
0.0988922
0.148327
0.182954
0.144129
0.300914
0.140091
0.277835
0.14101
0.258428
0.144437
0.123318
0.146316
-0.032268
0.1453
-0.0941711
0.143262
-0.330596
-0.223133
-0.00896228
-0.00727868
-0.00561331
-0.000812759
-0.0013754
0.00810189
0.00497468
0.0172926
0.0128167
0.0276864
0.0220745
0.0384322
0.0326974
0.0491239
0.0446191
0.0589094
0.0577147
0.0667831
0.0716853
0.071515
0.086083
0.0719004
0.100318
0.0669173
0.113721
0.0559513
0.125632
0.0389602
0.13555
0.0161366
0.143386
-0.0129837
0.149049
-0.0479927
0.152221
-0.0855044
0.152494
-0.118661
0.150003
-0.141646
0.145604
-0.153184
0.140272
-0.155898
0.134617
-0.153759
0.12907
-0.149575
0.123419
-0.144299
0.116123
-0.139525
0.106206
-0.138241
0.0963449
-0.137934
0.0921115
-0.126233
0.0968857
-0.0897365
0.108968
-0.0298685
0.124268
0.0388694
0.139216
0.099132
0.151611
0.142023
0.159858
0.173096
0.163191
0.203649
0.162112
0.24067
0.158402
0.262229
0.154402
0.240339
0.151738
0.158105
0.151175
0.0394929
0.1516
-0.0756648
0.152375
-0.162107
0.152472
-0.201933
0.149619
-0.219097
0.142416
-0.213262
0.134177
-0.225158
0.130623
-0.194285
0.134253
-0.137869
0.142338
-0.0346551
0.148207
0.0930236
0.148827
0.182334
0.144796
0.304945
0.140603
0.282028
0.141558
0.257473
0.145293
0.119583
0.147516
-0.0344908
0.146543
-0.0931979
0.144411
-0.328464
-0.221716
0.0153889
-0.00899339
0.0180011
-0.00342496
0.0224094
0.00369361
0.0279512
0.0117508
0.0351327
0.0205049
0.0438824
0.0296825
0.0540943
0.038912
0.0656128
0.0473909
0.0782093
0.0541866
0.0914936
0.0582308
0.104935
0.0584587
0.11791
0.0539421
0.129797
0.0440649
0.140088
0.0286692
0.148437
0.00778707
0.154801
-0.0193472
0.158786
-0.0519781
0.159834
-0.086552
0.157666
-0.116493
0.152846
-0.136825
0.146582
-0.14692
0.140013
-0.149329
0.133659
-0.147404
0.1277
-0.143616
0.122099
-0.138697
0.11567
-0.133096
0.1068
-0.129371
0.0967406
-0.127875
0.0906494
-0.120142
0.0932644
-0.0923516
0.10423
-0.0408343
0.119848
0.0232518
0.135977
0.0830028
0.149919
0.128081
0.159827
0.163189
0.164944
0.198532
0.165639
0.239974
0.163207
0.26466
0.15949
0.244056
0.156147
0.161447
0.154332
0.041308
0.153321
-0.0746537
0.152624
-0.16141
0.151793
-0.201102
0.148839
-0.216143
0.141894
-0.206317
0.133705
-0.216969
0.130088
-0.190669
0.133686
-0.141466
0.142052
-0.0430218
0.148295
0.0867809
0.14943
0.181198
0.145641
0.308735
0.141304
0.286365
0.142252
0.256525
0.146275
0.11556
0.148848
-0.0370636
0.147915
-0.0922646
0.145661
-0.326211
-0.22031
0.0445689
-0.00892764
0.0455736
-0.00442959
0.04838
0.000887135
0.05256
0.0075708
0.0584553
0.0146096
0.066002
0.0221358
0.0750934
0.0298206
0.0855302
0.0369541
0.0969989
0.0427179
0.109057
0.0461727
0.121152
0.0463635
0.132674
0.0424199
0.143057
0.0336828
0.151869
0.0198562
0.159045
0.000611866
0.164071
-0.0243736
0.166454
-0.0543609
0.165464
-0.0855626
0.161074
-0.112103
0.154274
-0.130025
0.146532
-0.139178
0.139038
-0.141835
0.132241
-0.140606
0.126083
-0.137459
0.120532
-0.133146
0.11491
-0.127475
0.107479
-0.12194
0.0980625
-0.118458
0.0906501
-0.11273
0.0908
-0.0925014
0.0999912
-0.0500256
0.115273
0.00796994
0.132156
0.0661203
0.147435
0.112802
0.158998
0.151626
0.16603
0.191501
0.168666
0.237339
0.167632
0.265694
0.164255
0.247433
0.160161
0.165542
0.157201
0.0442678
0.154835
-0.0722876
0.152736
-0.159311
0.150965
-0.199331
0.147947
-0.213125
0.141347
-0.199717
0.133242
-0.208864
0.129507
-0.186934
0.132989
-0.144948
0.141624
-0.0516567
0.14833
0.0800747
0.150103
0.179426
0.146657
0.312181
0.142206
0.290815
0.143099
0.255632
0.147376
0.111283
0.1503
-0.039988
0.149403
-0.0913678
0.147002
-0.32381
-0.218917
0.078445
-0.00656542
0.0773348
-0.00331938
0.0778082
0.000413808
0.0798155
0.0055635
0.0834869
0.0109382
0.0889116
0.0167111
0.096019
0.0227131
0.104597
0.0283759
0.114301
0.033014
0.124672
0.0358016
0.135158
0.0358781
0.145161
0.0324171
0.154141
0.0247021
0.161634
0.0123635
0.167639
-0.00539331
0.171285
-0.0280197
0.171941
-0.0550164
0.16893
-0.0825521
0.162572
-0.105745
0.154208
-0.121661
0.14542
-0.130391
0.137318
-0.133733
0.130281
-0.133569
0.124107
-0.131285
0.118642
-0.127681
0.113638
-0.122471
0.107717
-0.116019
0.0996764
-0.110418
0.091816
-0.104869
0.0896381
-0.0903236
0.0964459
-0.0568333
0.110647
-0.00623126
0.127729
0.0490382
0.144052
0.096479
0.157201
0.138477
0.166207
0.182494
0.170889
0.232658
0.171394
0.265188
0.168461
0.250366
0.163737
0.170266
0.159627
0.0483777
0.156066
-0.0687272
0.152661
-0.155905
0.149944
-0.196615
0.146882
-0.210063
0.140714
-0.193549
0.132725
-0.200875
0.128816
-0.183025
0.132097
-0.148229
0.140988
-0.0605474
0.148257
0.0728059
0.150804
0.176879
0.147828
0.315157
0.143316
0.295327
0.144102
0.254847
0.148587
0.106797
0.151859
-0.0432602
0.150995
-0.0905032
0.14842
-0.321235
-0.217545
0.113118
-0.0028531
0.110655
-0.000855966
0.109094
0.00197473
0.109075
0.00558255
0.110452
0.00956075
0.113457
0.0137059
0.118096
0.0180743
0.124226
0.0222457
0.13158
0.0256606
0.139757
0.0276246
0.148243
0.0273913
0.156465
0.024195
0.163869
0.0172987
0.169884
0.0063485
0.174295
-0.00980455
0.176283
-0.0300072
0.174996
-0.05373
0.170024
-0.0775796
0.162043
-0.0977637
0.152587
-0.112206
0.14319
-0.120994
0.134784
-0.125327
0.127662
-0.126447
0.1216
-0.125223
0.116302
-0.122383
0.111724
-0.117893
0.107105
-0.1114
0.100863
-0.104176
0.0935489
-0.097555
0.0896587
-0.0864334
0.0937812
-0.0609558
0.106078
-0.0185283
0.12273
0.0323864
0.139702
0.0795069
0.154275
0.123904
0.165277
0.171491
0.172148
0.225787
0.174335
0.263002
0.171951
0.25275
0.166705
0.175512
0.161564
0.0535192
0.156924
-0.0640876
0.152336
-0.151317
0.148671
-0.19295
0.145573
-0.206965
0.139932
-0.187908
0.132105
-0.193049
0.127966
-0.178885
0.13095
-0.151213
0.14008
-0.0696773
0.148011
0.0648748
0.151479
0.173411
0.149122
0.317514
0.144626
0.299822
0.14526
0.254213
0.149898
0.102159
0.153509
-0.0468709
0.152673
-0.0896666
0.149901
-0.318463
-0.216205
0.141693
0.00088491
0.138532
0.00230499
0.136431
0.00407564
0.135436
0.00657784
0.135552
0.00944484
0.136894
0.0123636
0.139551
0.0154177
0.143459
0.0183379
0.148459
0.0206601
0.154268
0.0218156
0.160471
0.0211883
0.166557
0.0181095
0.172007
0.0118482
0.176242
0.00211396
0.178667
-0.0122297
0.178603
-0.0299438
0.175265
-0.0503918
0.168558
-0.0708723
0.159413
-0.0886186
0.149357
-0.102149
0.139734
-0.111371
0.131275
-0.116867
0.124189
-0.119361
0.118313
-0.119347
0.113286
-0.117356
0.109044
-0.113651
0.105386
-0.107742
0.100979
-0.0997688
0.0950432
-0.0916195
0.0904061
-0.0817963
0.0919932
-0.0625429
0.101783
-0.0283186
0.117261
0.0169089
0.134383
0.0623844
0.150128
0.108159
0.163013
0.158607
0.172047
0.216753
0.176056
0.258993
0.174464
0.254342
0.168894
0.181082
0.162936
0.0594777
0.15735
-0.0585013
0.151719
-0.145687
0.147117
-0.188348
0.143961
-0.203808
0.138944
-0.182891
0.131362
-0.185467
0.126937
-0.174461
0.129506
-0.153782
0.138837
-0.0790079
0.147531
0.0561805
0.152062
0.168881
0.150492
0.319084
0.146117
0.304197
0.146571
0.253759
0.151296
0.0974342
0.155231
-0.0508067
0.154418
-0.0888535
0.151434
-0.315479
-0.214912
0.158487
0.00407222
0.15601
0.00478254
0.15414
0.00594575
0.153148
0.00756993
0.153058
0.00953436
0.153774
0.0116482
0.155468
0.0137231
0.158107
0.0156988
0.161549
0.0172183
0.165556
0.0178087
0.169814
0.0169307
0.173906
0.0140168
0.177262
0.00849232
0.179409
-3.34085e-05
0.179912
-0.0127328
0.177852
-0.0278837
0.172774
-0.0453132
0.164872
-0.062971
0.155184
-0.0789302
0.145057
-0.0920224
0.13557
-0.101884
0.127271
-0.108569
0.120307
-0.112397
0.114605
-0.113645
0.109859
-0.11261
0.105887
-0.109679
0.102794
-0.104649
0.0998654
-0.0968402
0.0957135
-0.0874675
0.0913458
-0.0774286
0.0909553
-0.0621525
0.097964
-0.0353273
0.111487
0.00338549
0.128127
0.0457444
0.144734
0.0915524
0.159503
0.143838
0.170886
0.20537
0.176844
0.253035
0.176037
0.255149
0.170388
0.186731
0.163777
0.0660882
0.157441
-0.0521655
0.150915
-0.13916
0.145409
-0.182842
0.142118
-0.200517
0.137762
-0.178535
0.130527
-0.178232
0.125772
-0.169706
0.127781
-0.155791
0.137208
-0.0884357
0.14674
0.0466491
0.152486
0.163134
0.151892
0.319678
0.147755
0.308335
0.148011
0.253503
0.152773
0.0926719
0.157008
-0.0550418
0.156212
-0.0880573
0.153013
-0.31228
-0.213688
0.164147
0.00577842
0.162437
0.00649171
0.161121
0.00726206
0.160452
0.00823885
0.160501
0.00948566
0.161257
0.0108916
0.162666
0.0123149
0.164701
0.0136631
0.167269
0.0146503
0.17017
0.0149086
0.173116
0.0139843
0.175767
0.0113654
0.177729
0.00653019
0.17857
-0.000873705
0.177205
-0.0113678
0.173659
-0.0243377
0.167588
-0.0392429
0.159394
-0.0547764
0.150009
-0.0695455
0.140471
-0.0824845
0.131561
-0.0929732
0.123687
-0.100695
0.11697
-0.10568
0.111415
-0.108089
0.106865
-0.10806
0.103071
-0.105885
0.10018
-0.101758
0.0981224
-0.0947827
0.0956179
-0.0849631
0.0922236
-0.0740342
0.0907007
-0.0606296
0.0949705
-0.0395971
0.105847
-0.00749074
0.12119
0.0304013
0.137813
0.0749292
0.153793
0.127858
0.167367
0.191796
0.175585
0.244818
0.176134
0.254599
0.170876
0.19199
0.164142
0.0728223
0.157125
-0.0451488
0.149937
-0.131972
0.143662
-0.176567
0.140166
-0.197021
0.13643
-0.1748
0.129637
-0.171439
0.124514
-0.164584
0.125896
-0.157172
0.135281
-0.0978203
0.145645
0.0362849
0.152659
0.15612
0.153242
0.319095
0.149507
0.31207
0.149572
0.253438
0.154317
0.0879266
0.158807
-0.0595316
0.158043
-0.0872928
0.15464
-0.308877
-0.212526
0.186619
0.0077084
-0.188549
0.18518
0.00793015
0.183966
0.00847636
0.183007
0.00919824
0.182425
0.0100676
0.182289
0.0110273
0.182649
0.0119547
0.183614
0.0126978
0.185249
0.0130152
0.187572
0.0125861
0.190533
0.0110231
0.193974
0.00792425
0.197537
0.00296731
0.200927
-0.00426319
0.203415
-0.0138559
0.204514
-0.0254368
0.203708
-0.038437
0.200862
-0.0519309
0.196215
-0.0648977
0.19019
-0.0764595
0.183243
-0.0860271
0.175792
-0.0932439
0.168157
-0.0980446
0.160587
-0.100519
0.153257
-0.10073
0.146111
-0.0987377
0.139182
-0.0948298
0.132764
-0.0883652
0.126309
-0.0785077
0.118705
-0.0664307
0.110801
-0.0527251
0.105978
-0.0347742
0.107047
-0.00855993
0.112638
0.0248102
0.12007
0.0674973
0.126992
0.120935
0.133134
0.185654
0.139385
0.238567
0.147302
0.246682
0.157415
0.181877
0.166469
0.0637684
0.171086
-0.0497658
0.169621
-0.130507
0.164096
-0.171042
0.157955
-0.19088
0.151126
-0.16797
0.142141
-0.162453
0.134101
-0.156544
0.130577
-0.153648
0.132369
-0.0996127
0.135314
0.0333395
0.136433
0.155001
0.135607
0.319921
0.134678
0.312999
0.13825
0.249866
0.145591
0.0805853
0.150039
-0.0639798
0.148902
-0.086155
0.143676
-0.303651
-0.208968
0.198687
0.00864403
-0.199623
0.197938
0.00867893
0.197396
0.00901853
0.197092
0.00950291
0.197101
0.0100585
0.197498
0.0106303
0.198337
0.0111152
0.199668
0.0113673
0.201504
0.0111787
0.203814
0.0102763
0.206486
0.00835087
0.209322
0.00508893
0.212086
0.000202947
0.214375
-0.00655174
0.2157
-0.0151815
0.215673
-0.0254091
0.214
-0.0367641
0.210614
-0.0485454
0.205682
-0.059966
0.199524
-0.0703008
0.192523
-0.0790264
0.185071
-0.0857916
0.177485
-0.0904585
0.16997
-0.0930053
0.162698
-0.093458
0.155671
-0.0917109
0.1488
-0.0879582
0.142369
-0.0819344
0.136342
-0.0724805
0.129676
-0.059765
0.122144
-0.0451932
0.116271
-0.0289014
0.115226
-0.00751419
0.119554
0.0204823
0.126759
0.0602916
0.134457
0.113238
0.14186
0.178251
0.149717
0.23071
0.159555
0.236843
0.170985
0.170447
0.180591
0.0541616
0.184752
-0.0539264
0.182414
-0.128169
0.175672
-0.1643
0.168572
-0.183779
0.161319
-0.160717
0.152075
-0.15321
0.143461
-0.14793
0.139212
-0.149399
0.140787
-0.101188
0.143976
0.0301511
0.145749
0.153227
0.145743
0.319927
0.145333
0.313409
0.149167
0.246032