/*--------------------------------*- C++ -*----------------------------------*\
| =========                 |                                                 |
| \\      /  F ield         | OpenFOAM: The Open Source CFD Toolbox           |
|  \\    /   O peration     | Version:  2512                                  |
|   \\  /    A nd           | Website:  www.openfoam.com                      |
|    \\/     M anipulation  |                                                 |
\*---------------------------------------------------------------------------*/
FoamFile
{
    version     2.0;
    format      ascii;
    arch        "LSB;label=32;scalar=64";
    class       volVectorField;
    location    "2.5";
    object      U;
}
// * * * * * * * * * * * * * * * * * * * * * * * * * * * * * * * * * * * * * //

dimensions      [0 1 -1 0 0 0 0];

internalField   nonuniform List<vector> 
13248
(
(-0.0292378 0.0301685 1.11731e-19)
(-0.0378083 0.0571113 0)
(0.00528222 0.0603467 -2.05418e-19)
(0.0940337 0.0417967 1.93463e-19)
(0.221375 0.00549932 1.8373e-19)
(0.377906 -0.0432292 0)
(0.551076 -0.098498 0)
(0.72598 -0.154345 4.38502e-19)
(0.887712 -0.20547 -9.31902e-21)
(1.02435 -0.247962 -3.68876e-19)
(1.12911 -0.279687 3.13019e-19)
(1.20081 -0.300244 -1.93482e-19)
(1.24269 -0.310579 0)
(1.26063 -0.312438 -2.55521e-19)
(1.26125 -0.307846 4.53964e-19)
(1.25065 -0.298722 -1.05523e-19)
(1.23369 -0.286658 -1.47876e-19)
(1.21383 -0.27286 1.38856e-19)
(1.19331 -0.258172 0)
(1.17342 -0.243172 0)
(1.15482 -0.228135 0)
(1.13747 -0.213656 0)
(1.12246 -0.198649 2.54539e-20)
(1.10536 -0.186321 7.21416e-20)
(-0.0238115 0.0223715 -3.39762e-19)
(-0.0160935 0.0358954 2.29655e-19)
(0.0478215 0.0299393 -2.71038e-21)
(0.160333 0.0067577 -3.03502e-19)
(0.31191 -0.029544 -1.83529e-19)
(0.489673 -0.0737695 -1.77885e-19)
(0.677272 -0.120544 -3.22103e-19)
(0.857092 -0.164971 3.05958e-19)
(1.01381 -0.203269 0)
(1.13749 -0.233168 7.46411e-21)
(1.22477 -0.253913 1.57598e-20)
(1.278 -0.265978 1.93848e-19)
(1.30317 -0.270619 0)
(1.30764 -0.269428 0)
(1.29844 -0.263983 1.59832e-19)
(1.28129 -0.255631 -2.99493e-19)
(1.2603 -0.245413 1.52824e-19)
(1.23815 -0.234077 -1.43501e-19)
(1.21639 -0.222129 -5.73913e-20)
(1.19582 -0.209903 -8.85271e-20)
(1.17681 -0.19758 -3.04394e-20)
(1.15937 -0.185486 -5.26963e-20)
(1.14383 -0.172593 8.88032e-20)
(1.1276 -0.164427 2.3081e-20)
(-0.0163699 0.0149157 0)
(0.0120251 0.0161164 0)
(0.100869 0.00258661 1.08201e-19)
(0.239887 -0.0232033 9.98534e-20)
(0.415881 -0.0571845 -2.07014e-21)
(0.611627 -0.0945792 -1.88288e-19)
(0.807137 -0.131049 0)
(0.983541 -0.163272 -1.51282e-19)
(1.12724 -0.189216 1.3856e-19)
(1.2321 -0.208105 6.53986e-22)
(1.29903 -0.220157 -2.14507e-19)
(1.33378 -0.226231 -1.78097e-19)
(1.34426 -0.227481 1.48731e-20)
(1.33833 -0.225083 -1.16281e-19)
(1.32253 -0.220064 3.01244e-19)
(1.30167 -0.213236 0)
(1.27889 -0.205197 -1.56686e-19)
(1.25605 -0.196369 7.68973e-20)
(1.23414 -0.187047 5.73446e-20)
(1.21362 -0.177437 0)
(1.19468 -0.167679 4.00201e-20)
(1.17726 -0.15797 -1.30187e-19)
(1.1615 -0.148036 1.22206e-19)
(1.14562 -0.141306 6.62303e-20)
(-0.00643335 0.00778052 -1.25032e-19)
(0.0472231 -0.0017704 -1.29544e-19)
(0.1646 -0.0205499 1.14678e-19)
(0.331612 -0.0462945 0)
(0.530305 -0.0753983 0)
(0.738863 -0.104047 -6.51404e-21)
(0.934847 -0.129467 0)
(1.10033 -0.150133 -4.60933e-19)
(1.22548 -0.165562 4.17419e-19)
(1.30895 -0.175975 -4.99647e-19)
(1.35574 -0.181999 1.07258e-19)
(1.37407 -0.184426 0)
(1.37267 -0.184048 1.52467e-19)
(1.35907 -0.18156 -2.73392e-19)
(1.33887 -0.17752 6.40942e-20)
(1.31585 -0.17235 1.38635e-19)
(1.29224 -0.16636 -1.71981e-20)
(1.26928 -0.159777 -1.50998e-19)
(1.24755 -0.15277 0)
(1.2273 -0.145471 0)
(1.20859 -0.137983 -4.33403e-20)
(1.19135 -0.130463 3.66126e-20)
(1.17563 -0.122612 1.1508e-19)
(1.1601 -0.117726 -1.08126e-19)
(0.00640433 0.0010894 -1.3449e-19)
(0.0898425 -0.0171218 -1.33534e-19)
(0.23843 -0.03826 3.73625e-19)
(0.433222 -0.0609231 -2.2597e-19)
(0.650826 -0.0826407 2.12661e-19)
(0.865479 -0.101199 3.80937e-19)
(1.05432 -0.115716 -2.68272e-19)
(1.20266 -0.126323 -3.10257e-19)
(1.30584 -0.133583 1.7649e-20)
(1.36742 -0.138136 3.78443e-19)
(1.39571 -0.140545 0)
(1.40032 -0.141258 9.23764e-20)
(1.38993 -0.140621 0)
(1.37115 -0.138893 -1.30277e-19)
(1.34847 -0.13627 1.80518e-19)
(1.32459 -0.132907 -1.70384e-22)
(1.30101 -0.128933 -4.23525e-20)
(1.27845 -0.124459 7.14093e-20)
(1.25724 -0.119587 6.13555e-20)
(1.23746 -0.114405 -5.21375e-20)
(1.21912 -0.109003 4.33269e-20)
(1.20216 -0.103458 -3.6601e-20)
(1.18653 -0.0977468 0)
(1.17143 -0.0942161 -2.69246e-20)
(0.0223922 -0.00483884 1.34471e-19)
(0.139769 -0.0290059 1.42306e-19)
(0.320997 -0.0492136 -1.25763e-19)
(0.541491 -0.0657463 2.35512e-19)
(0.772494 -0.0780931 -2.2164e-19)
(0.985931 -0.0861697 1.95773e-19)
(1.161 -0.0909643 -9.50612e-20)
(1.28818 -0.0937626 2.34193e-19)
(1.36847 -0.0955295 -1.46186e-19)
(1.40973 -0.0967697 2.37283e-19)
(1.4224 -0.0976426 -5.34848e-19)
(1.41646 -0.0981269 1.92348e-19)
(1.39979 -0.0981453 -1.5172e-19)
(1.37782 -0.0976328 1.42526e-19)
(1.35387 -0.0965619 1.11188e-19)
(1.32981 -0.094944 8.98277e-20)
(1.30655 -0.0928194 -2.51294e-19)
(1.2845 -0.0902452 1.52193e-19)
(1.26381 -0.0872857 -6.13535e-20)
(1.24452 -0.0840064 1.52221e-19)
(1.22658 -0.0804695 -4.92412e-20)
(1.20995 -0.0767247 -1.10248e-19)
(1.19453 -0.0728333 1.00098e-19)
(1.17983 -0.0704804 2.69184e-20)
(0.0415738 -0.00955517 0)
(0.196353 -0.036329 1.95995e-21)
(0.41019 -0.0521088 2.6803e-19)
(0.652572 -0.059808 -2.50903e-19)
(0.890398 -0.0616446 -2.22798e-19)
(1.09568 -0.0598491 4.10005e-19)
(1.25206 -0.0568381 -1.88484e-19)
(1.35623 -0.0543463 2.37259e-19)
(1.41456 -0.0531138 -1.07003e-20)
(1.43808 -0.0531253 -1.28353e-19)
(1.43825 -0.0539927 2.57798e-19)
(1.42455 -0.0552495 -3.74933e-19)
(1.40371 -0.0565071 0)
(1.37992 -0.0575038 -6.71535e-20)
(1.35552 -0.0580956 -1.68189e-19)
(1.33169 -0.0582253 5.43204e-20)
(1.30896 -0.0578909 3.59083e-21)
(1.28753 -0.0571215 -9.81909e-20)
(1.26745 -0.0559607 1.18408e-20)
(1.24869 -0.054457 1.10664e-19)
(1.23122 -0.0526573 -4.4724e-20)
(1.21498 -0.050597 -1.57452e-20)
(1.19985 -0.0484202 5.22415e-20)
(1.18554 -0.0471702 0)
(0.0637869 -0.0125373 0)
(0.25842 -0.0379679 7.30044e-20)
(0.503286 -0.0458561 -3.50883e-19)
(0.762372 -0.0426763 1.26728e-19)
(1.00019 -0.0338581 -1.19269e-19)
(1.19154 -0.0236694 -1.05937e-19)
(1.32628 -0.0152114 -1.79955e-19)
(1.40754 -0.00993492 9.36997e-20)
(1.44614 -0.00787839 7.69993e-20)
(1.45505 -0.00830727 0)
(1.44575 -0.010284 1.54246e-19)
(1.4267 -0.0129942 -2.22879e-19)
(1.40331 -0.0158604 1.63398e-19)
(1.37865 -0.0185322 6.71865e-20)
(1.35428 -0.0208274 -5.19894e-20)
(1.33089 -0.0226722 -3.9482e-20)
(1.30875 -0.0240541 -3.42824e-20)
(1.28793 -0.0249925 1.11305e-19)
(1.26844 -0.0255211 0)
(1.25024 -0.0256777 4.99532e-20)
(1.23325 -0.0254972 3.829e-20)
(1.21743 -0.0250187 -9.90098e-20)
(1.20267 -0.0243942 -6.18938e-20)
(1.18875 -0.0241645 5.79993e-20)
(0.0886469 -0.0132504 -7.85614e-20)
(0.3243 -0.0329308 -2.88348e-21)
(0.597144 -0.0297596 7.15399e-20)
(0.866936 -0.0145156 1.97941e-19)
(1.09845 0.00415514 5.47337e-20)
(1.2717 0.0206627 -1.07439e-19)
(1.38375 0.032098 9.72697e-20)
(1.4436 0.0379174 -8.16461e-20)
(1.46534 0.0390704 1.41025e-19)
(1.46275 0.0370425 5.6108e-20)
(1.4466 0.0332202 -1.61251e-19)
(1.42403 0.0286294 4.51141e-20)
(1.39923 0.0239188 7.35013e-20)
(1.37431 0.0194474 -3.65092e-20)
(1.35026 0.0153886 0)
(1.32743 0.0118095 4.86379e-20)
(1.30593 0.00872108 7.89114e-20)
(1.28577 0.00610689 1.07775e-20)
(1.2669 0.0039385 -6.33316e-20)
(1.24928 0.0021845 2.54068e-20)
(1.23284 0.000812336 0)
(1.21749 -0.000225431 -1.8476e-20)
(1.20316 -0.00104786 -1.60726e-20)
(1.18965 -0.00184789 0)
(0.115545 -0.0112102 0)
(0.391914 -0.0204996 4.11425e-20)
(0.688455 -0.0036378 7.62044e-20)
(0.962759 0.0239267 -2.00943e-19)
(1.18273 0.0508834 6.49571e-20)
(1.33547 0.0713371 0)
(1.42531 0.083411 9.03587e-20)
(1.46617 0.0879061 -1.25393e-19)
(1.47415 0.0868584 -7.03062e-20)
(1.46292 0.082415 3.07369e-20)
(1.44206 0.0762641 -4.64703e-20)
(1.4174 0.0695135 1.14078e-19)
(1.39199 0.0627962 5.3448e-20)
(1.36724 0.0564318 -3.86068e-20)
(1.34369 0.050561 -5.1697e-21)
(1.3215 0.0452315 -9.45421e-20)
(1.30069 0.0404455 4.23102e-20)
(1.2812 0.0361839 -5.30196e-22)
(1.26299 0.032419 0)
(1.24599 0.0291209 -2.5432e-20)
(1.23012 0.0262526 0)
(1.2153 0.0237626 5.33246e-20)
(1.20146 0.0215993 -6.23213e-20)
(1.1884 0.0197504 2.78588e-20)
(0.143665 -0.00603135 -2.11002e-20)
(0.458907 -0.000317073 -1.03286e-19)
(0.773977 0.032147 1.17006e-19)
(1.04695 0.0714138 6.7689e-20)
(1.25151 0.104581 -3.28131e-20)
(1.38287 0.126588 5.19568e-20)
(1.45211 0.137275 -2.56731e-20)
(1.47683 0.139015 4.04525e-20)
(1.47402 0.134876 0)
(1.45657 0.127505 8.58955e-20)
(1.43271 0.118735 -4.82726e-21)
(1.40697 0.10965 -6.68162e-20)
(1.38152 0.100809 2.75491e-20)
(1.35721 0.0924692 -2.98839e-20)
(1.33432 0.0847296 -1.05076e-20)
(1.31287 0.0776155 1.2832e-20)
(1.2928 0.0711182 -9.49729e-21)
(1.27406 0.065214 -4.86721e-20)
(1.25656 0.059874 2.98072e-20)
(1.24024 0.0550651 5.87723e-21)
(1.22502 0.0507421 5.00233e-21)
(1.21081 0.0468594 4.25408e-21)
(1.19752 0.0434434 0)
(1.18496 0.0404896 0)
(0.172107 0.00255041 2.11149e-20)
(0.522951 0.0276002 -2.12507e-20)
(0.850888 0.076753 -3.88476e-20)
(1.11739 0.126387 0)
(1.30399 0.163462 -1.60629e-20)
(1.41429 0.184823 -1.40006e-20)
(1.46514 0.192492 -2.32379e-20)
(1.4766 0.19045 0)
(1.46567 0.182642 0)
(1.44401 0.17203 0)
(1.41845 0.160458 0)
(1.39241 0.148914 0)
(1.36735 0.137858 -1.7389e-20)
(1.34374 0.127475 7.89392e-21)
(1.32166 0.117822 1.30757e-20)
(1.30107 0.108899 5.95678e-21)
(1.28186 0.100686 1.43915e-20)
(1.26395 0.0931511 0)
(1.24726 0.0862604 -3.20778e-21)
(1.23171 0.0799745 -2.87478e-21)
(1.21723 0.0742399 -5.01011e-21)
(1.20373 0.0690297 -4.26072e-21)
(1.1911 0.0644472 0)
(1.17917 0.0603537 2.83505e-21)
(-0.00909153 0.00352223 6.82441e-21)
(-0.0383345 0.00630338 -7.30915e-21)
(-0.0833378 0.00614128 -1.40406e-20)
(-0.129209 0.00440315 0)
(-0.168576 0.00189695 -1.87332e-20)
(-0.198307 -0.000926459 5.80774e-21)
(-0.216495 -0.00380298 -1.06722e-20)
(-0.222002 -0.00656793 0)
(-0.214385 -0.00910071 0)
(-0.193817 -0.011306 0)
(-0.161004 -0.0131075 0)
(-0.117139 -0.0144325 0)
(-0.0638481 -0.0152308 -6.2002e-22)
(-0.00303887 -0.0154685 -2.05844e-21)
(0.0631819 -0.015145 1.48928e-21)
(0.132671 -0.0142964 -4.02624e-22)
(0.203432 -0.0129793 -7.73823e-22)
(0.273663 -0.0112701 0)
(0.341837 -0.00925605 -1.36092e-21)
(0.406758 -0.00703037 3.92562e-21)
(0.467526 -0.00466987 2.71502e-21)
(0.523662 -0.00230164 2.65448e-21)
(0.574644 0.000196124 0)
(0.621032 0.0021025 0)
(-0.0111193 0.0273166 -2.08894e-20)
(-0.0413311 0.0534373 3.64378e-20)
(-0.0850287 0.0608586 -1.40806e-20)
(-0.128578 0.056864 -2.69565e-20)
(-0.16515 0.0458605 3.79394e-20)
(-0.191821 0.03046 -2.3318e-20)
(-0.20679 0.0122942 3.26016e-20)
(-0.208987 -0.00749469 2.00186e-20)
(-0.198064 -0.0279456 0)
(-0.174287 -0.0481576 -1.1224e-20)
(-0.138459 -0.067214 4.16343e-21)
(-0.0919059 -0.0842691 9.88178e-21)
(-0.0363604 -0.0986076 9.29214e-21)
(0.0261442 -0.109633 5.44851e-21)
(0.0934069 -0.117108 -4.69505e-21)
(0.163256 -0.120987 -1.77701e-21)
(0.233702 -0.121458 -1.71198e-21)
(0.302994 -0.118896 5.53499e-21)
(0.369697 -0.113798 0)
(0.432739 -0.106731 -2.64492e-21)
(0.491332 -0.0982225 -2.7115e-21)
(0.545188 -0.0889672 -2.65103e-21)
(0.593727 -0.0788253 0)
(0.638171 -0.0702333 0)
(-0.0150581 0.0483126 0)
(-0.0467519 0.0958992 7.88531e-20)
(-0.0869675 0.110938 -2.95862e-20)
(-0.124841 0.105444 2.74021e-20)
(-0.154738 0.0869099 -8.12101e-20)
(-0.174184 0.0599286 0)
(-0.181627 0.0274508 -4.50533e-20)
(-0.176176 -0.00840693 2.23759e-20)
(-0.157672 -0.0458313 -3.83507e-20)
(-0.126581 -0.0830773 1.81365e-20)
(-0.0839775 -0.118386 7.29525e-20)
(-0.0314969 -0.150131 -3.40363e-20)
(0.0288995 -0.176842 -3.08063e-20)
(0.0949045 -0.197532 -3.50888e-21)
(0.164067 -0.211692 6.59824e-21)
(0.234208 -0.219262 9.0844e-21)
(0.30338 -0.22064 -1.69275e-21)
(0.36999 -0.216571 -1.69975e-21)
(0.432845 -0.20801 0)
(0.491177 -0.19602 6.58683e-21)
(0.54448 -0.181579 0)
(0.592878 -0.165896 1.01581e-20)
(0.635744 -0.148852 -3.37585e-20)
(0.675537 -0.134191 2.53345e-22)
(-0.0202151 0.0645842 0)
(-0.0537618 0.130261 2.5473e-21)
(-0.088818 0.152761 3.31951e-20)
(-0.118273 0.146923 -3.15161e-20)
(-0.13818 0.12246 2.76503e-20)
(-0.146754 0.0856094 1.63825e-19)
(-0.142857 0.0405404 -5.03871e-20)
(-0.125908 -0.00966364 -4.78202e-20)
(-0.0960584 -0.0623803 8.10593e-20)
(-0.0541476 -0.11495 -9.85716e-20)
(-0.00169314 -0.164748 3.47827e-20)
(0.0592729 -0.209302 2.54215e-20)
(0.126261 -0.246519 0)
(0.196547 -0.27503 1.10546e-20)
(0.267585 -0.294099 0)
(0.337147 -0.303781 1.25605e-20)
(0.403453 -0.3048 -3.64652e-21)
(0.465246 -0.298358 5.90662e-21)
(0.521766 -0.285925 -3.41689e-21)
(0.572738 -0.269069 -6.58064e-21)
(0.618092 -0.249199 0)
(0.65851 -0.227933 2.13189e-20)
(0.69335 -0.205229 -7.32162e-21)
(0.726508 -0.185552 0)
(-0.0257172 0.0750004 0)
(-0.0612788 0.154149 -1.07542e-19)
(-0.0901705 0.183485 -3.61292e-20)
(-0.109321 0.178495 -6.56406e-20)
(-0.116741 0.150031 6.18114e-20)
(-0.111529 0.105508 -5.6213e-20)
(-0.0931323 0.0501271 1.07942e-19)
(-0.0615364 -0.012129 4.44168e-20)
(-0.0173076 -0.0777676 -1.34981e-19)
(0.0382343 -0.143207 7.53606e-20)
(0.102894 -0.204972 -9.79429e-20)
(0.173885 -0.25979 1.95355e-19)
(0.248124 -0.305033 -9.56237e-20)
(0.32253 -0.338903 3.67827e-20)
(0.394401 -0.360668 6.73297e-20)
(0.461647 -0.370639 -2.4706e-20)
(0.522889 -0.369981 -2.20568e-20)
(0.577446 -0.36043 -6.30679e-21)
(0.625212 -0.343992 0)
(0.666574 -0.322697 4.56156e-21)
(0.702014 -0.298322 9.9154e-21)
(0.732811 -0.272736 -1.09028e-20)
(0.758348 -0.246011 -2.04507e-20)
(0.783806 -0.222721 1.68654e-20)
(-0.0307155 0.0793596 0)
(-0.068157 0.166528 -1.59463e-19)
(-0.0905351 0.201357 -3.33121e-21)
(-0.098417 0.198027 1.4011e-19)
(-0.091779 0.167433 0)
(-0.0707524 0.117611 0)
(-0.0355181 0.0545359 0)
(0.0132599 -0.017017 -5.09192e-20)
(0.0742908 -0.0926105 4.45105e-21)
(0.145468 -0.167853 9.11964e-20)
(0.22369 -0.238428 -1.00091e-19)
(0.305286 -0.300352 8.30252e-21)
(0.386449 -0.35047 0)
(0.463737 -0.386843 -3.67571e-20)
(0.53449 -0.408913 2.71105e-20)
(0.597042 -0.417406 -7.58152e-20)
(0.650723 -0.414027 5.51847e-20)
(0.695698 -0.401065 1.23083e-22)
(0.732717 -0.381003 -1.26782e-20)
(0.762933 -0.356222 -1.53151e-20)
(0.787417 -0.328734 -4.24221e-21)
(0.807963 -0.300456 -7.04753e-21)
(0.823986 -0.271587 3.30222e-21)
(0.841602 -0.246277 0)
(-0.034567 0.0783189 8.42393e-20)
(-0.0733615 0.167774 8.1044e-20)
(-0.08931 0.205938 -8.14924e-20)
(-0.0857052 0.204349 -1.50472e-19)
(-0.0642459 0.17304 1.41674e-19)
(-0.0261425 0.120119 -1.34941e-19)
(0.0275065 0.0520301 1.92282e-19)
(0.0952301 -0.0257647 -5.19044e-20)
(0.174746 -0.108018 1.0988e-19)
(0.262751 -0.189537 0)
(0.354964 -0.26521 8.14098e-20)
(0.446632 -0.330482 -1.59838e-19)
(0.533237 -0.381953 1.10786e-19)
(0.611166 -0.417798 -1.04034e-19)
(0.678148 -0.43786 0)
(0.733331 -0.443422 5.56275e-20)
(0.77709 -0.436762 7.70911e-20)
(0.81067 -0.420645 -6.75242e-20)
(0.835778 -0.397883 -2.36955e-20)
(0.854316 -0.371012 -4.61768e-21)
(0.86787 -0.342107 2.39148e-20)
(0.878553 -0.312913 4.66516e-21)
(0.88577 -0.283769 -6.39152e-21)
(0.896163 -0.257969 2.02212e-21)
(-0.0369409 0.073145 -8.42501e-20)
(-0.0760989 0.159486 2.69558e-19)
(-0.0857562 0.198136 -8.63255e-20)
(-0.0708227 0.197478 1.58764e-19)
(-0.0342873 0.166134 -1.49472e-19)
(0.0216224 0.111829 2.79837e-21)
(0.0947825 0.0411836 6.86858e-20)
(0.182592 -0.0397948 2.55308e-19)
(0.281433 -0.1252 -6.85703e-21)
(0.386445 -0.209078 -1.06024e-19)
(0.491834 -0.285716 0)
(0.591699 -0.35028 -7.4058e-20)
(0.681024 -0.399477 1.40645e-19)
(0.756459 -0.431916 9.9698e-20)
(0.816613 -0.448052 -4.84845e-20)
(0.861881 -0.449788 4.82901e-21)
(0.893957 -0.439888 -2.28909e-20)
(0.915255 -0.421414 4.1693e-20)
(0.928385 -0.397271 2.36975e-20)
(0.935824 -0.369921 -1.63433e-20)
(0.939484 -0.341313 1.70182e-20)
(0.941525 -0.312843 -1.22955e-20)
(0.941297 -0.285033 0)
(0.94557 -0.25997 -2.02455e-21)
(-0.0378116 0.0653533 9.19753e-20)
(-0.0758604 0.144047 -9.15215e-20)
(-0.0789811 0.18001 8.98788e-20)
(-0.0526918 0.178739 0)
(-0.000825031 0.147282 0)
(0.0734624 0.0927056 1.54407e-19)
(0.166881 0.0215993 -1.39877e-19)
(0.275349 -0.0596632 1.32158e-19)
(0.393421 -0.144608 -6.07369e-19)
(0.514271 -0.22674 4.87016e-21)
(0.630434 -0.300087 9.95241e-20)
(0.735077 -0.359969 0)
(0.823229 -0.403618 -1.33903e-19)
(0.892445 -0.430369 2.35163e-19)
(0.942778 -0.441394 -1.47881e-19)
(0.976206 -0.439134 -1.73851e-19)
(0.995826 -0.426635 2.22121e-20)
(1.0051 -0.406982 1.08267e-19)
(1.00729 -0.382911 0)
(1.00515 -0.356605 0)
(1.00067 -0.329729 -1.70261e-20)
(0.995766 -0.303252 1.23016e-20)
(0.989764 -0.277946 -3.96141e-20)
(0.989148 -0.254398 3.71593e-20)
(-0.0373521 0.0563495 0)
(-0.0723183 0.124071 0)
(-0.0678908 0.154358 -2.73222e-19)
(-0.0295335 0.150582 8.79162e-20)
(0.0384027 0.118408 -5.35779e-22)
(0.131851 0.0642107 1.58309e-19)
(0.246085 -0.00557166 0)
(0.375035 -0.0843327 -1.37952e-19)
(0.510912 -0.165236 1.23662e-19)
(0.644669 -0.241622 -2.25972e-19)
(0.76738 -0.307759 6.62191e-21)
(0.871941 -0.359627 1.68012e-19)
(0.954267 -0.39535 -1.64326e-20)
(1.01356 -0.41514 1.00794e-19)
(1.05176 -0.420815 -1.67056e-19)
(1.07249 -0.415124 0)
(1.08009 -0.401098 1.21554e-19)
(1.0787 -0.381561 -1.63005e-19)
(1.07185 -0.358859 4.36655e-20)
(1.0622 -0.334767 0)
(1.05161 -0.310571 2.73602e-20)
(1.04151 -0.28688 7.15546e-20)
(1.03139 -0.264721 -6.71669e-20)
(1.02692 -0.242961 -5.69756e-20)
(-0.0357684 0.0471743 2.98698e-19)
(-0.065171 0.101892 -4.09895e-19)
(-0.0511925 0.124174 1.62291e-21)
(0.000949135 0.116204 9.1506e-20)
(0.086451 0.0826762 -1.70923e-19)
(0.200113 0.0293972 -1.56177e-19)
(0.335308 -0.0373653 2.98329e-19)
(0.483385 -0.110923 -6.6176e-21)
(0.633829 -0.184443 -2.60808e-19)
(0.775547 -0.251627 4.62344e-19)
(0.898935 -0.307543 -1.57586e-20)
(0.997695 -0.349255 -1.88693e-19)
(1.0696 -0.375966 0)
(1.11607 -0.388699 0)
(1.14103 -0.389671 -5.23424e-20)
(1.14954 -0.381626 -8.97518e-20)
(1.14665 -0.367283 -1.32867e-19)
(1.13675 -0.348991 1.24757e-19)
(1.12317 -0.32858 -4.37084e-20)
(1.10823 -0.307383 6.87542e-20)
(1.09345 -0.28628 -3.71308e-20)
(1.07963 -0.265739 3.5662e-20)
(1.0668 -0.246739 -1.01908e-19)
(1.05894 -0.226679 1.32726e-20)
(-0.0331216 0.0383948 1.02842e-19)
(-0.053939 0.0792391 0)
(-0.0273968 0.0921861 1.97649e-19)
(0.0412576 0.0790331 -1.86152e-19)
(0.146472 0.0439447 1.71069e-19)
(0.281384 -0.00763731 0)
(0.436762 -0.0696068 0)
(0.60086 -0.135448 -1.42242e-19)
(0.76053 -0.198805 7.72181e-21)
(0.903494 -0.254308 1.25214e-19)
(1.02079 -0.298297 -9.90895e-20)
(1.10818 -0.329132 1.91835e-19)
(1.16604 -0.347035 0)
(1.19819 -0.353577 2.51439e-19)
(1.21024 -0.351047 -4.45137e-19)
(1.20809 -0.341882 2.86121e-19)
(1.19697 -0.328281 1.41592e-19)
(1.18098 -0.312015 -1.32954e-19)
(1.16298 -0.294386 0)
(1.14476 -0.276315 0)
(1.12742 -0.25832 0)
(1.11118 -0.240961 0)
(1.09675 -0.224422 2.01688e-20)
(1.08469 -0.206797 -6.46215e-20)
(0.668923 0.00621167 1.52863e-21)
(0.71526 0.0102194 -1.5508e-21)
(0.753778 0.0133836 4.12424e-23)
(0.785689 0.0158331 0)
(0.812398 0.0178029 1.02113e-21)
(0.835056 0.0194475 -1.90093e-21)
(0.854339 0.0208762 7.53205e-23)
(0.870765 0.0220074 7.85133e-22)
(0.884869 0.0228164 0)
(0.897118 0.023494 0)
(0.907845 0.0241487 3.37409e-23)
(0.917289 0.0248366 3.04608e-23)
(0.925634 0.0255508 4.55514e-22)
(0.933038 0.0262829 -4.15898e-22)
(0.939622 0.0270221 0)
(0.945485 0.0277584 0)
(0.950717 0.0284904 -3.03261e-22)
(0.955397 0.0292219 1.3593e-23)
(0.959591 0.0299575 2.56505e-22)
(0.963361 0.0307024 1.55859e-23)
(0.966755 0.0314625 0)
(0.969818 0.0322433 0)
(0.972587 0.0330497 0)
(0.975095 0.0338865 0)
(0.977371 0.0347584 0)
(0.979439 0.0356703 0)
(0.981321 0.0366269 -6.22183e-23)
(0.983037 0.0376331 1.00956e-22)
(0.984603 0.0386942 0)
(0.986035 0.0398153 0)
(0.987344 0.0410019 7.01623e-23)
(0.988544 0.0422598 -6.81911e-23)
(0.989645 0.0435951 -3.2615e-23)
(0.990655 0.0450144 0)
(0.991583 0.0465243 0)
(0.992437 0.0481323 -5.7776e-23)
(0.993224 0.0498461 5.61618e-23)
(0.993949 0.0516742 0)
(0.994619 0.0536259 -5.13716e-23)
(0.995239 0.0557112 7.47701e-23)
(0.995814 0.0579413 -2.38219e-23)
(0.996347 0.0603277 0)
(0.996844 0.0628831 4.32799e-23)
(0.997306 0.065621 -4.20853e-23)
(0.997738 0.0685559 0)
(0.998143 0.0717031 0)
(0.998524 0.0750792 1.75645e-23)
(0.998884 0.0787016 -5.06899e-23)
(0.999225 0.0825887 0)
(0.99955 0.0867595 0)
(0.999861 0.0912337 1.31425e-23)
(1.00016 0.0960314 2.50936e-26)
(1.00045 0.10117 9.31446e-25)
(1.00073 0.106682 -9.409e-24)
(1.001 0.112518 0)
(1.00125 0.118983 0)
(1.00152 0.124991 0)
(1.00175 0.134052 0)
(1.00198 0.13707 0)
(1.00222 0.152354 0)
(0.682744 -0.0546542 1.42837e-22)
(0.725561 -0.0389401 5.57201e-21)
(0.761096 -0.0262402 -4.25352e-22)
(0.790909 -0.0163357 -4.82555e-21)
(0.816238 -0.00852064 -6.44434e-23)
(0.837966 -0.0022113 0)
(0.856586 0.00293425 3.15613e-21)
(0.872416 0.00707676 -5.98633e-21)
(0.886059 0.0104117 2.82933e-21)
(0.898025 0.0131356 -2.31663e-21)
(0.908577 0.0153668 2.21809e-21)
(0.917911 0.0173226 -1.86031e-21)
(0.926176 0.0190852 1.80986e-21)
(0.933526 0.0207126 5.0354e-23)
(0.940074 0.0222165 1.43626e-21)
(0.945916 0.0236025 -1.39587e-21)
(0.951137 0.024886 1.21981e-21)
(0.955811 0.026087 -1.14932e-21)
(0.960006 0.0272242 1.06941e-21)
(0.963777 0.0283141 -2.02215e-21)
(0.967177 0.0293711 9.55802e-22)
(0.970248 0.0304079 5.50988e-23)
(0.973027 0.0314355 8.19456e-22)
(0.975546 0.0324641 -1.57229e-21)
(0.977834 0.033503 7.54065e-22)
(0.979915 0.0345607 -4.42977e-23)
(0.981812 0.0356451 -6.9017e-22)
(0.983543 0.0367636 -9.45501e-24)
(0.985126 0.0379234 1.2339e-21)
(0.986574 0.0391315 -1.18225e-21)
(0.987902 0.0403947 5.70608e-22)
(0.989121 0.04172 -6.8119e-23)
(0.990241 0.0431144 3.26814e-23)
(0.991272 0.0445856 -6.29685e-23)
(0.992221 0.0461414 0)
(0.993098 0.0477901 0)
(0.993908 0.0495402 2.22974e-22)
(0.994658 0.0514006 -1.62817e-22)
(0.995354 0.053381 -1.54146e-22)
(0.996001 0.0554918 -2.23437e-23)
(0.996605 0.0577443 2.16065e-22)
(0.997168 0.0601507 -4.57416e-23)
(0.997695 0.0627238 0)
(0.99819 0.0654773 0)
(0.998656 0.068426 0)
(0.999097 0.0715854 0)
(0.999515 0.0749722 -7.14096e-23)
(0.999914 0.0786041 3.36395e-23)
(1.00029 0.0824994 0)
(1.00066 0.0866775 0)
(1.00101 0.0911581 0)
(1.00135 0.0959613 2.29668e-23)
(1.00169 0.101105 -1.79172e-24)
(1.00201 0.106621 1.98179e-23)
(1.00232 0.11246 0)
(1.00262 0.11893 0)
(1.00293 0.124938 -1.00491e-23)
(1.00318 0.13401 -2.36483e-23)
(1.00345 0.137025 0)
(1.0037 0.152322 0)
(0.713088 -0.109068 4.50554e-22)
(0.748491 -0.0836562 1.07572e-20)
(0.77762 -0.0629662 -9.58174e-21)
(0.80258 -0.0466406 8.97605e-21)
(0.824606 -0.0336498 6.48888e-23)
(0.844147 -0.0230593 0)
(0.861261 -0.01443 6.35238e-21)
(0.876093 -0.00750969 -6.2152e-21)
(0.888989 -0.00198597 -4.16656e-23)
(0.900253 0.00246172 -7.33447e-23)
(0.910238 0.00633561 -6.636e-23)
(0.919199 0.00968688 -6.11693e-23)
(0.927217 0.0125377 3.43957e-21)
(0.934403 0.0150626 -3.39354e-21)
(0.940829 0.0173326 0)
(0.946577 0.0193779 -8.48093e-23)
(0.951731 0.0212244 2.45343e-21)
(0.956359 0.0229024 -2.42049e-21)
(0.960522 0.0244441 0)
(0.964274 0.0258793 0)
(0.967661 0.0272334 1.91708e-21)
(0.970725 0.028527 -3.66517e-21)
(0.973502 0.0297767 3.35049e-21)
(0.976024 0.0309975 -9.02686e-23)
(0.978317 0.0322033 -2.95713e-21)
(0.980407 0.0334065 2.90039e-21)
(0.982314 0.0346182 -2.63622e-21)
(0.984058 0.0358486 1.0269e-22)
(0.985654 0.0371071 1.25195e-21)
(0.987118 0.0384025 0)
(0.988462 0.0397432 0)
(0.989698 0.0411372 -4.08099e-22)
(0.990836 0.0425925 5.29722e-22)
(0.991886 0.0441171 -9.90848e-26)
(0.992857 0.0457197 -4.84734e-22)
(0.993756 0.0474092 4.71083e-22)
(0.994589 0.0491953 0)
(0.995364 0.0510879 -5.41437e-23)
(0.996085 0.0530971 -4.65993e-22)
(0.996759 0.0552337 8.99624e-22)
(0.997391 0.057509 -3.86123e-22)
(0.997984 0.0599357 -4.59759e-23)
(0.998542 0.0625269 4.35893e-22)
(0.99907 0.0652966 -3.38353e-22)
(0.99957 0.0682597 -7.97938e-23)
(1.00005 0.0714321 -7.57294e-23)
(1.0005 0.0748305 7.15916e-23)
(1.00094 0.0784729 0)
(1.00136 0.0823777 0)
(1.00177 0.0865644 2.32096e-22)
(1.00216 0.0910528 -1.11421e-22)
(1.00255 0.0958634 9.91221e-23)
(1.00292 0.101014 -1.34099e-22)
(1.00329 0.106536 -1.54189e-22)
(1.00364 0.112382 3.62479e-23)
(1.00398 0.118859 -5.7265e-23)
(1.00433 0.124871 4.55437e-23)
(1.00461 0.133955 -1.95195e-23)
(1.00493 0.13697 0)
(1.00518 0.152288 0)
(0.754891 -0.153717 1.82062e-20)
(0.780549 -0.121646 -4.19671e-22)
(0.801153 -0.0954055 -1.69621e-20)
(0.819649 -0.0742577 1.34087e-22)
(0.837196 -0.0569237 0)
(0.853632 -0.0425438 0)
(0.868427 -0.0307544 1.22161e-20)
(0.88141 -0.0213262 -6.90922e-22)
(0.892921 -0.0138508 -1.57636e-20)
(0.903452 -0.00776362 4.01213e-22)
(0.912978 -0.00259542 4.46339e-21)
(0.921331 0.00183911 3.62044e-21)
(0.928831 0.00585765 -3.63416e-21)
(0.935691 0.00933351 0)
(0.941899 0.0123723 2.8911e-21)
(0.947485 0.0150724 -2.63875e-21)
(0.952514 0.0174855 0)
(0.957047 0.0196502 0)
(0.961143 0.0216062 -2.13604e-21)
(0.964848 0.023393 7.76652e-23)
(0.968204 0.025047 1.88139e-21)
(0.971247 0.0265984 1.82106e-21)
(0.974011 0.0280713 -1.82037e-21)
(0.976526 0.0294856 1.62879e-21)
(0.978818 0.0308591 -8.1946e-23)
(0.98091 0.0322079 -1.45664e-21)
(0.982824 0.0335464 -1.71589e-22)
(0.984576 0.0348877 8.07805e-26)
(0.986184 0.0362437 0)
(0.987661 0.0376252 -1.19378e-21)
(0.98902 0.0390424 1.23187e-21)
(0.990272 0.0405047 -6.90937e-23)
(0.991428 0.0420211 0)
(0.992496 0.0436005 6.38247e-23)
(0.993487 0.0452516 -9.77855e-22)
(0.994407 0.0469836 1.77222e-21)
(0.995263 0.0488065 1.04027e-22)
(0.996062 0.050731 -9.74411e-24)
(0.996809 0.0527684 -7.39115e-22)
(0.99751 0.0549304 -1.00622e-22)
(0.998169 0.0572287 7.6663e-22)
(0.998792 0.0596758 -6.52638e-22)
(0.999381 0.0622852 1.00439e-25)
(0.999942 0.0650714 -3.33618e-22)
(1.00048 0.0680494 4.04414e-22)
(1.00099 0.0712353 5.28527e-22)
(1.00148 0.0746462 -1.47882e-22)
(1.00196 0.0782999 -2.65863e-22)
(1.00242 0.0822154 5.06576e-22)
(1.00287 0.0864122 -3.59107e-22)
(1.0033 0.0909102 1.02233e-22)
(1.00373 0.0957301 -1.12997e-22)
(1.00415 0.10089 -9.67248e-23)
(1.00456 0.106422 2.3383e-22)
(1.00496 0.112276 -4.29973e-24)
(1.00534 0.118765 5.75375e-23)
(1.00573 0.124784 0)
(1.00604 0.133885 1.97293e-23)
(1.00641 0.136905 -2.77937e-23)
(1.00667 0.15225 0)
(0.802497 -0.187255 -1.35346e-20)
(0.817798 -0.151829 2.72612e-20)
(0.82924 -0.122675 -1.34509e-20)
(0.840679 -0.0984545 -1.40696e-20)
(0.853107 -0.077916 2.71301e-20)
(0.865755 -0.0605643 -6.73229e-22)
(0.877667 -0.0462407 -1.21507e-20)
(0.888493 -0.0346201 -1.05275e-20)
(0.898419 -0.0251734 1.03121e-20)
(0.90763 -0.0174287 0)
(0.916151 -0.0111216 8.11032e-21)
(0.924046 -0.00573059 -1.53127e-20)
(0.931142 -0.00092033 7.22456e-21)
(0.937465 0.00347936 0)
(0.943297 0.00734582 0)
(0.948638 0.0107108 -8.60845e-23)
(0.953487 0.0136832 4.96384e-21)
(0.957883 0.0163302 -4.82237e-21)
(0.961873 0.0187034 0)
(0.965501 0.0208498 -4.16278e-21)
(0.968803 0.0228111 7.70908e-21)
(0.97181 0.0246246 -7.2511e-21)
(0.974549 0.0263222 6.94772e-21)
(0.977048 0.0279309 -8.07115e-23)
(0.979331 0.0294731 -6.23529e-21)
(0.981421 0.0309685 3.03943e-21)
(0.983336 0.0324346 8.68443e-23)
(0.985095 0.0338869 1.23421e-21)
(0.986711 0.0353397 -1.86299e-23)
(0.988199 0.0368062 -1.22453e-21)
(0.989572 0.0382982 -7.28396e-23)
(0.990839 0.0398268 1.11337e-21)
(0.992012 0.0414026 -2.15131e-21)
(0.993099 0.0430356 1.16848e-21)
(0.994109 0.0447354 0)
(0.995049 0.0465115 1.07005e-21)
(0.995927 0.0483734 -1.0382e-21)
(0.996749 0.0503314 7.67279e-22)
(0.997522 0.0523972 -9.58464e-22)
(0.998249 0.054584 1.01742e-22)
(0.998937 0.0569047 0)
(0.999589 0.0593721 9.33218e-23)
(1.00021 0.0619998 -2.67361e-22)
(1.0008 0.0648025 0)
(1.00137 0.0677956 -8.00505e-22)
(1.00192 0.0709954 3.14083e-22)
(1.00245 0.0744191 -1.44718e-22)
(1.00297 0.078085 -1.36344e-22)
(1.00347 0.082012 0)
(1.00396 0.0862201 0)
(1.00444 0.0907292 3.2131e-22)
(1.00491 0.0955603 -4.98331e-22)
(1.00537 0.100731 2.7694e-22)
(1.00583 0.106275 -8.83367e-23)
(1.00627 0.112142 -1.46374e-22)
(1.00669 0.118645 -5.75924e-23)
(1.00712 0.124675 9.17993e-23)
(1.00746 0.133796 0)
(1.00788 0.136827 4.45425e-23)
(1.00815 0.152209 1.03072e-23)
(0.851247 -0.210034 -8.203e-21)
(0.856825 -0.174318 8.19182e-21)
(0.859651 -0.144638 -9.6204e-23)
(0.864351 -0.119017 7.62927e-23)
(0.871569 -0.0964261 -9.94899e-23)
(0.880061 -0.0769387 9.44791e-23)
(0.888717 -0.0606421 -1.54832e-22)
(0.89709 -0.0471961 0)
(0.905155 -0.0361029 1.40268e-22)
(0.912912 -0.0269582 -1.31451e-22)
(0.920274 -0.0193727 -1.22537e-22)
(0.927194 -0.0129477 1.19369e-22)
(0.933755 -0.00741307 0)
(0.939759 -0.00239517 0)
(0.945112 0.00221317 -9.0964e-23)
(0.950062 0.00628468 0)
(0.954652 0.00983019 7.88986e-23)
(0.958863 0.012955 0)
(0.962715 0.0157379 4.21392e-21)
(0.966238 0.0182416 -8.17624e-21)
(0.969461 0.0205153 7.6774e-21)
(0.972412 0.0225992 -3.72565e-21)
(0.975112 0.0245284 -3.42012e-21)
(0.977586 0.0263348 3.3213e-21)
(0.979854 0.0280473 3.17733e-21)
(0.981935 0.0296904 -3.08343e-21)
(0.983848 0.0312849 0)
(0.985609 0.0328492 -8.41556e-23)
(0.987231 0.0343996 0)
(0.988729 0.0359512 0)
(0.990114 0.0375176 -2.20485e-21)
(0.991395 0.0391113 2.2845e-21)
(0.992585 0.0407446 -1.36383e-22)
(0.993689 0.0424288 -1.3094e-22)
(0.994718 0.0441749 1.25998e-22)
(0.995679 0.0459935 9.63554e-22)
(0.996578 0.0478948 -9.35588e-22)
(0.997423 0.0498886 1.00072e-21)
(0.99822 0.0519853 -8.63259e-22)
(0.998974 0.0541977 -2.05785e-22)
(0.99969 0.0565402 7.82742e-22)
(1.00037 0.0590274 8.26635e-23)
(1.00102 0.0616733 -5.46543e-22)
(1.00165 0.0644926 0)
(1.00225 0.0675009 3.26359e-22)
(1.00284 0.0707148 -4.55709e-22)
(1.00341 0.0741518 5.92583e-22)
(1.00396 0.0778303 1.37212e-22)
(1.0045 0.0817698 0)
(1.00504 0.0859901 -1.13211e-22)
(1.00556 0.0905117 2.25983e-22)
(1.00608 0.0953556 -2.15288e-25)
(1.00659 0.10054 9.06714e-23)
(1.00709 0.106098 -1.51649e-22)
(1.00757 0.11198 1.46934e-22)
(1.00804 0.118501 0)
(1.00851 0.124547 -9.18421e-23)
(1.00888 0.133692 0)
(1.00935 0.136737 0)