/*--------------------------------*- C++ -*----------------------------------*\
| =========                 |                                                 |
| \\      /  F ield         | OpenFOAM: The Open Source CFD Toolbox           |
|  \\    /   O peration     | Version:  2512                                  |
|   \\  /    A nd           | Website:  www.openfoam.com                      |
|    \\/     M anipulation  |                                                 |
\*---------------------------------------------------------------------------*/
FoamFile
{
    version     2.0;
    format      ascii;
    arch        "LSB;label=32;scalar=64";
    class       volScalarField;
    location    "186";
    object      p;
}
// * * * * * * * * * * * * * * * * * * * * * * * * * * * * * * * * * * * * * //

dimensions      [0 2 -2 0 0 0 0];

internalField   nonuniform List<scalar> 
13248
(
-0.388865
-0.387199
-0.385516
-0.383822
-0.382032
-0.380019
-0.377564
-0.374379
-0.370153
-0.364583
-0.357417
-0.348488
-0.337741
-0.325251
-0.311212
-0.295918
-0.279728
-0.263026
-0.246179
-0.229529
-0.213307
-0.197801
-0.182807
-0.168677
-0.397613
-0.394982
-0.392335
-0.389674
-0.386899
-0.383899
-0.380452
-0.376252
-0.370971
-0.364307
-0.356035
-0.346045
-0.334365
-0.321151
-0.306669
-0.291255
-0.275273
-0.259073
-0.242968
-0.227216
-0.211999
-0.197487
-0.183592
-0.170588
-0.407083
-0.403431
-0.399773
-0.396096
-0.392274
-0.388199
-0.383633
-0.378248
-0.371704
-0.36372
-0.354131
-0.342914
-0.330193
-0.316211
-0.301289
-0.285776
-0.270012
-0.254294
-0.238866
-0.223911
-0.209549
-0.195891
-0.182851
-0.170523
-0.417626
-0.41286
-0.408147
-0.403426
-0.398502
-0.393241
-0.387375
-0.380552
-0.372448
-0.362844
-0.351678
-0.339046
-0.32518
-0.310395
-0.295038
-0.279441
-0.26389
-0.248613
-0.233778
-0.2195
-0.205852
-0.192899
-0.180554
-0.168968
-0.429494
-0.423495
-0.417682
-0.411884
-0.405776
-0.39916
-0.391732
-0.383143
-0.373134
-0.361608
-0.348648
-0.33449
-0.319457
-0.303905
-0.288164
-0.272515
-0.25717
-0.242279
-0.227941
-0.214219
-0.201146
-0.188747
-0.176958
-0.165897
-0.442769
-0.435425
-0.428468
-0.421534
-0.414094
-0.405865
-0.396521
-0.385774
-0.373503
-0.359795
-0.344906
-0.329193
-0.313036
-0.296782
-0.280707
-0.265013
-0.249836
-0.235255
-0.221315
-0.208035
-0.195422
-0.183472
-0.172139
-0.161511
-0.457328
-0.448564
-0.440416
-0.432239
-0.42323
-0.413021
-0.401328
-0.388012
-0.373173
-0.357119
-0.34027
-0.323063
-0.305878
-0.289004
-0.272638
-0.2569
-0.24185
-0.227513
-0.213891
-0.200971
-0.188738
-0.177169
-0.166233
-0.155959
-0.472824
-0.462624
-0.453237
-0.443639
-0.432719
-0.420072
-0.405562
-0.389312
-0.371703
-0.353264
-0.334531
-0.315954
-0.297858
-0.280447
-0.263827
-0.24804
-0.233085
-0.218942
-0.205581
-0.192967
-0.181066
-0.169843
-0.159273
-0.149321
-0.488682
-0.477098
-0.466408
-0.455131
-0.441862
-0.426276
-0.408528
-0.389099
-0.368669
-0.347939
-0.327485
-0.307707
-0.288834
-0.270972
-0.254139
-0.238311
-0.223439
-0.209469
-0.196344
-0.184011
-0.172421
-0.161533
-0.151314
-0.141674
-0.50409
-0.491237
-0.479151
-0.465853
-0.449751
-0.430766
-0.409493
-0.386821
-0.363687
-0.340877
-0.31893
-0.298143
-0.278634
-0.26041
-0.243417
-0.227575
-0.212798
-0.199004
-0.186116
-0.174064
-0.162787
-0.152236
-0.142357
-0.133032
-0.518033
-0.504056
-0.49043
-0.47471
-0.455303
-0.43258
-0.407678
-0.381877
-0.356283
-0.331674
-0.308486
-0.286888
-0.266888
-0.248404
-0.231322
-0.21552
-0.20088
-0.187298
-0.174678
-0.162937
-0.152002
-0.141813
-0.132285
-0.12331
-0.529379
-0.514465
-0.499136
-0.480575
-0.457434
-0.430734
-0.402211
-0.373476
-0.345705
-0.319587
-0.295412
-0.273213
-0.252887
-0.234279
-0.21722
-0.201552
-0.187134
-0.17384
-0.16156
-0.150199
-0.139679
-0.129922
-0.12082
-0.112312
-0.348803
-0.350868
-0.352057
-0.352832
-0.353656
-0.35472
-0.356109
-0.357859
-0.359974
-0.362442
-0.365248
-0.368378
-0.371812
-0.37552
-0.379458
-0.383554
-0.38771
-0.391787
-0.395613
-0.398975
-0.401606
-0.403181
-0.403472
-0.402648
-0.343791
-0.346618
-0.348235
-0.349227
-0.350136
-0.351135
-0.352282
-0.353585
-0.355018
-0.356535
-0.358084
-0.359607
-0.361045
-0.362329
-0.363384
-0.364123
-0.364444
-0.364236
-0.363383
-0.361767
-0.359218
-0.355486
-0.350611
-0.345656
-0.340067
-0.343474
-0.345425
-0.346594
-0.347565
-0.348486
-0.349385
-0.35024
-0.350993
-0.35156
-0.35185
-0.351763
-0.351196
-0.350041
-0.348192
-0.345542
-0.341985
-0.337426
-0.331794
-0.325047
-0.317104
-0.307766
-0.297255
-0.287621
-0.3381
-0.341858
-0.344032
-0.345332
-0.346349
-0.347198
-0.347874
-0.348325
-0.348459
-0.348157
-0.347289
-0.345714
-0.343291
-0.339881
-0.335348
-0.329571
-0.322447
-0.313896
-0.303882
-0.292429
-0.27956
-0.265151
-0.249401
-0.235014
-0.338163
-0.342021
-0.344292
-0.345672
-0.346719
-0.347509
-0.348003
-0.348115
-0.347722
-0.346674
-0.344803
-0.341936
-0.3379
-0.332529
-0.325673
-0.317206
-0.307037
-0.295113
-0.281436
-0.266087
-0.249208
-0.230833
-0.210976
-0.191925
-0.340311
-0.344017
-0.346251
-0.34765
-0.348702
-0.349441
-0.34979
-0.349633
-0.348817
-0.347161
-0.344469
-0.340539
-0.335175
-0.328195
-0.319446
-0.308811
-0.296227
-0.281686
-0.265249
-0.247053
-0.22734
-0.206396
-0.184237
-0.160374
-0.344391
-0.347705
-0.349761
-0.351104
-0.35212
-0.352796
-0.353021
-0.35265
-0.351499
-0.349362
-0.346019
-0.341246
-0.334834
-0.326595
-0.316385
-0.304113
-0.28976
-0.273382
-0.255115
-0.235185
-0.2139
-0.191599
-0.168557
-0.144322
-0.350067
-0.352788
-0.354536
-0.355716
-0.356619
-0.357188
-0.357275
-0.356702
-0.355262
-0.352723
-0.348847
-0.343396
-0.336156
-0.326947
-0.315648
-0.302212
-0.286679
-0.269183
-0.249953
-0.229307
-0.207656
-0.185294
-0.163402
-0.139381
-0.356902
-0.358872
-0.360165
-0.361068
-0.361754
-0.362121
-0.361999
-0.361178
-0.359425
-0.35649
-0.352117
-0.346064
-0.338122
-0.328137
-0.316025
-0.3018
-0.285575
-0.26757
-0.248104
-0.227561
-0.206483
-0.184943
-0.164956
-0.142722
-0.364458
-0.365572
-0.36628
-0.366756
-0.367072
-0.367099
-0.366638
-0.365459
-0.363302
-0.3599
-0.35499
-0.348332
-0.339738
-0.329091
-0.316365
-0.301646
-0.285129
-0.267115
-0.247993
-0.228181
-0.208265
-0.188242
-0.170008
-0.150368
-0.372385
-0.372589
-0.372588
-0.372472
-0.372237
-0.37174
-0.37077
-0.369072
-0.366371
-0.362384
-0.356846
-0.349534
-0.340291
-0.329053
-0.315865
-0.300886
-0.284387
-0.266726
-0.248323
-0.229615
-0.211101
-0.192981
-0.176493
-0.159918
-0.380512
-0.37978
-0.378964
-0.3781
-0.377133
-0.375928
-0.374268
-0.371884
-0.368482
-0.363772
-0.357492
-0.349441
-0.339508
-0.32769
-0.314106
-0.298987
-0.282656
-0.265499
-0.24792
-0.23033
-0.213081
-0.196533
-0.181233
-0.166918
-0.400341
-0.39431
-0.383222
-0.36651
-0.344346
-0.31781
-0.28889
-0.260081
-0.233893
-0.213558
-0.201667
-0.199835
-0.208045
-0.223835
-0.242093
-0.255913
-0.258375
-0.244877
-0.216618
-0.180271
-0.144598
-0.115851
-0.0963849
-0.0858897
-0.0829426
-0.0866251
-0.0978585
-0.117214
-0.139729
-0.154692
-0.15295
-0.135888
-0.111815
-0.0899926
-0.075372
-0.0680101
-0.0667509
-0.0730219
-0.0878173
-0.104452
-0.111208
-0.103047
-0.085709
-0.0692748
-0.0572064
-0.0505636
-0.0504423
-0.0545234
-0.0569738
-0.0548976
-0.0490308
-0.0438507
-0.0389341
-0.0356757
-0.0353011
-0.035223
-0.0320822
-0.0282917
-0.0178814
-0.00328295
-0.34003
-0.332822
-0.32231
-0.308283
-0.2908
-0.2707
-0.249767
-0.230092
-0.212963
-0.20217
-0.199911
-0.20718
-0.223056
-0.244244
-0.265315
-0.279604
-0.280781
-0.264636
-0.232648
-0.192215
-0.152703
-0.120571
-0.0980143
-0.0845121
-0.0786104
-0.0792067
-0.0867578
-0.102018
-0.121245
-0.13518
-0.13522
-0.121918
-0.101902
-0.0837744
-0.07236
-0.0676703
-0.0689088
-0.0778878
-0.0954373
-0.114187
-0.121441
-0.111986
-0.0920234
-0.0726673
-0.0579603
-0.0491755
-0.0468309
-0.0488121
-0.0503348
-0.0485353
-0.0445634
-0.0410605
-0.0383485
-0.0372318
-0.0383941
-0.0394885
-0.0358005
-0.0314813
-0.0196607
-0.00344079
-0.278917
-0.26917
-0.258495
-0.246495
-0.233115
-0.218939
-0.205591
-0.195166
-0.187492
-0.186519
-0.193697
-0.209249
-0.231465
-0.256618
-0.279472
-0.293751
-0.294485
-0.276797
-0.242602
-0.199698
-0.15775
-0.123292
-0.0983897
-0.0823652
-0.0737479
-0.0713739
-0.0753301
-0.0864403
-0.102226
-0.114974
-0.116615
-0.106914
-0.0908823
-0.0764732
-0.0683182
-0.066355
-0.0701287
-0.0817294
-0.101814
-0.122509
-0.130355
-0.119873
-0.0976169
-0.0755558
-0.0583762
-0.0476416
-0.0433171
-0.043401
-0.0440374
-0.0423436
-0.0400478
-0.038089
-0.0376399
-0.0387566
-0.0414646
-0.0436709
-0.0393829
-0.0345166
-0.0213689
-0.00360168
-0.224041
-0.210952
-0.199487
-0.18857
-0.178805
-0.168985
-0.163932
-0.160169
-0.161374
-0.16918
-0.184331
-0.206354
-0.233085
-0.260808
-0.284788
-0.299877
-0.299768
-0.281448
-0.246477
-0.202727
-0.159827
-0.124192
-0.0977538
-0.0797964
-0.0688703
-0.0637858
-0.0643815
-0.071471
-0.0836985
-0.0950023
-0.0986922
-0.0913684
-0.0791112
-0.0683087
-0.0633225
-0.0639939
-0.0701769
-0.0841717
-0.106539
-0.129071
-0.137694
-0.126519
-0.102368
-0.0779078
-0.0584787
-0.0460091
-0.0399754
-0.0383892
-0.0381872
-0.0364812
-0.0355511
-0.0349711
-0.0368126
-0.0402312
-0.0444839
-0.0477311
-0.0427884
-0.0373614
-0.0229839
-0.00376205
-0.180584
-0.164971
-0.151224
-0.139831
-0.13499
-0.129215
-0.127397
-0.129922
-0.137919
-0.152234
-0.173028
-0.199303
-0.228686
-0.25765
-0.281997
-0.296955
-0.297121
-0.279109
-0.244757
-0.201784
-0.159422
-0.123697
-0.09645
-0.0770975
-0.0643097
-0.0569231
-0.054531
-0.057836
-0.0664421
-0.0758611
-0.0801131
-0.0755854
-0.0669184
-0.0594746
-0.0574125
-0.0605038
-0.0688608
-0.0849588
-0.109336
-0.133607
-0.143192
-0.131734
-0.106184
-0.0797221
-0.0583137
-0.0443268
-0.0368485
-0.0338278
-0.0328525
-0.0308941
-0.031137
-0.0317424
-0.0358677
-0.0416321
-0.0474184
-0.0516201
-0.0459719
-0.0399785
-0.0244845
-0.00391833
-0.150468
-0.132533
-0.117457
-0.107733
-0.101962
-0.0990672
-0.100499
-0.106957
-0.119058
-0.137185
-0.161037
-0.189318
-0.219613
-0.248658
-0.272903
-0.287509
-0.287912
-0.270822
-0.238245
-0.197494
-0.156994
-0.122171
-0.0947909
-0.0745199
-0.0602784
-0.0509911
-0.0461216
-0.0460853
-0.0511254
-0.058279
-0.0624727
-0.0600696
-0.0546618
-0.0501836
-0.0506741
-0.0558938
-0.066135
-0.0839872
-0.110057
-0.135947
-0.146628
-0.13536
-0.108994
-0.0809956
-0.0579175
-0.0426282
-0.0339521
-0.0297335
-0.0280772
-0.0257275
-0.0268654
-0.0284391
-0.034801
-0.0429273
-0.0502296
-0.055289
-0.0488897
-0.0423339
-0.0258484
-0.00406553
-0.133377
-0.114269
-0.0968073
-0.0878822
-0.0823844
-0.0805979
-0.0834772
-0.0915834
-0.105337
-0.124784
-0.149364
-0.177698
-0.207425
-0.235494
-0.258983
-0.27295
-0.273539
-0.257876
-0.228051
-0.190679
-0.153083
-0.119968
-0.093037
-0.0722662
-0.05692
-0.0460945
-0.0391911
-0.0363758
-0.0381309
-0.0428223
-0.0464624
-0.0452862
-0.0427468
-0.0407077
-0.0433018
-0.0502976
-0.0620539
-0.0812337
-0.108652
-0.136001
-0.147888
-0.137331
-0.110743
-0.0817201
-0.0573137
-0.0409353
-0.031282
-0.0260854
-0.0238676
-0.0210353
-0.0227902
-0.0250986
-0.0336027
-0.0440778
-0.0528758
-0.0586908
-0.0515049
-0.0443988
-0.0270561
-0.00419712
-0.129099
-0.111719
-0.0945473
-0.0813177
-0.0744711
-0.0723617
-0.0750343
-0.0829637
-0.0964008
-0.115188
-0.138675
-0.165534
-0.193519
-0.219663
-0.240617
-0.254472
-0.255348
-0.24157
-0.215249
-0.182071
-0.148089
-0.117268
-0.0912663
-0.0703789
-0.0542506
-0.0422215
-0.0336977
-0.028648
-0.0275561
-0.0298043
-0.0325674
-0.0316414
-0.0315879
-0.0313691
-0.035557
-0.043901
-0.0567647
-0.0768137
-0.105159
-0.133764
-0.146996
-0.13766
-0.111411
-0.0818931
-0.0565257
-0.0392652
-0.0288349
-0.0228534
-0.0201949
-0.016846
-0.0189583
-0.0217596
-0.0322592
-0.045039
-0.0553122
-0.0617811
-0.0537867
-0.0461505
-0.0280972
-0.00430697
-0.133524
-0.118065
-0.100386
-0.0846919
-0.0759752
-0.0725068
-0.0736433
-0.0799345
-0.0915258
-0.108157
-0.129187
-0.1534
-0.178791
-0.202708
-0.221926
-0.233805
-0.234781
-0.223224
-0.20092
-0.172399
-0.142413
-0.114252
-0.0895595
-0.0689156
-0.0523174
-0.0393906
-0.0296145
-0.0228228
-0.0193838
-0.019333
-0.0211876
-0.0237282
-0.0215841
-0.0224831
-0.0277325
-0.036955
-0.0504184
-0.0708261
-0.0997507
-0.129407
-0.144078
-0.136401
-0.111045
-0.0815966
-0.055659
-0.0376847
-0.0266332
-0.0200333
-0.0170479
-0.0131615
-0.0154017
-0.0184615
-0.0307497
-0.0457657
-0.0574983
-0.064522
-0.0557073
-0.0475713
-0.028968
-0.00439254
-0.14111
-0.126433
-0.109785
-0.0943568
-0.08425
-0.0788145
-0.0775244
-0.0811276
-0.0897747
-0.10316
-0.120741
-0.141444
-0.163584
-0.185286
-0.20169
-0.211952
-0.213346
-0.204417
-0.186455
-0.162765
-0.136918
-0.11163
-0.0885322
-0.0684346
-0.0516188
-0.038001
-0.0272168
-0.0190298
-0.0136715
-0.0114775
-0.0118896
-0.0132594
-0.0124524
-0.0142852
-0.0200722
-0.0297009
-0.0433704
-0.0637316
-0.0926832
-0.12312
-0.13926
-0.133662
-0.109766
-0.0809885
-0.0549008
-0.0363329
-0.0247159
-0.0175993
-0.0144469
-0.0100342
-0.012139
-0.0152388
-0.029063
-0.0462106
-0.0593924
-0.0668656
-0.0572417
-0.0486472
-0.0296507
-0.00444946
-0.150679
-0.137107
-0.120859
-0.106428
-0.0953919
-0.0881933
-0.0845422
-0.0849015
-0.0898668
-0.0992779
-0.112814
-0.129544
-0.148147
-0.168741
-0.180327
-0.189513
-0.191792
-0.185882
-0.17246
-0.153666
-0.132032
-0.109762
-0.0884472
-0.0690978
-0.0522405
-0.0380563
-0.0264139
-0.0170971
-0.0101706
-0.00600722
-0.00478695
-0.00513444
-0.0046925
-0.00711317
-0.0128831
-0.0223516
-0.0355733
-0.0553874
-0.0844557
-0.11562
-0.132619
-0.129391
-0.107336
-0.0798059
-0.0540242
-0.0351017
-0.0229658
-0.0153693
-0.0122068
-0.00749576
-0.00928132
-0.0121362
-0.0271228
-0.0463506
-0.0609707
-0.0687399
-0.0583398
-0.0493583
-0.0300904
-0.0044495
-0.157607
-0.14627
-0.133296
-0.119786
-0.107891
-0.0990097
-0.0934977
-0.0913543
-0.092683
-0.0977772
-0.106474
-0.117993
-0.131202
-0.142542
-0.158231
-0.166227
-0.168902
-0.165538
-0.156047
-0.141579
-0.123815
-0.104526
-0.0852231
-0.0670452
-0.0506895
-0.0364865
-0.0245052
-0.0146607
-0.00683173
-0.00118344
0.00152912
0.00177655
0.000628085
-0.00104822
-0.00653132
-0.0155924
-0.0281605
-0.0469574
-0.0751929
-0.106187
-0.12401
-0.12248
-0.102849
-0.0768365
-0.0517613
-0.0330953
-0.0208565
-0.0130147
-0.00982645
-0.00502336
-0.00662621
-0.00929265
-0.0250323
-0.0460995
-0.0621308
-0.0701671
-0.0589366
-0.049684
-0.0302327
-0.00433897
-0.152832
-0.146763
-0.135187
-0.122543
-0.111656
-0.103366
-0.0977331
-0.0947396
-0.0948035
-0.0982628
-0.104978
-0.114315
-0.125255
-0.136166
-0.146755
-0.153293
-0.155038
-0.151323
-0.1423
-0.128979
-0.112774
-0.0951818
-0.077483
-0.0606555
-0.0453174
-0.0317711
-0.0201063
-0.0103074
-0.00226435
0.00401283
0.00783466
0.00908382
0.00839637
0.00628885
0.00142086
-0.00649865
-0.0179689
-0.0363059
-0.0657477
-0.099557
-0.119957
-0.119379
-0.0986387
-0.0727581
-0.048168
-0.0300992
-0.0183254
-0.0106842
-0.00737118
-0.00200906
-0.00316504
-0.00557565
-0.0222071
-0.0455585
-0.0631986
-0.0716426
-0.0592646
-0.0496647
-0.0301522
-0.00416028
-0.148514
-0.144182
-0.133656
-0.122124
-0.112431
-0.105085
-0.0999155
-0.0969573
-0.0965253
-0.0988304
-0.103726
-0.110712
-0.119057
-0.12697
-0.134255
-0.138645
-0.139028
-0.13501
-0.126761
-0.11503
-0.100875
-0.0854391
-0.0697281
-0.0545558
-0.0404789
-0.0277931
-0.0166583
-0.00713913
0.000887237
0.00748297
0.0118803
0.0135174
0.0125888
0.0109469
0.00696537
0.000241005
-0.0100468
-0.0275842
-0.0574168
-0.0924329
-0.113171
-0.111912
-0.0918621
-0.0672743
-0.0441986
-0.0271897
-0.0159142
-0.00850414
-0.0052333
0.000186065
-0.000932631
-0.00281394
-0.0199339
-0.045058
-0.0638357
-0.0723727
-0.0590398
-0.0490698
-0.0297883
-0.00405168
-0.142256
-0.139257
-0.130428
-0.120308
-0.111759
-0.105343
-0.100816
-0.0980714
-0.0972394
-0.0984389
-0.10155
-0.10618
-0.111573
-0.117357
-0.122081
-0.124608
-0.12412
-0.120249
-0.113019
-0.102889
-0.0905995
-0.0770263
-0.0629939
-0.0492095
-0.0361989
-0.0242723
-0.0136089
-0.00433036
0.00359624
0.0102792
0.0150414
0.0171678
0.0167608
0.0151902
0.0116675
0.00564959
-0.00405789
-0.0211058
-0.0500881
-0.083788
-0.103925
-0.102869
-0.084205
-0.0614121
-0.0400636
-0.0241849
-0.0135016
-0.00636639
-0.00316802
0.00221013
0.00097439
-0.000690118
-0.0182071
-0.0445278
-0.0639402
-0.0724303
-0.0583431
-0.0480231
-0.0292033
-0.00397729
-0.133785
-0.132976
-0.126169
-0.117512
-0.110017
-0.104411
-0.100421
-0.0977972
-0.0965533
-0.09678
-0.0984314
-0.101243
-0.104713
-0.108279
-0.11107
-0.112253
-0.11115
-0.107377
-0.10088
-0.0919582
-0.081154
-0.0691473
-0.0566044
-0.0441158
-0.0321472
-0.021002
-0.0108645
-0.00188482
0.00586669
0.0125087
0.0175302
0.0202278
0.0204147
0.0192125
0.016344
0.0109895
0.00172164
-0.0146115
-0.0417713
-0.0737477
-0.0935236
-0.0928144
-0.0757507
-0.055005
-0.0356221
-0.0210693
-0.0110952
-0.00426771
-0.00116188
0.0041244
0.00278937
0.00121643
-0.0164641
-0.0435197
-0.0634041
-0.0718452
-0.0571703
-0.0465402
-0.0283433
-0.00391287
-0.124943
-0.125939
-0.12091
-0.113643
-0.107133
-0.102225
-0.098678
-0.0961776
-0.0946612
-0.0941932
-0.0947609
-0.0961744
-0.0980678
-0.0999835
-0.101311
-0.101407
-0.0997302
-0.0959583
-0.0900174
-0.0820954
-0.0725705
-0.0619445
-0.0507368
-0.0394331
-0.0284403
-0.0180535
-0.0084656
0.000173216
0.00771528
0.0142368
0.0193732
0.022531
0.0233738
0.0228528
0.0209019
0.01648
0.00803655
-0.0071284
-0.0324172
-0.0628981
-0.0820077
-0.0817171
-0.0665843
-0.0481956
-0.0309746
-0.0178885
-0.00871557
-0.00222089
0.000783209
0.00590092
0.00448709
0.00304749
-0.014381
-0.0418199
-0.0621059
-0.070459
-0.0554386
-0.0445852
-0.0271812
-0.00384487
-0.116143
-0.118184
-0.114656
-0.108726
-0.103169
-0.0989081
-0.09578
-0.0934559
-0.0918129
-0.0908745
-0.0906423
-0.0910002
-0.091689
-0.0923532
-0.0925354
-0.0917616
-0.0896266
-0.085868
-0.0803944
-0.0733053
-0.0648533
-0.0554053
-0.0453665
-0.0351358
-0.0250613
-0.015416
-0.00639982
0.00184852
0.00914517
0.0155018
0.0206395
0.0241268
0.0255872
0.0258999
0.0250747
0.0219304
0.0147129
0.000760592
-0.022863
-0.0515598
-0.0695828
-0.0698533
-0.0569724
-0.0411554
-0.0262003
-0.0146735
-0.00638005
-0.000242686
0.00266052
0.00753939
0.00606116
0.00479204
-0.0119397
-0.0393362
-0.0598377
-0.0681031
-0.0530804
-0.0421519
-0.0256966
-0.00375612
-0.107038
-0.109869
-0.107655
-0.10296
-0.0983094
-0.094663
-0.09194
-0.0898237
-0.0881516
-0.0869159
-0.0861278
-0.0857219
-0.0855176
-0.0852464
-0.0845769
-0.0831648
-0.0807024
-0.0769738
-0.0718825
-0.0654758
-0.0579225
-0.0494894
-0.0404862
-0.0312335
-0.0220237
-0.013099
-0.00466306
0.00315389
0.0101634
0.0163346
0.021416
0.0251197
0.0271022
0.0281897
0.0285286
0.0268795
0.0210774
0.00822709
-0.013699
-0.0401303
-0.0566693
-0.0576067
-0.0472102
-0.0340799
-0.0214047
-0.0114652
-0.00410461
0.00165332
0.00446998
0.00905346
0.00752705
0.00640425
-0.00919015
-0.0359429
-0.0563933
-0.0646611
-0.0500594
-0.0392601
-0.0238832
-0.00362899
-0.0978912
-0.10135
-0.100199
-0.0965702
-0.092745
-0.0896726
-0.0873349
-0.0854428
-0.0838172
-0.0824267
-0.0812835
-0.0803531
-0.0795177
-0.0785861
-0.0773176
-0.0754579
-0.0727734
-0.0690931
-0.0643302
-0.0585021
-0.0517183
-0.0441681
-0.0360839
-0.0277197
-0.0193202
-0.011094
-0.00323929
0.00411875
0.0107999
0.0167582
0.0217519
0.0255891
0.0279762
0.0296762
0.0309771
0.0307262
0.026339
0.0146458
-0.00536011
-0.0289976
-0.0436787
-0.0454147
-0.0376313
-0.027182
-0.0167035
-0.00830761
-0.00189981
0.00345993
0.0062148
0.0104622
0.00891747
0.00788483
-0.00611594
-0.0315309
-0.0516451
-0.0600855
-0.046368
-0.0359559
-0.021754
-0.0034472
-0.0890702
-0.0928337
-0.0924728
-0.0897422
-0.0866542
-0.0841096
-0.0821365
-0.08048
-0.0789571
-0.0775192
-0.0761769
-0.0749186
-0.0736707
-0.0722999
-0.0706315
-0.0684794
-0.0656704
-0.0620731
-0.0576134
-0.0522911
-0.0461745
-0.0393968
-0.0321314
-0.0245767
-0.0169358
-0.00938484
-0.00210743
0.00477514
0.0110953
0.0168035
0.0216793
0.0255807
0.0282661
0.0303739
0.032278
0.0330081
0.0298197
0.0195173
0.00188168
-0.0184448
-0.0310583
-0.0337894
-0.0285823
-0.0206654
-0.0122138
-0.00524961
0.000225521
0.00517565
0.00789921
0.0117937
0.0102969
0.00930556
-0.00268543
-0.0260991
-0.0455824
-0.0544191
-0.0420328
-0.0323129
-0.0193459
-0.0031984
-0.0805693
-0.0844145
-0.0846421
-0.0826587
-0.0802141
-0.0781446
-0.0765104
-0.0750907
-0.0737073
-0.0723021
-0.0708822
-0.069449
-0.0679593
-0.0663228
-0.0644157
-0.0621039
-0.0592601
-0.0557846
-0.0516165
-0.0467472
-0.0412191
-0.0351256
-0.0285951
-0.0217808
-0.0148491
-0.00794769
-0.00124011
0.00515764
0.0110946
0.0165164
0.0212277
0.0251264
0.0280101
0.0303509
0.0324975
0.03366
0.0313448
0.0227048
0.00790548
-0.00890021
-0.0194397
-0.0232956
-0.020379
-0.0146975
-0.00803811
-0.00234412
0.00225899
0.00680006
0.00952447
0.0130909
0.011756
0.010777
0.00107348
-0.0198003
-0.0383335
-0.0477515
-0.0371361
-0.028431
-0.0167218
-0.00287655
-0.0723866
-0.0762129
-0.0768684
-0.075486
-0.073586
-0.0719332
-0.0706068
-0.069417
-0.068196
-0.06688
-0.0654709
-0.063977
-0.062377
-0.0606122
-0.0585963
-0.0562332
-0.0534301
-0.0501128
-0.0462334
-0.0417814
-0.0367828
-0.0313031
-0.025437
-0.019302
-0.0130329
-0.00675305
-0.000604699
0.00530509
0.0108412
0.0159439
0.0204488
0.0242703
0.0272483
0.0296865
0.031829
0.0330206
0.0313052
0.0244021
0.0125257
-0.00102771
-0.00986489
-0.0144104
-0.013239
-0.00938677
-0.00425189
0.000357002
0.00418165
0.00832571
0.0110755
0.0143976
0.0133825
0.0124127
0.00505953
-0.0129621
-0.0302079
-0.0382109
-0.0317971
-0.0244299
-0.0139715
-0.00248407
-0.0646231
-0.0683302
-0.0692684
-0.0683562
-0.0669086
-0.0656146
-0.0645624
-0.0635893
-0.0625404
-0.0613489
-0.0600119
-0.0585414
-0.0569305
-0.0551426
-0.0531179
-0.0507883
-0.0480872
-0.0449608
-0.041373
-0.0373139
-0.0327999
-0.0278772
-0.0226159
-0.0171063
-0.0114559
-0.00576821
-0.000164382
0.00525936
0.0103812
0.0151391
0.0193996
0.0230769
0.026047
0.0284748
0.0304797
0.0315226
0.0302149
0.0248506
0.0155788
0.00470735
-0.00417962
-0.00734186
-0.00723447
-0.00477797
-0.000897513
0.00281026
0.00597125
0.00973474
0.0125099
0.0157162
0.0152149
0.0143053
0.00910503
-0.00608089
-0.021908
-0.0301993
-0.0263438
-0.0204404
-0.0112095
-0.00203477
-0.0573114
-0.0608166
-0.0619257
-0.0613776
-0.0603012
-0.0593108
-0.0584977
-0.0577229
-0.0568447
-0.0557969
-0.0545724
-0.0531842
-0.0516337
-0.0498992
-0.0479402
-0.0457089
-0.0431582
-0.0402498
-0.0369573
-0.0332733
-0.0292085
-0.0247965
-0.0200895
-0.015157
-0.0100846
-0.00495864
0.000119244
0.00506255
0.009764
0.0141619
0.0181415
0.021622
0.0244984
0.0268313
0.0286393
0.0294966
0.0284653
0.0243382
0.0172355
0.00877396
0.00174032
-0.00167636
-0.00229996
-0.000862736
0.00201157
0.00498467
0.00760541
0.0110035
0.0137679
0.0169688
0.0171747
0.0164517
0.0129635
0.000263674
-0.0140514
-0.0221002
-0.0209891
-0.0165833
-0.00856172
-0.00155549
-0.0504509
-0.0537122
-0.0549101
-0.0546373
-0.0538604
-0.0531223
-0.0525134
-0.0519148
-0.0511988
-0.0503017
-0.0492137
-0.0479458
-0.0465038
-0.0448763
-0.0430362
-0.0409503
-0.0385853
-0.0359147
-0.0329202
-0.0295968
-0.0259524
-0.0220124
-0.017816
-0.0134174
-0.00888448
-0.00428895
0.000284252
0.00475862
0.0090405
0.0130673
0.0167382
0.0199869
0.0227049
0.0248863
0.0264867
0.0271843
0.0263617
0.0232151
0.0178662
0.0114375
0.00598223
0.00268497
0.00165868
0.00239319
0.00448235
0.00686223
0.00905999
0.0121063
0.0148047
0.0180143
0.0189654
0.0186047
0.0162604
0.00554803
-0.00720567
-0.0153808
-0.0159812
-0.0129638
-0.00614848
-0.00108279
-0.0440551
-0.0470463
-0.0482687
-0.0481984
-0.0476596
-0.0471283
-0.0466909
-0.0462459
-0.0456788
-0.0449303
-0.0439892
-0.0428634
-0.0415601
-0.0400744
-0.0383886
-0.0364794
-0.0343237
-0.0319035
-0.0292064
-0.0262303
-0.0229815
-0.0194798
-0.0157554
-0.0118513
-0.00782104
-0.0037243
0.000367906
0.00438897
0.00825703
0.0119105
0.015261
0.0182488
0.0207669
0.0227711
0.024185
0.0247739
0.0241372
0.0217773
0.0178148
0.0130275
0.00889919
0.00592912
0.00475216
0.00503725
0.00653356
0.0084371
0.0103084
0.0130122
0.0155968
0.0187255
0.0202565
0.0202858
0.0185435
0.00944943
-0.00164117
-0.0095166
-0.0114513
-0.00966489
-0.00406826
-0.000654504
-0.0381188
-0.0408282
-0.0420299
-0.0421053
-0.0417541
-0.0413903
-0.0410945
-0.0407809
-0.0403469
-0.0397384
-0.0389449
-0.0379709
-0.0368222
-0.0354979
-0.0339867
-0.0322726
-0.0303392
-0.0281746
-0.025771
-0.0231281
-0.0202519
-0.0171583
-0.013871
-0.0104246
-0.00686168
-0.00323212
0.000405206
0.00399224
0.00745787
0.0107449
0.013774
0.0164845
0.0187818
0.0206065
0.0218672
0.0223998
0.0219442
0.0202163
0.0173259
0.0138196
0.0109419
0.00824118
0.00709331
0.00712283
0.00818986
0.00971244
0.0113263
0.0136899
0.0161093
0.0190137
0.0208136
0.0210706
0.0195536
0.0119296
0.00257131
-0.00465436
-0.00749459
-0.00674733
-0.00238199
-0.000300304
-0.0326292
-0.0350602
-0.0362116
-0.0363885
-0.0361829
-0.0359528
-0.035772
-0.0355681
-0.0352508
-0.0347711
-0.0341197
-0.033297
-0.0323076
-0.0311523
-0.0298246
-0.0283131
-0.0266062
-0.024696
-0.0225777
-0.0202528
-0.0177265
-0.0150126
-0.0121299
-0.00910651
-0.00597688
-0.00278252
0.000427793
0.00360372
0.00668374
0.0096159
0.0123287
0.0147653
0.0168396
0.0184927
0.0196323
0.0201481
0.0198705
0.0186495
0.0165683
0.0139478
0.0112483
0.00969975
0.00878727
0.00871026
0.00947956
0.0106984
0.0120977
0.0141204
0.0163152
0.0188577
0.0206078
0.0209009
0.0194312
0.013196
0.0055042
-0.000870278
-0.00417913
-0.00424575
-0.00109401
-3.35147e-05
-0.0275778
-0.0297389
-0.0308196
-0.0310635
-0.0309696
-0.0308452
-0.0307567
-0.0306433
-0.030426
-0.0300594
-0.0295421
-0.0288646
-0.0280311
-0.0270439
-0.0258993
-0.0245895
-0.0231059
-0.021443
-0.0195982
-0.0175738
-0.0153749
-0.0130132
-0.010504
-0.0078705
-0.00514064
-0.00234905
0.000463174
0.00325346
0.00596909
0.00856327
0.0109725
0.0131461
0.0150059
0.0165016
0.0175473
0.0180716
0.0179631
0.0171533
0.0157022
0.013841
0.0119443
0.0106942
0.00997304
0.00986746
0.0104357
0.0114104
0.0126187
0.014307
0.0162298
0.018328
0.0198216
0.0200261
0.0185649
0.0135663
0.00733286
0.00189051
-0.00152892
-0.00218209
-0.000159172
0.000153317
-0.0229458
-0.0248509
-0.0258493
-0.0261349
-0.0261261
-0.026085
-0.0260706
-0.0260329
-0.0259047
-0.0256477
-0.0252384
-0.0246909
-0.0240039
-0.0231774
-0.0222092
-0.0210937
-0.0198244
-0.0183972
-0.0168107
-0.0150677
-0.0131728
-0.0111361
-0.00897019
-0.00669441
-0.00433152
-0.00191051
0.000534552
0.00296726
0.00534216
0.00761879
0.00974207
0.0116686
0.013329
0.0146831
0.0156541
0.0161988
0.0162416
0.0157632
0.0148064
0.0135458
0.0122466
0.0112972
0.0107516
0.0106597
0.0110936
0.0118703
0.0129007
0.0142743
0.0158892
0.0175351
0.0186851
0.0187529
0.0173252
0.0133525
0.00831481
0.00377273
0.00047036
-0.000536064
0.000487578
0.000280655
-0.0187107
-0.020379
-0.0212907
-0.0215996
-0.0216545
-0.0216775
-0.0217202
-0.0217411
-0.0216825
-0.0215066
-0.0212038
-0.0207788
-0.02023
-0.0195552
-0.0187528
-0.0178199
-0.0167517
-0.0155451
-0.0141991
-0.0127164
-0.0111014
-0.00936262
-0.00751052
-0.00556108
-0.00353307
-0.00145042
0.000658487
0.0027627
0.00482393
0.00680708
0.0086644
0.0103613
0.0118396
0.0130659
0.0139741
0.0145404
0.0147115
0.0144935
0.0139169
0.013114
0.0122557
0.0115879
0.0112035
0.0111457
0.0114903
0.0121058
0.0129668
0.0140549
0.0153538
0.0165842
0.0173883
0.0173145
0.0159578
0.0128008
0.00871149
0.004963
0.00186445
6.98103e-05
0.00089255
0.000369097
-0.0148532
-0.0163054
-0.01713
-0.0174487
-0.0175506
-0.0176225
-0.0177091
-0.0177758
-0.0177742
-0.0176724
-0.017461
-0.0171414
-0.0167151
-0.0161782
-0.0155285
-0.0147636
-0.0138804
-0.0128767
-0.0117514
-0.010507
-0.00914727
-0.00767934
-0.00611196
-0.00445831
-0.0027337
-0.000957909
0.000845393
0.0026508
0.00442633
0.00614213
0.00775667
0.00924192
0.0105563
0.011662
0.0125134
0.0130939
0.0133663
0.013349
0.0130584
0.0125962
0.0120676
0.0116377
0.0113956
0.0113791
0.011663
0.0121478
0.0128504
0.0136874
0.0146823
0.0155587
0.0160581
0.0158592
0.0145974
0.0120784
0.00873248
0.00564946
0.00286832
0.00109069
0.00120611
0.000437848
-0.0113523
-0.0126091
-0.0133493
-0.0136684
-0.0138046
-0.0139135
-0.0140335
-0.0141363
-0.0141816
-0.0141424
-0.0140074
-0.0137777
-0.0134588
-0.0130461
-0.0125344
-0.0119214
-0.0112055
-0.0103852
-0.0094596
-0.00843058
-0.00730115
-0.0060773
-0.00476622
-0.00337859
-0.00192692
-0.000427494
0.00110069
0.00263644
0.00415281
0.00562639
0.0070228
0.00831586
0.00946946
0.0104655
0.0112641
0.0118505
0.0121966
0.0123249
0.012245
0.0120352
0.0117492
0.0115079
0.0113843
0.0114084
0.0116493
0.0120289
0.0125851
0.0132088
0.0139317
0.014515
0.0147679
0.0144706
0.013313
0.0112872
0.00853076
0.00597761
0.00353979
0.00179789
0.00142878
0.000492331
-0.00818545
-0.0092681
-0.00992893
-0.0102424
-0.0104032
-0.0105399
-0.0106848
-0.0108152
-0.0108973
-0.0109087
-0.01084
-0.0106908
-0.0104625
-0.0101563
-0.00976654
-0.00928908
-0.00872226
-0.0080654
-0.00731803
-0.00648132
-0.00555756
-0.00455153
-0.0034691
-0.0023188
-0.00111075
0.000142071
0.00142404
0.00271795
0.00400242
0.00525743
0.00645553
0.00757705
0.00858868
0.00948016
0.0102156
0.0107952
0.0111889
0.0114171
0.0114851
0.0114469
0.0113446
0.011248
0.0112186
0.0112774
0.0114856
0.01178
0.0122053
0.0126519
0.0131455
0.0134964
0.0135569
0.0131911
0.0121357
0.0104849
0.00820498
0.00606061
0.00396055
0.00227464
0.0015756
0.000533426
-0.0053316
-0.00626058
-0.00684838
-0.00715247
-0.00733043
-0.00748747
-0.00765065
-0.00780169
-0.0079129
-0.00796541
-0.00795148
-0.00786929
-0.00772027
-0.00750453
-0.00722014
-0.00686169
-0.00642638
-0.00591354
-0.00532313
-0.00465602
-0.00391386
-0.00310027
-0.00221988
-0.00127946
-0.000287018
0.000747157
0.00181056
0.00288954
0.00396674
0.00502619
0.00604607
0.00701056
0.00789359
0.00868357
0.00935657
0.00991183
0.0103289
0.0106213
0.0107891
0.0108696
0.0108916
0.0109
0.0109404
0.0110254
0.0112059
0.0114311
0.0117437
0.0120462
0.0123526
0.0125253
0.0124446
0.0120352
0.0110754
0.00970525
0.00781349
0.00598623
0.00417702
0.00257862
0.00166376
0.000560297
-0.00277048
-0.00356505
-0.00408668
-0.00437918
-0.00456875
-0.00474049
-0.00491671
-0.00508288
-0.00521657
-0.0053022
-0.00533308
-0.00530747
-0.00522473
-0.00508565
-0.00489047
-0.00463438
-0.00431338
-0.00392616
-0.00347253
-0.00295326
-0.00236963
-0.00172431
-0.0010208
-0.000264301
0.000538892
0.00138081
0.00225164
0.00314062
0.00403401
0.0049193