/*--------------------------------*- C++ -*----------------------------------*\
| =========                 |                                                 |
| \\      /  F ield         | OpenFOAM: The Open Source CFD Toolbox           |
|  \\    /   O peration     | Version:  2512                                  |
|   \\  /    A nd           | Website:  www.openfoam.com                      |
|    \\/     M anipulation  |                                                 |
\*---------------------------------------------------------------------------*/
FoamFile
{
    version     2.0;
    format      ascii;
    arch        "LSB;label=32;scalar=64";
    class       surfaceScalarField;
    location    "186";
    object      phi;
}
// * * * * * * * * * * * * * * * * * * * * * * * * * * * * * * * * * * * * * //

dimensions      [0 3 -1 0 0 0 0];

oriented        oriented;

internalField   nonuniform List<scalar> 
26232
(
0.000111222
0.000820273
-0.000931495
0.000528492
0.00122436
-0.00164163
0.00137852
0.000583611
-0.00143364
0.0028097
-0.00101094
-0.000420238
0.00498105
-0.00350453
0.00133318
0.00805037
-0.00686206
0.00379273
0.0121598
-0.011052
0.00694261
0.0174184
-0.0160287
0.01077
0.0238853
-0.021717
0.0152501
0.0315539
-0.0280025
0.0203339
0.0403442
-0.0347321
0.0259418
0.0501031
-0.0417214
0.0319626
0.0606146
-0.0487707
0.0382591
0.0716199
-0.0556827
0.0446775
0.082841
-0.0622815
0.0510604
0.0940078
-0.0684268
0.05726
0.104882
-0.0740245
0.06315
0.115278
-0.0790301
0.0686347
0.125071
-0.083446
0.0736528
0.134207
-0.0873207
0.078185
0.142686
-0.0907163
0.0822368
0.15058
-0.0937673
0.0858739
0.157903
-0.0964656
0.0891426
-0.0991437
0.0923931
0.164653
0.000172207
0.000648066
0.000807774
0.000588794
0.00205758
-0.000666194
0.00408632
-0.00303968
0.0070612
-0.00647941
0.0111341
-0.0109349
0.0164185
-0.0163364
0.0229658
-0.022576
0.0307449
-0.0294961
0.0396323
-0.03689
0.0494163
-0.0445161
0.0598153
-0.0521204
0.070508
-0.0594633
0.0811691
-0.0663438
0.0915049
-0.0726173
0.101282
-0.0782044
0.110349
-0.083091
0.118639
-0.0873201
0.126171
-0.0909784
0.133032
-0.0941811
0.139363
-0.0970474
0.14532
-0.0997241
0.151086
-0.102232
-0.104934
0.156876
0.000237382
0.000410684
0.00110763
-0.000281456
0.0027889
-0.00234746
0.00545983
-0.00571061
0.00928368
-0.0103033
0.0143809
-0.0160322
0.0207982
-0.0227536
0.0284816
-0.0302595
0.0372654
-0.0382799
0.04688
-0.0465045
0.056981
-0.0546171
0.0671927
-0.0623321
0.0771565
-0.0694271
0.0865744
-0.0757617
0.0952399
-0.0812828
0.103053
-0.0860176
0.110018
-0.0900558
0.116225
-0.093527
0.121824
-0.0965777
0.126995
-0.0993521
0.131922
-0.101974
0.136752
-0.104555
0.141641
-0.10712
-0.109909
0.146616
0.000316463
9.42212e-05
0.00145373
-0.00141872
0.00361097
-0.0045047
0.00696794
-0.00906758
0.0116585
-0.0149938
0.0177328
-0.0221065
0.0251231
-0.0301439
0.0336283
-0.0387647
0.0429269
-0.0475784
0.0526175
-0.0561952
0.0622779
-0.0642774
0.071526
-0.0715803
0.080071
-0.0779721
0.087742
-0.0834327
0.0944942
-0.088035
0.100392
-0.0919159
0.10558
-0.0952434
0.110241
-0.0981883
0.114567
-0.100903
0.118726
-0.103511
0.122852
-0.1061
0.127038
-0.108741
0.131354
-0.111437
-0.114355
0.135801
0.000415201
-0.000320979
0.0018587
-0.00286222
0.00453416
-0.00718017
0.0085971
-0.0131305
0.0141138
-0.0205106
0.0210175
-0.0290102
0.0290855
-0.0382119
0.0379538
-0.047633
0.0471697
-0.0567943
0.0562672
-0.0652927
0.064843
-0.0728532
0.0726129
-0.0793502
0.0794379
-0.0847971
0.0853181
-0.0893129
0.0903628
-0.0930798
0.0947472
-0.0963002
0.0986683
-0.0991645
0.102311
-0.101831
0.105826
-0.104418
0.109323
-0.107008
0.112876
-0.109654
0.116524
-0.112389
0.1203
-0.115213
-0.118235
0.124179
0.000534369
-0.000855348
0.00231852
-0.00464637
0.00553388
-0.0103955
0.010275
-0.0178717
0.0164953
-0.0267308
0.0239705
-0.0364854
0.0323088
-0.0465502
0.0410119
-0.0563362
0.0495688
-0.0653512
0.0575482
-0.0732721
0.0646634
-0.0799683
0.0707943
-0.0854811
0.0759712
-0.089974
0.0803317
-0.0936734
0.0840681
-0.0968161
0.0873802
-0.0996124
0.0904437
-0.102228
0.0933944
-0.104781
0.0963268
-0.10735
0.0993014
-0.109983
0.102354
-0.112706
0.105501
-0.115535
0.108759
-0.118472
-0.121573
0.112098
0.00067021
-0.00152556
0.0028136
-0.00678976
0.00655431
-0.0141362
0.0118827
-0.0232
0.0185978
-0.033446
0.0263008
-0.0441884
0.034457
-0.0547064
0.0425059
-0.0643851
0.0499754
-0.0728207
0.0565584
-0.079855
0.0621356
-0.0855455
0.0667508
-0.0900963
0.0705566
-0.0937798
0.0737541
-0.096871
0.0765436
-0.0996056
0.0790939
-0.102163
0.0815309
-0.104665
0.0839399
-0.10719
0.0863742
-0.109785
0.0888647
-0.112473
0.0914277
-0.115269
0.0940698
-0.118177
0.096797
-0.121199
-0.124359
0.0995823
0.000815676
-0.00234123
0.00331319
-0.00928728
0.00751956
-0.0183426
0.0132794
-0.0289598
0.0202141
-0.0403807
0.0277681
-0.0517424
0.035329
-0.0622673
0.0423665
-0.0714225
0.0485294
-0.0789837
0.0536769
-0.0850025
0.0578486
-0.0897171
0.0612012
-0.093449
0.063941
-0.0965196
0.0662695
-0.0991996
0.0683535
-0.10169
0.0703143
-0.104123
0.0722325
-0.106583
0.0741572
-0.109115
0.0761169
-0.111744
0.0781267
-0.114483
0.0801941
-0.117336
0.0823213
-0.120305
0.0845102
-0.123388
-0.126589
0.0867405
0.000961611
-0.00330284
0.00378039
-0.0121061
0.00834706
-0.0229093
0.0143309
-0.0349437
0.021181
-0.0472308
0.0282379
-0.0587993
0.0348963
-0.0689257
0.0407338
-0.07726
0.0455603
-0.0838102
0.0493912
-0.0888334
0.0523769
-0.0927028
0.0547258
-0.0957978
0.0566434
-0.0984373
0.0582989
-0.100855
0.0598142
-0.103205
0.0612686
-0.105578
0.0627098
-0.108024
0.0641647
-0.11057
0.0656484
-0.113228
0.0671685
-0.116003
0.0687285
-0.118896
0.0703294
-0.121906
0.0719701
-0.125029
-0.128257
0.073638
0.0010975
-0.00440035
0.00417681
-0.0151854
0.0089604
-0.0276929
0.0149336
-0.040917
0.0214091
-0.0537062
0.0276976
-0.0650879
0.033277
-0.0745051
0.0378755
-0.0818585
0.0414587
-0.0873934
0.0441566
-0.0915314
0.0461755
-0.0947217
0.0477271
-0.0973494
0.0489876
-0.0996977
0.0500839
-0.101951
0.0510982
-0.104219
0.0520788
-0.106558
0.0530529
-0.108998
0.0540354
-0.111553
0.0550344
-0.114227
0.0560543
-0.117023
0.0570966
-0.119939
0.0581614
-0.12297
0.0592466
-0.126114
-0.129356
0.0603458
0.00121294
-0.00561329
0.00446831
-0.0184407
0.0093013
-0.0325259
0.0150297
-0.0466453
0.020889
-0.0595656
0.0262347
-0.0704335
0.0306765
-0.0789469
0.0340975
-0.0852794
0.0365857
-0.0898817
0.0383365
-0.0932822
0.0395676
-0.0959528
0.0404664
-0.0982482
0.0411699
-0.100401
0.0417668
-0.102548
0.042309
-0.104761
0.042825
-0.107074
0.0433304
-0.109504
0.0438336
-0.112056
0.0443398
-0.114733
0.0448513
-0.117535
0.045369
-0.120456
0.0458919
-0.123493
0.0464171
-0.126639
-0.129881
0.046942
0.00130146
-0.00691475
0.00463209
-0.0217714
0.00933835
-0.0372321
0.0146116
-0.0519186
0.0196803
-0.0646343
0.0240015
-0.0747546
0.0273335
-0.0822789
0.0296908
-0.0876367
0.0312406
-0.0914315
0.0322018
-0.0942434
0.0327753
-0.0965264
0.0331132
-0.0985861
0.0333154
-0.100603
0.0334404
-0.102673
0.03352
-0.104841
0.0335709
-0.107125
0.0336021
-0.109535
0.0336188
-0.112073
0.0336247
-0.114739
0.0336215
-0.117531
0.0336101
-0.120445
0.0335892
-0.123472
0.0335556
-0.126605
0.0335093
-0.129835
-0.000222287
-0.00206805
0.00229034
-0.000807521
-0.0053941
0.00597933
-0.00170937
-0.00810405
0.0090059
-0.00288488
-0.0102557
0.0114312
-0.00428981
-0.0119376
0.0133425
-0.00588005
-0.013264
0.0148542
-0.00761436
-0.014352
0.0160863
-0.00945654
-0.0153018
0.017144
-0.0113761
-0.0161851
0.0181046
-0.0133471
-0.0170404
0.0190115
-0.0153467
-0.0178761
0.0198757
-0.0173519
-0.0186757
0.0206808
-0.0193369
-0.0194035
0.0213885
-0.0212716
-0.0200098
0.0219444
-0.023119
-0.0204342
0.0222817
-0.0248351
-0.0206074
0.0223235
-0.0263681
-0.020453
0.0219859
-0.0276589
-0.0198887
0.0211795
-0.028644
-0.0188287
0.0198138
-0.0292571
-0.0171874
0.0178005
-0.029431
-0.0148856
0.0150596
-0.0291071
-0.0118497
0.0115258
-0.0282634
-0.00799593
0.00715222
-0.0032371
-0.0269431
0.00191679
-0.000320586
-0.00174746
-0.00112112
-0.00459357
-0.00230587
-0.0069193
-0.0037994
-0.00876213
-0.0055382
-0.0101988
-0.00746944
-0.0113327
-0.00955081
-0.0122706
-0.0117498
-0.0131029
-0.0140418
-0.013893
-0.0164077
-0.0146745
-0.0188305
-0.0154533
-0.0212924
-0.0162138
-0.0237722
-0.0169237
-0.0262429
-0.017539
-0.0286704
-0.0180067
-0.0310116
-0.0182662
-0.0332146
-0.01825
-0.0352183
-0.0178849
-0.0369551
-0.0170919
-0.0383543
-0.0157882
-0.0393489
-0.013891
-0.0398805
-0.0113181
-0.0399069
-0.00796954
-0.00370544
-0.0394386
-0.000395163
-0.0013523
-0.00135414
-0.00363459
-0.00273938
-0.00553407
-0.0044477
-0.00705381
-0.00639896
-0.00824752
-0.00853213
-0.00919955
-0.0108023
-0.0100004
-0.0131771
-0.010728
-0.0156335
-0.0114366
-0.0181532
-0.0121548
-0.0207193
-0.0128872
-0.0233133
-0.0136198
-0.0259126
-0.0143244
-0.0284887
-0.0149629
-0.0310059
-0.0154895
-0.03342
-0.015852
-0.0356777
-0.0159924
-0.0377159
-0.0158467
-0.0394629
-0.0153449
-0.0408429
-0.0144083
-0.0417837
-0.0129502
-0.042223
-0.0108788
-0.0420942
-0.00809831
-0.0044447
-0.0413549
-0.000439071
-0.000913229
-0.00148787
-0.00258579
-0.00297921
-0.00404272
-0.00478916
-0.00524385
-0.00682426
-0.00621243
-0.00901564
-0.00700817
-0.0113139
-0.0077022
-0.0136836
-0.00835822
-0.0160984
-0.00902185
-0.0185359
-0.00971739
-0.0209738
-0.0104493
-0.0233874
-0.0112061
-0.0257474
-0.0119644
-0.0280185
-0.0126919
-0.0301584
-0.0133496
-0.0321171
-0.0138933
-0.0338356
-0.0142739
-0.0352443
-0.014438
-0.0362621
-0.0143271
-0.0367964
-0.0138739
-0.0367516
-0.0129951
-0.036038
-0.0115924
-0.0345691
-0.0095672
-0.00674133
-0.0322724
-0.000449157
-0.000464072
-0.00151388
-0.00152107
-0.00301212
-0.00254448
-0.0048073
-0.00344867
-0.00679617
-0.00422356
-0.00890235
-0.00490199
-0.0110701
-0.00553448
-0.0132577
-0.0061706
-0.0154317
-0.00684785
-0.0175616
-0.00758747
-0.0196162
-0.00839477
-0.0215606
-0.00926169
-0.0233553
-0.0101697
-0.0249549
-0.0110923
-0.026308
-0.0119966
-0.0273564
-0.0128448
-0.0280348
-0.0135955
-0.0282687
-0.0142042
-0.0279721
-0.0146238
-0.0270423
-0.0148037
-0.025356
-0.0146813
-0.0227837
-0.0141646
-0.0192175
-0.0131335
-0.0114812
-0.0144776
-0.000425725
-3.8347e-05
-0.00143329
-0.000513504
-0.00284043
-0.00113734
-0.00450581
-0.00178329
-0.00631945
-0.00240993
-0.00819737
-0.00302406
-0.0100753
-0.00365653
-0.0119021
-0.00434377
-0.0136337
-0.00511626
-0.015228
-0.00599321
-0.0166413
-0.00698148
-0.0178262
-0.00807674
-0.0187308
-0.00926517
-0.0192979
-0.0105251
-0.0194661
-0.0118284
-0.0191693
-0.0131416
-0.0183373
-0.0144276
-0.0168943
-0.0156471
-0.0147576
-0.0167606
-0.0118314
-0.0177299
-0.00799457
-0.0185181
-0.00308111
-0.0190781
0.00309259
-0.0193072
-0.0190337
0.010645
-0.000372602
0.000334255
-0.00125652
0.000370418
-0.00248118
8.7325e-05
-0.00390736
-0.000357113
-0.0054199
-0.000897392
-0.00692666
-0.00151731
-0.00835213
-0.00223105
-0.00963192
-0.00306398
-0.0107072
-0.004041
-0.0115202
-0.00518016
-0.0120116
-0.00649013
-0.0121185
-0.00796977
-0.011775
-0.00960867
-0.0109123
-0.0113879
-0.00945982
-0.0132808
-0.00734686
-0.0152546
-0.00450306
-0.0172714
-0.000858964
-0.0192912
0.00365422
-0.0212737
0.00910707
-0.0231828
0.0155762
-0.0249873
0.0231789
-0.0266808
0.0319597
-0.0280879
-0.0298142
0.0427402
-0.000296378
0.000630633
-0.00100203
0.00107607
-0.00196694
0.00105223
-0.00305518
0.000731129
-0.00414842
0.00019585
-0.00514556
-0.00052017
-0.00595639
-0.00142022
-0.0064996
-0.00252077
-0.00669779
-0.00384281
-0.00647437
-0.00540358
-0.00575194
-0.00721256
-0.00445211
-0.00926961
-0.00249672
-0.0115641
0.00019018
-0.0140748
0.00368
-0.0167707
0.00803783
-0.0196124
0.0133207
-0.0225543
0.019577
-0.0255475
0.026847
-0.0285437
0.0351642
-0.0315
0.044546
-0.0343691
0.0550634
-0.0371982
0.066591
-0.0396155
-0.0430648
0.0798416
-0.000206822
0.000837455
-0.000696956
0.00156621
-0.00134136
0.00169663
-0.00201087
0.00140064
-0.0025841
0.000769079
-0.00294615
-0.000158122
-0.00299229
-0.00137408
-0.00262194
-0.00289113
-0.00173792
-0.00472683
-0.000245395
-0.0068961
0.00194767
-0.00940562
0.00492831
-0.0122502
0.00877546
-0.0154112
0.0135564
-0.0188557
0.0193233
-0.0225376
0.0261114
-0.0264005
0.0339375
-0.0303804
0.042801
-0.0344111
0.0526856
-0.0384283
0.0635631
-0.0423774
0.0753889
-0.046195
0.0881457
-0.0499549
0.101673
-0.0531432
-0.0576696
0.116278
-0.000114276
0.000951731
-0.000370759
0.00182269
-0.00065783
0.0019837
-0.000850823
0.00159364
-0.000822627
0.000740883
-0.000447662
-0.000533087
0.000396457
-0.0022182
0.00182774
-0.00432241
0.0039591
-0.00685819
0.00689611
-0.0098331
0.0107329
-0.0132424
0.0155473
-0.0170646
0.0213952
-0.0212591
0.0283064
-0.0257669
0.0362816
-0.0305128
0.0452922
-0.035411
0.055282
-0.0403703
0.0661725
-0.0453015
0.0778678
-0.0501236
0.09026
-0.0547696
0.103244
-0.0591793
0.116686
-0.0633961
0.130548
-0.0670055
-0.071647
0.144525
-2.77667e-05
0.000979498
-4.98247e-05
0.00184475
3.66031e-05
0.00189728
0.000355922
0.00127432
0.00104235
5.44582e-05
0.00223347
-0.00172421
0.00406521
-0.00404994
0.00666733
-0.00692453
0.010158
-0.0103489
0.0146367
-0.0143118
0.0201761
-0.0187819
0.026815
-0.0237035
0.0345518
-0.028996
0.0433428
-0.0345578
0.0531025
-0.0402726
0.06371
-0.0460184
0.0750169
-0.0516772
0.086859
-0.0571436
0.0990676
-0.0623322
0.111481
-0.0671834
0.123965
-0.0716626
0.136355
-0.0757865
0.148757
-0.0794072
-0.083359
0.160469
4.8003e-05
0.000251118
0.000714753
0.00156883
0.00295647
0.00502499
0.00791766
0.0117632
0.0166644
0.0226865
0.0298464
0.0381056
0.0473687
0.0574883
0.0682761
0.0795177
0.0909905
0.102482
0.113802
0.124804
0.135378
0.145465
0.155201
0.164235
-0.0229248
0.0023283
-0.00634663
-0.0183582
0.0144095
-0.0189761
-0.0132109
0.0283854
-0.0335327
-0.00765807
0.0437713
-0.0493241
-0.00193247
0.0599498
-0.0656754
0.00367657
0.0761965
-0.0818056
0.00882755
0.0917623
-0.0969132
0.0132481
0.105929
-0.110349
0.0172693
0.117595
-0.121616
0.0214364
0.126159
-0.130326
0.0268172
0.130172
-0.135553
0.0345582
0.127666
-0.135407
0.0452575
0.116594
-0.127294
0.0584991
0.0957919
-0.109033
0.073096
0.0654735
-0.0800704
0.087858
0.0268316
-0.0415936
0.101996
-0.0178957
0.00375779
0.11496
-0.0649416
0.0519779
0.125953
-0.10773
0.0967362
0.134106
-0.139889
0.131736
0.138934
-0.159024
0.154196
0.140737
-0.167327
0.165525
0.140368
-0.168639
0.169007
0.138116
-0.166709
0.168961
0.133292
-0.166578
0.171402
0.125833
-0.172131
0.17959
0.118058
-0.178575
0.186349
0.113811
-0.169661
0.173908
0.115528
-0.129962
0.128245
0.122724
-0.0598438
0.0526479
0.132738
0.0226983
-0.0327127
0.142622
0.0972891
-0.107173
0.150444
0.151029
-0.158852
0.155644
0.181554
-0.186754
0.157725
0.196436
-0.198516
0.155644
0.20885
-0.20677
0.149437
0.228806
-0.222599
0.141656
0.23975
-0.231969
0.13624
0.218499
-0.213083
0.135496
0.144386
-0.143642
0.139403
0.0394188
-0.0433257
0.145791
-0.0692299
0.0628415
0.15223
-0.150784
0.144345
0.155494
-0.19714
0.193876
0.153158
-0.229568
0.231904
0.14599
-0.243264
0.250432
0.138661
-0.256039
0.263367
0.13578
-0.19875
0.201631
0.139241
-0.115547
0.112086
0.145524
0.00963568
-0.0159186
0.14939
0.119734
-0.1236
0.148025
0.194391
-0.193026
0.143963
0.292656
-0.288593
0.141541
0.259624
-0.257202
0.142711
0.25285
-0.25402
0.144498
0.0995039
-0.101291
0.144683
-0.0483933
0.048208
0.143363
-0.137853
0.139174
0.14135
-0.358009
0.360022
-0.205102
0.206872
-0.0357164
-0.00139389
-0.0311167
0.00980975
-0.025672
0.0229407
-0.0194867
0.0375861
-0.0127265
0.0531896
-0.00562904
0.0690991
0.0015642
0.084569
0.00912917
0.0983638
0.016949
0.109775
0.025578
0.11753
0.0356991
0.120051
0.0477657
0.115599
0.0616216
0.102738
0.0764315
0.080982
0.0910105
0.0508944
0.104546
0.0132962
0.116607
-0.029957
0.126939
-0.0752738
0.134942
-0.115732
0.140056
-0.145004
0.142158
-0.161126
0.141698
-0.166867
0.139576
-0.166518
0.136208
-0.163341
0.130776
-0.161145
0.122637
-0.163992
0.113653
-0.169591
0.10801
-0.164017
0.108996
-0.130949
0.116508
-0.0673557
0.127732
0.0114745
0.139274
0.0857477
0.14895
0.141353
0.155893
0.174611
0.15932
0.193009
0.158288
0.209882
0.153091
0.234003
0.146235
0.246605
0.141228
0.223506
0.140043
0.145571
0.142812
0.0366496
0.147603
-0.0740211
0.152614
-0.155795
0.154983
-0.199509
0.152244
-0.226829
0.144815
-0.235834
0.137342
-0.248567
0.134642
-0.19605
0.138489
-0.119394
0.145202
0.00292203
0.149264
0.115673
0.14816
0.195495
0.144203
0.296613
0.141781
0.262046
0.143131
0.251499
0.145141
0.0974947
0.145496
-0.0487486
0.14411
-0.136467
0.142014
-0.355913
-0.203324
-0.0381192
-0.00462964
-0.0337912
0.00548178
-0.0283684
0.0175179
-0.0218511
0.0310688
-0.0142246
0.0455631
-0.00580759
0.0606821
0.00369738
0.075064
0.0140848
0.0879764
0.0252666
0.0985931
0.0374615
0.105335
0.0508774
0.106635
0.0654453
0.101031
0.0806291
0.0875546
0.0954717
0.0661394
0.109007
0.037359
0.120635
0.00166858
0.130371
-0.0396936
0.137989
-0.0828917
0.143022
-0.120765
0.145197
-0.147178
0.144763
-0.160692
0.142332
-0.164437
0.138741
-0.162927
0.134483
-0.159082
0.12877
-0.155433
0.120424
-0.155646
0.110581
-0.159748
0.103489
-0.156925
0.103336
-0.130795
0.110677
-0.074697
0.122732
-0.000580826
0.135714
0.0727656
0.147176
0.129891
0.155866
0.165921
0.160741
0.188134
0.160979
0.209644
0.157023
0.237959
0.151181
0.252448
0.146522
0.228166
0.144792
0.147301
0.146277
0.0351639
0.149436
-0.0771796
0.152966
-0.159326
0.154466
-0.201008
0.151442
-0.223805
0.143889
-0.22828
0.13631
-0.240988
0.133723
-0.193462
0.137845
-0.123516
0.144945
-0.00417739
0.149232
0.111385
0.148431
0.196296
0.144564
0.30048
0.142106
0.264504
0.143655
0.24995
0.145926
0.0952238
0.146461
-0.0492837
0.145003
-0.135009
0.142813
-0.353723
-0.201549
-0.0297185
-0.00718358
-0.0256787
0.00144196
-0.020424
0.0122632
-0.0138998
0.0245446
-0.00605102
0.0377143
0.00371006
0.050921
0.0148943
0.0638798
0.0270939
0.0757767
0.040355
0.0853321
0.0545952
0.0910945
0.0696195
0.0916109
0.085009
0.0856418
0.100061
0.0725022
0.113894
0.0523069
0.125755
0.0254979
0.135356
-0.00793206
0.142809
-0.0471471
0.147861
-0.0879437
0.150095
-0.122999
0.149512
-0.146595
0.146751
-0.157931
0.14262
-0.160306
0.137822
-0.158129
0.132829
-0.154089
0.127048
-0.149652
0.118983
-0.147581
0.108834
-0.149599
0.100413
-0.148504
0.0987022
-0.129085
0.105271
-0.0812659
0.117697
-0.0130071
0.131892
0.0585708
0.145037
0.116747
0.155459
0.155498
0.161886
0.181707
0.163603
0.207927
0.161092
0.24047
0.156336
0.257204
0.151948
0.232554
0.149569
0.14968
0.149755
0.0349784
0.151256
-0.0786807
0.15328
-0.16135
0.153917
-0.201645
0.150698
-0.220585
0.143144
-0.220727
0.135495
-0.233339
0.132953
-0.19092
0.137255
-0.127819
0.144711
-0.0116332
0.149279
0.106817
0.148836
0.19674
0.145062
0.304254
0.14254
0.267026
0.14429
0.2482
0.146849
0.0926649
0.147573
-0.0500076
0.146039
-0.133475
0.14374
-0.351424
-0.199784
-0.0124286
-0.00923256
-0.00886969
-0.00211695
-0.00412227
0.00751575
0.00254869
0.0178736
0.0111375
0.0291255
0.0212168
0.0408417
0.0326668
0.0524299
0.0454328
0.0630107
0.0593434
0.0714215
0.0740971
0.0763407
0.0892434
0.0764646
0.104172
0.0707129
0.118151
0.0585234
0.130438
0.0400201
0.140528
0.0154074
0.148325
-0.0157286
0.153726
-0.0525484
0.156361
-0.0905782
0.155923
-0.122561
0.152782
-0.143455
0.147958
-0.153107
0.142424
-0.154772
0.136722
-0.152428
0.131182
-0.148548
0.125452
-0.143921
0.118019
-0.140148
0.108184
-0.139764
0.0988193
-0.13914
0.0952829
-0.125549
0.10051
-0.0864929
0.112681
-0.0251778
0.127781
0.0434698
0.142427
0.102101
0.154526
0.1434
0.162593
0.173639
0.165983
0.204537
0.165099
0.241354
0.1615
0.260803
0.157349
0.236705
0.154262
0.152767
0.153121
0.0361187
0.153011
-0.0785699
0.153528
-0.161868
0.153306
-0.201423
0.149963
-0.217243
0.14252
-0.213284
0.134828
-0.225647
0.132261
-0.188353
0.136656
-0.132213
0.144457
-0.0194341
0.149379
0.101895
0.149368
0.19675
0.145709
0.307913
0.143102
0.269633
0.145042
0.24626
0.147903
0.0898038
0.148824
-0.0509285
0.147212
-0.131863
0.144787
-0.348999
-0.198037
0.0122495
-0.010837
0.014873
-0.00474044
0.0194931
0.00289559
0.0255158
0.011851
0.0331921
0.0214491
0.0425757
0.0314581
0.0535165
0.0414891
0.0658468
0.0506803
0.0792928
0.0579756
0.0934241
0.0622094
0.107664
0.0622246
0.121337
0.05704
0.133755
0.0461052
0.144364
0.0294114
0.152867
0.00690405
0.159126
-0.0219877
0.162738
-0.0561599
0.163137
-0.0909774
0.160239
-0.119663
0.154854
-0.138069
0.148302
-0.146555
0.141659
-0.148129
0.13533
-0.146099
0.129425
-0.142643
0.123785
-0.138282
0.117179
-0.133542
0.10824
-0.130825
0.098564
-0.129464
0.0932522
-0.120237
0.0965526
-0.0897932
0.107858
-0.0364836
0.123382
0.0279465
0.139242
0.0862407
0.152898
0.129743
0.162662
0.163876
0.167886
0.199314
0.168795
0.240444
0.166456
0.263142
0.162544
0.240617
0.158707
0.156604
0.156292
0.0385336
0.154639
-0.076917
0.153676
-0.160905
0.152591
-0.200338
0.149184
-0.213836
0.141947
-0.206047
0.134236
-0.217936
0.131576
-0.185693
0.135979
-0.136617
0.144126
-0.0275809
0.149493
0.0965275
0.150011
0.196232
0.146513
0.311411
0.143808
0.272338
0.145911
0.244157
0.149077
0.0866384
0.150202
-0.0520537
0.148512
-0.130173
0.145942
-0.346429
-0.196315
0.0424746
-0.0105714
0.0433798
-0.00564562
0.0463576
-8.22091e-05
0.0507305
0.00747805
0.0569654
0.0152142
0.0649935
0.02343
0.0746844
0.0317982
0.085825
0.0395397
0.0980595
0.0457411
0.110892
0.0493766
0.123707
0.0494098
0.135832
0.0449153
0.146652
0.0352845
0.155704
0.0203595
0.16295
-0.000341867
0.167794
-0.0268315
0.169681
-0.0580473
0.167958
-0.0892537
0.162857
-0.114562
0.155601
-0.130814
0.147706
-0.13866
0.140249
-0.140672
0.133538
-0.139387
0.127455
-0.13656
0.121908
-0.132735
0.116118
-0.127752
0.108492
-0.123199
0.0992722
-0.120244
0.0926102
-0.113575
0.0936565
-0.0908394
0.103368
-0.0461954
0.118729
0.0125853
0.135399
0.069571
0.150426
0.114716
0.161885
0.152417
0.169066
0.192133
0.171929
0.23758
0.17098
0.264092
0.167376
0.244221
0.16281
0.161171
0.159127
0.0422167
0.156072
-0.0738625
0.153683
-0.158516
0.151729
-0.198384
0.148304
-0.21041
0.14136
-0.199103
0.133651
-0.210227
0.13083
-0.182872
0.135157
-0.140944
0.143658
-0.0360812
0.149575
0.0906104
0.150738
0.195068
0.147473
0.314677
0.144668
0.275143
0.146902
0.241924
0.150357
0.0831831
0.151696
-0.0533925
0.149926
-0.128404
0.147192
-0.343695
-0.194628
0.0772621
-0.0079919
0.0760001
-0.0043836
0.0764714
-0.000553534
0.0785944
0.00535504
0.0825079
0.0113007
0.0883046
0.0176333
0.0959049
0.0241979
0.105078
0.030367
0.115439
0.0353801
0.126475
0.0383399
0.13757
0.0383153
0.148065
0.0344203
0.157382
0.0259674
0.165059
0.0126823
0.170988
-0.0062706
0.174373
-0.0302169
0.17443
-0.0581039
0.170651
-0.0854752
0.163653
-0.107564
0.154964
-0.122125
0.146145
-0.129841
0.138166
-0.132693
0.131261
-0.132482
0.125171
-0.13047
0.119734
-0.127298
0.114607
-0.122625
0.108427
-0.117019
0.100372
-0.112188
0.0931113
-0.106315
0.0919108
-0.089639
0.0994595
-0.0537441
0.113933
-0.00188841
0.130886
0.0526184
0.147005
0.0985972
0.160089
0.139333
0.169277
0.182945
0.174197
0.23266
0.174781
0.263507
0.171612
0.24739
0.166397
0.166386
0.161574
0.0470392
0.157237
-0.0695253
0.153506
-0.154785
0.150674
-0.195552
0.147264
-0.207001
0.140699
-0.192538
0.133015
-0.202543
0.129968
-0.179824
0.134129
-0.145106
0.142988
-0.0449395
0.149567
0.0840308
0.151512
0.193123
0.148577
0.317612
0.145688
0.278032
0.148003
0.239609
0.151736
0.0794501
0.15329
-0.0549464
0.151439
-0.126553
0.148521
-0.340777
-0.192986
0.112425
-0.00413871
0.109829
-0.00178737
0.108154
0.00112077
0.108245
0.00526394
0.10981
0.00973617
0.113104
0.0143389
0.118142
0.0191608
0.124762
0.0237461
0.132665
0.0274778
0.141402
0.0296027
0.1504
0.0293177
0.159022
0.0257974
0.166675
0.0183151
0.172792
0.00656504
0.177081
-0.0105595
0.17869
-0.0318262
0.176742
-0.0561557
0.171039
-0.0797717
0.162538
-0.0990628
0.152893
-0.11248
0.143563
-0.120511
0.135334
-0.124464
0.128376
-0.125525
0.122403
-0.124496
0.117138
-0.122034
0.112493
-0.117979
0.107621
-0.112147
0.101185
-0.105753
0.0942272
-0.0993566
0.0912838
-0.0866956
0.09635
-0.0588103
0.109108
-0.0146464
0.125754
0.0359727
0.142579
0.0817716
0.157119
0.124793
0.168322
0.171742
0.175436
0.225546
0.177699
0.261245
0.175065
0.250023
0.169355
0.172097
0.16351
0.0528841
0.158044
-0.0640597
0.153078
-0.149819
0.149362
-0.191835
0.145991
-0.20363
0.139902
-0.186449
0.132279
-0.194921
0.128942
-0.176487
0.13284
-0.149005
0.142053
-0.0541525
0.149407
0.0766777
0.152284
0.190245
0.149805
0.320091
0.146863
0.280973
0.149212
0.23726
0.153195
0.0754664
0.154968
-0.0567191
0.153032
-0.124617
0.149914
-0.337659
-0.191407
0.140879
-0.000492112
0.137823
0.00126833
0.135631
0.00331304
0.134718
0.00617698
0.13501
0.00944389
0.136605
0.0127439
0.139596
0.01617
0.143909
0.0194327
0.14936
0.0220265
0.155629
0.0233338
0.162251
0.0226956
0.168661
0.0193877
0.174299
0.0126775
0.178541
0.00232264
0.180796
-0.0128146
0.180289
-0.0313186
0.176303
-0.0521699
0.168975
-0.072444
0.159461
-0.0895487
0.149338
-0.102358
0.13985
-0.111022
0.131594
-0.116208
0.12469
-0.11862
0.118912
-0.118718
0.113913
-0.117035
0.109641
-0.113707
0.105788
-0.108294
0.101086
-0.10105
0.0952358
-0.0935066
0.0913817
-0.0828415
0.0940337
-0.0614623
0.104514
-0.0251263
0.120134
0.0203518
0.137172
0.0647338
0.1529
0.109066
0.165986
0.158656
0.175262
0.21627
0.179349
0.257157
0.177508
0.251865
0.171487
0.178117
0.164857
0.0595144
0.158431
-0.0576335
0.152363
-0.143752
0.14776
-0.187232
0.144425
-0.200294
0.138915
-0.18094
0.131426
-0.187431
0.127737
-0.172798
0.131247
-0.152514
0.140793
-0.0636985
0.149026
0.0684445
0.152994
0.186278
0.151118
0.321967
0.14818
0.283911
0.150517
0.234923
0.154718
0.0712659
0.15671
-0.0587114
0.154688
-0.122595
0.151357
-0.334327
-0.189912
0.157165
0.00281164
0.154744
0.00368937
0.152976
0.0050807
0.152154
0.00699946
0.152297
0.00930019
0.15328
0.0117615
0.155289
0.0141604
0.158295
0.0164272
0.162131
0.0181905
0.166527
0.0189379
0.171131
0.0180915
0.175481
0.0150374
0.178973
0.00918609
0.181057
0.000238425
0.181353
-0.0131104
0.178853
-0.0288193
0.173219
-0.0465356
0.164854
-0.064079
0.154943
-0.0796376
0.144835
-0.0922493
0.13551
-0.101697
0.127412
-0.108111
0.120628
-0.111836
0.115036
-0.113126
0.11032
-0.112319
0.106334
-0.109721
0.103125
-0.105085
0.0998963
-0.097822
0.095599
-0.0892093
0.0917419
-0.0789845
0.0924084
-0.0621288
0.100337
-0.0330544
0.114208
0.00648023
0.130844
0.0480984
0.147426
0.0924838
0.162368
0.143714
0.173977
0.204661
0.180017
0.251117
0.178975
0.252907
0.172894
0.184198
0.165643
0.0667652
0.158488
-0.0504785
0.151465
-0.136729
0.14599
-0.181757
0.142625
-0.196929
0.137753
-0.176068
0.130491
-0.180169
0.126396
-0.168704
0.129366
-0.155484
0.13915
-0.073483
0.148346
0.0592489
0.153578
0.181046
0.152479
0.323067
0.149616
0.286774
0.151902
0.232637
0.156289
0.066879
0.158497
-0.0609198
0.156384
-0.120482
0.152841
-0.330784
-0.188528
0.162488
0.00455847
0.160794
0.00538372
0.159549
0.00632548
0.159026
0.00752181
0.159295
0.009032
0.160332
0.0107244
0.162063
0.0124293
0.164443
0.0140467
0.167368
0.0152655
0.170613
0.0156932
0.173859
0.014845
0.176725
0.0121716
0.178772
0.00713951
0.179599
-0.000588868
0.178008
-0.0115192
0.174092
-0.0249033
0.167609
-0.0400525
0.159109
-0.0555793
0.149606
-0.0701347
0.140116
-0.0827591
0.131349
-0.0929305
0.123644
-0.100405
0.11708
-0.105272
0.111636
-0.107682
0.107126
-0.107809
0.103325
-0.10592
0.100388
-0.102149
0.0981109
-0.0955446
0.0953395
-0.0864379
0.09216
-0.0758049
0.0915529
-0.0615218
0.0968863
-0.0383878
0.108391
-0.00502431
0.123864
0.0326256
0.14046
0.0758872
0.156546
0.127629
0.170294
0.190913
0.178615
0.242796
0.178952
0.25257
0.173261
0.189889
0.165909
0.0741178
0.15813
-0.0427001
0.150393
-0.128991
0.144164
-0.175528
0.1407
-0.193465
0.13645
-0.171818
0.129512
-0.173231
0.124963
-0.164155
0.127331
-0.157852
0.137208
-0.0833599
0.147357
0.0490997
0.153938
0.174465
0.153815
0.323189
0.151148
0.289442
0.15335
0.230435
0.157897
0.0623316
0.160297
-0.0633197
0.158114
-0.118299
0.154364
-0.327034
-0.18726
0.185728
0.00658863
-0.187758
0.184199
0.00691303
0.182931
0.0075937
0.181955
0.00849701
0.181403
0.00958483
0.181344
0.0107832
0.181822
0.0119506
0.182949
0.0129201
0.184785
0.0134294
0.187342
0.0131361
0.190559
0.0116284
0.194244
0.00848694
0.198008
0.00337492
0.201519
-0.00410003
0.203998
-0.0139977
0.204948
-0.025853
0.203902
-0.0390067
0.200813
-0.0524901
0.195985
-0.0653068
0.189867
-0.0766419
0.182915
-0.085978
0.175524
-0.0930145
0.167992
-0.0977395
0.160548
-0.100238
0.153332
-0.100594
0.146263
-0.0988507
0.139412
-0.095297
0.132985
-0.0891182
0.126345
-0.0797974
0.11865
-0.0681099
0.111165
-0.0540375
0.107225
-0.0344472
0.109136
-0.00693571
0.115228
0.0265343
0.122916
0.0681985
0.130061
0.120484
0.136429
0.184545
0.142783
0.236442
0.150323
0.24503
0.159631
0.180581
0.167815
0.0659339
0.171685
-0.04657
0.169754
-0.12706
0.164276
-0.17005
0.158187
-0.187375
0.151104
-0.164736
0.142011
-0.164137
0.134371
-0.156515
0.131405
-0.154886
0.133439
-0.0853937
0.136257
0.0462808
0.137339
0.173384
0.13658
0.323948
0.136804
0.289218
0.142283
0.224956
0.14922
0.0553942
0.151649
-0.0657482
0.149109
-0.11576
0.14331
-0.321234
-0.183678
0.197712
0.00762315
-0.198746
0.19688
0.00774439
0.196274
0.00820013
0.19594
0.00883133
0.195962
0.00956197
0.196418
0.0103272
0.19736
0.0110087
0.198835
0.0114453
0.20085
0.0114146
0.203361
0.0106249
0.206246
0.00874388
0.209277
0.00545523
0.212184
0.000468357
0.214553
-0.00646945
0.21586
-0.0153044
0.215723
-0.0257154
0.213889
-0.0371732
0.210346
-0.0489471
0.205304
-0.0602645
0.199102
-0.07044
0.192127
-0.0790034
0.184757
-0.0856444
0.177282
-0.0902645
0.169889
-0.0928445
0.16273
-0.0934345
0.155768
-0.0918893
0.148946
-0.0884743
0.142532
-0.0827042
0.136372
-0.0736379
0.129538
-0.0612754
0.122255
-0.0467552
0.11724
-0.029432
0.117259
-0.00695457
0.122328
0.0214648
0.129888
0.060639
0.137786
0.112586
0.145361
0.17697
0.15324
0.228563
0.162522
0.235748
0.172989
0.170114
0.181711
0.0572113
0.185205
-0.050063
0.182441
-0.124296
0.175784
-0.163394
0.1688
-0.180391
0.161312
-0.157249
0.151928
-0.154753
0.14365
-0.148237
0.140013
-0.151249
0.141891
-0.0872711
0.145066
0.0431057
0.14691
0.17154
0.146904
0.323954
0.147504
0.288617
0.153336
0.219124
0.160543
0.048188
0.162996
-0.068202
0.15984
-0.112603
0.1532
-0.314593
-0.179719
0.209369