/*--------------------------------*- C++ -*----------------------------------*\
| =========                 |                                                 |
| \\      /  F ield         | OpenFOAM: The Open Source CFD Toolbox           |
|  \\    /   O peration     | Version:  2512                                  |
|   \\  /    A nd           | Website:  www.openfoam.com                      |
|    \\/     M anipulation  |                                                 |
\*---------------------------------------------------------------------------*/
FoamFile
{
    version     2.0;
    format      ascii;
    arch        "LSB;label=32;scalar=64";
    class       volScalarField;
    location    "193";
    object      p;
}
// * * * * * * * * * * * * * * * * * * * * * * * * * * * * * * * * * * * * * //

dimensions      [0 2 -2 0 0 0 0];

internalField   nonuniform List<scalar> 
13248
(
-0.346724
-0.345313
-0.342601
-0.338891
-0.334525
-0.329836
-0.325144
-0.320756
-0.316926
-0.313828
-0.311544
-0.310044
-0.309196
-0.308771
-0.308473
-0.307973
-0.306946
-0.305109
-0.302235
-0.298208
-0.292813
-0.286186
-0.277171
-0.266591
-0.35508
-0.352855
-0.349537
-0.345387
-0.340703
-0.335789
-0.330919
-0.326317
-0.322144
-0.318476
-0.315302
-0.312519
-0.309954
-0.307384
-0.304572
-0.301295
-0.297372
-0.292676
-0.287131
-0.280691
-0.273301
-0.264942
-0.255311
-0.245221
-0.365663
-0.36236
-0.358243
-0.353525
-0.348418
-0.343177
-0.33799
-0.332974
-0.328171
-0.323558
-0.319054
-0.314537
-0.309866
-0.304905
-0.299543
-0.293705
-0.287354
-0.280479
-0.27308
-0.265162
-0.256679
-0.247674
-0.237933
-0.228073
-0.378353
-0.373756
-0.368685
-0.363275
-0.357614
-0.351872
-0.346122
-0.340348
-0.33448
-0.328431
-0.322116
-0.315473
-0.30847
-0.301108
-0.293412
-0.285426
-0.277192
-0.268742
-0.260091
-0.251235
-0.242156
-0.232878
-0.223283
-0.213955
-0.393045
-0.387001
-0.380864
-0.374653
-0.368276
-0.361779
-0.355097
-0.348087
-0.340619
-0.332619
-0.32409
-0.315101
-0.30576
-0.296196
-0.286525
-0.276839
-0.267195
-0.257618
-0.248104
-0.238639
-0.229196
-0.219776
-0.21031
-0.201164
-0.409627
-0.402043
-0.394776
-0.387658
-0.380351
-0.372733
-0.364608
-0.355772
-0.346127
-0.33572
-0.324713
-0.313329
-0.3018
-0.290319
-0.279028
-0.268009
-0.257294
-0.246877
-0.236735
-0.226831
-0.217135
-0.207624
-0.198257
-0.189266
-0.427907
-0.418747
-0.410314
-0.402156
-0.393605
-0.384362
-0.374166
-0.362866
-0.350526
-0.337396
-0.323822
-0.31015
-0.296667
-0.283568
-0.270963
-0.258891
-0.247343
-0.236285
-0.225668
-0.215445
-0.205571
-0.196008
-0.186731
-0.177829
-0.447518
-0.436808
-0.427178
-0.417774
-0.407539
-0.396047
-0.383102
-0.368761
-0.353356
-0.337372
-0.321302
-0.305545
-0.29037
-0.275919
-0.262241
-0.249323
-0.237116
-0.225557
-0.214581
-0.204126
-0.194136
-0.184566
-0.175392
-0.166594
-0.467861
-0.455691
-0.44481
-0.433854
-0.421379
-0.406958
-0.390643
-0.372846
-0.354215
-0.335436
-0.317067
-0.299479
-0.282868
-0.267297
-0.252745
-0.239149
-0.226425
-0.214486
-0.203251
-0.192646
-0.182605
-0.173077
-0.164027
-0.155352
-0.488077
-0.474589
-0.462356
-0.449436
-0.434099
-0.416118
-0.395988
-0.374559
-0.352767
-0.331406
-0.311011
-0.291865
-0.274059
-0.257572
-0.242319
-0.228191
-0.215076
-0.202868
-0.191469
-0.180793
-0.170766
-0.16133
-0.152424
-0.14391
-0.507066
-0.492427
-0.478671
-0.463295
-0.444486
-0.422463
-0.398305
-0.373297
-0.348576
-0.324937
-0.30282
-0.282382
-0.26361
-0.246398
-0.230607
-0.216092
-0.202716
-0.190355
-0.178896
-0.168241
-0.158308
-0.149026
-0.140299
-0.132003
-0.523593
-0.508003
-0.492522
-0.47417
-0.451336
-0.424927
-0.396685
-0.368274
-0.340918
-0.315328
-0.291794
-0.270336
-0.250832
-0.233103
-0.216962
-0.20223
-0.188747
-0.176373
-0.164982
-0.154467
-0.144738
-0.135711
-0.127263
-0.119325
-0.339747
-0.341541
-0.342543
-0.343111
-0.343609
-0.344191
-0.344953
-0.345958
-0.347246
-0.348848
-0.3508
-0.353149
-0.355954
-0.359285
-0.363214
-0.367816
-0.373149
-0.379246
-0.386107
-0.393679
-0.401834
-0.410338
-0.418862
-0.427168
-0.339405
-0.340361
-0.340819
-0.34099
-0.341135
-0.34141
-0.341928
-0.342777
-0.344022
-0.345726
-0.347958
-0.350804
-0.35436
-0.358735
-0.36404
-0.370376
-0.377819
-0.386398
-0.396085
-0.406781
-0.418278
-0.430243
-0.442171
-0.453648
-0.339438
-0.339564
-0.339468
-0.339222
-0.338983
-0.338903
-0.339114
-0.339725
-0.340827
-0.342506
-0.344859
-0.347995
-0.352034
-0.357106
-0.363339
-0.370842
-0.37969
-0.3899
-0.401412
-0.414067
-0.427598
-0.441601
-0.45547
-0.4685
-0.339417
-0.338816
-0.3382
-0.337525
-0.336857
-0.336347
-0.336146
-0.336387
-0.337186
-0.338652
-0.3409
-0.344054
-0.348245
-0.353608
-0.36027
-0.368334
-0.377859
-0.388839
-0.401185
-0.414699
-0.429065
-0.443812
-0.458445
-0.471557
-0.339062
-0.337925
-0.336865
-0.335762
-0.334619
-0.33359
-0.332849
-0.332559
-0.332865
-0.333901
-0.335796
-0.338685
-0.3427
-0.347971
-0.354614
-0.362713
-0.372306
-0.38336
-0.395754
-0.409259
-0.42355
-0.438007
-0.452517
-0.46466
-0.338277
-0.336842
-0.335445
-0.333928
-0.332274
-0.330645
-0.329246
-0.328271
-0.327903
-0.328305
-0.329627
-0.33201
-0.335589
-0.340484
-0.346791
-0.354576
-0.363848
-0.374547
-0.386522
-0.399474
-0.413128
-0.426592
-0.440268
-0.450409
-0.337155
-0.335667
-0.334046
-0.332146
-0.329965
-0.327689
-0.325551
-0.32379
-0.322626
-0.322259
-0.322865
-0.324601
-0.327601
-0.331978
-0.337799
-0.345117
-0.353903
-0.364049
-0.375373
-0.387511
-0.40018
-0.412112
-0.424319
-0.431805
-0.335975
-0.334634
-0.332885
-0.330637
-0.327943
-0.32502
-0.322136
-0.319573
-0.317593
-0.316437
-0.31631
-0.317386
-0.31981
-0.323699
-0.329006
-0.335835
-0.344092
-0.353594
-0.364064
-0.375001
-0.386146
-0.395957
-0.405748
-0.409929
-0.33518
-0.334096
-0.33227
-0.329708
-0.326543
-0.323031
-0.319477
-0.3162
-0.313506
-0.311668
-0.310917
-0.311435
-0.313351
-0.316727
-0.321674
-0.328009
-0.335583
-0.344125
-0.353268
-0.362418
-0.371256
-0.378301
-0.384648
-0.385236
-0.335329
-0.334485
-0.33258
-0.32973
-0.326162
-0.322172
-0.318095
-0.314283
-0.311069
-0.308748
-0.30756
-0.307682
-0.309218
-0.312187
-0.316526
-0.322047
-0.328471
-0.33542
-0.342451
-0.34901
-0.354744
-0.358616
-0.36125
-0.358666
-0.337012
-0.336261
-0.334206
-0.331083
-0.32719
-0.322854
-0.318432
-0.314287
-0.310759
-0.308136
-0.306642
-0.306412
-0.307484
-0.309794
-0.313165
-0.317314
-0.321867
-0.326396
-0.330443
-0.33361
-0.335629
-0.336166
-0.335687
-0.331363
-0.34072
-0.339799
-0.337477
-0.33407
-0.329909
-0.325338
-0.32072
-0.316398
-0.312689
-0.309846
-0.308035
-0.307321
-0.307655
-0.308875
-0.310715
-0.312828
-0.314813
-0.316267
-0.316806
-0.316191
-0.314181
-0.310992
-0.306912
-0.30176
-0.436824
-0.445315
-0.449222
-0.447022
-0.436872
-0.417662
-0.389418
-0.353265
-0.311939
-0.269403
-0.229906
-0.196904
-0.172611
-0.158251
-0.154568
-0.161576
-0.177003
-0.194998
-0.207053
-0.205699
-0.189122
-0.161827
-0.132239
-0.107278
-0.0902874
-0.0816757
-0.0802559
-0.0852409
-0.0979856
-0.119441
-0.144279
-0.160665
-0.158315
-0.139148
-0.112784
-0.0892997
-0.07345
-0.0645841
-0.062
-0.0673363
-0.0795455
-0.0902854
-0.0900203
-0.080206
-0.0674057
-0.0570049
-0.0508663
-0.0499988
-0.0541847
-0.0581995
-0.0560262
-0.0514761
-0.0450812
-0.0375359
-0.0330953
-0.0292919
-0.0267331
-0.0264012
-0.0203834
-0.00520731
-0.467324
-0.478423
-0.483863
-0.482082
-0.471269
-0.450035
-0.418252
-0.377297
-0.330265
-0.281562
-0.235833
-0.196825
-0.166857
-0.146907
-0.137383
-0.138358
-0.148385
-0.162942
-0.174513
-0.175325
-0.163745
-0.142304
-0.118303
-0.0980408
-0.0849393
-0.0796484
-0.0811369
-0.0889892
-0.104991
-0.129886
-0.157472
-0.174799
-0.170998
-0.148973
-0.119355
-0.0928064
-0.0742365
-0.063029
-0.0581577
-0.0608531
-0.0705519
-0.0796745
-0.080019
-0.0718545
-0.0619432
-0.0543118
-0.0505969
-0.0523418
-0.0587861
-0.0645512
-0.0618829
-0.0558546
-0.0476818
-0.0381483
-0.0322121
-0.0264169
-0.0233396
-0.0226915
-0.0174513
-0.00448908
-0.484908
-0.497871
-0.50418
-0.5029
-0.49188
-0.46951
-0.435568
-0.39151
-0.34061
-0.287529
-0.237164
-0.193501
-0.158856
-0.134062
-0.119228
-0.114342
-0.118708
-0.12918
-0.139682
-0.143557
-0.135688
-0.120094
-0.101843
-0.0865033
-0.077527
-0.0757019
-0.0801421
-0.0907919
-0.109751
-0.137571
-0.167475
-0.185821
-0.181173
-0.15688
-0.124545
-0.0953618
-0.0743906
-0.0610703
-0.0541136
-0.0543177
-0.0615779
-0.0691104
-0.069719
-0.0633718
-0.0562135
-0.0512453
-0.0499949
-0.0544729
-0.0632841
-0.0708377
-0.0676722
-0.0599937
-0.050028
-0.0386078
-0.0313006
-0.0236047
-0.0199897
-0.0189765
-0.0145118
-0.00377064
-0.488909
-0.50281
-0.509995
-0.509311
-0.498468
-0.47578
-0.441014
-0.395649
-0.342995
-0.287785
-0.234983
-0.188516
-0.150604
-0.121976
-0.102606
-0.0923716
-0.0909611
-0.0966221
-0.10485
-0.109633
-0.106052
-0.0961852
-0.0835118
-0.0730408
-0.0681704
-0.0697043
-0.0768996
-0.0900052
-0.111389
-0.141608
-0.173582
-0.193203
-0.188404
-0.162613
-0.128214
-0.0969336
-0.073979
-0.0588383
-0.0500553
-0.0479987
-0.0529688
-0.0589377
-0.0596922
-0.0549576
-0.0503242
-0.0478456
-0.0490205
-0.0562732
-0.067522
-0.0769067
-0.0732355
-0.0638359
-0.0520844
-0.0389003
-0.0303627
-0.0208797
-0.0167132
-0.0152958
-0.0115911
-0.00305857
-0.481483
-0.494788
-0.502464
-0.502508
-0.492174
-0.469833
-0.435504
-0.390674
-0.338523
-0.283611
-0.23065
-0.183299
-0.143622
-0.112278
-0.0892021
-0.07426
-0.0673842
-0.0677898
-0.0726679
-0.077228
-0.0765231
-0.0716581
-0.064002
-0.0580623
-0.0569813
-0.0615488
-0.0711468
-0.0862541
-0.109481
-0.141568
-0.175374
-0.196488
-0.192345
-0.16604
-0.130355
-0.0975782
-0.0730963
-0.0564641
-0.0461414
-0.0420958
-0.0449627
-0.0494408
-0.0502051
-0.0468045
-0.0443801
-0.0441417
-0.0476244
-0.0576213
-0.071331
-0.0825721
-0.0784629
-0.0673219
-0.0538248
-0.0390161
-0.0293982
-0.0182628
-0.0135376
-0.0116866
-0.00871371
-0.00235917
-0.464968
-0.476769
-0.484071
-0.484635
-0.474897
-0.45346
-0.420742
-0.378148
-0.328566
-0.276151
-0.225116
-0.178678
-0.13869
-0.105804
-0.079983
-0.061116
-0.0492898
-0.0444078
-0.0451206
-0.0483001
-0.0504103
-0.0477057
-0.0441404
-0.0421058
-0.0442561
-0.0513935
-0.0629704
-0.079599
-0.104039
-0.137359
-0.172706
-0.195486
-0.19288
-0.167106
-0.130988
-0.0973585
-0.0718221
-0.0540396
-0.0424694
-0.0367362
-0.0377213
-0.0408275
-0.0414777
-0.0390838
-0.0384767
-0.0401709
-0.0457715
-0.0584039
-0.0745298
-0.0876427
-0.0832349
-0.0704022
-0.0552292
-0.0389456
-0.028399
-0.0157692
-0.0104854
-0.00818194
-0.00590026
-0.00167805
-0.442854
-0.450993
-0.45732
-0.458209
-0.449001
-0.428993
-0.398991
-0.360125
-0.314826
-0.266655
-0.219161
-0.175055
-0.135964
-0.102585
-0.0750073
-0.0531666
-0.0372
-0.0273931
-0.0234804
-0.0237886
-0.0253638
-0.0249551
-0.0248235
-0.025877
-0.0305529
-0.0396724
-0.0527224
-0.0703386
-0.0953516
-0.129237
-0.165736
-0.190412
-0.190087
-0.165814
-0.130163
-0.0963413
-0.0702175
-0.0516253
-0.0390906
-0.0319667
-0.0313123
-0.033198
-0.0336585
-0.0319499
-0.0327137
-0.0359943
-0.0434453
-0.0585199
-0.0769519
-0.0919466
-0.0874312
-0.0730323
-0.0562833
-0.0386842
-0.0273557
-0.0134052
-0.00757245
-0.00481114
-0.0031665
-0.00102087
-0.416107
-0.419522
-0.424733
-0.425601
-0.416946
-0.399035
-0.372772
-0.338793
-0.298982
-0.256202
-0.213283
-0.172451
-0.13515
-0.102135
-0.0736796
-0.0498421
-0.030757
-0.0168018
-0.00833402
-0.00490002
-0.00466049
-0.00444209
-0.00689938
-0.0100778
-0.0164945
-0.0269156
-0.040873
-0.0589701
-0.0840076
-0.117827
-0.155032
-0.181734
-0.184198
-0.16226
-0.127942
-0.094579
-0.068322
-0.0492555
-0.0360315
-0.0278015
-0.0257518
-0.0265701
-0.0268069
-0.0255229
-0.027195
-0.0316885
-0.0406594
-0.0578942
-0.0784632
-0.0953397
-0.0909369
-0.0751742
-0.0569834
-0.0382351
-0.0262758
-0.0111785
-0.00480661
-0.0015983
-0.000523486
-0.000393641
-0.385526
-0.384662
-0.389021
-0.389635
-0.381732
-0.36661
-0.344802
-0.316328
-0.282545
-0.245614
-0.207684
-0.170569
-0.135589
-0.103568
-0.0749613
-0.0500014
-0.0288516
-0.0118181
0.000561245
0.00792451
0.0107302
0.00970853
0.00889072
0.00478233
-0.0025875
-0.0136171
-0.0279086
-0.0460241
-0.0706896
-0.104076
-0.141605
-0.170135
-0.175587
-0.156677
-0.124519
-0.0922533
-0.0662911
-0.0470549
-0.0333829
-0.0242844
-0.0210551
-0.0209436
-0.0209222
-0.0198619
-0.0220242
-0.027349
-0.0374239
-0.056478
-0.0789814
-0.097718
-0.0936562
-0.0768106
-0.0573551
-0.0376181
-0.025184
-0.00912812
-0.00219666
0.00143838
0.00202276
0.000197335
-0.353392
-0.349945
-0.353935
-0.353966
-0.347055
-0.335149
-0.31795
-0.294964
-0.267104
-0.235883
-0.202865
-0.169524
-0.137089
-0.106456
-0.0782347
-0.052817
-0.0304367
-0.0113277
0.00403608
0.0150035
0.0212323
0.0231428
0.0226682
0.0184001
0.0108345
-0.000223769
-0.0143868
-0.0322364
-0.0563298
-0.0888571
-0.126249
-0.156281
-0.164743
-0.149508
-0.120314
-0.0897944
-0.0644936
-0.045298
-0.0313358
-0.0215058
-0.0172207
-0.0162989
-0.0160301
-0.0150197
-0.0172728
-0.0230478
-0.0338339
-0.0542883
-0.0784357
-0.0989988
-0.0955515
-0.0779444
-0.0574407
-0.0368629
-0.0240701
-0.00729946
0.000229595
0.00427886
0.00447088
0.000745069
-0.323374
-0.319972
-0.323276
-0.322118
-0.316326
-0.307569
-0.294624
-0.276742
-0.254425
-0.228595
-0.20032
-0.170749
-0.140978
-0.111949
-0.0844018
-0.0588655
-0.0357011
-0.0151882
0.00237218
0.0163959
0.0261967
0.0316184
0.033386
0.0300757
0.0233409
0.0129529
-0.000561401
-0.0178086
-0.0412203
-0.0732373
-0.110479
-0.140971
-0.152387
-0.14063
-0.115072
-0.087003
-0.0627318
-0.0437615
-0.0296797
-0.0192706
-0.0140148
-0.0123593
-0.0120028
-0.0111468
-0.0131273
-0.0189007
-0.0297926
-0.051289
-0.0769506
-0.0991793
-0.0964775
-0.0784736
-0.0571534
-0.035919
-0.0228245
-0.00559201
0.00246966
0.0068757
0.00682445
0.00124334
-0.29717
-0.296831
-0.297667
-0.293968
-0.288436
-0.281526
-0.27154
-0.257658
-0.239946
-0.218834
-0.194983
-0.169212
-0.142418
-0.115486
-0.0892148
-0.0642534
-0.0411038
-0.0201478
-0.00169401
0.0139105
0.026231
0.0348002
0.0385158
0.0388935
0.0337555
0.0246288
0.0121626
-0.0042568
-0.0266875
-0.0573718
-0.0932596
-0.1235
-0.135442
-0.127967
-0.106547
-0.0814754
-0.0588292
-0.0406557
-0.027002
-0.0165615
-0.0107611
-0.00850229
-0.00815333
-0.00764615
-0.0093833
-0.0151607
-0.0257781
-0.0476916
-0.0742895
-0.0981504
-0.0958304
-0.0781197
-0.0561633
-0.0345393
-0.0212961
-0.00369735
0.00467962
0.00929679
0.00906978
0.00167745
-0.273892
-0.284163
-0.282067
-0.275557
-0.26871
-0.261263
-0.251541
-0.238494
-0.221978
-0.202391
-0.180355
-0.156579
-0.131817
-0.106821
-0.0822821
-0.0587672
-0.036723
-0.0165101
0.00158636
0.0173015
0.0302977
0.0401303
0.0465265
0.0479339
0.0446816
0.0372848
0.0263885
0.0111012
-0.0113114
-0.0440666
-0.0833079
-0.115862
-0.129216
-0.118963
-0.097608
-0.0738736
-0.0527928
-0.0358898
-0.0231238
-0.0131562
-0.00741411
-0.00484548
-0.00430983
-0.00343241
-0.0043266
-0.00984319
-0.0201831
-0.0429309
-0.0713041
-0.0976407
-0.096768
-0.0775056
-0.0546709
-0.0327687
-0.0196773
-0.00166989
0.00683643
0.0117896
0.0111818
0.00203939
-0.248741
-0.262319
-0.260827
-0.253014
-0.244957
-0.237182
-0.227988
-0.216039
-0.201049
-0.183401
-0.163674
-0.142446
-0.120287
-0.0977775
-0.0754832
-0.0539079
-0.0334723
-0.014518
0.00268475
0.017921
0.0309453
0.0413929
0.0483238
0.0513669
0.0498856
0.0443449
0.035241
0.0213081
-0.000854701
-0.0345669
-0.0743293
-0.105262
-0.115396
-0.10555
-0.0862018
-0.065225
-0.0465268
-0.0312783
-0.0196231
-0.0102882
-0.00465987
-0.00192173
-0.00141557
-0.000489717
-0.00119012
-0.00606169
-0.0158778
-0.0387706
-0.0681346
-0.0956128
-0.0949487
-0.0754993
-0.052503
-0.0306503
-0.0177926
0.000190068
0.00857912
0.0139185
0.0128965
0.0023589
-0.225412
-0.239312
-0.238765
-0.231114
-0.222791
-0.215103
-0.20663
-0.19594
-0.182602
-0.166907
-0.149359
-0.130429
-0.11056
-0.0902176
-0.069885
-0.0500209
-0.0310245
-0.0132259
0.00309943
0.0177241
0.030424
0.0409146
0.0483912
0.0522566
0.0519566
0.0477454
0.039884
0.0267191
0.00468608
-0.0281436
-0.0648123
-0.0918066
-0.0999532
-0.0913941
-0.0748592
-0.0568474
-0.0404876
-0.0268102
-0.0162086
-0.00753087
-0.00210157
0.000749407
0.00124886
0.0022006
0.00153831
-0.003117
-0.0127367
-0.0354361
-0.06455
-0.091902
-0.0918227
-0.0726453
-0.0498668
-0.028281
-0.0157338
0.00199211
0.0102439
0.0158838
0.0144084
0.00268334
-0.204381
-0.21705
-0.217228
-0.21043
-0.202453
-0.195019
-0.187159
-0.177552
-0.165668
-0.151687
-0.136041
-0.119142
-0.101352
-0.0830416
-0.06461
-0.0464528
-0.0289338
-0.0123651
0.00298226
0.0168691
0.0290599
0.0392149
0.0468587
0.0512961
0.0519435
0.0488193
0.0419786
0.0295965
0.00852675
-0.0216942
-0.0540731
-0.0772302
-0.0839559
-0.07704
-0.063469
-0.0484448
-0.034453
-0.0223772
-0.0128486
-0.00488505
0.000272809
0.00319551
0.00377312
0.00476223
0.00421496
-0.000337132
-0.00978242
-0.0318226
-0.0598951
-0.0868604
-0.0875696
-0.068998
-0.0467417
-0.0256669
-0.0134778
0.00373787
0.0118407
0.0176805
0.0157846
0.00301491
-0.184303
-0.195919
-0.196653
-0.1908
-0.183433
-0.176404
-0.169142
-0.160522
-0.149984
-0.137599
-0.12372
-0.108703
-0.0928486
-0.0764491
-0.0598268
-0.0433212
-0.0272633
-0.0119496
0.00235475
0.0154041
0.0269423
0.0366417
0.0441553
0.0488671
0.0501751
0.0479256
0.0420365
0.0308011
0.0117455
-0.014803
-0.0424598
-0.0619163
-0.0678112
-0.0629028
-0.0524033
-0.0403064
-0.0286069
-0.0180885
-0.00959709
-0.00236381
0.00247021
0.00541809
0.00612954
0.00714498
0.00678823
0.00245107
-0.0064977
-0.0273788
-0.0541573
-0.0805298
-0.0820374
-0.0644667
-0.0431207
-0.0228227
-0.0110527
0.0054228
0.013336
0.0192667
0.0170146
0.00334481
-0.165486
-0.176221
-0.177263
-0.172238
-0.165592
-0.159124
-0.152512
-0.144832
-0.13554
-0.124632
-0.112378
-0.0990848
-0.0850048
-0.0703755
-0.0554596
-0.0405452
-0.0259284
-0.0118863
0.00132443
0.0134642
0.0242722
0.033437
0.0406486
0.045395
0.047124
0.0455748
0.040575
0.0307405
0.0143622
-0.00785435
-0.0305612
-0.046467
-0.0524122
-0.0496734
-0.0420596
-0.0326188
-0.0230322
-0.0139929
-0.00648809
2.35835e-05
0.0044976
0.00741732
0.00829998
0.0093649
0.00924801
0.00525713
-0.00287212
-0.0222507
-0.0474754
-0.0728493
-0.0751906
-0.05905
-0.0390324
-0.0197809
-0.00849313
0.00704288
0.0147072
0.0206026
0.0180499
0.0036674
-0.148305
-0.15793
-0.159093
-0.154814
-0.148937
-0.143121
-0.137195
-0.130404
-0.122252
-0.112689
-0.101921
-0.090203
-0.0777536
-0.0647676
-0.0514593
-0.0380708
-0.0248618
-0.0120868
1.0863e-05
0.011198
0.0212195
0.0297834
0.036601
0.0412467
0.0432467
0.0422857
0.0381466
0.0298624
0.0164459
-0.00134935
-0.0195332
-0.0328086
-0.0387092
-0.0378536
-0.0326913
-0.0255269
-0.0178137
-0.0101446
-0.00356144
0.00226423
0.00636373
0.00920914
0.0102889
0.0114519
0.0115929
0.0080466
0.000912646
-0.0166509
-0.0399294
-0.0639332
-0.0671417
-0.052812
-0.0345263
-0.0165854
-0.00584492
0.00859797
0.0159407
0.0216551
0.0188436
0.00398478
-0.132379
-0.140927
-0.142183
-0.138594
-0.133472
-0.128327
-0.123087
-0.11713
-0.110018
-0.101679
-0.0922671
-0.0819941
-0.0710445
-0.0595809
-0.0477787
-0.0358403
-0.0239907
-0.0124599
-0.00147534
0.0087377
0.0179384
0.0258602
0.0322335
0.0367011
0.0388707
0.0384247
0.0351572
0.0284773
0.017883
0.00398536
-0.0103931
-0.0214637
-0.0271918
-0.0276901
-0.0244386
-0.0191289
-0.013014
-0.006582
-0.000849041
0.00434506
0.0080769
0.0108175
0.0121058
0.0134302
0.013819
0.010807
0.00478415
-0.0106494
-0.0316889
-0.0540565
-0.0581046
-0.0458822
-0.0296766
-0.0132905
-0.00316327
0.0100945
0.0170327
0.0224037
0.01937
0.00430572
-0.117576
-0.125245
-0.126577
-0.123592
-0.119168
-0.114672
-0.110092
-0.104915
-0.0987549
-0.091528
-0.0833515
-0.0743986
-0.0648247
-0.0547656
-0.0443659
-0.0337944
-0.0232446
-0.0129215
-0.00303376
0.00620832
0.0145806
0.0218404
0.0277411
0.0319828
0.0342496
0.034258
0.0318342
0.0266373
0.0184412
0.00772367
-0.00351154
-0.0126148
-0.0178982
-0.0192043
-0.0173328
-0.013471
-0.00867567
-0.00333245
0.00162456
0.00624989
0.00964135
0.0122628
0.0137596
0.0153137
0.0159357
0.0136008
0.00878519
-0.004348
-0.0230656
-0.0436089
-0.0483938
-0.0384609
-0.0245834
-0.00995642
-0.000508938
0.0115446
0.0179938
0.0228513
0.0196314
0.00464452
-0.104061
-0.110888
-0.112225
-0.109759
-0.105973
-0.102088
-0.0981322
-0.0936775
-0.0883847
-0.0821664
-0.0751103
-0.0673585
-0.0590413
-0.0502724
-0.0411712
-0.0318785
-0.0225592
-0.0133932
-0.00456798
0.00372488
0.0112806
0.0178776
0.0232961
0.027286
0.0295956
0.0299852
0.0283129
0.0243886
0.0181551
0.010004
0.00135439
-0.00597831
-0.0106147
-0.0122785
-0.0113322
-0.00856042
-0.00482377
-0.000414125
0.00384426
0.00795977
0.0110569
0.0135586
0.0152552
0.0170966
0.0179558
0.0165342
0.0129419
0.00202669
-0.0144756
-0.0330719
-0.0384292
-0.0308187
-0.0193714
-0.00664574
0.00205753
0.0129623
0.0188526
0.0230316
0.0196653
0.00502135
-0.0917557
-0.0977468
-0.0990499
-0.0970429
-0.0938406
-0.0905213
-0.0871425
-0.0833477
-0.0788398
-0.0735307
-0.0674857
-0.0608213
-0.0536466
-0.0460564
-0.0381495
-0.0300426
-0.0218755
-0.0138033
-0.00599177
0.00138678
0.00815039
0.0141007
0.0190428
0.0227687
0.0250766
0.0257725
0.0247462
0.0218975
0.0172654
0.0111826
0.00463342
-0.00113314
-0.00502976
-0.00673322
-0.0063555
-0.00437599
-0.0014668
0.00216222
0.00580438
0.00945764
0.0123142
0.014713
0.0165958
0.0187602
0.0198195
0.0196545
0.017184
0.00814349
-0.0064075
-0.0229841
-0.0286785
-0.0232652
-0.0141862
-0.00342212
0.00448155
0.0143525
0.0196517
0.0230109
0.0195504
0.00546069
-0.0804731
-0.0857396
-0.0870132
-0.085408
-0.082726
-0.079919
-0.0770633
-0.0738634
-0.070059
-0.0655642
-0.0604263
-0.0547404
-0.0485977
-0.0420771
-0.03526
-0.0282426
-0.021142
-0.0140914
-0.00723459
-0.000722341
0.00528456
0.0106126
0.0150937
0.018553
0.0208284
0.0217677
0.0212891
0.0193432
0.0160146
0.0115802
0.00672929
0.00231557
-0.00082635
-0.0023748
-0.00230341
-0.000876534
0.00140228
0.00439233
0.00750511
0.010736
0.0133935
0.0157202
0.0177753
0.0203131
0.0234255
0.022823
0.021199
0.0135606
0.000670154
-0.0138153
-0.0195562
-0.0161048
-0.00918776
-0.000350411
0.00671689
0.0156918
0.0204294
0.0228781
0.019398
0.00598172
-0.0702261
-0.0748427
-0.0760644
-0.0747971
-0.0725719
-0.0702225
-0.0678352
-0.0651655
-0.0619862
-0.0582151
-0.0538852
-0.0490738
-0.0438568
-0.0382995
-0.0324686
-0.0264429
-0.0203194
-0.0142105
-0.00824066
-0.00253956
0.0027549
0.00749493
0.0115363
0.0147322
0.0169529
0.0180802
0.0180546
0.016858
0.0145825
0.011456
0.0079678
0.00469802
0.0022695
0.000983544
0.000931792
0.00199212
0.0038036
0.00627965
0.00894816
0.0117964
0.0142782
0.0165521
0.0187291
0.0214065
0.0245686
0.0252935
0.0243675
0.0177981
0.00646797
-0.00586302
-0.011386
-0.0096042
-0.0045413
0.00250354
0.00872509
0.0169156
0.0211937
0.0227235
0.0193116
0.00657633
-0.0609516
-0.0649731
-0.0661203
-0.0651353
-0.0633125
-0.0613719
-0.0594013
-0.0571993
-0.0545704
-0.0514373
-0.0478217
-0.0437859
-0.0393926
-0.0346956
-0.0297491
-0.0246173
-0.01938
-0.01413
-0.00897241
-0.0040197
0.000613183
0.00480315
0.00842971
0.0113681
0.0135148
0.0147795
0.0151179
0.014528
0.013096
0.0110034
0.00860543
0.00627255
0.00448993
0.00351301
0.00345854
0.0042917
0.00576703
0.00783552
0.0101368
0.0126446
0.0149586
0.0171724
0.0193959
0.0220707
0.0251899
0.0266666
0.0261643
0.0205749
0.0109013
0.000698437
-0.00441567
-0.00395876
-0.000394303
0.00507877
0.0104717
0.0179208
0.0218929
0.0226172
0.0193248
0.00718085
-0.0525647
-0.0560518
-0.0571175
-0.0563709
-0.054897
-0.0533142
-0.0517088
-0.0499152
-0.047766
-0.0451899
-0.0422002
-0.0388462
-0.0351795
-0.0312442
-0.0270838
-0.0227497
-0.0183068
-0.0138318
-0.00941158
-0.00513887
-0.00111273
0.00256796
0.00580458
0.00849343
0.0105488
0.0119018
0.0125221
0.0124124
0.0116447
0.0103578
0.00879522
0.00724359
0.00602733
0.00536623
0.00538199
0.00608783
0.00732874
0.00907812
0.0110772
0.0132882
0.0154296
0.0175552
0.0197427
0.0223001
0.0251653
0.0268476
0.0265467
0.0219538
0.0140097
0.00578054
0.00120384
0.000732707
0.00315039
0.00732977
0.0119271
0.0185837
0.0223885
0.0225763
0.0193647
0.00766907
-0.0449782
-0.0479991
-0.0489915
-0.0484449
-0.0472688
-0.0459942
-0.0447045
-0.043264
-0.0415291
-0.0394351
-0.0369888
-0.034229
-0.0311976
-0.0279304
-0.0244621
-0.0208332
-0.0170958
-0.0133116
-0.00955213
-0.00589377
-0.00241738
0.00079651
0.00367011
0.00611564
0.0080636
0.00946107
0.0102857
0.0105438
0.0102933
0.00963731
0.00870731
0.00777513
0.00703997
0.00667742
0.00680105
0.00744704
0.00852854
0.0100315
0.0117798
0.0137336
0.0156946
0.0176959
0.0197713
0.0221121
0.0245771
0.0261212
0.0258834
0.0222397
0.0159378
0.0094417
0.00548327
0.00447577
0.0060507
0.00922233
0.0130725
0.0188228
0.0225001
0.0224885
0.0192417
0.00789735
-0.0381561
-0.040767
-0.0416829
-0.041291
-0.0403664
-0.0393562
-0.0383375
-0.0371994
-0.0358192
-0.0341386
-0.0321599
-0.0299132
-0.0274321
-0.0247453
-0.0218805
-0.0188692
-0.0157521
-0.0125779
-0.00940451
-0.00629453
-0.00331228
-0.000522016
0.00201418
0.00422259
0.00604863
0.00745135
0.00841143
0.00893418
0.00907166
0.00893837
0.00846862
0.00800309
0.0076599
0.00756137
0.00780549
0.00843406
0.00940881
0.0107226
0.0122607
0.0139887
0.0157641
0.0176094
0.0195111
0.0215695
0.0235852
0.0248576
0.0246191
0.0218021
0.0169315
0.0118984
0.00858347
0.00735046
0.00832197
0.0107238
0.0138909
0.0186381
0.0220953
0.0221154
0.0186961
0.00777322
-0.0320288
-0.0342742
-0.0351149
-0.0348601
-0.0341391
-0.0333505
-0.0325607
-0.0316783
-0.0305986
-0.0292692
-0.027689
-0.0258813
-0.0238727
-0.0216858
-0.0193421
-0.0168658
-0.0142883
-0.0116478
-0.0089899
-0.00636442
-0.00382156
-0.00140583
0.000808058
0.0027858
0.00447783
0.0058508
0.00688537
0.00758061
0.00796245
0.00804766
0.00808986
0.00801791
0.00799261
0.00811648
0.00847587
0.00911026
0.0100128
0.01118
0.0125403
0.0140684
0.0156568
0.0173207
0.0190068
0.0207654
0.0223575
0.023345
0.023093
0.0209582
0.0172632
0.0134231
0.0107259
0.00946901
0.0100146
0.0118151
0.0143638
0.0180723
0.0211344
0.0212059
0.0175518
0.00729852
-0.0265253
-0.0284525
-0.0292213
-0.0290764
-0.0285394
-0.0279324
-0.0273304
-0.0266594
-0.0258308
-0.024797
-0.0235538
-0.0221183
-0.0205117
-0.0187515
-0.016854
-0.0148373
-0.0127254
-0.0105477
-0.00833954
-0.00613922
-0.00398894
-0.00192757
-3.22289e-07
0.00176232
0.00331505
0.0046309
0.00569338
0.00650152
0.00707552
0.00744919
0.00771748
0.00791278
0.00812588
0.00842541
0.00888335
0.00953222
0.0103829
0.0114342
0.012643
0.013992
0.0153965
0.0168659
0.0183211
0.0197522
0.0210191
0.0217669
0.0215147
0.019923
0.0171595
0.0142608
0.0121213
0.0109417
0.0111957
0.0125011
0.0144938
0.017213
0.0196971
0.0196723
0.015858
0.00656028
-0.0215945
-0.0232459
-0.0239461
-0.023888
-0.0235008
-0.0230551
-0.0226075
-0.0221053
-0.0214834
-0.0206954
-0.0197347
-0.0186127
-0.0173453
-0.0159457
-0.0144265
-0.0128014
-0.0110881
-0.0093084
-0.00748922
-0.00565991
-0.00385359
-0.00210274
-0.000436008
0.00111034
0.00251608
0.00375264
0.00480297
0.00567133
0.00636629
0.0069119
0.00735771
0.00774128
0.00812542
0.00855561
0.00908944
0.00975147
0.0105605
0.0115166
0.0125945
0.0137826
0.0150129
0.01629
0.0175271
0.0187066
0.0196727
0.0202299
0.0199943
0.0188217
0.0167788
0.0146016
0.012936
0.0118695
0.0119362
0.0128191
0.0143126
0.0161627
0.0179089
0.0176816
0.0138548
0.00568487
-0.0171876
-0.0185988
-0.0192336
-0.0192433
-0.0189786
-0.0186653
-0.0183545
-0.0180009
-0.0175405
-0.0169459
-0.0162168
-0.0153546
-0.0143704
-0.0132736
-0.0120729
-0.0107783
-0.0094029
-0.00796261
-0.00647788
-0.00497045
-0.00346455
-0.00198489
-0.000557299
0.000792811
0.0020431
0.00317964
0.00419337
0.00507296
0.0058284
0.0064716
0.00703397
0.00754216
0.00804139
0.00856121
0.00914642
0.00981422
0.0105848
0.0114589
0.0124217
0.0134658
0.0145356
0.0156331
0.0166708
0.0176361
0.0183713
0.0187866
0.0185813
0.0177238
0.016224
0.0145771
0.0131589
0.0123482
0.01231
0.0128311
0.0138741
0.0150115
0.0159787
0.015499
0.0118125
0.00479262
-0.0132536
-0.0144569
-0.015031
-0.0150929
-0.0149276
-0.0147214
-0.0145189
-0.0142843
-0.0139686
-0.0135428
-0.0129955
-0.0123402
-0.0115872
-0.0107408
-0.00980576
-0.00878818
-0.00769732
-0.00654471
-0.00534506
-0.00411437
-0.00287139
-0.00163484
-0.000424495
0.000741363
0.00184603
0.0028765
0.00382351
0.00468041
0.00544947
0.00613714
0.00676316
0.00734419
0.00791212
0.00848554
0.00909803
0.00976081
0.0104922
0.0112924
0.0121525
0.0130679
0.013993
0.0149284
0.0157917
0.0165775
0.0171432
0.0174566
0.0172897
0.016666
0.0155701
0.0143353
0.0132624
0.0125339
0.0123937
0.0126064
0.0132434
0.0138197
0.0141153
0.0133534
0.00991879
0.00396728
-0.00974808
-0.0107727
-0.0112908
-0.0113921
-0.0113064
-0.0111863
-0.0110702
-0.0109299
-0.0107255
-0.010432
-0.0100431
-0.00956341
-0.00899853
-0.00835553
-0.00763843
-0.00685088
-0.00599797
-0.00508728
-0.00412918
-0.00313559
-0.00212054
-0.00109742
-8.06521e-05
0.000916079
0.00187883
0.00279686
0.00366189
0.00446845
0.00521651
0.00590828
0.00655558
0.00716777
0.00776642
0.00836257
0.0089803
0.00962623
0.0103151
0.0110466
0.0118141
0.0126145
0.0134113
0.0142042
0.0149201
0.0155603
0.0160016
0.0162425
0.0161151
0.0156624
0.0148641
0.0139379
0.0131147
0.0124717
0.0122412
0.0122057
0.012484
0.0126269
0.0123992
0.0113896
0.00826374
0.00325182
-0.00663181
-0.00750289
-0.00796955
-0.0080997
-0.00807705
-0.00802571
-0.00797809
-0.0079125
-0.00779645
-0.00760922
-0.0073449
-0.00700604
-0.00659735
-0.00612266
-0.00558464
-0.00498551
-0.00432931
-0.00362043
-0.00286596
-0.00207415
-0.00125515
-0.000418455
0.000425283
0.00126572
0.0020921
0.00289576
0.00366974
0.00440906
0.00511215
0.00577865
0.00641516
0.00702604
0.00762524
0.00821854
0.00882238
0.00944019
0.0100822
0.0107478
0.011431
0.0121297
0.0128136
0.0134835
0.0140773
0.0145996
0.0149492
0.015139
0.015047
0.014717
0.014133
0.0134305
0.0127813
0.0122052
0.011902
0.01168
0.0116527
0.011466
0.0108655
0.00967236
0.0068689
0.00265791
-0.00386821
-0.00460777
-0.00502751
-0.00517806
-0.0052049
-0.00520789
-0.00521412
-0.00520694
-0.00516027
-0.00505697
-0.00489159
-0.00466554
-0.00438209
-0.0040436
-0.00365148
-0.00320691
-0.00271216
-0.00217113
-0.00158821
-0.000966896
-0.000315453
0.000359242
0.00104935
0.00174754
0.00244574
0.00313698
0.00381541
0.00447659
0.00511831
0.00573875
0.00634099
0.00692625
0.00750283
0.00807311
0.00864738
0.00922694
0.00981785
0.010419
0.011025
0.0116334
0.0122188
0.0127835
0.0132768
0.0137039
0.0139851
0.0141372
0.014073