/*--------------------------------*- C++ -*----------------------------------*\
| =========                 |                                                 |
| \\      /  F ield         | OpenFOAM: The Open Source CFD Toolbox           |
|  \\    /   O peration     | Version:  2512                                  |
|   \\  /    A nd           | Website:  www.openfoam.com                      |
|    \\/     M anipulation  |                                                 |
\*---------------------------------------------------------------------------*/
FoamFile
{
    version     2.0;
    format      ascii;
    arch        "LSB;label=32;scalar=64";
    class       surfaceScalarField;
    location    "193";
    object      phi;
}
// * * * * * * * * * * * * * * * * * * * * * * * * * * * * * * * * * * * * * //

dimensions      [0 3 -1 0 0 0 0];

oriented        oriented;

internalField   nonuniform List<scalar> 
26232
(
-3.60019e-05
0.00108013
-0.00104413
0.000168128
0.00206661
-0.00227074
0.000860788
0.00206805
-0.00276071
0.00226079
0.00113067
-0.00253068
0.0045741
-0.000739579
-0.00157373
0.007995
-0.00355562
0.000134728
0.0127012
-0.00733131
0.00262513
0.0188353
-0.012064
0.00592993
0.0264856
-0.0177173
0.010067
0.0356626
-0.0242093
0.0150323
0.0462806
-0.0314093
0.0207913
0.0581491
-0.0391419
0.0272735
0.0709764
-0.0471988
0.0343714
0.0843877
-0.0553555
0.0419443
0.0979538
-0.0633911
0.0498249
0.11123
-0.0711065
0.0578302
0.123799
-0.0783415
0.0657728
0.135309
-0.0849882
0.0734776
0.145519
-0.0909954
0.0807856
0.154297
-0.0963831
0.0876054
0.16166
-0.101176
0.0938125
0.167634
-0.105591
0.0996173
0.172188
-0.109245
0.104692
-0.113454
0.110373
0.175269
3.85924e-05
0.00104154
0.000463055
0.00164214
0.00154351
0.000987597
0.00352597
-0.000851787
0.00663865
-0.00385226
0.0110822
-0.00799917
0.0170094
-0.0132585
0.0244977
-0.0195524
0.033523
-0.0267425
0.0439419
-0.0346282
0.05549
-0.0429574
0.0677989
-0.0514509
0.0804304
-0.0598303
0.0929223
-0.0678474
0.104839
-0.075308
0.11582
-0.0820875
0.125616
-0.0881377
0.134111
-0.0934829
0.141322
-0.0982066
0.147369
-0.10243
0.152475
-0.106282
0.156792
-0.109908
0.160816
-0.113269
-0.116992
0.164354
0.00013864
0.000902899
0.00085451
0.000926274
0.00243021
-0.000588107
0.00512531
-0.00354689
0.00916648
-0.00789343
0.0147218
-0.0135545
0.0218666
-0.0204033
0.0305513
-0.0282371
0.0405839
-0.0367752
0.0516357
-0.0456799
0.0632732
-0.0545949
0.0750109
-0.0631886
0.0863737
-0.0711931
0.0969567
-0.0784304
0.106472
-0.0848236
0.114776
-0.0903908
0.121865
-0.095227
0.127858
-0.099476
0.132949
-0.103298
0.137365
-0.106846
0.141312
-0.110229
0.144963
-0.113559
0.148456
-0.116763
-0.120282
0.151746
0.000256871
0.000646028
0.00131503
-0.000131885
0.00346002
-0.0027331
0.00694406
-0.00703092
0.011957
-0.0129064
0.0185841
-0.0201816
0.0267651
-0.0285843
0.0362733
-0.0377454
0.0467283
-0.0472301
0.057643
-0.0565946
0.0684962
-0.0654481
0.0788103
-0.0735028
0.0882179
-0.0806006
0.0965017
-0.0867142
0.103604
-0.091926
0.109605
-0.0963919
0.114679
-0.100301
0.119042
-0.103839
0.122905
-0.107161
0.126439
-0.11038
0.12978
-0.11357
0.132998
-0.116777
0.136202
-0.119967
-0.12342
0.13934
0.000388598
0.00025743
0.00182413
-0.00156742
0.00458016
-0.00548913
0.00887194
-0.0113227
0.0148072
-0.0188416
0.0223331
-0.0277075
0.0312066
-0.0374578
0.0410089
-0.0475477
0.0512075
-0.0574286
0.0612477
-0.0666349
0.0706478
-0.0748482
0.0790693
-0.0819242
0.0863492
-0.0878805
0.0924922
-0.0928572
0.0976293
-0.0970632
0.101962
-0.100725
0.105708
-0.104047
0.109057
-0.107188
0.112158
-0.110262
0.115112
-0.113334
0.117985
-0.116443
0.120815
-0.119606
0.123653
-0.122806
-0.126192
0.126425
0.000532231
-0.000274801
0.00236721
-0.0034024
0.00574292
-0.00886483
0.0107986
-0.0163784
0.0175087
-0.0255517
0.0256361
-0.0358349
0.0347406
-0.0465623
0.0442498
-0.0570569
0.053572
-0.0667509
0.062209
-0.0752719
0.0698336
-0.0824728
0.0763152
-0.0884058
0.0816967
-0.0932621
0.0861394
-0.0972998
0.0898577
-0.100781
0.0930646
-0.103932
0.0959379
-0.10692
0.0986074
-0.109858
0.10116
-0.112814
0.103648
-0.115823
0.106106
-0.118901
0.108552
-0.122052
0.111015
-0.125268
-0.128626
0.113449
0.000686242
-0.000961043
0.00292756
-0.00564372
0.00689309
-0.0128304
0.0126003
-0.0220856
0.0198444
-0.0327958
0.028186
-0.0441765
0.0370217
-0.055398
0.0457153
-0.0657504
0.0537329
-0.0747684
0.0607338
-0.0822729
0.0665948
-0.0883338
0.0713759
-0.0931868
0.0752533
-0.0971396
0.0784486
-0.100495
0.0811725
-0.103505
0.0835948
-0.106354
0.0858361
-0.109161
0.0879738
-0.111996
0.0900543
-0.114894
0.0921049
-0.117873
0.0941416
-0.120937
0.0961742
-0.124085
0.0982173
-0.127312
-0.130644
0.100236
0.00084663
-0.00180767
0.00348043
-0.00827752
0.00796119
-0.0173111
0.0141399
-0.0282644
0.021608
-0.0402638
0.0297474
-0.0523159
0.0378717
-0.0635223
0.0453891
-0.0732678
0.0519158
-0.0812951
0.0573077
-0.0876648
0.0616215
-0.0926476
0.0650378
-0.0966032
0.0677826
-0.0998844
0.0700683
-0.102781
0.072063
-0.1055
0.0738838
-0.108175
0.0756043
-0.110882
0.0772675
-0.113659
0.0788977
-0.116524
0.080509
-0.119485
0.0821106
-0.122539
0.0837096
-0.125684
0.0853141
-0.128916
-0.132235
0.0869056
0.00100598
-0.00281365
0.00399244
-0.011264
0.00886795
-0.0221866
0.0152856
-0.034682
0.0226413
-0.0476196
0.0302031
-0.0598777
0.0373007
-0.0706199
0.043474
-0.0794412
0.0485266
-0.0863477
0.0524888
-0.0916271
0.0555349
-0.0956936
0.0578935
-0.0989617
0.0597822
-0.101773
0.0613732
-0.104372
0.0627857
-0.106912
0.0640933
-0.109483
0.0653382
-0.112126
0.0665436
-0.114864
0.0677228
-0.117704
0.0688839
-0.120646
0.0700329
-0.123688
0.0711749
-0.126826
0.0723141
-0.130055
-0.133363
0.0734413
0.00115414
-0.00396779
0.00442557
-0.0145354
0.00953674
-0.0272978
0.0159347
-0.0410799
0.0228641
-0.0545489
0.0295656
-0.0665792
0.0354702
-0.0765245
0.0402918
-0.0842628
0.0440069
-0.0900628
0.0467677
-0.0943879
0.0488016
-0.0977275
0.0503343
-0.100494
0.0515472
-0.102986
0.0525664
-0.105391
0.0534697
-0.107816
0.0543012
-0.110314
0.0550843
-0.11291
0.0558319
-0.115612
0.0565521
-0.118424
0.0572504
-0.121344
0.0579311
-0.124369
0.0585983
-0.127493
0.0592546
-0.130712
-0.134007
0.0598988
0.0012803
-0.00524809
0.00474455
-0.0179997
0.00990841
-0.0324616
0.0160331
-0.0472046
0.0222814
-0.0607972
0.0279503
-0.0722482
0.0326233
-0.0811975
0.0361861
-0.0878256
0.0387458
-0.0926225
0.0405194
-0.0961615
0.0417406
-0.0989487
0.0426046
-0.101358
0.0432496
-0.103631
0.0437618
-0.105903
0.0441895
-0.108244
0.0445581
-0.110683
0.0448812
-0.113233
0.0451665
-0.115897
0.0454196
-0.118677
0.0456447
-0.121569
0.0458452
-0.124569
0.0460237
-0.127672
0.0461807
-0.130869
-0.134145
0.0463185
0.00137754
-0.00662563
0.0049258
-0.0215479
0.00995246
-0.0374883
0.0155805
-0.0528327
0.0209699
-0.0661866
0.0255356
-0.0768138
0.0290266
-0.0846885
0.03147
-0.090269
0.0330539
-0.0942064
0.0340148
-0.0971224
0.0345643
-0.0994982
0.0348581
-0.101652
0.0349952
-0.103768
0.0350318
-0.10594
0.034997
-0.108209
0.0349054
-0.110591
0.0347654
-0.113093
0.0345822
-0.115714
0.0343601
-0.118455
0.034103
-0.121312
0.033814
-0.12428
0.0334952
-0.127353
0.0331463
-0.13052
0.032772
-0.13377
-0.000210567
0.00129522
-0.00108465
-0.000741463
0.00378831
-0.00325741
-0.00154046
0.00619874
-0.00539974
-0.00256899
0.00844862
-0.00742009
-0.0037914
0.0104956
-0.00927316
-0.00517044
0.0123451
-0.0109661
-0.0066663
0.0140389
-0.0125431
-0.00823739
0.0156361
-0.014065
-0.00984191
0.0171957
-0.0155911
-0.0114387
0.0187627
-0.0171659
-0.012987
0.0203616
-0.0188132
-0.0144454
0.0219937
-0.0205354
-0.0157694
0.023639
-0.0223149
-0.0169105
0.0252584
-0.0241173
-0.017814
0.0267957
-0.0258922
-0.0184191
0.0281794
-0.0275743
-0.0186587
0.0293233
-0.0290837
-0.0184612
0.0301281
-0.0303256
-0.0177524
0.0304834
-0.0311922
-0.0164629
0.0302765
-0.031566
-0.0145198
0.0293827
-0.0313258
-0.0118629
0.0276955
-0.0303524
-0.00845526
0.0251251
-0.0285327
0.0216787
-0.00431939
-0.0258146
-0.000111781
0.001407
-0.00040973
0.00408626
-0.000876386
0.00666539
-0.00149631
0.00906854
-0.00224926
0.0112485
-0.00310623
0.0132021
-0.00402873
0.0149614
-0.00497049
0.0165779
-0.00588028
0.0181054
-0.00670452
0.0195869
-0.0073889
0.021046
-0.00787862
0.0224834
-0.00811702
0.0238774
-0.00804673
0.0251881
-0.00760705
0.0263561
-0.00673513
0.0273075
-0.00536733
0.0279555
-0.00344172
0.0282025
-0.000900358
0.0279421
0.00231699
0.0270592
0.00624986
0.0254499
0.0109363
0.0230091
0.0164056
0.0196557
0.0153751
0.0227093
-1.62244e-05
0.00142322
-8.15217e-05
0.00415156
-0.000205908
0.00678978
-0.000392017
0.00925465
-0.00063243
0.0114889
-0.000906266
0.0134759
-0.00117821
0.0152334
-0.00140018
0.0167999
-0.00151467
0.0182199
-0.00145848
0.0195308
-0.0011658
0.0207533
-0.000570272
0.0218879
0.000392546
0.0229146
0.00178898
0.0237917
0.00368241
0.0244626
0.00613377
0.0248561
0.00920003
0.0248893
0.0129319
0.0244705
0.0173716
0.0235025
0.0225458
0.0218849
0.0284768
0.0195189
0.0351773
0.0163086
0.0426347
0.0121983
0.00701782
0.050992
6.28397e-05
0.00136039
0.000199716
0.00401468
0.000386046
0.00660345
0.000609812
0.00903088
0.000870566
0.0112282
0.00118269
0.0131638
0.00157702
0.014839
0.00209987
0.016277
0.00281009
0.0175097
0.00377498
0.0185659
0.00506617
0.0194621
0.00675626
0.0201978
0.00891706
0.0207538
0.0116158
0.0210929
0.0149158
0.0211627
0.0188738
0.0208981
0.0235389
0.0202242
0.0289504
0.019059
0.0351369
0.017316
0.0421159
0.0149059
0.0498906
0.0117442
0.0584789
0.00772028
0.0677972
0.00288005
-0.00333443
0.0781494
0.000115319
0.00124507
0.000399262
0.00373074
0.00082763
0.00617508
0.0013895
0.00846901
0.00208363
0.010534
0.00292146
0.012326
0.00392959
0.0138309
0.00514999
0.0150566
0.00663801
0.0160217
0.00845889
0.016745
0.0106836
0.0172374
0.0133847
0.0174967
0.0166331
0.0175053
0.0204955
0.0172305
0.0250322
0.016626
0.0302959
0.0156344
0.0363308
0.0141893
0.0431722
0.0122175
0.0508469
0.00964128
0.059381
0.00637186
0.0687694
0.00235574
0.0790943
-0.00260459
0.090248
-0.0082737
-0.0157576
0.102671
0.000135632
0.00110943
0.000495588
0.00337078
0.00107097
0.00559969
0.00186229
0.0076777
0.00287488
0.00952145
0.00412205
0.0110788
0.00562828
0.0123247
0.00743079
0.0132541
0.00957887
0.0138736
0.0121315
0.0141923
0.0151541
0.0142148
0.0187147
0.0139361
0.0228808
0.0133392
0.0277173
0.0123941
0.0332847
0.0110586
0.0396388
0.0092803
0.0468324
0.00699568
0.0549137
0.00413627
0.0639134
0.00064162
0.0739124
-0.00362713
0.084936
-0.00866789
0.0970609
-0.0147295
0.110104
-0.0213164
-0.0302395
0.124585
0.000123125
0.00098631
0.000484511
0.0030094
0.00110303
0.00498117
0.00199893
0.0067818
0.0031906
0.00832978
0.00469831
0.0095711
0.00654835
0.0104746
0.00877585
0.0110266
0.0114257
0.0112238
0.0145518
0.0110662
0.0182154
0.0105512
0.0224827
0.00966874
0.0274232
0.00839864
0.0331077
0.00670964
0.0396114
0.00455488
0.0470055
0.00188621
0.0553696
-0.0013685
0.0647808
-0.00527492
0.0753293
-0.00990686
0.0870511
-0.0153489
0.100002
-0.0216188
0.114221
-0.0289488
0.129508
-0.0366029
-0.0468841
0.146153
8.28775e-05
0.000903432
0.000382167
0.00271011
0.000953379
0.00440996
0.00184219
0.00589299
0.00308517
0.00708679
0.00471505
0.00794122
0.00676604
0.00842363
0.00927814
0.00851452
0.0122998
0.00820213
0.0158892
0.00747682
0.0201145
0.00632595
0.0250533
0.00472988
0.0307925
0.0026595
0.0374157
8.64365e-05
0.045038
-0.00306746
0.0537526
-0.00682835
0.0636522
-0.0112681
0.0748198
-0.0164425
0.0873121
-0.0223991
0.101128
-0.0291653
0.116231
-0.0367212
0.132441
-0.0451586
0.149585
-0.0537478
-0.0645313
0.167233
2.61576e-05
0.000877274
0.000226267
0.00251
0.00069742
0.00393881
0.0015144
0.00507601
0.00273693
0.00586427
0.00441723
0.00626092
0.00660706
0.00623381
0.00936349
0.00575809
0.0127531
0.00481252
0.0168544
0.00337552
0.0217584
0.00142196
0.0275673
-0.00107905
0.0343908
-0.00416395
0.0423501
-0.00787286
0.0515335
-0.0122509
0.0620364
-0.0173313
0.0739085
-0.0231402
0.0871499
-0.0296839
0.101693
-0.0369421
0.117378
-0.04485
0.133975
-0.0533184
0.151037
-0.0622212
0.168405
-0.0711151
-0.0810412
0.184915
-3.02319e-05
0.000907506
7.27485e-05
0.00240702
0.000449152
0.00356241
0.00120547
0.00431969
0.00243081
0.00463893
0.00420638
0.00448534
0.0066139
0.00382629
0.00974194
0.00263006
0.0136895
0.000864938
0.0185665
-0.00150146
0.0244903
-0.00450184
0.0315786
-0.00816733
0.0399385
-0.0125239
0.0496532
-0.0175876
0.0607614
-0.023359
0.0732472
-0.0298171
0.0870211
-0.0369141
0.10191
-0.0445731
0.117649
-0.052681
0.133896
-0.0610964
0.150219
-0.0696421
0.166103
-0.0781049
0.181262
-0.0862741
-0.0942329
0.194454
-6.71461e-05
0.000974652
-1.43696e-05
0.00235424
0.000336882
0.00321115
0.0011298
0.00352678
0.0024892
0.00327953
0.00453419
0.00244034
0.00738558
0.000974896
0.0111698
-0.00115416
0.0160172
-0.00398247
0.0220555
-0.00753971
0.0293977
-0.0118441
0.0381271
-0.0168967
0.0482789
-0.0226757
0.0598237
-0.0291324
0.0726533
-0.0361886
0.0865729
-0.0437367
0.1013
-0.0516416
0.116476
-0.059749
0.131677
-0.0678822
0.146471
-0.0758895
0.160393
-0.0835645
0.173154
-0.090866
0.184399
-0.0975188
-0.10348
0.193646
-6.94776e-05
1.40247e-05
0.000464467
0.00146057
0.00316637
0.00574144
0.00934146
0.0141172
0.0202017
0.0276943
0.0366415
0.0470183
0.058714
0.071526
0.0851623
0.0992558
0.113387
0.127116
0.140019
0.151735
0.161983
0.170734
0.177908
0.184801
0.00174433
0.0230991
-0.0291628
0.0082656
0.0131452
-0.0196664
0.015193
0.000337132
-0.00726454
0.0225822
-0.014996
0.00760679
0.0301484
-0.0326022
0.0250361
0.0378106
-0.0518664
0.0442042
0.0453113
-0.0718397
0.064339
0.0523799
-0.0911353
0.0840667
0.0586142
-0.108224
0.10199
0.0634542
-0.121822
0.116982
0.0662007
-0.131396
0.128649
0.0662486
-0.137493
0.137445
0.0636569
-0.14163
0.144222
0.059832
-0.14497
0.148794
0.0574618
-0.146144
0.148514
0.0592345
-0.140439
0.138666
0.0662012
-0.12208
0.115113
0.0773509
-0.0882649
0.0771152
0.0909599
-0.0409992
0.0273902
0.105221
0.0136976
-0.0279585
0.118697
0.0677992
-0.0812749
0.129943
0.112917
-0.124164
0.137944
0.144591
-0.152592
0.142635
0.163112
-0.167803
0.14469
0.171501
-0.173555
0.144337
0.174683
-0.17433
0.140985
0.180143
-0.176792
0.134771
0.191853
-0.185639
0.128065
0.201513
-0.194807
0.124385
0.188939
-0.185259
0.125789
0.138794
-0.140198
0.131865
0.0557864
-0.0618624
0.140218
-0.0371549
0.028802
0.148233
-0.115789
0.107774
0.154229
-0.16868
0.162684
0.15773
-0.194228
0.190727
0.157963
-0.205187
0.204954
0.153802
-0.213039
0.2172
0.145827
-0.226912
0.234887
0.137384
-0.226859
0.235302
0.132728
-0.191714
0.19637
0.133817
-0.111893
0.110804
0.139667
-0.00425374
-0.00159645
0.147477
0.0898053
-0.0976152
0.153223
0.168587
-0.174334
0.15348
0.211166
-0.211422
0.148188
0.259588
-0.254296
0.141073
0.268029
-0.260914
0.137505
0.237281
-0.233713
0.139695
0.144836
-0.147026
0.145384
0.00500054
-0.0106889
0.149203
-0.0801658
0.0763465
0.14807
-0.210502
0.211635
0.144524
-0.243002
0.246547
0.142528
-0.300027
0.302023
0.142789
-0.251433
0.251172
0.143381
-0.088392
0.0877999
0.142912
-0.0241802
0.0246489
0.140983
0.26065
-0.258721
0.246985
-0.245213
0.0287184
0.01709
0.0348772
0.00698639
0.0411198
-0.00590541
0.047383
-0.0212592
0.0535345
-0.0387537
0.059495
-0.0578269
0.0651225
-0.0774673
0.0701875
-0.0962003
0.0743579
-0.112394
0.0772323
-0.124697
0.0782939
-0.132457
0.0768885
-0.136088
0.0725107
-0.137252
0.0656834
-0.138142
0.0587159
-0.139176
0.0550926
-0.136816
0.0574832
-0.124471
0.0661305
-0.0969121
0.0792907
-0.0541595
0.0947532
-0.00176486
0.11029
0.052262
0.124001
0.0992065
0.134514
0.134078
0.141549
0.156076
0.145548
0.167502
0.146612
0.173619
0.144422
0.182334
0.139577
0.196698
0.134437
0.206654
0.131853
0.191523
0.133275
0.137372
0.138261
0.0508003
0.144954
-0.0438479
0.151095
-0.12193
0.155222
-0.172807
0.157121
-0.196127
0.156294
-0.20436
0.15153
-0.208275
0.143051
-0.218433
0.134108
-0.217917
0.129258
-0.186864
0.130863
-0.113498
0.137826
-0.0112168
0.146881
0.08075
0.153522
0.161946
0.154378
0.210311
0.14957
0.264395
0.142693
0.274905
0.139027
0.240948
0.140711
0.143151
0.146058
-0.000346312
0.149728
-0.0838353
0.1484
-0.209174
0.144665
-0.239267
0.142487
-0.297848
0.142683
-0.25163
0.143025
-0.0887346
0.142426
-0.023581
0.1405
0.262576
0.24876
0.056477
0.011605
0.0619819
0.0014815
0.0674502
-0.0113738
0.0726011
-0.0264101
0.0773667
-0.0435193
0.0816942
-0.0621545
0.0854642
-0.0812372
0.0884607
-0.0991967
0.0904064
-0.11434
0.0910314
-0.125322
0.0901248
-0.131551
0.0873849
-0.133348
0.0821763
-0.132044
0.0740543
-0.13002
0.0641597
-0.129282
0.0558073
-0.128463
0.0529726
-0.121636
0.0577206
-0.10166
0.0691974
-0.0656363
0.0848994
-0.0174669
0.101929
0.0352329
0.11779
0.0833455
0.130739
0.121129
0.140179
0.146636
0.146229
0.161453
0.148907
0.17094
0.148204
0.183037
0.145034
0.199867
0.141549
0.210139
0.139908
0.193164
0.141049
0.136231
0.144714
0.0471348
0.14952
-0.048654
0.153709
-0.126119
0.155996
-0.175094
0.156359
-0.196489
0.154587
-0.202588
0.149443
-0.203132
0.140711
-0.209701
0.131392
-0.208597
0.126275
-0.181747
0.128219
-0.115442
0.136086
-0.0190837
0.14626
0.0705767
0.153797
0.154409
0.155374
0.208734
0.151199
0.26857
0.144648
0.281457
0.140858
0.244738
0.14194
0.14207
0.14684
-0.00524696
0.150357
-0.087352
0.14884
-0.207656
0.14487
-0.235298
0.142474
-0.295452
0.14265
-0.251805
0.142806
-0.0888902
0.142098
-0.0228735
0.140175
0.264499
0.250527
0.0831014
0.006653
0.0882643
-0.00368138
0.0929747
-0.0160842
0.0971655
-0.0306009
0.100722
-0.0470759
0.10357
-0.0650024
0.105546
-0.0832135
0.106436
-0.100087
0.106052
-0.113956
0.104301
-0.12357
0.101235
-0.128485
0.0969644
-0.129078
0.091238
-0.126317
0.0832093
-0.121991
0.0725381
-0.11861
0.0611891
-0.117114
0.0534219
-0.113869
0.0531962
-0.101434
0.0614642
-0.0739042
0.0760575
-0.0320602
0.0937709
0.0175194
0.111311
0.0658056
0.126519
0.105921
0.138349
0.134805
0.14653
0.153272
0.151016
0.166454
0.152079
0.181975
0.150819
0.201127
0.149022
0.211936
0.148183
0.194002
0.14883
0.135584
0.150997
0.0449679
0.153813
-0.0514704
0.156042
-0.128348
0.15656
-0.175612
0.155458
-0.195387
0.152815
-0.199944
0.147463
-0.197779
0.13874
-0.200978
0.129217
-0.199074
0.123771
-0.176302
0.125849
-0.11752
0.134388
-0.0276232
0.145556
0.0594087
0.154006
0.145959
0.156438
0.206302
0.153051
0.271956
0.146925
0.287584
0.143004
0.248659
0.143386
0.141688
0.147723
-0.00958418
0.15107
-0.0906989
0.149375
-0.205962
0.14513
-0.231053
0.142476
-0.292797
0.142671
-0.252
0.14271
-0.0889292
0.141917
-0.0220809
0.140007
0.26641
0.252271
0.107587
0.00173683
0.112382
-0.00847628
0.116601
-0.0203027
0.120033
-0.0340328
0.122529
-0.0495727
0.123949
-0.0664222
0.124088
-0.0833523
0.122793
-0.0987912
0.120052
-0.111215
0.116004
-0.119523
0.110901
-0.123382
0.105067
-0.123244
0.0986907
-0.119941
0.0912477
-0.114548
0.0815879
-0.10895
0.0697389
-0.105265
0.0586844
-0.102814
0.0533079
-0.0960579
0.0569002
-0.0774965
0.068874
-0.0440341
0.0861169
0.00027651
0.104642
0.0472805
0.121744
0.0888186
0.1358
0.12075
0.14611
0.142962
0.152549
0.160014
0.155605
0.178919
0.156426
0.200307
0.156375
0.211987
0.156252
0.194125
0.156333
0.135504
0.156876
0.0444244
0.157727
-0.0523208
0.158023
-0.128645
0.156863
-0.174452
0.154396
-0.19292
0.150954
-0.196502
0.145531
-0.192357
0.137056
-0.192503
0.127533
-0.189551
0.121744
-0.170513
0.123708
-0.119483
0.132686
-0.0366011
0.144702
0.0473923
0.154088
0.136573
0.157516
0.202874
0.155076
0.274397
0.14948
0.293179
0.145437
0.252702
0.14504
0.142085
0.148692
-0.0132358
0.151839
-0.0938463
0.149987
-0.20411
0.145439
-0.226505
0.142481
-0.289838
0.142727
-0.252247
0.142724
-0.0889261
0.141872
-0.0212288
0.139988
0.268294
0.25397
0.12981
-0.00348808
0.134177
-0.0128432
0.137903
-0.024028
0.140537
-0.0366673
0.141901
-0.0509366
0.141799
-0.0663199
0.140022
-0.0815755
0.136526
-0.0952948
0.131497
-0.106186
0.125324
-0.113349
0.118474
-0.116533
0.111369
-0.116139
0.104342
-0.112914
0.0973416
-0.107548
0.089372
-0.100981
0.0791529
-0.0950462
0.0674317
-0.0910931
0.0582043
-0.0868305
0.0564369
-0.0757291
0.0641217
-0.0517189
0.0793169
-0.0149187
0.0978895
0.028708
0.116307
0.0704013
0.132267
0.104789
0.144605
0.130625
0.153068
0.151551
0.158263
0.173724
0.16128
0.19729
0.163018
0.210249
0.163642
0.1935
0.163185
0.135961
0.162182
0.0454277
0.161145
-0.0512838
0.159579
-0.127079
0.156852
-0.171725
0.15314
-0.189208
0.148964
-0.192326
0.143564
-0.186957
0.135541
-0.18448
0.126242
-0.180252
0.120139
-0.16441
0.121769
-0.121113
0.130903
-0.0457357
0.143616
0.0346801
0.153962
0.126227
0.158525
0.198311
0.157191
0.275731
0.15224
0.298129
0.148109
0.256833
0.146878
0.143316
0.14973
-0.0160877
0.152634
-0.096751
0.150653
-0.202129
0.145791
-0.221643
0.142478
-0.286526
0.142799
-0.252568
0.142832
-0.0889585
0.141949
-0.0203463
0.140114
0.270129
0.255598
0.150474
-0.00780979
0.154234
-0.0166031
0.157033
-0.0268269
0.15844
-0.0380742
0.158289
-0.050786
0.15637
-0.0644001
0.15253
-0.0777359
0.146875
-0.0896395
0.139774
-0.0990857
0.131791
-0.105366
0.12355
-0.108292
0.115556
-0.108145
0.108119
-0.105477
0.101367
-0.100797
0.0948535
-0.0944671
0.0871817
-0.0873745
0.0772819
-0.0811933
0.0668285
-0.0763771
0.0605286
-0.0694292
0.0627724
-0.0539627
0.0740426
-0.026189
0.0912552
0.0114954
0.110113
0.0515432
0.127514
0.0873888
0.141693
0.116446
0.152178
0.141065
0.159578
0.166324
0.164845
0.192024
0.168382
0.206712
0.169794
0.192088
0.169009
0.136747
0.166706
0.0477303
0.16395
-0.0485279
0.160627
-0.123756
0.156468
-0.167566
0.151653
-0.184393
0.146809
-0.187482
0.141481
-0.181629
0.134065
-0.177064
0.125207
-0.171395
0.11887
-0.158072
0.119976
-0.122219
0.128988
-0.0547484
0.142213
0.021456
0.153537
0.114903
0.159365
0.192483
0.159293
0.275803
0.155106
0.302316
0.150943
0.260996
0.148856
0.145403
0.150811
-0.0180422
0.153419
-0.0993592
0.151344
-0.200054
0.146179
-0.216478
0.142462
-0.282809
0.142868
-0.252974
0.143015
-0.089105
0.142133
-0.0194651
0.140378
0.271884
0.257121
0.170029
-0.0106062
0.172274
-0.0188479
0.173316
-0.0278689
0.172825
-0.037584
0.170686
-0.0486465
0.166692
-0.060406
0.160792
-0.0718365
0.153238
-0.0820845
0.144521
-0.0903688
0.135279
-0.0961243
0.126163
-0.0991764
0.117694
-0.0996751
0.110154
-0.0979367
0.103644
-0.0942863
0.0980572
-0.0888807
0.0925931
-0.0819104
0.0857036
-0.0743037
0.0768204
-0.0674939
0.0684943
-0.0611031
0.0656079
-0.0510763
0.0714401
-0.0320211
0.0853494
-0.00241385
0.10326
0.0336327
0.121364
0.0692846
0.137088
0.100722
0.149538
0.128615
0.159155
0.156707
0.166677
0.184502
0.172021
0.201368
0.174303
0.189806
0.173344
0.137705
0.170194
0.0508807
0.165989
-0.0443225
0.161087
-0.118854
0.155644
-0.162123
0.149883
-0.178632
0.144441
-0.182041
0.139199
-0.176387
0.132489
-0.170353
0.124266
-0.163172
0.117821
-0.151627
0.118276
-0.122675
0.126885
-0.063357
0.140417
0.00792399
0.152715
0.102605
0.159917
0.18528
0.161252
0.274468
0.157956
0.305612
0.153846
0.265106
0.150919
0.14833
0.151906
-0.0190299
0.154156
-0.101609
0.152029
-0.197927
0.146593
-0.211041
0.142423
-0.278639
0.142914
-0.253465
0.143254
-0.0894451
0.142409
-0.0186203
0.140773
0.27352
0.258501
0.185733
-0.0114247
0.185834
-0.0189488
0.184587
-0.026622
0.181904
-0.034901
0.177702
-0.0444441
0.171797
-0.0545008
0.16425
-0.0642899
0.155398
-0.0732325
0.145759
-0.0807304
0.135951
-0.0863163
0.126565
-0.0897904
0.118058
-0.0911676
0.110685
-0.0905639
0.104513
-0.088114
0.0995135
-0.0838812
0.0954148
-0.0778117
0.0912009
-0.0700898
0.0854165
-0.0617095
0.0781084
-0.053795
0.0723876
-0.0453556
0.0727847
-0.0324182
0.0814403
-0.0110695
0.0964885
0.0185845
0.114003
0.0517705
0.130661
0.0840634
0.14488
0.114396
0.156704
0.144883
0.166522
0.174684
0.173716
0.194174
0.176946
0.186576
0.176102
0.138549
0.17241
0.0545731
0.167137
-0.03905
0.160856
-0.112573
0.154274
-0.155541
0.147737
-0.172096
0.141788
-0.176092
0.136623
-0.171222
0.130672
-0.164402
0.12325
-0.15575
0.116843
-0.14522
0.116593
-0.122425
0.124552
-0.0713158
0.138167
-0.00569117
0.151398
0.0893742
0.160065
0.176614
0.162944
0.27159
0.160669
0.307887
0.156701
0.269074
0.153
0.152032
0.152979
-0.0190088
0.154805
-0.103436
0.152673
-0.195795
0.147019
-0.205388
0.142352
-0.273972
0.142919
-0.254032
0.143532
-0.0900581
0.142761
-0.0178492
0.141291
0.274991
0.259694
0.19363
-0.010601
0.191777
-0.0170958
0.188542
-0.0233872
0.184135
-0.0304937
0.178441
-0.0387499
0.171324
-0.0473836
0.162932
-0.055898
0.153607
-0.0639079
0.143818
-0.0709416
0.134103
-0.0766007
0.124959
-0.0806469
0.116763
-0.0829711
0.109736
-0.0835374
0.103959
-0.0823372
0.0994264
-0.0793482
0.0960806
-0.0744659
0.0935426
-0.0675518
0.0907097
-0.0588766
0.0863571
-0.0494424
0.0810499
-0.0400484
0.0780762
-0.0294444
0.0812065
-0.0141999
0.0914593
0.00833173
0.106462
0.0367674
0.122831
0.0676944
0.138259
0.0989687
0.152067
0.131074
0.164075
0.162676
0.173177
0.185072
0.177601
0.182152
0.177168
0.138982
0.173394
0.0583473
0.167375
-0.033031
0.15989
-0.105087
0.152281
-0.147933
0.145137
-0.164951
0.138795
-0.16975
0.133684
-0.166111
0.128504
-0.159222
0.12202
-0.149266
0.115796
-0.138996
0.114836
-0.121464
0.121936
-0.0784161
0.135432
-0.0191871
0.149513
0.0752933
0.159679
0.166447
0.164199
0.26707
0.163084
0.309003
0.159402
0.272755
0.155026
0.156407
0.153996
-0.0179785
0.155332
-0.104771
0.153241
-0.193704
0.147441
-0.199588
0.14225
-0.26878
0.142872
-0.254655
0.143833
-0.0910191
0.143174
-0.0171896
0.141925
0.276239
0.260654
0.192086
-0.00904112
0.189135
-0.0141453
0.184939
-0.0191905
0.179814
-0.0253687
0.17358
-0.0325161
0.166205
-0.0400092
0.157872
-0.047564
0.148866
-0.0549019
0.139579
-0.0616555
0.130458
-0.0674789
0.121906
-0.072095
0.114232
-0.0752978
0.107635
-0.0769398
0.102215
-0.0769169
0.0980038
-0.0751375
0.0950076
-0.0714697
0.0931973
-0.0657415
0.0921898
-0.0578691
0.0908676
-0.0481202
0.0882379
-0.0374186
0.0852064
-0.0264129
0.0849129
-0.0139064
0.0899643
0.00328033
0.100662
0.0260693
0.114902
0.053455
0.130322
0.0835482
0.145621
0.115775
0.159837
0.148461
0.170914
0.173994
0.176453
0.176613
0.176747
0.138688
0.173312
0.0617825
0.166944
-0.0266625
0.158451
-0.0965946
0.149917
-0.139399
0.142296
-0.157329
0.135664
-0.163119
0.130527
-0.160974
0.12603
-0.154725
0.120558
-0.143794
0.114639
-0.133078
0.112968
-0.119792
0.119039
-0.0844871
0.132146
-0.0322945
0.146972
0.0604668
0.158696
0.154723
0.164988
0.260778
0.165111
0.30888
0.161818
0.276048
0.156952
0.161273
0.154961
-0.0159876
0.155727
-0.105537
0.153727
-0.191704
0.147846
-0.193708
0.142134
-0.263068
0.142783
-0.255304
0.144149
-0.0923847
0.143631
-0.0166716
0.142671
0.277198
0.26133
0.183085
-0.00732492
0.179797
-0.0108576
0.175798
-0.0151915
0.170974
-0.0205444
0.165149
-0.0266913
0.158439
-0.0332989
0.151001
-0.0401261
0.143049
-0.0469501
0.134891
-0.0534972
0.126874
-0.0594625
0.119323
-0.0645434
0.112491
-0.0684665
0.106552
-0.0710001
0.101597
-0.0719621
0.097673
-0.0712137
0.0948218
-0.0686185
0.0931051
-0.0640248
0.0925332
-0.0572972
0.0927013
-0.0482883
0.0925831
-0.0373005
0.0914929
-0.0253227
0.09045
-0.0128634
0.0921556
0.00157472
0.0983894
0.0198355
0.108883
0.0429609
0.122281
0.0701505
0.137339
0.100718
0.152607
0.133192
0.16527
0.161331
0.172638
0.169246
0.17484
0.136486
0.172709
0.0639133
0.166037
-0.0199904
0.156618
-0.0871759
0.14738
-0.130161
0.139474
-0.149424
0.132664
-0.156309
0.127388
-0.155697
0.123381
-0.150718
0.118906
-0.139319
0.11339
-0.127562
0.111032
-0.117435
0.116044
-0.0894986
0.128458
-0.0447092
0.14378
0.0451453
0.15685
0.141654
0.164956
0.252672
0.166496
0.30734
0.163826
0.278718
0.158696
0.166403
0.155837
-0.0131287
0.155969
-0.105669
0.154117
-0.189852
0.148212
-0.187803
0.14202
-0.256875
0.14267
-0.255955
0.144486
-0.0942
0.144119
-0.016305
0.143521
0.277796
0.261671
0.210035
-0.00592523
-0.211435
0.209329
-0.0101508
0.208386
-0.0142492
0.206933
-0.0190913
0.204822
-0.0245803
0.201996
-0.0304728
0.198438
-0.0365675
0.194139
-0.0426516
0.189137
-0.0484948
0.183519
-0.0538443
0.177406
-0.0584312
0.170938
-0.0619977
0.164253
-0.0643156
0.157487
-0.0651957
0.150762
-0.064489
0.144195
-0.0620519
0.137898
-0.0577279
0.132015
-0.0514142
0.12663
-0.0429028
0.121386
-0.032056
0.115526
-0.0194635
0.109009
-0.00634558
0.102812
0.00777104
0.0988953
0.0237524
0.0985214
0.0433349
0.101842
0.0668298
0.108378
0.0941816
0.11737
0.124201
0.128633
0.150068
0.143703
0.154175
0.162295
0.117894
0.178272
0.0479366
0.186643
-0.0283612
0.186711
-0.0872437
0.181371
-0.124821
0.173511
-0.141564
0.164717
-0.147514
0.156322
-0.147302
0.148896
-0.143291
0.141253
-0.131676
0.132445
-0.118754
0.125233
-0.110223
0.123473
-0.0877387
0.127327
-0.0485627
0.133155
0.0393174
0.137803
0.137006
0.140983
0.249492
0.14392
0.304403
0.148022
0.274615
0.152152
0.162273
0.15515
-0.0161263
0.157156
-0.107675
0.155029
-0.187725
0.148197
-0.180972
0.140454
-0.249132
0.136878
-0.252379
0.135049
-0.0923703
0.13167
-0.0129267
0.130323
0.279144
0.26144
0.219262
-0.00488526
-0.220302
0.218122
-0.00901148
0.217024
-0.013151
0.215502
-0.0175691
0.213356
-0.0224342
0.210547
-0.0276639
0.207056
-0.0330763
0.202878
-0.0384735
0.198039
-0.043656
0.192607
-0.0484123
0.186689
-0.0525133
0.18042
-0.055729
0.173949
-0.0578445
0.167423
-0.0586701
0.160981
-0.0580462
0.15475
-0.0558213
0.14884
-0.0518179
0.143352
-0.0459267
0.13843
-0.0379804
0.134066
-0.0276921
0.12976
-0.0151574
0.124732
-0.00131752
0.119292
0.013211
0.114601
0.028443
0.112443
0.0454933
0.114088
0.0651846
0.119818
0.0884513
0.129151
0.114869
0.142339
0.13688
0.160223
0.13629
0.180037
0.0980801
0.195343
0.0326306
0.201865
-0.0348833
0.200126
-0.0855043
0.193271
-0.117966
0.184426
-0.132719
0.175063
-0.138151
0.166174
-0.138413
0.158464
-0.135581
0.150989
-0.124201
0.142285
-0.11005
0.134563
-0.1025
0.131956
-0.0851315
0.135401
-0.0520076
0.141494
0.0332244
0.146824
0.131676
0.151009
0.245306
0.155125
0.300287
0.160267
0.269474
0.16483
0.157709
0.167507
-0.0188024
0.16885
-0.109019
0.166183
-0.185057
0.158636
-0.173425
0.149798
-0.240293
0.145815
-0.248397
0.143864
-0.0904192
0.140193
-0.00925504
0.138902
0.280434
0.261
0.228005
-0.0042118
-0.228679
0.226985
-0.00799107
0.225753
-0.0119192
0.224162
-0.0159782
0.22204
-0.0203117
0.219305
-0.0249297
0.21594
-0.0297104
0.211946
-0.0344799
0.207348
-0.0390584
0.2022
-0.0432639
0.196589
-0.0469019
0.190631
-0.0497714
0.184461