/*--------------------------------*- C++ -*----------------------------------*\
| =========                 |                                                 |
| \\      /  F ield         | OpenFOAM: The Open Source CFD Toolbox           |
|  \\    /   O peration     | Version:  2512                                  |
|   \\  /    A nd           | Website:  www.openfoam.com                      |
|    \\/     M anipulation  |                                                 |
\*---------------------------------------------------------------------------*/
FoamFile
{
    version     2.0;
    format      ascii;
    arch        "LSB;label=32;scalar=64";
    class       surfaceScalarField;
    location    "4";
    object      phi;
}
// * * * * * * * * * * * * * * * * * * * * * * * * * * * * * * * * * * * * * //

dimensions      [0 3 -1 0 0 0 0];

oriented        oriented;

internalField   nonuniform List<scalar> 
26232
(
0.000200288
0.00145559
-0.00165588
0.0011729
0.00269127
-0.00366388
0.00318607
0.00225644
-0.00426961
0.00645257
5.23394e-05
-0.00331884
0.0111545
-0.00399774
-0.000704233
0.0174273
-0.00991221
0.00363942
0.0253187
-0.0176145
0.0097231
0.0347333
-0.0268895
0.0174749
0.0453883
-0.037359
0.026704
0.0568104
-0.0484935
0.0370714
0.06839
-0.0596713
0.0480917
0.0794852
-0.0702733
0.0591781
0.0895446
-0.0797877
0.0697284
0.0982073
-0.0878885
0.0792258
0.10535
-0.0944661
0.0873239
0.111068
-0.0996045
0.0938858
0.115617
-0.10352
0.0989717
0.119323
-0.106489
0.102784
0.122513
-0.108784
0.105594
0.125464
-0.110635
0.107683
0.128379
-0.112204
0.109289
0.131375
-0.11363
0.110634
0.134377
-0.114827
0.111825
-0.116218
0.113122
0.137473
0.000229552
0.00122604
0.0013452
0.00157562
0.00367681
-7.51616e-05
0.00748423
-0.00375508
0.0129561
-0.00946962
0.0201726
-0.0171287
0.0290481
-0.0264899
0.0392872
-0.0371286
0.0503857
-0.0484575
0.0616939
-0.0598018
0.072533
-0.0705104
0.082327
-0.0800674
0.090706
-0.0881667
0.0975494
-0.0947319
0.102963
-0.0998794
0.107207
-0.103849
0.110614
-0.106927
0.113507
-0.109383
0.116163
-0.11144
0.118786
-0.113257
0.121526
-0.114945
0.124476
-0.11658
0.127804
-0.118155
-0.120028
0.131614
0.00032027
0.000905771
0.00170754
0.000188353
0.00451474
-0.00288236
0.0090044
-0.00824474
0.0153147
-0.0157799
0.0233999
-0.0252139
0.0329795
-0.0360696
0.0435385
-0.0476875
0.0543986
-0.0593175
0.064849
-0.0702522
0.0742909
-0.0799523
0.0823453
-0.0881218
0.088893
-0.0947144
0.094043
-0.0998818
0.0980553
-0.103892
0.101251
-0.107045
0.10394
-0.109616
0.106378
-0.111822
0.108756
-0.113817
0.111203
-0.115704
0.113804
-0.117545
0.116609
-0.119385
0.119674
-0.121221
-0.123237
0.122884
0.000454917
0.000450854
0.00220563
-0.00156236
0.00558786
-0.00626459
0.010813
-0.0134698
0.0179029
-0.0228699
0.0266258
-0.0339368
0.0364836
-0.0459274
0.046785
-0.0579889
0.056789
-0.0693216
0.0658664
-0.0793295
0.0736164
-0.0877023
0.0799063
-0.0944117
0.084835
-0.0996431
0.0886503
-0.103697
0.091658
-0.106899
0.0941511
-0.109538
0.0963704
-0.111835
0.0984934
-0.113945
0.100642
-0.115966
0.102896
-0.117958
0.10531
-0.119959
0.10792
-0.121995
0.110762
-0.124063
-0.126311
0.113836
0.000614741
-0.000163887
0.00277761
-0.00372523
0.00676532
-0.0102523
0.0126821
-0.0193866
0.0203746
-0.0305624
0.0293934
-0.0429557
0.0390522
-0.0555862
0.0485795
-0.0675162
0.057301
-0.0780431
0.0647746
-0.0868031
0.0708369
-0.0937646
0.0755658
-0.0991406
0.079194
-0.103271
0.0820148
-0.106518
0.0843102
-0.109195
0.0863112
-0.111539
0.0881873
-0.113711
0.090053
-0.11581
0.0919824
-0.117895
0.0940225
-0.119999
0.0962044
-0.122141
0.0985456
-0.124336
0.10107
-0.126587
-0.128974
0.103732
0.000786101
-0.000949988
0.00337165
-0.00631078
0.00793168
-0.0148123
0.0144099
-0.0258648
0.0224385
-0.038591
0.0313615
-0.0518787
0.0403815
-0.0646062
0.0487641
-0.0758988
0.0560021
-0.0852811
0.0618804
-0.0926815
0.0664432
-0.0983274
0.0699039
-0.102601
0.0725455
-0.105913
0.0746435
-0.108616
0.0764238
-0.110975
0.0780506
-0.113166
0.0796339
-0.115294
0.0812434
-0.11742
0.0829232
-0.119575
0.0847023
-0.121778
0.0866013
-0.12404
0.0886355
-0.12637
0.0908221
-0.128774
-0.131294
0.0931422
0.000960056
-0.00191004
0.0039466
-0.00929733
0.00899034
-0.0198561
0.0158319
-0.0327064
0.0238817
-0.0466408
0.0323329
-0.0603299
0.0403806
-0.0726539
0.0474259
-0.0829441
0.0531743
-0.0910295
0.0576167
-0.0971239
0.0609386
-0.101649
0.0634124
-0.105075
0.0653117
-0.107812
0.0668633
-0.110167
0.0682318
-0.112344
0.0695264
-0.11446
0.0708157
-0.116584
0.072142
-0.118746
0.0735329
-0.120966
0.0750075
-0.123252
0.0765799
-0.125612
0.0782607
-0.128051
0.0800605
-0.130574
-0.133195
0.0819613
0.00112821
-0.00303826
0.00446562
-0.0126347
0.00985856
-0.025249
0.0168227
-0.0396705
0.0245773
-0.0543955
0.032251
-0.0680035
0.0391282
-0.0795311
0.0448003
-0.0886162
0.0491768
-0.095406
0.0523997
-0.100347
0.0547269
-0.103976
0.0564335
-0.106782
0.0577532
-0.109132
0.0588572
-0.111271
0.0598584
-0.113345
0.0608264
-0.115429
0.0618034
-0.117561
0.0628157
-0.119759
0.0638815
-0.122032
0.0650144
-0.124385
0.0662253
-0.126823
0.0675234
-0.129349
0.0689167
-0.131967
-0.134675
0.0703966
0.00128159
-0.00431984
0.00489351
-0.0162467
0.0104679
-0.0308234
0.0173014
-0.0465039
0.0244851
-0.0615792
0.0311746
-0.074693
0.0368098
-0.0851662
0.0411799
-0.0929864
0.0443576
-0.0985837
0.0465748
-0.102564
0.0481074
-0.105509
0.0492011
-0.107875
0.0500395
-0.10997
0.050744
-0.111976
0.0513887
-0.113989
0.0520172
-0.116057
0.0526554
-0.118199
0.053321
-0.120424
0.0540268
-0.122737
0.0547832
-0.125142
0.0555989
-0.127639
0.0564814
-0.130232
0.0574359
-0.132921
-0.135697
0.0584586
0.00141018
-0.00573003
0.00519826
-0.0200347
0.0107696
-0.0363948
0.017236
-0.0529703
0.0236396
-0.0679828
0.0292381
-0.0802915
0.0336533
-0.0895814
0.0368484
-0.0961815
0.0390065
-0.100742
0.0403974
-0.103955
0.0412806
-0.106392
0.0418582
-0.108453
0.0422661
-0.110378
0.042587
-0.112297
0.0428684
-0.114271
0.0431375
-0.116326
0.0434114
-0.118473
0.0437024
-0.120715
0.0440206
-0.123056
0.044374
-0.125495
0.0447699
-0.128035
0.0452145
-0.130676
0.0457117
-0.133419
-0.136249
0.0462634
0.00150479
-0.00723482
0.0053561
-0.0238861
0.0107402
-0.0417789
0.0166406
-0.0588707
0.0221282
-0.0734704
0.0266097
-0.084773
0.0298845
-0.0928563
0.0320487
-0.0983456
0.0333471
-0.10204
0.03405
-0.104658
0.0343822
-0.106725
0.0345005
-0.108571
0.0345015
-0.110379
0.0344398
-0.112235
0.0343453
-0.114176
0.0342356
-0.116216
0.0341226
-0.11836
0.0340154
-0.120608
0.033922
-0.122962
0.0338492
-0.125422
0.0338029
-0.127989
0.0337876
-0.130661
0.0338053
-0.133436
-0.136303
0.0338594
0.00156155
-0.00879636
0.0053581
-0.0276826
0.0103852
-0.0468061
0.0155682
-0.0640536
0.0200711
-0.0779733
0.0234679
-0.0881698
0.0257099
-0.0950983
0.0269818
-0.0996175
0.0275507
-0.102609
0.0276645
-0.104772
0.0275071
-0.106567
0.0271955
-0.10826
0.026796
-0.10998
0.0263443
-0.111783
0.0258596
-0.113692
0.0253536
-0.11571
0.0248349
-0.117841
0.0243107
-0.120084
0.0237872
-0.122439
0.0232704
-0.124905
0.0227655
-0.127484
0.0222767
-0.130172
0.0218055
-0.132965
0.0213573
-0.135855
-0.00145071
0.000939158
0.000511547
-0.00462724
0.00205813
0.00111841
-0.0088447
0.00273559
0.00148187
-0.0136534
0.00312315
0.00168551
-0.0187481
0.00331387
0.00178087
-0.0239109
0.00336398
0.00179886
-0.0289646
0.00329944
0.00175423
-0.0337406
0.00312503
0.00165093
-0.0380621
0.00283417
0.00148734
-0.0417384
0.00241629
0.00126
-0.0445661
0.00186171
0.000965999
-0.0463347
0.00116463
0.000604042
-0.0468239
0.000320869
0.000168244
-0.0458776
-0.000637442
-0.00030885
-0.0433216
-0.00171572
-0.000840218
-0.0390342
-0.00287985
-0.00140755
-0.0329487
-0.00409369
-0.00199183
-0.025059
-0.00531627
-0.00257346
-0.0154198
-0.00650649
-0.00313268
-0.00414269
-0.0076251
-0.003652
0.00861662
-0.00864204
-0.00411728
0.0226708
-0.00953416
-0.00451997
0.0378101
-0.0102858
-0.00485358
-0.010967
0.0539141
-0.00513704
-0.00133132
0.00227048
-0.0042864
0.00501321
-0.00824165
0.00669083
-0.012771
0.00765245
-0.017574
0.00811695
-0.0224297
0.00821964
-0.0271558
0.00802557
-0.0315805
0.00754966
-0.0355255
0.00677919
-0.0388007
0.00569152
-0.0412048
0.00426584
-0.0425312
0.00249098
-0.0425414
0.000331074
-0.0411274
-0.00205149
-0.0380938
-0.00474931
-0.0333306
-0.00764297
-0.0267841
-0.0106403
-0.0184644
-0.013636
-0.00844467
-0.0165262
0.00314401
-0.0192138
0.0161235
-0.0216216
0.0302893
-0.0236999
0.0454033
-0.0253998
-0.0269314
0.0613678
-0.00105052
0.00332099
-0.00347363
0.00743632
-0.00678967
0.0100069
-0.0106325
0.0114953
-0.014718
0.0122024
-0.0188213
0.0123229
-0.022752
0.0119563
-0.0263332
0.0111308
-0.0293864
0.00983239
-0.0317255
0.00803064
-0.0331557
0.00569603
-0.0334696
0.00280486
-0.0325246
-0.000613869
-0.030086
-0.00449009
-0.0260475
-0.00878783
-0.0203185
-0.013372
-0.0128613
-0.0180975
-0.00372841
-0.0227689
0.00696809
-0.0272227
0.0190585
-0.0313042
0.0323261
-0.0348892
0.0465366
-0.0379104
0.0614151
-0.0402782
-0.0423887
0.0768723
-0.000665359
0.00398635
-0.00233331
0.00910427
-0.00471952
0.0123931
-0.00754853
0.0143243
-0.0105683
0.0152222
-0.0135569
0.0153115
-0.0163182
0.0147176
-0.0186717
0.0134844
-0.0204427
0.0116033
-0.0214547
0.00904265
-0.0215292
0.0057705
-0.020474
0.00174968
-0.0181623
-0.00292559
-0.0143972
-0.00825516
-0.00908198
-0.014103
-0.00216141
-0.0202926
0.00632765
-0.0265865
0.016315
-0.0327562
0.0276348
-0.0385425
0.0400636
-0.043733
0.0533468
-0.0481723
0.0672296
-0.0517933
0.0814418
-0.0544905
-0.0568069
0.09586
-0.000251585
0.00423794
-0.0010659
0.00991858
-0.002362
0.0136892
-0.00397354
0.0159359
-0.00569891
0.0169476
-0.00733283
0.0169454
-0.00868155
0.0160663
-0.00956551
0.0143683
-0.00981856
0.0118564
-0.00927585
0.00849994
-0.00777543
0.00427007
-0.00518665
-0.000839099
-0.00133092
-0.00678132
0.00388977
-0.0134759
0.0105443
-0.0207576
0.0186325
-0.0283808
0.0280871
-0.0360411
0.0387408
-0.0434098
0.0503717
-0.0501735
0.0627169
-0.0560782
0.0755051
-0.0609605
0.0884877
-0.0647758
0.101463
-0.0674658
-0.0696061
0.114262
0.000115563
0.00412237
0.000116249
0.00991789
-8.73496e-05
0.0138928
-0.000434792
0.0162833
-0.000788768
0.0173016
-0.00097757
0.0171342
-0.000823699
0.0159125
-0.000157921
0.0137025
0.00118306
0.0105154
0.00334319
0.00633981
0.00646146
0.0011518
0.0106648
-0.00504239
0.0160713
-0.0121878
0.0227475
-0.0201521
0.0306965
-0.0287065
0.0398427
-0.037527
0.0500249
-0.0462233
0.0610062
-0.0543911
0.0725071
-0.0616743
0.0842437
-0.0678148
0.0959689
-0.0726858
0.107486
-0.0762932
0.118715
-0.0786947
-0.080381
0.12949
0.000379276
0.0037431
0.00103218
0.00926499
0.0017713
0.0131537
0.00257075
0.0154839
0.00350232
0.01637
0.00469302
0.0159435
0.00629314
0.0143123
0.00845613
0.0115396
0.0113267
0.00764482
0.0150434
0.00262314
0.0197351
-0.00353989
0.0255056
-0.0108129
0.0324204
-0.0191026
0.0404794
-0.0282112
0.0495941
-0.0378212
0.0595798
-0.0475127
0.0701707
-0.0568141
0.0810562
-0.0652767
0.0919311
-0.0725492
0.102541
-0.0784245
0.112719
-0.0828645
0.122381
-0.0859552
0.13159
-0.0879033
-0.0890462
0.140255
0.000514434
0.00322866
0.00158465
0.00819477
0.0030007
0.0117376
0.00469218
0.0137924
0.00668051
0.0143817
0.00904927
0.0135747
0.011918
0.0114436
0.0154221
0.00803544
0.0196983
0.00336865
0.0248829
-0.00256142
0.0310828
-0.00973981
0.0383653
-0.0180954
0.0467227
-0.0274601
0.0560454
-0.0375338
0.0661117
-0.0478876
0.0766073
-0.0580083
0.0871723
-0.0673791
0.0974642
-0.0755686
0.107217
-0.0823018
0.116277
-0.0874849
0.124619
-0.0912061
0.132308
-0.0936442
0.139538
-0.0951336
-0.0958396
0.146332
0.00052811
0.00270055
0.00176786
0.00695502
0.00355667
0.00994881
0.00582453
0.0115245
0.00857179
0.0116344
0.0118566
0.0102899
0.0157795
0.00752069
0.0204654
0.00334953
0.0260503
-0.00221621
0.0326509
-0.009162
0.0403355
-0.0174244
0.049089
-0.0268489
0.0587751
-0.0371462
0.0691258
-0.0478845
0.0797657
-0.0585275
0.0902726
-0.0685152
0.100256
-0.0773623
0.109429
-0.0847414
0.117651
-0.0905246
0.124938
-0.0947711
0.131424
-0.0976927
0.137321
-0.0995408
0.142894
-0.100707
-0.101202
0.148256
0.000454304
0.00224625
0.00166851
0.00574081
0.00357452
0.0080428
0.00614379
0.00895527
0.00939148
0.00838673
0.0133794
0.00630197
0.0182086
0.00269146
0.0240039
-0.00244577
0.0308809
-0.00909324
0.0389047
-0.0171857
0.0480448
-0.0265646
0.0581324
-0.0369365
0.0688475
-0.0478613
0.0797502
-0.0587871
0.0903531
-0.0691305
0.100216
-0.0783779
0.109029
-0.0861752
0.116662
-0.0923746
0.123165
-0.0970274
0.128729
-0.100335
0.13362
-0.102584
0.13813
-0.104051
0.142513
-0.105089
-0.105603
0.146914
0.000343067
0.00190318
0.00143484
0.00464904
0.00332321
0.00615443
0.00605036
0.00622812
0.00967774
0.00475935
0.014296
0.00168375
0.0200182
-0.00303073
0.0269495
-0.00937709
0.0351418
-0.0172856
0.0445394
-0.0265833
0.0549332
-0.0369585
0.0659496
-0.0479528
0.0770874
-0.0589991
0.0878024
-0.0695021
0.0976128
-0.0789409
0.106192
-0.0869572
0.113418
-0.0934013
0.119368
-0.0983246
0.124268
-0.101927
0.128423
-0.10449
0.132144
-0.106305
0.135729
-0.107637
0.139363
-0.108723
-0.109473
0.143233
0.000247303
0.00123245
0.00311727
0.00602655
0.0100817
0.0154048
0.0220972
0.0301951
0.0396135
0.0501016
0.0612348
0.0724601
0.0831894
0.0929131
0.101296
0.108225
0.113795
0.118254
0.121921
0.125114
0.128099
0.131096
0.134198
0.137847
0.0716524
-0.010559
-0.00717928
0.0877733
-0.00884755
-0.00727331
0.102271
-0.00721694
-0.00728075
0.115185
-0.00569053
-0.00722333
0.126528
-0.00422506
-0.00711763
0.136336
-0.00282554
-0.00698313
0.1447
-0.0015224
-0.0068416
0.151739
-0.00032578
-0.00671336
0.157655
0.000687853
-0.00660341
0.162585
0.00161401
-0.00654376
0.166682
0.00243977
-0.00653663
0.170081
0.00317822
-0.00657793
0.172926
0.00380615
-0.00665093
0.175309
0.00437675
-0.00675973
0.177322
0.00488805
-0.00690114
0.179034
0.0053695
-0.00708165
0.180499
0.00584285
-0.00730723
0.181755
0.00632236
-0.00757907
0.182834
0.00681688
-0.00789558
0.183758
0.00732946
-0.00825333
0.184546
0.00786058
-0.00864873
0.185215
0.00841071
-0.00907954
0.185779
0.00898143
-0.00954519
0.18625
0.0095755
-0.0100465
0.186639
0.0101965
-0.0105855
0.186955
0.0108486
-0.0111646
0.187205
0.0115362
-0.011787
0.187398
0.0122642
-0.0124564
0.187537
0.0130375
-0.0131768
0.187628
0.0138618
-0.013953
0.187675
0.0147429
-0.0147901
0.187682
0.0156871
-0.0156939
0.187651
0.0167013
-0.0166707
0.187586
0.0177931
-0.0177276
0.187488
0.0189704
-0.0188724
0.187359
0.0202423
-0.0201136
0.187202
0.0216185
-0.0214609
0.187016
0.0231099
-0.0229248
0.186805
0.0247285
-0.0245171
0.186569
0.0264874
-0.0262509
0.186308
0.0284016
-0.0281409
0.186024
0.0304873
-0.0302032
0.185717
0.0327629
-0.0324561
0.185388
0.0352486
-0.0349196
0.185037
0.0379669
-0.0376163
0.184666
0.0409427
-0.0405709
0.184273
0.044204
-0.0438112
0.183859
0.0477812
-0.0473678
0.183425
0.0517085
-0.0512746
0.182971
0.0560239
-0.0555695
0.182496
0.0607654
-0.0602906
0.182001
0.0659931
-0.0654977
0.181485
0.0716951
-0.0711797
0.180948
0.0781433
-0.0776055
0.180393
0.0846952
-0.0841401
0.179808
0.0933847
-0.0928001
0.179213
0.0994294
-0.0988341
0.178582
0.113006
-0.112376
0.177932
0.116685
-0.116034
0.135209
-0.134531
0.0775102
-0.0267015
0.0922518
-0.0235892
0.105597
-0.0205625
0.117566
-0.0176591
0.128151
-0.01481
0.137366
-0.0120407
0.145289
-0.0094454
0.152054
-0.00709076
0.157752
-0.0050103
0.162542
-0.00317627
0.166551
-0.00156848
0.169868
-0.000139152
0.172685
0.000989418
0.175047
0.00201407
0.177058
0.00287714
0.178772
0.0036554
0.180243
0.00437225
0.18151
0.00505518
0.182602
0.00572452
0.183542
0.00639
0.184347
0.00705591
0.185032
0.00772506
0.185613
0.00840085
0.186101
0.00908774
0.186506
0.00979095
0.186839
0.0105161
0.187106
0.0112689
0.187315
0.0120554
0.187471
0.0128815
0.187579
0.0137537
0.187643
0.0146786
0.187667
0.015663
0.187654
0.0167144
0.187607
0.0178407
0.187527
0.0190504
0.187416
0.0203526
0.187277
0.0217576
0.187111
0.0232762
0.186919
0.0249208
0.186701
0.0267047
0.18646
0.0286429
0.186195
0.030752
0.185908
0.0330503
0.185598
0.0355583
0.185267
0.0382985
0.184913
0.0412961
0.184538
0.0445789
0.184142
0.0481777
0.183724
0.0521266
0.183284
0.0564638
0.182822
0.0612274
0.182337
0.066478
0.181829
0.0722028
0.181296
0.0786769
0.180741
0.08525
0.180151
0.0939741
0.179546
0.100035
0.178897
0.113656
0.178225
0.117356
0.135927
0.0898247
-0.0396538
0.101782
-0.0355467
0.112749
-0.0315289
0.12271
-0.0276205
0.131647
-0.0237466
0.13955
-0.0199439
0.146462
-0.0163577
0.152459
-0.0130876
0.157618
-0.010169
0.162033
-0.00759167
0.165801
-0.00533638
0.16904
-0.00337821
0.171751
-0.00172116
0.174026
-0.000261492
0.17601
0.00089388
0.177713
0.00195202
0.179187
0.00289809
0.180467
0.00377513
0.181579
0.00461295
0.182542
0.00542709
0.183372
0.00622525
0.184085
0.00701201
0.184694
0.0077921
0.18521
0.00857138
0.185645
0.00935651
0.186007
0.0101544
0.186303
0.0109722
0.186542
0.0118168
0.186728
0.0126953
0.186867
0.013615
0.186962
0.0145831
0.187018
0.0156071
0.187038
0.0166951
0.187023
0.0178553
0.186977
0.0190966
0.186901
0.0204285
0.186797
0.0218615
0.186666
0.0234067
0.186511
0.0250765
0.186331
0.0268848
0.186127
0.0288464
0.185901
0.0309783
0.185652
0.0332988
0.185382
0.0358286
0.18509
0.0385904
0.184777
0.0416094
0.184442
0.0449137
0.184086
0.0485342
0.183707
0.0525051
0.183306
0.0568649
0.182882
0.0616517
0.182433
0.0669266
0.18196
0.0726761
0.181458
0.0791786
0.180932
0.0857762
0.180367
0.0945387
0.179783
0.10062
0.179146
0.114293
0.178485
0.118017
0.13665
0.104835
-0.0486293
0.113337
-0.0440481
0.121354
-0.0395458
0.128823
-0.0350895
0.135689
-0.0306124
0.141935
-0.0261904
0.147562
-0.0219844
0.152592
-0.0181177
0.157054
-0.0146307
0.160983
-0.0115211
0.16442
-0.00877318
0.167414
-0.00637192
0.170001
-0.0043088
0.172275
-0.00253474
0.174191
-0.00102296
0.175868
0.000275217
0.177338
0.00142796
0.178633
0.00248001
0.179769
0.00347741
0.180762
0.0044337
0.181628
0.0053599
0.182378
0.00626167
0.183026
0.00714438
0.183582
0.00801496
0.184057
0.00888121
0.184461
0.00975126
0.184799
0.0106333
0.185081
0.0115354
0.185311
0.0124657
0.185494
0.013432
0.185634
0.0144424
0.185736
0.0155052
0.185802
0.0166287
0.185836
0.0178218
0.185839
0.0190936
0.185813
0.0204541
0.185761
0.0219139
0.185683
0.0234845
0.185581
0.0251785
0.185456
0.0270098
0.185309
0.0289937
0.18514
0.0311471
0.18495
0.0334887
0.184739
0.0360392
0.184508
0.0388216
0.184256
0.0418613
0.183984
0.0451863
0.18369
0.0488279
0.183374
0.0528206
0.183037
0.0572029
0.182675
0.062013
0.182289
0.067313
0.181877
0.0730882
0.181434
0.0796208
0.180966
0.0862451
0.180455
0.0950491
0.179921
0.101153
0.179328
0.114886
0.178712
0.118633
0.137345
0.119153
-0.0535196
0.124146
-0.0490419
0.129197
-0.0445967
0.134184
-0.0400766
0.139
-0.0354281
0.143595
-0.0307859
0.147942
-0.0263308
0.152004
-0.0221795
0.155753
-0.0183797
0.159175
-0.0149434
0.162269
-0.0118672
0.165041
-0.00914361
0.167494
-0.00676232
0.169661
-0.00470138
0.171575
-0.00293742
0.173258
-0.00140707
0.174702
-1.61718e-05
0.176017
0.0011648
0.177181
0.00231309
0.178212
0.00340319
0.17912
0.0044516
0.179917
0.00546454
0.180614
0.00644727
0.181222
0.00740731
0.18175
0.00835338
0.182206
0.0092945
0.1826
0.0102398
0.182937
0.0111985
0.183223
0.0121794
0.183464
0.0131913
0.183663
0.0142429
0.183825
0.0153431
0.183953
0.0165009
0.18405
0.0177253
0.184117
0.0190262
0.184157
0.0204137
0.184173
0.0218987
0.184164
0.0234931
0.184133
0.0252095
0.184081
0.0270622
0.184008
0.0290666
0.183915
0.0312399
0.183803
0.0336008
0.183672
0.0361704
0.183521
0.0389718
0.183352
0.0420305
0.183164
0.0453749
0.182955
0.0490363
0.182726
0.0530496
0.182476
0.0574535
0.182202
0.0622865
0.181904
0.0676114
0.18158
0.0734125
0.181224
0.0799759
0.180841
0.0866282
0.180415
0.0954758
0.179962
0.101606
0.179445
0.115403
0.178905
0.119173
0.137978
0.130729
-0.0547581
0.1326
-0.050913
0.135013
-0.0470103
0.137803
-0.042866
0.140826
-0.0384516
0.143985
-0.0339447
0.147199
-0.0295449
0.150398
-0.0253785
0.15351
-0.021492
0.15648
-0.017913
0.159267
-0.0146538
0.161838
-0.0117151
0.164173
-0.00909734
0.166271
-0.00679891
0.168139
-0.0048056
0.169809
-0.00307731
0.171334
-0.00154106
0.172626
-0.000127459
0.173826
0.00111341
0.174901
0.00232835
0.17586
0.0034925
0.176713
0.00461158
0.177469
0.0056907
0.178139
0.0067376
0.178731
0.00776159
0.179253
0.00877229
0.179713
0.00977959
0.180118
0.0107935
0.180474
0.0118237
0.180786
0.0128798
0.181057
0.0139711
0.181293
0.0151071
0.181497
0.0162974
0.181671
0.0175515
0.181817
0.0188795
0.181939
0.020292
0.182038
0.0218002
0.182115
0.0234161
0.182171
0.0251528
0.182209
0.0270247
0.182228
0.0290474
0.18223
0.0312382
0.182214
0.0336162
0.182182
0.0362025
0.182133
0.0390206
0.182068
0.0420961
0.181985
0.0454577
0.181884
0.0491371
0.181765
0.0531691
0.181625
0.057593
0.181464
0.0624475
0.181279
0.0677962
0.18107
0.0736224
0.180829
0.0802167
0.18056
0.086897
0.180246
0.0957896
0.179906
0.101946
0.179495
0.115813
0.179064
0.119604
0.138514
0.138664
-0.0531666
0.138081
-0.0503306
0.138381
-0.0473095
0.139382
-0.043867
0.14094
-0.04001
0.142928
-0.035933
0.145218
-0.0318348
0.14769
-0.0278499
0.150256
-0.0240586
0.152839
-0.0204961
0.155366
-0.0171807
0.157775
-0.014124
0.160018
-0.0113405
0.162069
-0.00884993
0.163924
-0.00666066
0.165596
-0.00474915
0.167116
-0.00306073
0.168519
-0.00153057
0.169715
-8.24582e-05
0.170844
0.00119847
0.171862
0.0024745
0.17278
0.00369442
0.173605
0.00486519
0.174347
0.00599542
0.175014
0.00709483
0.175613
0.00817314
0.176152
0.00924068
0.176637
0.0103082
0.177075
0.0113861
0.17747
0.0124846
0.177828
0.0136138
0.178151
0.0147838
0.178444
0.0160045
0.178709
0.0172861
0.17895
0.018639
0.179168
0.0200741
0.179365
0.0216029
0.179543
0.0232378
0.179704
0.0249921
0.179848
0.0268804
0.179977
0.0289185
0.180091
0.031124
0.180191
0.0335162
0.180277
0.0361164
0.18035
0.0389483
0.180408
0.0420378
0.180452
0.0454138
0.180481
0.0491083
0.180494
0.0531564
0.180489
0.0575979
0.180465
0.0624716
0.180418
0.0678423
0.180349
0.0736919
0.180249
0.0803161
0.180123
0.0870236
0.179951
0.0959616
0.179752
0.102145
0.17948
0.116086
0.17919
0.119894
0.138919
0.142883
-0.0497175
0.140616
-0.0480643
0.139379
-0.0460724
0.139024
-0.0435119
0.13944
-0.0404257
0.140493
-0.036986
0.142032
-0.0333736
0.143914
-0.029732
0.146021
-0.026166
0.148267
-0.0227417
0.15057
-0.0194837
0.152845
-0.0163992
0.155022
-0.0135175
0.157052
-0.0108802
0.158914
-0.00852278
0.160612
-0.00644648
0.162161
-0.00461049
0.163583
-0.00295232
0.164907
-0.00140628
0.16606
4.55161e-05
0.167148
0.00138672
0.168138
0.00270456
0.169041
0.00396198
0.169865
0.00517108
0.170617
0.00634269
0.171304
0.00748618
0.171933
0.00861179
0.172511
0.00973086
0.173042
0.0108545
0.173533
0.0119934
0.173989
0.0131585
0.174412
0.0143601
0.174808
0.015609
0.175178
0.0169155
0.175527
0.0182906
0.175855
0.0197455
0.176166
0.021292
0.176461
0.0229428
0.176742
0.0247115
0.177009
0.0266129
0.177265
0.0286631
0.177509
0.03088
0.177742
0.0332829
0.177965
0.0358934
0.178178
0.0387356
0.17838
0.0418355
0.178571
0.0452224
0.178751
0.0489285
0.178918
0.0529894
0.179071
0.0574454
0.179207
0.0623352
0.179324
0.0677251
0.179421
0.0735956
0.179489
0.0802478
0.179532
0.0869804
0.17953
0.0959635
0.179504
0.102171
0.179401
0.116189
0.179283
0.120012
0.139159
0.143838
-0.0452991
0.140581
-0.0448072
0.13832
-0.0438113
0.13699
-0.0421818
0.13654
-0.0399759
0.136849
-0.0372952
0.137767
-0.0342919
0.139153
-0.031118
0.140879
-0.0278919
0.142835
-0.0246972
0.144931
-0.0215801
0.147085
-0.0185533
0.149211
-0.0156433
0.15124
-0.0129087
0.15313
-0.0104132
0.154871
-0.00818765
0.156473
-0.00621208
0.15795
-0.00442984
0.159325
-0.00278076
0.160589
-0.00121882
0.161734
0.00024162
0.162809
0.00162992
0.1638
0.00297064
0.164717
0.00425463
0.165564
0.00549508
0.166349
0.00670104
0.167079
0.00788231
0.167759
0.00905067
0.168396
0.0102177
0.168994
0.0113948
0.16956
0.0125931
0.170096
0.0138239
0.170607
0.0150981
0.171096
0.0164267
0.171565
0.017821
0.172018
0.0192925
0.172457
0.0208533
0.172883
0.0225165
0.173299
0.0242959
0.173705
0.0262066
0.174103
0.0282651
0.174494
0.0304892
0.174878
0.0328988
0.175256
0.0355157
0.175627
0.0383639
0.175993
0.04147
0.176352
0.0448636
0.176703
0.0485772
0.177046
0.0526468
0.177378
0.0571131
0.177698
0.0620151
0.178002
0.0674206
0.17829
0.0733084
0.178551
0.079986
0.178791
0.0867403
0.178987
0.0957676
0.179162
0.101997
0.179258
0.116093
0.179343
0.119928
0.139201
0.142176
-0.0405607
0.138416
-0.0410476
0.135497
-0.0408918
0.133483
-0.0401676
0.132383
-0.0388764
0.132098
-0.03701
0.132501
-0.0346954
0.133467
-0.0320839
0.134865
-0.0292899
0.136573
-0.0264045
0.138484
-0.0234919
0.140518
-0.0205871
0.142596
-0.0177215
0.144636
-0.0149486
0.146577
-0.012354
0.148389
-0.00999914
0.150067
-0.00789063
0.151624
-0.00598663
0.153073
-0.00422973
0.154431
-0.00257709
0.155668
-0.000995298
0.156822
0.000475849
0.157912
0.00188051
0.158931
0.00323556
0.159884
0.00454197
0.160778
0.0058079
0.161617
0.00704246
0.16241
0.00825769
0.163163
0.00946557
0.163879
0.0106781
0.164565
0.011907
0.165225
0.0131639
0.165863
0.0144604
0.166482
0.0158078
0.167085
0.0172177
0.167676
0.0187021
0.168256
0.0202735
0.168827
0.0219451
0.169392
0.0237311
0.169952
0.0256468
0.170508
0.0277089
0.171061
0.0299359
0.171612
0.0323475
0.172162
0.0349659
0.172711
0.0378154
0.173258
0.040923
0.173803
0.0443183
0.174346
0.0480345
0.174885
0.0521078
0.175418
0.0565797
0.175944
0.0614892
0.176459
0.0669059
0.176961
0.0728063
0.177441
0.0795058
0.177904
0.0862771
0.178325
0.0953472
0.178729
0.101593
0.179053
0.115768
0.179371
0.11961
0.139012
0.138534
-0.0358621
0.134514
-0.0370275
0.131123
-0.0375005
0.128596
-0.0376409
0.126974
-0.037254
0.126187
-0.0362231
0.126147
-0.0346558
0.126746
-0.0326829
0.127857
-0.0304004
0.129351
-0.0278988
0.131118
-0.0252585
0.133064
-0.0225335
0.135107
-0.0197646
0.13717
-0.017011
0.139179
-0.0143638
0.141088
-0.0119078
0.142877
-0.00967994
0.144547
-0.0076558
0.146106
-0.00578925
0.147565
-0.00403572
0.148941
-0.00237133
0.150205
-0.000788403
0.151403
0.000682754
0.152537
0.00210148
0.153605
0.00347329
0.154616
0.0047969
0.155576
0.00608246
0.156492
0.0073421
0.157369
0.00858817
0.158214
0.00983327
0.159032
0.0110897
0.159826
0.0123696
0.160602
0.0136848
0.161362
0.0150472
0.162111
0.016469
0.162851
0.0179622
0.163584
0.0195399
0.164314
0.0212154
0.165042
0.0230034
0.165769
0.0249194
0.166498
0.0269803
0.167229
0.0292049
0.167963
0.0316134
0.168701
0.034228
0.169443
0.0370734
0.170189
0.0401768
0.170939
0.0435684
0.171692
0.0472816
0.172446
0.051353
0.173201
0.0558248
0.173954
0.0607362
0.174701
0.0661587
0.175441
0.0720663
0.176164
0.0787832
0.176875
0.0855657
0.177546
0.0946764
0.178207
0.100931
0.178789
0.115187
0.179368
0.119031
0.138559
0.134096
-0.0321115
0.130081
-0.0330124
0.126602
-0.0340212
0.123807
-0.0348456
0.12174
-0.0351872
0.120454
-0.0349373
0.119925
-0.0341269
0.120069
-0.0328273
0.120782
-0.0311127
0.121949
-0.0290659
0.123462
-0.0267719
0.125229
-0.0243001
0.127167
-0.0217025
0.129193
-0.0190372
0.131225
-0.0163964
0.133199
-0.0138812
0.135075
-0.0115556
0.136844
-0.00942525
0.138513
-0.00745853
0.140092
-0.00561461
0.141583
-0.00386266
0.142994
-0.00219932
0.144295
-0.000617438
0.145553
0.000843455
0.146751
0.00227465
0.147894
0.00365419
0.148986
0.00499008
0.150036
0.00629275
0.151049
0.00757502
0.152032
0.00885019
0.15299
0.0101312
0.153929
0.0114306
0.154853
0.012761
0.155766
0.0141346
0.156671
0.0155639
0.157572
0.0170616
0.158471
0.0186408
0.159371
0.0203155
0.160274
0.0221004
0.161182
0.0240114
0.162096
0.0260658
0.163018
0.0282825
0.16395
0.0306821
0.164891
0.033287
0.165842
0.0361223
0.166803
0.0392154
0.167775
0.0425969
0.168756
0.0463007
0.169745
0.0503639
0.17074
0.0548293
0.17174
0.0597361
0.172741
0.0651583
0.17374
0.0710666
0.174728
0.0777957
0.175711
0.0845821
0.176657
0.0937309
0.177602
0.0999868
0.178467
0.114321
0.179335
0.118163
0.137812
0.184832
-0.0273722
-0.189571
0.180997
-0.0291777
0.177335
-0.0303595
0.173714
-0.0312246
0.170229
-0.0317018
0.166993
-0.0317008
0.16408
-0.0312138
0.161529
-0.0302764
0.159359
-0.0289435
0.157576
-0.0272822
0.156164
-0.0253597
0.155096
-0.0232321
0.154341
-0.0209478
0.153868
-0.0185642
0.153636
-0.0161649
0.153598
-0.0138428
0.153703
-0.0116611
0.153911
-0.00963247
0.154186
-0.00773392
0.154505
-0.00593335
0.15485
-0.00420767
0.155209
-0.00255874
0.155593
-0.00100122
0.155944
0.000492283
0.156291
0.0019277
0.156629
0.00331647
0.156956
0.00466341
0.157269
0.00597924
0.157568
0.00727614
0.157852
0.00856647
0.15812
0.00986256
0.158374
0.0111767
0.158614
0.012521
0.158841
0.0139077
0.159056
0.0153491
0.15926
0.0168579
0.159453
0.0184472
0.159638
0.0201309
0.159814
0.0219239
0.159984
0.023842
0.160147
0.0259024
0.160306
0.0281242
0.16046
0.030528
0.160611
0.0331363
0.160759
0.035974
0.160905
0.0390689
0.161051
0.0424514
0.161196
0.0461556
0.161341
0.0502186
0.161487
0.0546833
0.161634
0.0595893
0.161782
0.0650102
0.161931
0.0709178
0.162082
0.0776449
0.16223
0.0844338
0.162381
0.0935802
0.16253
0.099838
0.162661
0.11419
0.162818
0.118006
0.137709
0.194628
-0.0237306
-0.19827
0.191037
-0.0255868
0.18755
-0.026872
0.184119
-0.0277935
0.180806
-0.0283892
0.177702
-0.0285971
0.174868
-0.0283795
0.172338
-0.0277463
0.170134
-0.0267399
0.168268
-0.0254159
0.166734
-0.0238258
0.165515
-0.0220134
0.164592
-0.0200246
0.163944
-0.0179165
0.163544
-0.0157645
0.163352
-0.0136506
0.163323
-0.0116327
0.163417
-0.00972638
0.163599
-0.00791592
0.163844
-0.00617822
0.164136
-0.00449961
0.16446
-0.00288254
0.164791
-0.00133249
0.165127
0.000156039
0.165463
0.00159215
0.165795
0.00298463
0.166119
0.00433927
0.166432
0.00566566
0.166734
0.00697492
0.167022
0.00827854
0.167296
0.00958826
0.167557
0.0109159
0.167804
0.0122732
0.16804
0.0136722
0.168264
0.0151251
0.168477
0.0166445
0.168681
0.0182435
0.168876
0.019936
0.169063
0.0217366
0.169244
0.0236614
0.169418
0.0257277
0.169588
0.0279543
0.169754
0.0303619
0.169917
0.0329732
0.170078
0.0358131
0.170238
0.0389093
0.170397
0.0422924
0.170556
0.0459966
0.170716
0.0500589
0.170876
0.0545226
0.171039
0.0594271
0.171202
0.0648463
0.171367
0.0707529
0.171534
0.0774779
0.1717
0.084268
0.171866
0.0934143
0.172033
0.0996706
0.172179
0.114045
0.172351
0.117833
0.137591
0.204834
-0.0205316