/*--------------------------------*- C++ -*----------------------------------*\
| =========                 |                                                 |
| \\      /  F ield         | OpenFOAM: The Open Source CFD Toolbox           |
|  \\    /   O peration     | Version:  2512                                  |
|   \\  /    A nd           | Website:  www.openfoam.com                      |
|    \\/     M anipulation  |                                                 |
\*---------------------------------------------------------------------------*/
FoamFile
{
    version     2.0;
    format      ascii;
    arch        "LSB;label=32;scalar=64";
    class       volScalarField;
    location    "167.75";
    object      p;
}
// * * * * * * * * * * * * * * * * * * * * * * * * * * * * * * * * * * * * * //

dimensions      [0 2 -2 0 0 0 0];

internalField   nonuniform List<scalar> 
13248
(
-0.404901
-0.402721
-0.399374
-0.395177
-0.390571
-0.386031
-0.381981
-0.378748
-0.376525
-0.375343
-0.375063
-0.375385
-0.375888
-0.376076
-0.375441
-0.373531
-0.369995
-0.364619
-0.35732
-0.348158
-0.337097
-0.324414
-0.308894
-0.291537
-0.41379
-0.410912
-0.407006
-0.402384
-0.397432
-0.392573
-0.388148
-0.384379
-0.38134
-0.378947
-0.376974
-0.375081
-0.372871
-0.369948
-0.365975
-0.360712
-0.354033
-0.345916
-0.336416
-0.325618
-0.313587
-0.300402
-0.285823
-0.270755
-0.425078
-0.421188
-0.416537
-0.41138
-0.405994
-0.400709
-0.395749
-0.391192
-0.386979
-0.382933
-0.378795
-0.374274
-0.369096
-0.36305
-0.356011
-0.34794
-0.33887
-0.328876
-0.318045
-0.30646
-0.294153
-0.281235
-0.267528
-0.253673
-0.438642
-0.43349
-0.427929
-0.422112
-0.416146
-0.41023
-0.404432
-0.398675
-0.392792
-0.386581
-0.379845
-0.372437
-0.364274
-0.355349
-0.345712
-0.335447
-0.324648
-0.313398
-0.301763
-0.289791
-0.277516
-0.265011
-0.252201
-0.239684
-0.454326
-0.447734
-0.441137
-0.434526
-0.427778
-0.420917
-0.413839
-0.406345
-0.39824
-0.389398
-0.379785
-0.369455
-0.358521
-0.347128
-0.335416
-0.323503
-0.311472
-0.299376
-0.28724
-0.275079
-0.262904
-0.250746
-0.238566
-0.226723
-0.471941
-0.463804
-0.456085
-0.448538
-0.440729
-0.432478
-0.423543
-0.413691
-0.402822
-0.390997
-0.378404
-0.365293
-0.351913
-0.338475
-0.32513
-0.311968
-0.29903
-0.286323
-0.273838
-0.261561
-0.249482
-0.237601
-0.225901
-0.214603
-0.491201
-0.481486
-0.472588
-0.463918
-0.454659
-0.444438
-0.432972
-0.420141
-0.406071
-0.391084
-0.375583
-0.359949
-0.344484
-0.329383
-0.314753
-0.300629
-0.287001
-0.273838
-0.261102
-0.248754
-0.236766
-0.225113
-0.213785
-0.202857
-0.511656
-0.500398
-0.490263
-0.480202
-0.468978
-0.456104
-0.441423
-0.425093
-0.407565
-0.389423
-0.37122
-0.353379
-0.336166
-0.319715
-0.304061
-0.289179
-0.275015
-0.261506
-0.24859
-0.23621
-0.224319
-0.212881
-0.201882
-0.191284
-0.532625
-0.519922
-0.508467
-0.496648
-0.482839
-0.466609
-0.448129
-0.427978
-0.406953
-0.385835
-0.365227
-0.345506
-0.326853
-0.30931
-0.29284
-0.277366
-0.262795
-0.249038
-0.236012
-0.223646
-0.211878
-0.200662
-0.189966
-0.179674
-0.553173
-0.539174
-0.526263
-0.51222
-0.495171
-0.474976
-0.452329
-0.428287
-0.403939
-0.380153
-0.357483
-0.336202
-0.316378
-0.297964
-0.280857
-0.264934
-0.250073
-0.236163
-0.223102
-0.210804
-0.199196
-0.188221
-0.177819
-0.167841
-0.572139
-0.557008
-0.542438
-0.525642
-0.504747
-0.48016
-0.453225
-0.425448
-0.398095
-0.37201
-0.347628
-0.325085
-0.304337
-0.285255
-0.26768
-0.251453
-0.236426
-0.222466
-0.209459
-0.197302
-0.185912
-0.175218
-0.16512
-0.155489
-0.588242
-0.572173
-0.555711
-0.535625
-0.510358
-0.481105
-0.449915
-0.41866
-0.388661
-0.360649
-0.334892
-0.31138
-0.28996
-0.270428
-0.252578
-0.236216
-0.221171
-0.207295
-0.194455
-0.182541
-0.171462
-0.161131
-0.151418
-0.142263
-0.359014
-0.360082
-0.360727
-0.361279
-0.362105
-0.363399
-0.365263
-0.367745
-0.370863
-0.374622
-0.379025
-0.384072
-0.389749
-0.396023
-0.402823
-0.410035
-0.417489
-0.424949
-0.43211
-0.438601
-0.444004
-0.447878
-0.44979
-0.449055
-0.366622
-0.366749
-0.366863
-0.367147
-0.367859
-0.369199
-0.371291
-0.374201
-0.377964
-0.382604
-0.388142
-0.394595
-0.401965
-0.410225
-0.419304
-0.429073
-0.439327
-0.449776
-0.460031
-0.469627
-0.477973
-0.484437
-0.488287
-0.488862
-0.373564
-0.372768
-0.372327
-0.372275
-0.372766
-0.374006
-0.376141
-0.379256
-0.3834
-0.38861
-0.394915
-0.402338
-0.410884
-0.420523
-0.431174
-0.442687
-0.454825
-0.467252
-0.479518
-0.491054
-0.501178
-0.509109
-0.513933
-0.51464
-0.379371
-0.377771
-0.376782
-0.376324
-0.376463
-0.377416
-0.379354
-0.382385
-0.386576
-0.391972
-0.398604
-0.406493
-0.415635
-0.425987
-0.437451
-0.449854
-0.462929
-0.4763
-0.489474
-0.501822
-0.512574
-0.520847
-0.525829
-0.525667
-0.383802
-0.381595
-0.38011
-0.379187
-0.378839
-0.3793
-0.380777
-0.383409
-0.387285
-0.392464
-0.398977
-0.406837
-0.416026
-0.426482
-0.438087
-0.450641
-0.463849
-0.477304
-0.490465
-0.502653
-0.51311
-0.52072
-0.52511
-0.523248
-0.386839
-0.384276
-0.382381
-0.380961
-0.380013
-0.3798
-0.380571
-0.38251
-0.38574
-0.390339
-0.396345
-0.403764
-0.412563
-0.422659
-0.433907
-0.446079
-0.458842
-0.471751
-0.484238
-0.495544
-0.504916
-0.510987
-0.513984
-0.509652
-0.388683
-0.386028
-0.383831
-0.381912
-0.380295
-0.379279
-0.379168
-0.380196
-0.382535
-0.38629
-0.391515
-0.398214
-0.406339
-0.415783
-0.426366
-0.437811
-0.449753
-0.461681
-0.472948
-0.482716
-0.490291
-0.494075
-0.494816
-0.487518
-0.389731
-0.387213
-0.384818
-0.382426
-0.380124
-0.378259
-0.377189
-0.377209
-0.378539
-0.381327
-0.385643
-0.391494
-0.398811
-0.40745
-0.417187
-0.427686
-0.438475
-0.448958
-0.458428
-0.46598
-0.470973
-0.471821
-0.469524
-0.459189
-0.390542
-0.388306
-0.385787
-0.382961
-0.380013
-0.37734
-0.375351
-0.374397
-0.374751
-0.376594
-0.380014
-0.385005
-0.391472
-0.399216
-0.407913
-0.417124
-0.426285
-0.434713
-0.441666
-0.44628
-0.448012
-0.445596
-0.439994
-0.427087
-0.391794
-0.389862
-0.38724
-0.384028
-0.380515
-0.377148
-0.374378
-0.372601
-0.372124
-0.373144
-0.375749
-0.379901
-0.385433
-0.392048
-0.39932
-0.406697
-0.413532
-0.419122
-0.422782
-0.423872
-0.422068
-0.416659
-0.408485
-0.394154
-0.39421
-0.392459
-0.389699
-0.386138
-0.382162
-0.378254
-0.37489
-0.372481
-0.37134
-0.371654
-0.373465
-0.376666
-0.380998
-0.386055
-0.391308
-0.396138
-0.399887
-0.401935
-0.401757
-0.399043
-0.393737
-0.385866
-0.376298
-0.362342
-0.39844
-0.396619
-0.393628
-0.389735
-0.385389
-0.381086
-0.377297
-0.374417
-0.372722
-0.372342
-0.373242
-0.37522
-0.377916
-0.38084
-0.383423
-0.385068
-0.38522
-0.383434
-0.379403
-0.373064
-0.364417
-0.353979
-0.342287
-0.329323
-0.445471
-0.434891
-0.417394
-0.393719
-0.36425
-0.330786
-0.295972
-0.262837
-0.234335
-0.213181
-0.201436
-0.199922
-0.207405
-0.220036
-0.231733
-0.235369
-0.227857
-0.206505
-0.176117
-0.144255
-0.117451
-0.0990622
-0.0895591
-0.0877857
-0.0927881
-0.105493
-0.127057
-0.153448
-0.173687
-0.176181
-0.159594
-0.132224
-0.104626
-0.0836749
-0.0709649
-0.065045
-0.065616
-0.0744679
-0.0894976
-0.101017
-0.0998405
-0.0878747
-0.0726264
-0.0609813
-0.0538258
-0.0525659
-0.0580511
-0.0648048
-0.0654998
-0.0604671
-0.0513009
-0.0441613
-0.0376321
-0.0334602
-0.0322683
-0.0312189
-0.0277033
-0.0232722
-0.0139928
-0.00270201
-0.486867
-0.475156
-0.455113
-0.427346
-0.392594
-0.352836
-0.310993
-0.270344
-0.233998
-0.204703
-0.184585
-0.174794
-0.175024
-0.182548
-0.192066
-0.197007
-0.192323
-0.176619
-0.152844
-0.127366
-0.106058
-0.0922519
-0.0866161
-0.0881718
-0.0963656
-0.112612
-0.137951
-0.167483
-0.18914
-0.190534
-0.171129
-0.140304
-0.109484
-0.0857052
-0.0704863
-0.0623279
-0.0604876
-0.0665497
-0.0789757
-0.0891107
-0.0885829
-0.0788535
-0.0667234
-0.0579589
-0.0534596
-0.0546669
-0.0628098
-0.0716524
-0.0725357
-0.0662227
-0.0546481
-0.0456949
-0.037145
-0.0311862
-0.0286741
-0.0267488
-0.0239704
-0.0202152
-0.0126271
-0.00276451
-0.513578
-0.501418
-0.479311
-0.448441
-0.409623
-0.36491
-0.317412
-0.270578
-0.227788
-0.191836
-0.164749
-0.147712
-0.140871
-0.142735
-0.149282
-0.154637
-0.152965
-0.143184
-0.126202
-0.107361
-0.0918486
-0.0829022
-0.0812838
-0.0861854
-0.0974574
-0.116888
-0.145381
-0.177494
-0.200514
-0.201501
-0.180022
-0.146457
-0.112987
-0.086826
-0.0694063
-0.0592267
-0.055154
-0.05852
-0.0683502
-0.07711
-0.0772323
-0.0695903
-0.0604542
-0.0544754
-0.0526636
-0.0564214
-0.0672829
-0.0782629
-0.0793615
-0.0717196
-0.0577139
-0.0469763
-0.0365738
-0.028969
-0.0251771
-0.0223326
-0.0202242
-0.0171146
-0.0112515
-0.00283543
-0.52467
-0.512389
-0.48955
-0.457134
-0.415942
-0.368101
-0.316886
-0.265897
-0.218531
-0.177549
-0.144892
-0.121734
-0.108479
-0.104424
-0.107031
-0.111791
-0.113817
-0.108054
-0.0974576
-0.0850663
-0.0752852
-0.0711463
-0.0733757
-0.0813464
-0.0952718
-0.117277
-0.148294
-0.182671
-0.207233
-0.208555
-0.185955
-0.150504
-0.115065
-0.087073
-0.0678539
-0.0559301
-0.0498717
-0.0507392
-0.0580533
-0.0654241
-0.0662025
-0.0603068
-0.0539501
-0.0505829
-0.0513974
-0.057686
-0.0712652
-0.0844166
-0.085811
-0.0768555
-0.0604549
-0.0479875
-0.035909
-0.0268204
-0.0218166
-0.0180121
-0.0165034
-0.0139991
-0.00987767
-0.00291759
-0.521122
-0.508219
-0.485923
-0.453986
-0.41255
-0.363944
-0.311581
-0.258924
-0.209204
-0.165061
-0.128316
-0.100107
-0.0810555
-0.0710789
-0.06884
-0.0712934
-0.0741394
-0.0727665
-0.0679451
-0.0613932
-0.0569022
-0.0571269
-0.0627576
-0.0733403
-0.0893959
-0.113353
-0.14632
-0.182666
-0.208885
-0.211393
-0.18879
-0.152438
-0.115799
-0.0865525
-0.0659627
-0.0526104
-0.0448612
-0.0434773
-0.048409
-0.0543747
-0.0554343
-0.0512126
-0.0473369
-0.0463182
-0.0496078
-0.0583233
-0.0745568
-0.089883
-0.0916851
-0.0815189
-0.0628351
-0.0487205
-0.0351435
-0.0247469
-0.0186259
-0.0138288
-0.0128454
-0.0108965
-0.00851513
-0.00301312
-0.504841
-0.490702
-0.470066
-0.440394
-0.400771
-0.353811
-0.302944
-0.251248
-0.201591
-0.156391
-0.117308
-0.0853821
-0.0613379
-0.0456004
-0.0378428
-0.0364523
-0.0384556
-0.0400812
-0.0391099
-0.037363
-0.0373587
-0.0412178
-0.049645
-0.0623194
-0.0799842
-0.105275
-0.139575
-0.177501
-0.205552
-0.209976
-0.188473
-0.152278
-0.115282
-0.0853689
-0.0638379
-0.0493796
-0.0402463
-0.0369221
-0.0396655
-0.0442404
-0.0454139
-0.0425204
-0.0407366
-0.041729
-0.0472661
-0.0582271
-0.0769714
-0.0944359
-0.0967962
-0.085612
-0.0648263
-0.0491716
-0.0342665
-0.0227483
-0.0156315
-0.00981736
-0.00928302
-0.00783161
-0.00717011
-0.00312299
-0.478878
-0.462988
-0.444737
-0.418599
-0.382462
-0.339219
-0.292106
-0.243616
-0.196165
-0.151882
-0.112254
-0.0782158
-0.0504601
-0.0296407
-0.0161772
-0.00971691
-0.00869697
-0.0103722
-0.0119854
-0.0139352
-0.0173878
-0.0240345
-0.0345635
-0.0487622
-0.0675152
-0.0935805
-0.128608
-0.167681
-0.197691
-0.20454
-0.185076
-0.150121
-0.113623
-0.0836207
-0.0615579
-0.0463059
-0.0360872
-0.0311444
-0.0319416
-0.0352067
-0.0363589
-0.0344166
-0.0342756
-0.0368978
-0.0443757
-0.0573198
-0.0783653
-0.0978821
-0.10098
-0.0890472
-0.066403
-0.0493402
-0.0332723
-0.0208179
-0.0128471
-0.00600481
-0.00584279
-0.00482657
-0.00584589
-0.0032482
-0.446253
-0.42875
-0.413455
-0.3915
-0.359931
-0.321903
-0.280113
-0.23635
-0.192615
-0.150766
-0.112107
-0.0774923
-0.047573
-0.0229983
-0.00447178
0.00750097
0.0131437
0.0138835
0.0120626
0.00804184
0.00237258
-0.00617165
-0.0181045
-0.0332912
-0.0527072
-0.0791313
-0.114373
-0.154183
-0.186019
-0.195524
-0.178855
-0.146097
-0.110909
-0.0813748
-0.0591682
-0.0434245
-0.0324072
-0.0261643
-0.0252755
-0.0273429
-0.0283836
-0.0270569
-0.0280907
-0.031926
-0.0409765
-0.0555703
-0.0786504
-0.100085
-0.104101
-0.0917435
-0.0675479
-0.0492322
-0.0321722
-0.0189614
-0.0102795
-0.00240706
-0.00254498
-0.00190045
-0.00454368
-0.00339031
-0.410276
-0.392328
-0.38032
-0.36239
-0.335731
-0.303633
-0.267877
-0.22953
-0.190255
-0.151694
-0.115015
-0.0810308
-0.050382
-0.0236563
-0.00152513
0.015258
0.0260473
0.030895
0.0307594
0.0275403
0.0212298
0.0117876
-0.000862405
-0.0165698
-0.0363498
-0.0629156
-0.0981179
-0.138256
-0.171452
-0.18359
-0.170242
-0.140483
-0.107358
-0.0788202
-0.0568239
-0.0408553
-0.0292896
-0.0220254
-0.0197003
-0.0206674
-0.0215251
-0.0205377
-0.022307
-0.0269405
-0.0371115
-0.052965
-0.0778078
-0.100976
-0.10605
-0.0936561
-0.0682845
-0.0488822
-0.031
-0.0172092
-0.00796803
0.000966121
0.000596265
0.000930273
-0.00326309
-0.00355148
-0.37505
-0.358535
-0.349503
-0.334631
-0.312539
-0.286266
-0.256412
-0.223443
-0.188728
-0.153695
-0.119428
-0.08678
-0.0563873
-0.02884
-0.00473221
0.0153452
0.030555
0.0401438
0.0439901
0.0432543
0.0380631
0.0289477
0.0162854
0.000452655
-0.0194755
-0.0460025
-0.0807917
-0.120735
-0.154869
-0.16943
-0.159868
-0.133832
-0.10348
-0.0764246
-0.054904
-0.0388757
-0.0269196
-0.0188093
-0.015232
-0.0151838
-0.015819
-0.0149235
-0.0170255
-0.02203
-0.0329012
-0.0496246
-0.0758194
-0.100523
-0.106761
-0.0947588
-0.0686618
-0.0483576
-0.0297844
-0.0155681
-0.0059749
0.0040837
0.00357036
0.00365255
-0.00200279
-0.00373444
-0.344299
-0.331319
-0.324209
-0.311116
-0.292992
-0.271979
-0.247522
-0.219655
-0.189404
-0.157927
-0.126252
-0.0952714
-0.0655443
-0.0376962
-0.0123716
0.00981744
0.0281745
0.0420204
0.0507172
0.0536953
0.0511657
0.0440078
0.0324127
0.0170464
-0.00274706
-0.0291654
-0.0637595
-0.103337
-0.137399
-0.153999
-0.147767
-0.125976
-0.0990951
-0.0740211
-0.0532217
-0.037269
-0.0250743
-0.0162885
-0.0115944
-0.0106172
-0.0111391
-0.0103518
-0.0124785
-0.0173698
-0.028284
-0.0454709
-0.0728647
-0.098866
-0.10612
-0.0948789
-0.0685335
-0.0476052
-0.0284296
-0.0139283
-0.00419407
0.00690395
0.00635262
0.00625152
-0.000755695
-0.003942
-0.317698
-0.310644
-0.30337
-0.290305
-0.274876
-0.257795
-0.237787
-0.214566
-0.188698
-0.160989
-0.132283
-0.103403
-0.0750631
-0.0479383
-0.0226741
0.000164473
0.0200212
0.0364255
0.0492093
0.0565819
0.0584189
0.0542825
0.0449679
0.0310146
0.012153
-0.0133373
-0.0466459
-0.0846357
-0.117678
-0.133912
-0.131476
-0.114455
-0.0915027
-0.0689856
-0.0495207
-0.0341988
-0.0222805
-0.0133607
-0.00796044
-0.00623871
-0.00671484
-0.00626961
-0.00842394
-0.0132021
-0.0238185
-0.040967
-0.0688375
-0.0957391
-0.104206
-0.0937405
-0.0673944
-0.0462174
-0.026628
-0.0120874
-0.00224303
0.00964941
0.00898039
0.00870846
0.000468967
-0.00418518
-0.289768
-0.296223
-0.286905
-0.271783
-0.256046
-0.23963
-0.221038
-0.199625
-0.175724
-0.150088
-0.123498
-0.0966549
-0.0701695
-0.0446221
-0.020568
0.00150029
0.0211412
0.0379556
0.0518098
0.0601485
0.06418
0.0629163
0.0559724
0.0436442
0.0257023
0.000154015
-0.0347517
-0.0749954
-0.108825
-0.125752
-0.12053
-0.103616
-0.0821732
-0.0615332
-0.043686
-0.0295218
-0.0183408
-0.0097912
-0.00426914
-0.00211007
-0.0022781
-0.00158086
-0.00301083
-0.007296
-0.0175401
-0.034987
-0.064188
-0.0933356
-0.103492
-0.093088
-0.0656744
-0.044185
-0.0245072
-0.0101976
-0.000138272
0.0125237
0.0115763
0.0111547
0.00169332
-0.00449351
-0.261485
-0.271672
-0.263559
-0.248132
-0.232483
-0.217191
-0.200543
-0.181484
-0.160134
-0.137181
-0.113326
-0.0891421
-0.0651303
-0.0417861
-0.0196113
0.000940397
0.0194776
0.0356222
0.0483172
0.0582728
0.063708
0.0640944
0.0589106
0.048209
0.0315456
0.00671986
-0.0276569
-0.0663229
-0.0970016
-0.11
-0.104964
-0.090001
-0.0715314
-0.0537089
-0.0379676
-0.0251712
-0.0148906
-0.0068329
-0.00134414
0.00103811
0.000979382
0.00158599
0.000300792
-0.00318743
-0.0128073
-0.029997
-0.0596914
-0.0900135
-0.100676
-0.0904074
-0.0629903
-0.0415975
-0.0221658
-0.00823302
0.00182272
0.0147457
0.0136815
0.013265
0.00278372
-0.00472646
-0.236019
-0.246372
-0.240106
-0.226032
-0.211356
-0.197373
-0.182587
-0.165765
-0.146818
-0.126316
-0.104899
-0.0830729
-0.0612699
-0.0399254
-0.0194923
-0.000396413
0.0169807
0.0322657
0.0447933
0.0544554
0.0601754
0.0612442
0.0570062
0.0473241
0.0316592
0.00820358
-0.0232054
-0.0567777
-0.0823382
-0.0928613
-0.0889333
-0.0767947
-0.0614932
-0.0463428
-0.0325506
-0.0210207
-0.0115797
-0.0040423
0.00130578
0.00386117
0.00392695
0.00448967
0.00325977
5.8395e-05
-0.00931452
-0.0262343
-0.0553627
-0.0852666
-0.0961291
-0.0865129
-0.0597107
-0.0386548
-0.0196682
-0.00617615
0.003729
0.0167758
0.0156048
0.0151672
0.00384258
-0.004866
-0.212842
-0.222361
-0.217727
-0.205509
-0.192135
-0.179346
-0.166102
-0.151212
-0.134425
-0.116171
-0.097018
-0.0774234
-0.0577587
-0.0383919
-0.0197183
-0.00213307
0.0139987
0.0282918
0.0401962
0.049372
0.0550895
0.0565935
0.0531567
0.044519
0.030245
0.00927257
-0.0176874
-0.045651
-0.0668203
-0.0757867
-0.0733571
-0.0640585
-0.0517361
-0.0391216
-0.0272399
-0.0169806
-0.00838662
-0.00141378
0.00371004
0.00640384
0.00666862
0.00727108
0.00617386
0.00317106
-0.00602432
-0.0224226
-0.0501695
-0.0792174
-0.0903889
-0.0815381
-0.0557865
-0.0353612
-0.0169956
-0.00401812
0.00556904
0.0186507
0.0173968
0.0169302
0.0049337
-0.00491769
-0.191093
-0.200032
-0.196658
-0.186181
-0.174216
-0.162643
-0.150817
-0.137692
-0.122918
-0.106782
-0.089765
-0.0722789
-0.0546497
-0.0371915
-0.0202517
-0.00419717
0.0106161
0.0238128
0.0349283
0.043564
0.0491437
0.0509787
0.0483889
0.0410786
0.0287842
0.0110313
-0.0112603
-0.0341178
-0.0514235
-0.0595818
-0.0587417
-0.0521372
-0.0425661
-0.032274
-0.022176
-0.0131354
-0.00535726
0.00104552
0.00588392
0.00866866
0.00916553
0.0098632
0.00897385
0.00628373
-0.00244673
-0.0178629
-0.0439218
-0.0720288
-0.0833397
-0.0754048
-0.0511925
-0.0317348
-0.0141803
-0.00178044
0.00733552
0.0203174
0.019024
0.0185645
0.00606849
-0.00487657
-0.171191
-0.179497
-0.176991
-0.168034
-0.157496
-0.147191
-0.136724
-0.125217
-0.112289
-0.0981126
-0.0830831
-0.067568
-0.0518592
-0.03623
-0.0209847
-0.00645415
0.0070254
0.0191035
0.0293691
0.0374254
0.0427911
0.0448945
0.0431666
0.0373183
0.0272066
0.0127223
-0.00519201
-0.0234984
-0.0377128
-0.0451702
-0.0457098
-0.0413928
-0.034169
-0.0258925
-0.0174058
-0.00951707
-0.00252049
0.00332833
0.00783813
0.0106619
0.0114023
0.012277
0.011663
0.00938476
0.00144581
-0.0126836
-0.036874
-0.0637062
-0.0749948
-0.0681733
-0.0459599
-0.027814
-0.0112617
0.000510244
0.00902545
0.0217374
0.020446
0.0200364
0.00723025
-0.00472171
-0.153157
-0.160586
-0.158721
-0.151126
-0.141969
-0.132918
-0.123741
-0.113709
-0.102455
-0.0900741
-0.0768845
-0.0632073
-0.0493039
-0.0354136
-0.0217992
-0.00875281
0.00341379
0.0143737
0.0237656
0.0312212
0.0363332
0.038643
0.0376994
0.0332481
0.0252393
0.0137913
-0.000247431
-0.0146808
-0.0263211
-0.0330737
-0.0345472
-0.0319645
-0.0266348
-0.0200548
-0.0129859
-0.0061628
9.26074e-05
0.00542349
0.00958581
0.0124063
0.0133883
0.0145226
0.0142359
0.0124358
0.00548864
-0.00716702
-0.0291772
-0.0543703
-0.0655409
-0.0599879
-0.040161
-0.0236518
-0.00828609
0.00281923
0.0106467
0.0228844
0.0216357
0.0213098
0.00841561
-0.00442235
-0.13651
-0.143175
-0.141875
-0.135492
-0.127607
-0.119739
-0.111764
-0.103078
-0.0933394
-0.0825963
-0.0711011
-0.0591285
-0.0469096
-0.0346536
-0.0225877
-0.0109678
-7.54647e-05
0.0097879
0.0183112
0.0251615
0.0299955
0.032449
0.0321769
0.028983
0.0228796
0.0140712
0.0032643
-0.007974
-0.0173922
-0.0233135
-0.0252508
-0.0238715
-0.0200038
-0.0148105
-0.00895632
-0.00309669
0.0024609
0.00731905
0.0111424
0.0139269
0.0151356
0.0165924
0.0167073
0.0154153
0.00959963
-0.00139929
-0.020983
-0.0443043
-0.0552642
-0.0510782
-0.0339214
-0.0193174
-0.00530359
0.00510665
0.012221
0.0237478
0.0225906
0.0223692
0.00964098
-0.0039397
-0.121223
-0.127276
-0.126438
-0.121098
-0.114353
-0.107575
-0.100707
-0.0932434
-0.0848759
-0.0756188
-0.0656722
-0.055268
-0.0446078
-0.033874
-0.0232629
-0.0129966
-0.00332262
0.00549028
0.0131693
0.019425
0.0239702
0.0265171
0.0268068
0.0246995
0.0202301
0.0136103
0.00543094
-0.00317488
-0.0106365
-0.0156391
-0.0176752
-0.0170567
-0.014269
-0.0101803
-0.00534433
-0.000335399
0.00457197
0.00900016
0.0125184
0.0152457
0.0166583
0.0184592
0.0190789
0.0183646
0.0138281
0.00455778
-0.0125904
-0.0339227
-0.0445507
-0.0417521
-0.0274173
-0.0148947
-0.0023647
0.00733079
0.0137839
0.0243447
0.0233454
0.0232213
0.0109302
-0.00322682
-0.107406
-0.112812
-0.112304
-0.107865
-0.102143
-0.0963564
-0.0904958
-0.0841377
-0.0770037
-0.0690865
-0.0605444
-0.0515716
-0.042342
-0.0330133
-0.0237539
-0.0147537
-0.00622619
0.00159427
0.00846874
0.014152
0.0184054
0.0210017
0.0217462
0.0205381
0.0174217
0.0126011
0.00656263
0.000112189
-0.00565587
-0.00972619
-0.0116115
-0.0114161
-0.00939258
-0.00616297
-0.00216465
0.00211077
0.00642272
0.0104538
0.0137121
0.0163789
0.0179738
0.0200835
0.0213134
0.0213441
0.0182026
0.0105107
-0.00444425
-0.0237453
-0.0338651
-0.032375
-0.0208647
-0.0104802
0.000483391
0.00945295
0.0153742
0.0247311
0.0239773
0.0238928
0.0123062
-0.00223457
-0.0948517
-0.099621
-0.0993817
-0.0957349
-0.0909244
-0.0860287
-0.0810725
-0.0757027
-0.0696703
-0.062953
-0.0556745
-0.0479966
-0.0400678
-0.0320229
-0.0240043
-0.0161734
-0.00871152
-0.00181843
0.00430016
0.00943891
0.0134
0.0160031
0.0171025
0.0166251
0.0146199
0.0112627
0.00694487
0.00226937
-0.00206364
-0.0052467
-0.00683931
-0.00682766
-0.00531841
-0.00273945
0.000581046
0.00423702
0.0080164
0.0116748
0.0147123
0.017327
0.0190939
0.021432
0.023311
0.024263
0.022513
0.0160789
0.00294671
-0.0142773
-0.0236713
-0.02333
-0.0145008
-0.00618116
0.00319874
0.0114421
0.0170133
0.0250002
0.0245985
0.0244318
0.0137796
-0.000931984
-0.0833812
-0.0876259
-0.0876199
-0.0846563
-0.0806436
-0.0765357
-0.0723814
-0.0678868
-0.0628299
-0.0571779
-0.0510265
-0.0445094
-0.0377519
-0.0308681
-0.0239766
-0.0172124
-0.01073
-0.00469556
0.000720337
0.00534558
0.00901627
0.0115889
0.0129539
0.0130601
0.0119502
0.00976802
0.00682176
0.00362199
0.000443968
-0.00192483
-0.00315056
-0.0031618
-0.00197726
0.000122786
0.00290365
0.00604433
0.00935863
0.0126678
0.0155083
0.0180725
0.0200063
0.0224897
0.0248915
0.0267388
0.0261763
0.0207033
0.00916297
-0.00587598
-0.0143607
-0.0149656
-0.00855626
-0.00211171
0.00574453
0.0132735
0.0186757
0.0252637
0.0253278
0.0249003
0.0153229
0.000658045
-0.0730157
-0.0767813
-0.0769374
-0.0745484
-0.0712307
-0.0678161
-0.0643679
-0.0606419
-0.0564417
-0.0517276
-0.0465728
-0.0410868
-0.0353741
-0.0295295
-0.0236516
-0.0178522
-0.0122592
-0.00700803
-0.00223983
0.00190319
0.00528633
0.00779558
0.00934651
0.0099029
0.009496
0.0082379
0.00634824
0.00409977
0.00208427
0.000472817
-0.000356745
-0.000290214
0.000707701
0.00246541
0.00482413
0.00754052
0.0104558
0.013441
0.0160976
0.0185974
0.0206688
0.0232201
0.0258959
0.0283278
0.0285417
0.023896
0.0139773
0.00124862
-0.00624346
-0.00757857
-0.00322665
0.00161959
0.00808919
0.0149212
0.0202655
0.0256183
0.0262333
0.0253461
0.0168388
0.00241937
-0.063689
-0.0669822
-0.0672446
-0.0653391
-0.0626245
-0.0598174
-0.0569858
-0.0539282
-0.0504728
-0.0465769
-0.042295
-0.0377159
-0.0329257
-0.028003
-0.0230281
-0.0180909
-0.0132954
-0.0087525
-0.00457806
-0.000885939
0.00221371
0.00462985
0.0062953
0.0071838
0.00731774
0.00678122
0.00574655
0.00441456
0.00315517
0.00216558
0.00171351
0.00191041
0.00281713
0.004337
0.00637051
0.0087401
0.011316
0.0140039
0.016484
0.0188922
0.0210413
0.0235723
0.0262573
0.0287903
0.0293657
0.0255437
0.0173448
0.00693162
0.000446533
-0.00136232
0.00136304
0.00492824
0.0102067
0.0163502
0.0216224
0.0260876
0.027265
0.0257696
0.0181511
0.00412597
-0.0552449
-0.0581337
-0.0584754
-0.0569767
-0.0547754
-0.0524907
-0.0501906
-0.0477082
-0.0448943
-0.0417056
-0.0381813
-0.0343929
-0.0304101
-0.0262962
-0.0221162
-0.0179424
-0.0138582
-0.00995181
-0.00631664
-0.00304367
-0.000222223
0.00207495
0.00379362
0.00491147
0.00544495
0.0054614
0.00508731
0.00444895
0.00380127
0.00332274
0.00320781
0.00355446
0.00443133
0.00579028
0.00757605
0.00966269
0.01195
0.0143666
0.0166726
0.0189574
0.0211076
0.0235268
0.0260141
0.0282901
0.028928
0.0258997
0.0193762
0.0111124
0.00564098
0.00363562
0.00517408
0.00776598
0.0120743
0.0175198
0.0225735
0.0265562
0.0282225
0.026094
0.0190395
0.00549671
-0.0476239
-0.0501623
-0.0505722
-0.049405
-0.0476263
-0.0457866
-0.0439392
-0.0419478
-0.0396825
-0.0370998
-0.0342269
-0.0311202
-0.0278369
-0.0244273
-0.0209417
-0.0174375
-0.013982
-0.0106424
-0.00749426
-0.00460951
-0.00205999
9.64836e-05
0.00181563
0.00307786
0.00389305
0.00431046
0.00440421
0.00430343
0.00414595
0.00408012
0.00425209
0.00474568
0.00562775
0.00687963
0.00847685
0.0103319
0.0123731
0.0145429
0.0166727
0.0188036
0.0208729
0.0231176
0.025284
0.0271594
0.0277014
0.0253636
0.0203304
0.0139438
0.00945208
0.00748575
0.00823418
0.0101168
0.0136605
0.018391
0.0230267
0.0267825
0.0287783
0.0261294
0.0193074
0.00633165
-0.040778
-0.0429963
-0.0434445
-0.0425685
-0.0411645
-0.0396788
-0.0382027
-0.0366225
-0.0348183
-0.0327478
-0.0304294
-0.0279066
-0.0252245
-0.0224225
-0.0195392
-0.0166183
-0.0137111
-0.0108722
-0.00816191
-0.00563554
-0.00335023
-0.00135155
0.000324563
0.00166072
0.00266015
0.00335563
0.00379993
0.00407823
0.00429193
0.00454728
0.00495218
0.00557607
0.00647896
0.00765868
0.00911068
0.0107746
0.0126045
0.0145489
0.016497
0.0184517
0.0203759
0.0224024
0.0242082
0.0256876
0.026088
0.0243193
0.0205263
0.0157061
0.0121094
0.0103401
0.0106095
0.0119887
0.014918
0.0189232
0.0230005
0.0265219
0.0286014
0.0256204
0.018857
0.00660847
-0.034623
-0.0365505
-0.0370139
-0.0363679
-0.0352721
-0.0341131
-0.0329551
-0.0317084
-0.030283
-0.0286428
-0.0267928
-0.024765
-0.0225955
-0.0203152
-0.0179513
-0.0155318
-0.0131003
-0.0107007
-0.00838087
-0.00618293
-0.00415071
-0.00232105
-0.000724712
0.000624128
0.00172869
0.00260342
0.00328606
0.00383405
0.00431752
0.00481203
0.00539633
0.00612582
0.00705146
0.00817883
0.00951566
0.0110198
0.0126657
0.0144045
0.0161683
0.0179332
0.0196585
0.0213254
0.0229138
0.0240767
0.0243535
0.0230462
0.0202437
0.0166814
0.0138633
0.012369
0.0123791
0.0134013
0.0158059
0.0190952
0.0225364
0.0256341
0.0275117
0.0244227
0.0177444
0.0064414
-0.0290881
-0.0307616
-0.0312286
-0.0307693
-0.0299287
-0.029033
-0.0281419
-0.0271839
-0.0260794
-0.0247891
-0.0233233
-0.0217075
-0.0199712
-0.018143
-0.0162344
-0.0142276
-0.0122017
-0.0101839
-0.00821221
-0.00631438
-0.00452436
-0.0028703
-0.00138264
-6.16899e-05
0.00107851
0.00205512
0.00288732
0.00361362
0.00428138
0.00494377
0.00565699
0.00646349
0.00740474
0.00848876
0.00972986
0.0110974
0.0125806
0.0141336
0.0157174
0.0172912
0.0188192
0.0202651
0.0215527
0.0224588
0.0226507
0.0217119
0.0196775
0.0170985
0.0149331
0.0137297
0.0136203
0.0143817
0.0163129
0.0189175
0.0217085
0.0241772
0.0256239
0.0226103
0.0161556
0.00597696
-0.0241235
-0.0255733
-0.0260325
-0.025722
-0.02509
-0.0244102
-0.023737
-0.0230119
-0.0221669
-0.021169
-0.0200202
-0.0187377
-0.0173396
-0.0158396
-0.0142646
-0.0126722
-0.0110338
-0.00937134
-0.00771596
-0.00609353
-0.00453608
-0.00306401
-0.00169423
-0.000442821
0.000688743
0.001704
0.00261427
0.00344504
0.00422692
0.00499646
0.00579272
0.00664678
0.00759127
0.00863369
0.00979026
0.0110379
0.0123756
0.0137615
0.0151733
0.0165647
0.0179027
0.0191425
0.0201897
0.0209064
0.0210521
0.020403
0.0189515
0.0171254
0.0154949
0.014559
0.0144055
0.0149662
0.0164626
0.0184358
0.0206054
0.0223483
0.0232385
0.0204036
0.0143299
0.00534621
-0.0196769
-0.0209281
-0.021371
-0.0211781
-0.0207158
-0.0202124
-0.019716
-0.01918
-0.0185474
-0.0177891
-0.0169041
-0.0159056
-0.0148088
-0.0136278
-0.0123775
-0.0110739
-0.00972717
-0.00835211
-0.00696756
-0.00559383
-0.00424889
-0.00295413
-0.00171935
-0.000555992
0.000527941
0.00153408
0.00246799
0.00334524
0.00418476
0.00501091
0.00584994
0.00672363
0.00765654
0.00865428
0.00973222
0.0108722
0.0120781
0.0133129
0.0145643
0.0157872
0.01695
0.0180065
0.0188706
0.0194538
0.0195829
0.0191594
0.0181445
0.0168794
0.0156787
0.0149737
0.0148044
0.0152004
0.0163045
0.0177159
0.0193044
0.0203069
0.0206659
0.0180436
0.0124767
0.00465696
-0.0156962
-0.0167734
-0.0171948
-0.0170939
-0.0167687
-0.0164081
-0.0160545
-0.0156709
-0.0152099
-0.014646
-0.0139768
-0.0132117
-0.0123622
-0.011438
-0.0104484
-0.00940228
-0.00831003
-0.00718291
-0.00603491
-0.0048799
-0.00373186
-0.00260244
-0.00150446
-0.000446896
0.000563412
0.00152629
0.00244298
0.00332228
0.00417508
0.00501693
0.00586473
0.00673294
0.00763907
0.00858638
0.00958807
0.0106292
0.0117148
0.0128134
0.0139183
0.0149882
0.0159954
0.0168975
0.0176219
0.0181136
0.0182456
0.0179942
0.0173037
0.0164436
0.015576
0.0150604
0.0148826
0.0151369
0.0159005
0.0168295
0.0178995
0.018317
0.0181439
0.0157189
0.0107312
0.00398595
-0.0121381
-0.0130634
-0.0134598
-0.0134298
-0.0132141
-0.0129682
-0.0127287
-0.0124665
-0.0121426
-0.0117348
-0.0112398
-0.0106639
-0.0100155
-0.00930147
-0.00852734
-0.00769899
-0.00682365
-0.0059094
-0.00496654
-0.00400507
-0.00303422
-0.0020628
-0.00110144
-0.000157391
0.000763198
0.00165901
0.00252894
0.00337738
0.00420971
0.00503523
0.00586423
0.00670539
0.00757063
0.00846112
0.00938671
0.010335
0.0113107
0.0122873
0.0132602
0.0141944
0.0150659
0.0158394
0.0164576
0.016887
0.0170312
0.016907
0.0164544
0.0158805
0.0152504
0.014797
0.0146965
0.0148334
0.0153112
0.0158383
0.0164532
0.0164232
0.0158131
0.0135524
0.00915932
0.00337649
-0.00896372
-0.00975625
-0.0101255
-0.0101491
-0.0100201
-0.00986532
-0.00971618
-0.00954981
-0.00933424
-0.00905059
-0.00869497
-0.00827158
-0.0077863
-0.00724374
-0.00664738
-0.00600061
-0.00530817
-0.00457551
-0.00380987
-0.00301826
-0.00220744
-0.00138343
-0.000554227
0.000274082
0.0010959
0.00190942
0.00271251
0.00350671
0.00429395
0.00507909
0.00586777
0.00666459
0.00747694
0.00830419
0.00915309
0.010013
0.0108876
0.0117549
0.0126099
0.0134251
0.0141802
0.0148479
0.0153843
0.0157683
0.0159268
0.0158936
0.0156115
0.015238
0.0147948
0.0144738
0.0143341
0.0143504
0.0145893
0.0147922
0.0150182
0.014664
0.0137399
0.0116118
0.00778362
0.00284637
-0.00613721
-0.00681418
-0.00715531
-0.00721875
-0.00715772
-0.00707483
-0.00699649
-0.00690496
-0.00677429
-0.00658856
-0.00634372
-0.00604239
-0.00568861
-0.00528538
-0.00483472
-0.00433837
-0.00379904
-0.00322026
-0.00260666
-0.00196274
-0.001295
-0.00060647
9.7287e-05
0.000811612
0.00153139
0.00225439
0.00297818
0.00370276
0.00442793
0.0051556
0.00588825
0.00662761
0.00737769
0.00813647
0.00890804
0.00968332
0.0104637
0.0112323
0.0119837
0.0126955
0.0133513