/*--------------------------------*- C++ -*----------------------------------*\
| =========                 |                                                 |
| \\      /  F ield         | OpenFOAM: The Open Source CFD Toolbox           |
|  \\    /   O peration     | Version:  2512                                  |
|   \\  /    A nd           | Website:  www.openfoam.com                      |
|    \\/     M anipulation  |                                                 |
\*---------------------------------------------------------------------------*/
FoamFile
{
    version     2.0;
    format      ascii;
    arch        "LSB;label=32;scalar=64";
    class       surfaceScalarField;
    location    "119.5";
    object      phi;
}
// * * * * * * * * * * * * * * * * * * * * * * * * * * * * * * * * * * * * * //

dimensions      [0 3 -1 0 0 0 0];

oriented        oriented;

internalField   nonuniform List<scalar> 
26232
(
4.56827e-05
0.00106865
-0.00111433
0.000482494
0.00195253
-0.00238934
0.00154425
0.00173838
-0.00280014
0.00343224
0.00045605
-0.00234404
0.00633387
-0.00189499
-0.00100664
0.0104241
-0.00532476
0.00123448
0.0158553
-0.00983419
0.00440303
0.022736
-0.0153959
0.00851524
0.0311052
-0.021937
0.0135678
0.0409066
-0.0293284
0.019527
0.0519719
-0.0373835
0.0263182
0.0640187
-0.0458674
0.0338207
0.0766661
-0.0545153
0.0418679
0.0894676
-0.0630562
0.0502546
0.101956
-0.0712388
0.0587502
0.113696
-0.0788558
0.0671163
0.124331
-0.0857623
0.0751275
0.133625
-0.0918874
0.0825934
0.141485
-0.0972327
0.0893719
0.14795
-0.101871
0.0954072
0.153171
-0.105882
0.100661
0.157281
-0.109477
0.105366
0.160228
-0.112333
0.109386
-0.115598
0.113859
0.161967
0.000100536
0.00096811
0.000718345
0.00133473
0.00211938
0.000337344
0.00453916
-0.00196373
0.00818981
-0.00554564
0.0132476
-0.0103826
0.0198279
-0.0164145
0.0279537
-0.0235217
0.0375287
-0.031512
0.0483243
-0.040124
0.0599882
-0.0490473
0.0720758
-0.0579551
0.0841004
-0.0665398
0.0955911
-0.0745468
0.106151
-0.0817986
0.115503
-0.0882075
0.123514
-0.0937741
0.130201
-0.0985739
0.1357
-0.102732
0.140224
-0.106395
0.144038
-0.109697
0.147328
-0.112766
0.150572
-0.115577
-0.118684
0.153657
0.000190079
0.000778031
0.0010746
0.000450203
0.00293872
-0.00152677
0.00603398
-0.00505899
0.0105674
-0.0100791
0.0166713
-0.0164864
0.024365
-0.0241082
0.0335243
-0.032681
0.0438706
-0.0418583
0.0549916
-0.051245
0.06639
-0.0604457
0.0775512
-0.0691164
0.0880149
-0.0770035
0.0974344
-0.0839663
0.105614
-0.0899782
0.112517
-0.0951101
0.118242
-0.0995
0.122986
-0.103318
0.126985
-0.106731
0.130473
-0.109883
0.133646
-0.112869
0.136655
-0.115776
0.139623
-0.118546
-0.121553
0.142493
0.000306087
0.000471944
0.00152343
-0.000767142
0.00393998
-0.00394332
0.00779617
-0.00891518
0.0132518
-0.0155347
0.0203393
-0.0235739
0.0289242
-0.0326932
0.0386944
-0.0424511
0.0491897
-0.0523536
0.0598689
-0.0619242
0.0701965
-0.0707733
0.0797251
-0.078645
0.088155
-0.0854333
0.0953586
-0.0911699
0.101369
-0.0959883
0.106338
-0.100079
0.110484
-0.103646
0.114036
-0.10687
0.117197
-0.109893
0.120126
-0.112811
0.122941
-0.115685
0.125717
-0.118552
0.12856
-0.121388
-0.12444
0.131446
0.000441095
3.0849e-05
0.00203577
-0.00236182
0.00505357
-0.00696113
0.00968769
-0.0135493
0.016
-0.021847
0.0238678
-0.0314417
0.0329647
-0.0417901
0.0427951
-0.0522816
0.0527781
-0.0623366
0.0623534
-0.0714996
0.0710774
-0.0794973
0.0786816
-0.0862491
0.0850853
-0.091837
0.0903666
-0.0964512
0.0947073
-0.100329
0.0983319
-0.103704
0.101457
-0.106771
0.104264
-0.109676
0.106884
-0.112513
0.109412
-0.115339
0.11191
-0.118183
0.11442
-0.121061
0.116991
-0.123959
-0.127007
0.119558
0.000589393
-0.000558544
0.00258589
-0.00435831
0.00621106
-0.0105863
0.0115673
-0.0189055
0.0185664
-0.0288461
0.0268918
-0.0397672
0.0360275
-0.0509258
0.0453539
-0.0616081
0.0542764
-0.071259
0.0623368
-0.07956
0.069276
-0.0864365
0.0750377
-0.0920108
0.0797257
-0.0965251
0.0835379
-0.100263
0.0867006
-0.103492
0.0894217
-0.106425
0.0918661
-0.109216
0.0941515
-0.111961
0.0963565
-0.114718
0.0985323
-0.117515
0.100713
-0.120364
0.102923
-0.12327
0.105191
-0.126227
-0.129302
0.107486
0.000747673
-0.00130622
0.00314874
-0.00675938
0.0073417
-0.0147793
0.0132907
-0.0248545
0.0207169
-0.0362723
0.029105
-0.0481553
0.0378013
-0.0596221
0.0461629
-0.0699696
0.053693
-0.0787892
0.0601153
-0.0859822
0.0653742
-0.0916954
0.0695825
-0.0962191
0.0729456
-0.0998882
0.075692
-0.10301
0.0780251
-0.105825
0.0801019
-0.108502
0.0820313
-0.111145
0.0838837
-0.113814
0.0857026
-0.116537
0.0875161
-0.119328
0.089343
-0.122191
0.0911972
-0.125124
0.0930956
-0.128126
-0.131218
0.095011
0.000909731
-0.00221595
0.00369446
-0.00954411
0.00836821
-0.019453
0.0147154
-0.0312017
0.0222518
-0.0438086
0.0303019
-0.0562054
0.0381637
-0.0674839
0.0452751
-0.077081
0.0513107
-0.0848248
0.0561897
-0.0908611
0.0600173
-0.095523
0.0630006
-0.0992024
0.065371
-0.102259
0.0673332
-0.104972
0.0690431
-0.107535
0.0706066
-0.110065
0.0720901
-0.112629
0.0735336
-0.115257
0.0749617
-0.117965
0.0763908
-0.120757
0.0778332
-0.123633
0.0792994
-0.126591
0.0808003
-0.129627
-0.132741
0.0823233
0.00106756
-0.00328351
0.00418811
-0.0126646
0.00921115
-0.0244761
0.0157166
-0.0377072
0.0230351
-0.0511271
0.0304053
-0.0635756
0.0371739
-0.0742525
0.0429314
-0.0828385
0.0475407
-0.0894341
0.0510801
-0.0944006
0.0537502
-0.0981931
0.0557861
-0.101238
0.0573989
-0.103871
0.0587492
-0.106322
0.0599451
-0.108731
0.0610531
-0.111173
0.0621119
-0.113687
0.0631443
-0.11629
0.0641651
-0.118986
0.0651849
-0.121777
0.0662121
-0.124661
0.0672547
-0.127633
0.0683189
-0.130691
-0.133821
0.0693993
0.00121107
-0.00449458
0.00459263
-0.0160462
0.00979901
-0.0296824
0.0162064
-0.0441145
0.0230138
-0.0579345
0.0294614
-0.0700232
0.0350192
-0.0798103
0.0394559
-0.0872752
0.0427962
-0.0927744
0.0452214
-0.0968258
0.0469683
-0.09994
0.048258
-0.102528
0.0492614
-0.104875
0.050094
-0.107155
0.0508261
-0.109463
0.0514977
-0.111845
0.0521313
-0.114321
0.0527407
-0.116899
0.0533355
-0.119581
0.0539234
-0.122365
0.054511
-0.125248
0.0551045
-0.128227
0.0557086
-0.131295
-0.134437
0.0563248
0.00132983
-0.0058244
0.00487523
-0.0195916
0.0100805
-0.0348877
0.0161468
-0.0501808
0.0222149
-0.0640026
0.0276041
-0.0754124
0.0319455
-0.0841516
0.0351731
-0.0905028
0.037427
-0.0950284
0.038938
-0.0983368
0.0399384
-0.10094
0.0406146
-0.103204
0.0410946
-0.105355
0.0414568
-0.107517
0.0417449
-0.109751
0.0419828
-0.112083
0.042184
-0.114522
0.0423575
-0.117073
0.0425105
-0.119734
0.0426489
-0.122503
0.0427776
-0.125377
0.0429011
-0.12835
0.0430213
-0.131415
-0.134558
0.0431423
0.0014176
-0.007242
0.00501557
-0.0231896
0.0100335
-0.0399057
0.0155511
-0.0556984
0.0207284
-0.0691799
0.0250156
-0.0796997
0.0282082
-0.0873441
0.03037
-0.0926646
0.0317082
-0.0963666
0.0324626
-0.0990912
0.0328385
-0.101316
0.0329822
-0.103348
0.0329848
-0.105357
0.0328971
-0.107429
0.0327461
-0.1096
0.032546
-0.111883
0.0323055
-0.114282
0.0320311
-0.116798
0.0317283
-0.119431
0.0314023
-0.122177
0.0310576
-0.125032
0.0306979
-0.12799
0.030324
-0.131041
0.0299423
-0.134176
-0.000124121
0.0028137
-0.00268958
-0.000500093
0.00706635
-0.00669038
-0.0011282
0.0103215
-0.00969335
-0.00199164
0.0127303
-0.0118668
-0.0030601
0.0144513
-0.0133828
-0.00429629
0.015649
-0.0144128
-0.00566163
0.0164734
-0.015108
-0.00711991
0.0170427
-0.0155845
-0.00863871
0.0174349
-0.0159161
-0.0101892
0.0176864
-0.0161359
-0.0117448
0.0177976
-0.016242
-0.0132793
0.0177406
-0.0162061
-0.0147654
0.0174671
-0.015981
-0.0161726
0.0169151
-0.0155079
-0.0174671
0.016015
-0.0147205
-0.0186106
0.0146928
-0.0135492
-0.0195612
0.0128739
-0.0119234
-0.0202728
0.0104858
-0.00977419
-0.0206968
0.00746231
-0.00703824
-0.0207975
0.00374532
-0.00364465
-0.0205021
-0.0006572
0.000361766
-0.0197447
-0.00576638
0.00500899
-0.0185249
-0.011544
0.0103242
-0.0178435
-0.016875
0.0161936
-1.34694e-05
0.00282717
-0.000135432
0.00718831
-0.000413693
0.0105997
-0.000862935
0.0131795
-0.00147162
0.01506
-0.00221016
0.0163875
-0.00303894
0.0173022
-0.00391468
0.0179185
-0.00479475
0.0183149
-0.00563928
0.0185309
-0.00641145
0.0185698
-0.0070767
0.0184058
-0.00760342
0.0179938
-0.00795843
0.0172701
-0.00810852
0.0161651
-0.00802002
0.0146043
-0.00765785
0.0125117
-0.00698648
0.00981441
-0.00596944
0.00644526
-0.00455858
0.00233447
-0.00272574
-0.00249004
-0.000398965
-0.00809315
0.00246391
-0.0144069
-0.0212449
0.0058654
9.32491e-05
0.00273392
0.000226545
0.00705502
0.000314413
0.0105119
0.000315347
0.0131786
0.000223185
0.0151521
5.87074e-05
0.016552
-0.00013943
0.0175003
-0.000322963
0.018102
-0.000440461
0.0184324
-0.000441645
0.0185321
-0.00027978
0.0184079
8.73685e-05
0.0180387
0.000701809
0.0173794
0.00159788
0.0163741
0.00280842
0.0149545
0.0043649
0.0130478
0.00629646
0.0105802
0.00863131
0.00747956
0.0113962
0.00368039
0.0145998
-0.00086913
0.0183089
-0.00619912
0.0225371
-0.0123214
0.0273037
-0.0191736
-0.0266766
0.0327354
0.00018343
0.00255049
0.000546751
0.0066917
0.000981144
0.0100775
0.00142667
0.012733
0.00186264
0.0147161
0.00230033
0.0161143
0.00277444
0.0170262
0.00333441
0.017542
0.00403672
0.0177301
0.00493899
0.0176298
0.00609623
0.0172507
0.007559
0.0165759
0.00937095
0.0155674
0.0115725
0.0141725
0.0141991
0.0123279
0.0172822
0.00996472
0.0208503
0.00701209
0.02493
0.00339988
0.0295458
-0.000935395
0.0347214
-0.00604479
0.0404792
-0.0119569
0.0468393
-0.0186814
0.0537766
-0.0261109
-0.0343341
0.0614341
0.000247174
0.00230331
0.000790209
0.00614866
0.00151513
0.00935254
0.0023547
0.0118935
0.00327925
0.0137916
0.00429151
0.0151021
0.00541998
0.0158977
0.00671101
0.016251
0.00822121
0.0162199
0.0100109
0.0158401
0.0121395
0.0151221
0.0146624
0.0140529
0.0176301
0.0125998
0.0210881
0.0107145
0.0250783
0.00833769
0.0296397
0.0054034
0.0348049
0.00184688
0.0406178
-0.00241301
0.0471074
-0.007425
0.0543015
-0.0132389
0.062213
-0.0198684
0.0708463
-0.0273148
0.0801145
-0.035379
-0.0443991
0.0901795
0.000278057
0.00202526
0.000932162
0.00549456
0.00186186
0.00842284
0.00300515
0.0107502
0.004331
0.0124657
0.00583694
0.0135961
0.00754507
0.0141896
0.00949628
0.0142998
0.0117438
0.0139724
0.0143474
0.0132365
0.0173687
0.0121008
0.0208685
0.0105531
0.0249053
0.00856296
0.0295348
0.00608499
0.034814
0.00305845
0.040796
-0.000578587
0.0475423
-0.0048994
0.0550928
-0.00996353
0.0634905
-0.0158227
0.0727538
-0.0225022
0.0828696
-0.0299842
0.093777
-0.0382221
0.105309
-0.0469112
-0.0565996
0.11751
0.000274275
0.00175098
0.000962909
0.00480592
0.00199557
0.00739019
0.00332748
0.00941828
0.0049349
0.0108583
0.00681585
0.0117152
0.00898918
0.0120163
0.0114917
0.0117973
0.0143741
0.01109
0.0176967
0.00991397
0.021526
0.00827147
0.0259326
0.00614649
0.0309917
0.00350385
0.0367666
0.000310135
0.0433557
-0.00353065
0.0508218
-0.00804468
0.0592281
-0.0133057
0.068622
-0.0193574
0.0790175
-0.0262183
0.090374
-0.0338587
0.102601
-0.0422115
0.115495
-0.0511162
0.128827
-0.0602427
-0.070074
0.142301
0.000239232
0.00151175
0.000891158
0.004154
0.0019284
0.00635294
0.0033334
0.00801328
0.00509853
0.0090932
0.00723013
0.00958357
0.00975108
0.0094953
0.012701
0.00884734
0.016135
0.00765604
0.0201216
0.00592735
0.024741
0.00365211
0.0300781
0.000809336
0.0362325
-0.00265051
0.0433083
-0.00676572
0.0513739
-0.0115962
0.0605118
-0.0171825
0.070758
-0.023552
0.0820996
-0.0306989
0.0944565
-0.0385751
0.107659
-0.0470611
0.121473
-0.0560258
0.135515
-0.0651578
0.14953
-0.0742583
-0.0833473
0.162804
0.000181929
0.00132982
0.000745878
0.00359005
0.00171579
0.00538302
0.00310897
0.00662011
0.00494267
0.0072595
0.00724179
0.00728445
0.0100446
0.00669252
0.0134058
0.00548614
0.0173976
0.00366425
0.0221078
0.00121712
0.0276379
-0.00187798
0.0340986
-0.00565142
0.0415895
-0.0101414
0.0502039
-0.0153801
0.0599955
-0.0213878
0.0709714
-0.0281585
0.0830686
-0.0356492
0.096139
-0.0437693
0.109942
-0.052378
0.124147
-0.0612666
0.138358
-0.0702362
0.152097
-0.0788972
0.165093
-0.0872539
-0.0947385
0.176484
0.000116867
0.00121295
0.000575368
0.00313155
0.00145461
0.00450378
0.00281263
0.00526209
0.00470061
0.00537151
0.00717384
0.00481122
0.0102995
0.00356691
0.0141608
0.00162476
0.0188573
-0.00103219
0.0245002
-0.00442577
0.0312019
-0.00857974
0.0390641
-0.0135135
0.0481561
-0.0192334
0.0584981
-0.0257221
0.070039
-0.0329287
0.0826416
-0.0407611
0.0960746
-0.0490821
0.110017
-0.0577117
0.124071
-0.0664322
0.137809
-0.0750042
0.150769
-0.0831962
0.162588
-0.0907168
0.172968
-0.0976333
-0.103195
0.181424
6.23264e-05
0.00115063
0.000440413
0.00275346
0.00126809
0.0036761
0.00264853
0.00388165
0.00467503
0.003345
0.0074435
0.00204276
0.0110588
-4.84151e-05
0.0156374
-0.00295381
0.0212987
-0.00669349
0.0281539
-0.011281
0.0362868
-0.0167126
0.0457317
-0.0229584
0.0564518
-0.0299535
0.0683219
-0.0375923
0.0811199
-0.0457266
0.0945294
-0.0541707
0.108157
-0.0627094
0.121561
-0.0711163
0.134295
-0.0791658
0.14597
-0.0866797
0.156264
-0.0934897
0.165122
-0.0995751
0.172355
-0.104867
-0.109023
0.178184
3.62968e-05
0.000400412
0.00127637
0.00281399
0.00515235
0.00842959
0.0127842
0.0183456
0.02522
0.0334659
0.0430715
0.0539337
0.065848
0.0785104
0.0915339
0.10448
0.116898
0.128375
0.138581
0.147308
0.15448
0.160271
0.164791
0.169627
-0.0144864
-0.0339923
0.0316037
-0.0119043
-0.0467763
0.0441941
-0.00924885
-0.0603589
0.0577035
-0.00669319
-0.0740498
0.0714942
-0.00441145
-0.0872201
0.0849384
-0.00246643
-0.0993109
0.0973659
-0.000656876
-0.109805
0.107996
0.00156134
-0.118105
0.115887
0.00508709
-0.123312
0.119786
0.0108664
-0.123929
0.11815
0.019474
-0.118074
0.109467
0.0308645
-0.10405
0.0926594
0.0442558
-0.0811071
0.0677158
0.0586616
-0.0497702
0.0353644
0.0732667
-0.0118163
-0.00278875
0.0876165
0.0302168
-0.0445666
0.101064
0.0722526
-0.0857002
0.112668
0.10903
-0.120634
0.121479
0.13657
-0.145381
0.127155
0.153788
-0.159463
0.130012
0.162119
-0.164976
0.130181
0.165225
-0.165394
0.127269
0.168926
-0.166015
0.121602
0.177147
-0.17148
0.115533
0.184937
-0.178868
0.112601
0.177333
-0.174401
0.114938
0.14009
-0.142427
0.122116
0.0723082
-0.0794863
0.132027
-0.0105741
0.000662755
0.142024
-0.0879211
0.0779247
0.149855
-0.144777
0.136946
0.154622
-0.178518
0.17375
0.156716
-0.193093
0.191
0.156029
-0.196698
0.197385
0.151557
-0.201514
0.205985
0.14356
-0.212615
0.220613
0.135091
-0.218469
0.226938
0.130176
-0.189977
0.194892
0.130911
-0.119967
0.119232
0.136428
-0.0182765
0.0127593
0.144288
0.0765492
-0.0844095
0.151645
0.151046
-0.158403
0.155336
0.197413
-0.201104
0.153167
0.231391
-0.229223
0.146208
0.262127
-0.255168
0.138792
0.257823
-0.250406
0.135765
0.215993
-0.212966
0.138461
0.0961603
-0.0988561
0.144981
-0.0133461
0.00682586
0.149888
-0.126901
0.121994
0.149542
-0.196804
0.19715
0.144865
-0.246062
0.250739
0.140922
-0.295432
0.299375
0.140766
-0.213777
0.213933
0.143359
-0.16917
0.166577
0.144367
0.0215897
-0.0225972
0.143245
0.140331
-0.139209
0.141581
0.233409
-0.231746
0.139983
0.370143
-0.368544
0.147043
-0.145426
0.00810213
-0.036229
0.0100071
-0.0486813
0.0117276
-0.0620794
0.0130111
-0.0753334
0.0135695
-0.0877785
0.0131874
-0.0989288
0.0118068
-0.108425
0.00975205
-0.116051
0.00794788
-0.121508
0.00790993
-0.123891
0.011088
-0.121252
0.0183174
-0.111279
0.0293864
-0.0921762
0.0432513
-0.0636351
0.0587365
-0.0273016
0.0748803
0.014073
0.0906128
0.0565201
0.104824
0.0948191
0.116372
0.125022
0.124702
0.145457
0.129809
0.157012
0.131606
0.163427
0.129992
0.170541
0.125912
0.181227
0.121937
0.188912
0.120921
0.178349
0.124073
0.136938
0.130674
0.0657069
0.138968
-0.0188677
0.146894
-0.0958473
0.15262
-0.150503
0.155419
-0.181316
0.155866
-0.193541
0.154104
-0.194935
0.149033
-0.196443
0.140481
-0.204064
0.131347
-0.209335
0.126024
-0.184655
0.127036
-0.120979
0.133555
-0.0247955
0.142853
0.0672507
0.15156
0.14234
0.15618
0.192792
0.154698
0.232874
0.148311
0.268514
0.141275
0.264858
0.138045
0.219224
0.139982
0.0942234
0.145765
-0.01913
0.150231
-0.131367
0.149721
-0.196293
0.14483
-0.241171
0.140857
-0.291458
0.140666
-0.213585
0.14311
-0.171615
0.144017
0.0206835
0.142837
0.141511
0.14126
0.234987
0.139735
0.371668
0.148607
0.0341595
-0.0376531
0.0354976
-0.0500194
0.0364705
-0.0630523
0.0368738
-0.0757367
0.0364396
-0.0873443
0.0348299
-0.0973191
0.0316774
-0.105272
0.0268692
-0.111242
0.0209009
-0.11554
0.0151562
-0.118146
0.0118171
-0.117913
0.0129285
-0.112391
0.0194707
-0.0987183
0.0309454
-0.0751098
0.0458718
-0.042228
0.0630429
-0.00309813
0.0804729
0.0390901
0.0969414
0.0783505
0.111073
0.110891
0.122027
0.134503
0.129418
0.149621
0.133023
0.159822
0.133087
0.170477
0.131025
0.183289
0.129296
0.190641
0.130002
0.177643
0.133595
0.133345
0.139289
0.0600132
0.145717
-0.0252959
0.151416
-0.101547
0.155007
-0.154093
0.155925
-0.182234
0.154842
-0.192457
0.15214
-0.192234
0.146713
-0.191016
0.1379
-0.195251
0.128246
-0.199681
0.12242
-0.178828
0.123511
-0.12207
0.130812
-0.0320969
0.141381
0.056682
0.151373
0.132348
0.156991
0.187175
0.156369
0.233496
0.150727
0.274157
0.144145
0.27144
0.140683
0.222686
0.141733
0.0931735
0.146662
-0.024059
0.150648
-0.135352
0.149998
-0.195644
0.144891
-0.236064
0.140821
-0.287388
0.140594
-0.213359
0.142957
-0.173978
0.143812
0.0198287
0.142563
0.142759
0.141057
0.236493
0.139633
0.373092
0.150086
0.0621647
-0.0383837
0.0628098
-0.0506645
0.0630436
-0.063286
0.0625507
-0.0752438
0.0611696
-0.0859632
0.0586845
-0.094834
0.0547636
-0.101351
0.0489951
-0.105474
0.0411651
-0.10771
0.0318447
-0.108826
0.0228728
-0.108941
0.0170595
-0.106577
0.0169698
-0.0986286
0.0236444
-0.0817844
0.0362013
-0.0547849
0.0526087
-0.0195055
0.0709966
0.0207022
0.0891738
0.0601733
0.105551
0.0945135
0.11893
0.121124
0.128549
0.140002
0.134129
0.154242
0.136216
0.16839
0.136478
0.183028
0.137066
0.190053
0.1393
0.175409
0.143039
0.129606
0.147558
0.0554942
0.152063
-0.0298011
0.155515
-0.104999
0.157003
-0.155581
0.156153
-0.181384
0.153656
-0.18996
0.150105
-0.188682
0.144502
-0.185413
0.135734
-0.186483
0.125784
-0.18973
0.119419
-0.172463
0.120316
-0.122967
0.128169
-0.0399506
0.139814
0.0450377
0.151024
0.121138
0.157717
0.180481
0.158133
0.23308
0.1534
0.278889
0.147349
0.277491
0.143631
0.226404
0.143704
0.0931
0.147656
-0.0280111
0.151114
-0.13881
0.150349
-0.194878
0.145026
-0.230742
0.140787
-0.283149
0.140523
-0.213095
0.142877
-0.176331
0.143741
0.0189647
0.142417
0.144084
0.14097
0.237939
0.139683
0.374378
0.151444
0.0904935
-0.0386977
0.0903929
-0.0505639
0.0895851
-0.0624783
0.0878553
-0.073514
0.0851916
-0.0832995
0.0815894
-0.0912318
0.0769566
-0.0967186
0.0710323
-0.0995497
0.0633296
-0.100007
0.0534473
-0.0989437
0.0419121
-0.0974062
0.0308976
-0.0955628
0.0237535
-0.0914845
0.0234658
-0.0814967
0.0309452
-0.0622643
0.0447227
-0.033283
0.0625631
0.00286184
0.0815697
0.0411668
0.0996256
0.0764576
0.115045
0.105705
0.126743
0.128303
0.134411
0.146574
0.138797
0.164004
0.141609
0.180215
0.144556
0.187106
0.148159
0.171806
0.15187
0.125896
0.15521
0.0521535
0.157827
-0.0324179
0.159097
-0.106269
0.158534
-0.155018
0.156041
-0.178891
0.152282
-0.186202
0.147975
-0.184375
0.142334
-0.179772
0.133889
-0.178038
0.12392
-0.179761
0.117035
-0.165578
0.11752
-0.123452
0.125584
-0.0480143
0.138087
0.0325343
0.150431
0.108794
0.158282
0.17263
0.159908
0.231454
0.156238
0.282559
0.150793
0.282936
0.14682
0.230377
0.145855
0.0940654
0.148728
-0.0308841
0.151602
-0.141683
0.150744
-0.194021
0.145218
-0.225216
0.140732
-0.278663
0.140424
-0.212787
0.142844
-0.178751
0.143786
0.018022
0.142389
0.145481
0.140996
0.239332
0.139889
0.375485
0.152646
0.117283
-0.0384711
0.116335
-0.0496159
0.114367
-0.0605101
0.111271
-0.0704181
0.107174
-0.0792031
0.102213
-0.0862702
0.0965018
-0.0910075
0.0901121
-0.0931599
0.0828781
-0.0927731
0.0742206
-0.0902862
0.0634994
-0.0866851
0.0510981
-0.0831614
0.0393567
-0.0797431
0.0320394
-0.0741794
0.0323019
-0.0625268
0.0407764
-0.0417575
0.0557887
-0.0121504
0.0741723
0.0227832
0.0929913
0.0576385
0.109924
0.0887729
0.123517
0.11471
0.133358
0.136733
0.140237
0.157125
0.145724
0.174728
0.151002
0.181829
0.155931
0.166877
0.159682
0.122145
0.161932
0.0499041
0.162837
-0.0333229
0.162045
-0.105477
0.159526
-0.152499
0.155535
-0.1749
0.150684
-0.181351
0.145712
-0.179403
0.140115
-0.174176
0.13222
-0.170143
0.122537
-0.170078
0.115253
-0.158294
0.115104
-0.123303
0.123049
-0.055959
0.136124
0.0194589
0.1495
0.0954185
0.158585
0.163545
0.161581
0.228458
0.159117
0.285024
0.15436
0.287693
0.150152
0.234585
0.148135
0.096082
0.149848
-0.0325966
0.152077
-0.143913
0.15115
-0.193093
0.145447
-0.219513
0.140644
-0.27386
0.140269
-0.212412
0.142827
-0.181309
0.143929
0.0169206
0.142471
0.146938
0.141131
0.240673
0.140252
0.376365
0.153651
0.141145
-0.0373151
0.139059
-0.0475295
0.135711
-0.0571626
0.131124
-0.0658311
0.125558
-0.0736369
0.11924
-0.0799519
0.112395
-0.0841629
0.105269
-0.0860335
0.0980175
-0.0855216
0.0904803
-0.082749
0.0819761
-0.0781808
0.0716414
-0.0728268
0.0596794
-0.0677811
0.048453
-0.062953
0.0418709
-0.0559447
0.0430668
-0.0429535
0.0524307
-0.0215142
0.0678519
0.0073619
0.0858558
0.0396347
0.103456
0.0711725
0.118627
0.0995392
0.130643
0.124717
0.140113
0.147655
0.148303
0.166538
0.155829
0.174303
0.162003
0.160702
0.16591
0.118239
0.16743
0.0483833
0.166891
-0.0327836
0.164241
-0.102827
0.159913
-0.148171
0.154577
-0.169564
0.148817
-0.175591
0.143278
-0.173864
0.137759
-0.168656
0.130568
-0.162952
0.121467
-0.160978
0.113977
-0.150804
0.113061
-0.122387
0.120542
-0.0634396
0.133858
0.00614259
0.148128
0.0811479
0.158507
0.153166
0.163019
0.223946
0.161897
0.286146
0.157905
0.291685
0.15351
0.238981
0.150475
0.0991162
0.150979
-0.0331003
0.152505
-0.145439
0.15153
-0.192119
0.145695
-0.213678
0.140514
-0.268679
0.140037
-0.211936
0.142796
-0.184068
0.144147
0.0155697
0.142655
0.148431
0.141373
0.241954
0.140775
0.376964
0.15442
0.160331
-0.0348421
0.156819
-0.0440176
0.151942
-0.0522857
0.145877
-0.0597665
0.138962
-0.0667216
0.131462
-0.072452
0.123683
-0.0763832
0.115951
-0.0783025
0.108531
-0.0781014
0.101537
-0.0757549
0.0947555
-0.0713991
0.0874041
-0.0654754
0.0784814
-0.0588584
0.0680297
-0.0525013
0.0582882
-0.0462032
0.0530228
-0.0376881
0.0551666
-0.023658
0.0649167
-0.00238824
0.0797705
0.0247809
0.09652
0.0544229
0.112489
0.0835703
0.126367
0.11084
0.138302
0.13572
0.14908
0.15576
0.158734
0.164649
0.166139
0.153297
0.170353
0.114025
0.171465
0.0472712
0.169809
-0.0311282
0.165573
-0.0985909
0.159627
-0.142226
0.153106
-0.163042
0.146623
-0.169109
0.140629
-0.167871
0.135183
-0.163209
0.128766
-0.156535
0.1205
-0.152711
0.113055
-0.143358
0.111346
-0.120678
0.118036
-0.0701286
0.131234
-0.00705567
0.146225
0.0661564
0.157924
0.141467
0.164069
0.217801
0.164407
0.285808
0.161277
0.294815
0.156775
0.243483
0.152791
0.103101
0.15208
-0.0323897
0.152846
-0.146205
0.151843
-0.191116
0.145935
-0.20777
0.140336
-0.26308
0.139712
-0.211311
0.142718
-0.187073
0.144418
0.0138693
0.142929
0.14992
0.141717
0.243166
0.141459
0.377222
0.154909
0.172729
-0.0310874
0.167861
-0.0391491
0.161663
-0.0460884
0.154488
-0.0525914
0.146657
-0.0588903
0.138409
-0.0642044
0.130082
-0.0680557
0.122042
-0.070263
0.114594
-0.0706528
0.10794
-0.069101
0.10214
-0.0655987
0.0969101
-0.060246
0.0914092
-0.0533575
0.0845878
-0.0456799
0.0763878
-0.0380032
0.0687674
-0.0300677
0.0651209
-0.0200115
0.068076
-0.00534335
0.0774723
0.0153846
0.0912153
0.0406799
0.106487
0.0682982
0.121332
0.0959949
0.135193
0.121859
0.148183
0.14277
0.159706
0.153127
0.168279
0.144723
0.173004
0.1093
0.174004
0.0462713
0.171523
-0.0286473
0.165935
-0.0930029
0.158569
-0.134859
0.151021
-0.155495
0.143999
-0.162087
0.137682
-0.161554
0.132294
-0.157821
0.126653
-0.150894
0.119409
-0.145467
0.112279
-0.136229
0.109855
-0.118255
0.115519
-0.0757925
0.128225
-0.019761
0.143714
0.0506666
0.156717
0.128465
0.164601
0.209917
0.166511
0.283898
0.164324
0.297002
0.159804
0.248002
0.155009
0.107897
0.1531
-0.0304814
0.153058
-0.146163
0.152041
-0.190099
0.146141
-0.20187
0.140112
-0.257051
0.139285
-0.210485
0.142561
-0.190349
0.14472
0.0117107
0.143284
0.151356
0.14216
0.24429
0.142305
0.377077
0.155077
0.176996
-0.0266594
0.171318
-0.0334708
0.164427
-0.0391981
0.156827
-0.0449906
0.148733
-0.0507966
0.140344
-0.0558156
0.131996
-0.0597078
0.12404
-0.0623066
0.116779
-0.0633923
0.110467
-0.0627885
0.105279
-0.0604112
0.10122
-0.0561869
0.0979558
-0.050093
0.0946756
-0.0423998
0.0903524
-0.03368
0.0848058
-0.0245211
0.0796242
-0.0148299
0.0777888
-0.00350789
0.0811946
0.0119788
0.0900834
0.031791
0.102688
0.0556934
0.116957
0.0817258
0.131666
0.10715
0.146135
0.1283
0.159089
0.140173
0.168698
0.135114
0.174054
0.103945
0.175184
0.0451408
0.172061
-0.0255236
0.165266
-0.0862085
0.156662
-0.126255
0.148241
-0.147074
0.140847
-0.154692
0.134361
-0.155068
0.129022
-0.152482
0.124099
-0.145971
0.117998
-0.139367
0.111436
-0.129667
0.108449
-0.115268
0.112952
-0.0802951
0.124833
-0.0316425
0.140552
0.0349481
0.154786
0.114231
0.164441
0.200261
0.168
0.280339
0.166871
0.29813
0.162483
0.252391
0.157045
0.113335
0.154001
-0.027437
0.153111
-0.145273
0.152079
-0.189067
0.146286
-0.196077
0.139852
-0.250617
0.138762
-0.209395
0.142293
-0.19388
0.145027
0.00897662
0.14371
0.152674
0.142699
0.2453
0.143313
0.376464
0.154877
0.173898
-0.0223735
0.168135
-0.0277077
0.161326
-0.03239
0.153999
-0.0376627
0.146232
-0.0430303
0.138232
-0.0478156
0.130314
-0.0517895
0.122782
-0.0547745
0.115933
-0.056543
0.110055
-0.0569106
0.105369
-0.055725
0.10196
-0.0527784
0.0997654
-0.0478985
0.0984378
-0.0410722
0.097278
-0.0325201
0.0954921
-0.0227352
0.092913
-0.0122508
0.0908274
-0.0014222
0.0905256
0.0122806
0.0945965
0.0277201
0.103102
0.0471876
0.114948
0.0698798
0.128878
0.0932207
0.143621
0.113557
0.157205
0.12659
0.167555
0.124764
0.173813
0.0976869
0.175292
0.0436615
0.171694
-0.021926
0.163844
-0.0783583
0.154208
-0.116619
0.145077
-0.137943
0.137423
-0.147039
0.130887
-0.148531
0.125555
-0.147151
0.121189
-0.141605
0.116242
-0.13442
0.11044
-0.123865
0.107044
-0.111871
0.110308
-0.0835591
0.121072
-0.042407
0.136688
0.0193321
0.152053
0.098866
0.163587
0.188728
0.168891
0.275034
0.168834
0.298188
0.164716
0.256508
0.158874
0.119177
0.154795
-0.0233573
0.153034
-0.143513
0.151958
-0.187991
0.146363
-0.190481
0.13959
-0.243844
0.138173
-0.207978
0.141896
-0.197603
0.145315
0.00555795
0.144194
0.153795
0.143333
0.246161
0.144485
0.375312
0.154266
0.166023
-0.0187699
0.160638
-0.0223227
0.154722
-0.0264739
0.148299
-0.0312394
0.141436
-0.0361675
0.134426
-0.0408056
0.127524
-0.044888
0.120966
-0.0482166
0.114993
-0.0505697
0.109808
-0.0517254
0.105562
-0.0514788
0.102406
-0.0496231
0.100477
-0.0459687
0.0997961
-0.0403917
0.100134
-0.0328585
0.100903
-0.0235035
0.101369
-0.0127168
0.100837
-0.000890423
0.101303
0.0118142
0.103399
0.0256241
0.108569
0.0420181
0.117139
0.0613097
0.128653
0.0817067
0.141999
0.100211
0.155188
0.113401
0.166173
0.113779
0.173389
0.0904714
0.175295
0.0417548
0.170727
-0.017358
0.161746
-0.0693773
0.151391
-0.106264
0.141861
-0.128412
0.134086
-0.139265
0.12758
-0.142025
0.122197
-0.141768
0.118137
-0.137544
0.114218
-0.130501
0.109291
-0.118938
0.105646
-0.108226
0.107707
-0.0856202
0.11713
-0.0518295
0.132297
0.00416485
0.148364
0.0827991
0.161576
0.175515
0.168737
0.267874
0.169961
0.296964
0.166333
0.260136
0.160404
0.125105
0.155419
-0.0183718
0.15283
-0.140924
0.151687
-0.186849
0.146364
-0.185158
0.139338
-0.236819
0.13753
-0.20617
0.141399
-0.201472
0.145578
0.00137834
0.144729
0.154644
0.144056
0.246834
0.145816
0.373552
0.153191
0.202728
-0.0153276
-0.20617
0.200133
-0.0197278
0.197225
-0.0235659
0.193724
-0.0277385
0.189587
-0.0320305
0.184893
-0.0361114
0.179734
-0.0397297
0.174188
-0.0426702
0.168349
-0.0447313
0.162338
-0.0457139
0.156281
-0.045422
0.150322
-0.0436638
0.144612
-0.0402593
0.139293
-0.0350725
0.134452
-0.0280173
0.130015
-0.0190667
0.125722
-0.00842321
0.121065
0.00376645
0.116191
0.0166883
0.111723
0.0300917
0.108969
0.0447717
0.109352
0.0609269
0.11383
0.0772291
0.122498
0.0915427
0.135148
0.100751
0.151885
0.0970417
0.170699
0.0716577
0.185918
0.0265354
0.193757
-0.0251969
0.193996
-0.0696166
0.188879
-0.101147
0.180953
-0.120486
0.172289
-0.1306
0.163619
-0.133355
0.155247
-0.133396
0.147771
-0.130068
0.140611
-0.123342
0.132362
-0.110689
0.124008
-0.0998726
0.119415
-0.0810272
0.120779
-0.0531932
0.126767
-0.00182362
0.133246
0.0763206
0.138133
0.170628
0.141487
0.264521
0.145578
0.292873
0.151059
0.254655
0.155986
0.120177
0.158596
-0.0209812
0.1588
-0.141128
0.156604
-0.184652
0.150449
-0.179002
0.14165
-0.228021
0.136528
-0.201048
0.135387
-0.200331
0.134668
0.00209706
0.131655
0.157658
0.130091
0.248397
0.13297
0.370673
0.151672
0.211551
-0.0127289
-0.214149
0.208727
-0.016904
0.205864
-0.020703
0.202525
-0.0243997
0.198607
-0.028112
0.194171
-0.0316762
0.189298
-0.0348568
0.184067
-0.0374385
0.17857
-0.0392351
0.172927
-0.0400701
0.167269
-0.0397642
0.161744
-0.0381387
0.156506
-0.035022
0.151707
-0.0302731
0.147485
-0.0237951
0.143931
-0.0155128
0.140897
-0.00538907
0.138205
0.00645814
0.13559
0.0193036
0.133137
0.0325442
0.131689
0.0462201
0.132625
0.0599906
0.137129
0.0727247
0.145719
0.0829528
0.158584
0.0878865
0.17512
0.0805056
0.191992
0.0547852
0.204307
0.0142211
0.209092
-0.0299828
0.2071
-0.0676241
0.200512
-0.0945589
0.191663
-0.111637
0.182458
-0.121396
0.173549
-0.124445
0.16495
-0.124797
0.157184
-0.122302
0.150118
-0.116275
0.14225
-0.102821
0.133843
-0.0914648
0.128439
-0.0756235
0.128917
-0.0536711
0.134577
-0.00748339
0.141518
0.0693796
0.147247
0.164898
0.15161
0.260158
0.156908
0.287575
0.16347
0.248093
0.168936
0.114711
0.171325
-0.0233696
0.170693
-0.140497
0.167772
-0.181732
0.160988
-0.172218
0.15141
-0.218442
0.145412
-0.19505
0.144095
-0.199013
0.143573
0.00261878
0.140362
0.160869
0.138762
0.249997
0.142298
0.367136
0.149867
0.220168
-0.0107375
-0.222159
0.217623
-0.014359
0.214798
-0.0178776
0.211609
-0.0212113
0.20794
-0.0244431
0.203791
-0.0275271
0.199227
-0.0302923
0.194328
-0.0325401
0.189187
-0.0340939
0.183912
-0.0347952
0.178633
-0.034485
0.173497
-0.0330029
0.168666
-0.0301909
0.164303
-0.02591
0.160564
-0.0200555
0.157591
-0.0125401