/*--------------------------------*- C++ -*----------------------------------*\
| =========                 |                                                 |
| \\      /  F ield         | OpenFOAM: The Open Source CFD Toolbox           |
|  \\    /   O peration     | Version:  2512                                  |
|   \\  /    A nd           | Website:  www.openfoam.com                      |
|    \\/     M anipulation  |                                                 |
\*---------------------------------------------------------------------------*/
FoamFile
{
    version     2.0;
    format      ascii;
    arch        "LSB;label=32;scalar=64";
    class       volScalarField;
    location    "176.25";
    object      p;
}
// * * * * * * * * * * * * * * * * * * * * * * * * * * * * * * * * * * * * * //

dimensions      [0 2 -2 0 0 0 0];

internalField   nonuniform List<scalar> 
13248
(
-0.469096
-0.465894
-0.462733
-0.459799
-0.457267
-0.455312
-0.453922
-0.452874
-0.451781
-0.450132
-0.447353
-0.442878
-0.436229
-0.427081
-0.4153
-0.400955
-0.384294
-0.365695
-0.345598
-0.324461
-0.302605
-0.280429
-0.25732
-0.233883
-0.47803
-0.474213
-0.470307
-0.466515
-0.463008
-0.459949
-0.457287
-0.454749
-0.451896
-0.448192
-0.443095
-0.436139
-0.427005
-0.415567
-0.401891
-0.386208
-0.368864
-0.350256
-0.33078
-0.310789
-0.290555
-0.270333
-0.250023
-0.23028
-0.488398
-0.483773
-0.47905
-0.474393
-0.469902
-0.46568
-0.461607
-0.457341
-0.452409
-0.446308
-0.438602
-0.428999
-0.417394
-0.403863
-0.388634
-0.372031
-0.354411
-0.336123
-0.31747
-0.298705
-0.280013
-0.261585
-0.243357
-0.225628
-0.500469
-0.49482
-0.489187
-0.483623
-0.478074
-0.472538
-0.466795
-0.460451
-0.453052
-0.444208
-0.433674
-0.421385
-0.40745
-0.392112
-0.375683
-0.358494
-0.34085
-0.323009
-0.305177
-0.287516
-0.27015
-0.253213
-0.23666
-0.220803
-0.514301
-0.507428
-0.50078
-0.494221
-0.487459
-0.480345
-0.472571
-0.463736
-0.453495
-0.441664
-0.428241
-0.413397
-0.397408
-0.380603
-0.363298
-0.345768
-0.328228
-0.310842
-0.293729
-0.27698
-0.260667
-0.244857
-0.229526
-0.214868
-0.529758
-0.521511
-0.513752
-0.50606
-0.497834
-0.488765
-0.478502
-0.466737
-0.453338
-0.438392
-0.422158
-0.40499
-0.387255
-0.369282
-0.35133
-0.333586
-0.316175
-0.299178
-0.282648
-0.266623
-0.251133
-0.236203
-0.221825
-0.208117
-0.546527
-0.536829
-0.527869
-0.518847
-0.508797
-0.497284
-0.484022
-0.468919
-0.452154
-0.434109
-0.415259
-0.396058
-0.376877
-0.357982
-0.339544
-0.321658
-0.304367
-0.287691
-0.271632
-0.256188
-0.241356
-0.227132
-0.213512
-0.200522
-0.564107
-0.552959
-0.542707
-0.53208
-0.519739
-0.505223
-0.488462
-0.469717
-0.449524
-0.428531
-0.407338
-0.386407
-0.366045
-0.34642
-0.327607
-0.309617
-0.292432
-0.276022
-0.260352
-0.245392
-0.231113
-0.217491
-0.204518
-0.192142
-0.581791
-0.569264
-0.557613
-0.545023
-0.529849
-0.511771
-0.491116
-0.468591
-0.445079
-0.421403
-0.398189
-0.375828
-0.354519
-0.334325
-0.315229
-0.297177
-0.280101
-0.263934
-0.248613
-0.234082
-0.220294
-0.207214
-0.194814
-0.182983
-0.598647
-0.58487
-0.571676
-0.556694
-0.538134
-0.516038
-0.491284
-0.465053
-0.438491
-0.412485
-0.387592
-0.364086
-0.34204
-0.321418
-0.30213
-0.284067
-0.267124
-0.251204
-0.23622
-0.222098
-0.208775
-0.196202
-0.184325
-0.173008
-0.613552
-0.598674
-0.583741
-0.565901
-0.543465
-0.517066
-0.488225
-0.458538
-0.429297
-0.401346
-0.37511
-0.35072
-0.328133
-0.307225
-0.287845
-0.269845
-0.253087
-0.23745
-0.222829
-0.209131
-0.19628
-0.184214
-0.172839
-0.162039
-0.625291
-0.609492
-0.592611
-0.571451
-0.544725
-0.513866
-0.48106
-0.448229
-0.416691
-0.387163
-0.3599
-0.334885
-0.311964
-0.290938
-0.271605
-0.25378
-0.237301
-0.222026
-0.207832
-0.194616
-0.182292
-0.170779
-0.15996
-0.149777
-0.343798
-0.346687
-0.348466
-0.349678
-0.350772
-0.351861
-0.35297
-0.354103
-0.355232
-0.356309
-0.357273
-0.358055
-0.358588
-0.358811
-0.358675
-0.358154
-0.357249
-0.355996
-0.354482
-0.352842
-0.351229
-0.34976
-0.348628
-0.348458
-0.354259
-0.35721
-0.359183
-0.360735
-0.362318
-0.364021
-0.365855
-0.367799
-0.369795
-0.371757
-0.37358
-0.375137
-0.37629
-0.376888
-0.376783
-0.375836
-0.373926
-0.37097
-0.366945
-0.361904
-0.355922
-0.349034
-0.341504
-0.334651
-0.366037
-0.368801
-0.370832
-0.372654
-0.374678
-0.376974
-0.379525
-0.382279
-0.385152
-0.388023
-0.390736
-0.393107
-0.394922
-0.395941
-0.39591
-0.394571
-0.391675
-0.387009
-0.380429
-0.371881
-0.361365
-0.34883
-0.334524
-0.320475
-0.378741
-0.381074
-0.383011
-0.384997
-0.387366
-0.390164
-0.393347
-0.396835
-0.400506
-0.4042
-0.407722
-0.410826
-0.413225
-0.414595
-0.41458
-0.412809
-0.40892
-0.40258
-0.393527
-0.381612
-0.366792
-0.349029
-0.328367
-0.306466
-0.391822
-0.393524
-0.39521
-0.397215
-0.399782
-0.402924
-0.406572
-0.410618
-0.414906
-0.419235
-0.42336
-0.426983
-0.429748
-0.431252
-0.431049
-0.428676
-0.423679
-0.415642
-0.404227
-0.389224
-0.370607
-0.348575
-0.32297
-0.288918
-0.404678
-0.40562
-0.406909
-0.408765
-0.411331
-0.414599
-0.418476
-0.422822
-0.427448
-0.432119
-0.436538
-0.440354
-0.443149
-0.444449
-0.443741
-0.440492
-0.434195
-0.4244
-0.410762
-0.393086
-0.371378
-0.345773
-0.316436
-0.28319
-0.416768
-0.416905
-0.417678
-0.419201
-0.421538
-0.424666
-0.428485
-0.432822
-0.437457
-0.442117
-0.446461
-0.450087
-0.45252
-0.453234
-0.451665
-0.44725
-0.439468
-0.427891
-0.412238
-0.392411
-0.368561
-0.340901
-0.310548
-0.276112
-0.427715
-0.427084
-0.427255
-0.428271
-0.430141
-0.432853
-0.436303
-0.440304
-0.444608
-0.448899
-0.452798
-0.455854
-0.45755
-0.457318
-0.454573
-0.448755
-0.43938
-0.426098
-0.408751
-0.387385
-0.362374
-0.333943
-0.303943
-0.269943
-0.437379
-0.436079
-0.435601
-0.435956
-0.437145
-0.439182
-0.441978
-0.445341
-0.448992
-0.452594
-0.455719
-0.457871
-0.458498
-0.45701
-0.452828
-0.445436
-0.434436
-0.419611
-0.40097
-0.378728
-0.353452
-0.325413
-0.29661
-0.26455
-0.44589
-0.444041
-0.442895
-0.442477
-0.442818
-0.443975
-0.445885
-0.448353
-0.451102
-0.453742
-0.455806
-0.456761
-0.456024
-0.453007
-0.447171
-0.438087
-0.425493
-0.409343
-0.389825
-0.367334
-0.342532
-0.31582
-0.288858
-0.259572
-0.453624
-0.451321
-0.449502
-0.448243
-0.447628
-0.447767
-0.448625
-0.450025
-0.451653
-0.453091
-0.453831
-0.453302
-0.450913
-0.446111
-0.43844
-0.427605
-0.41351
-0.396285
-0.376267
-0.353979
-0.330076
-0.305152
-0.280408
-0.254269
-0.461149
-0.458418
-0.45592
-0.453791
-0.452179
-0.451238
-0.450964
-0.451166
-0.451505
-0.45152
-0.450661
-0.448339
-0.443991
-0.437145
-0.427479
-0.414869
-0.3994
-0.381347
-0.361128
-0.339275
-0.316291
-0.292839
-0.269579
-0.246476
-0.35015
-0.354404
-0.360369
-0.366769
-0.372008
-0.374523
-0.370905
-0.360114
-0.340616
-0.312198
-0.276922
-0.238844
-0.202782
-0.17287
-0.151551
-0.139551
-0.136967
-0.144345
-0.161751
-0.185853
-0.208281
-0.217974
-0.209909
-0.184687
-0.151712
-0.120535
-0.0966185
-0.0814347
-0.0741472
-0.0733285
-0.0792342
-0.0934726
-0.113479
-0.129845
-0.131814
-0.118948
-0.0983794
-0.0798146
-0.0678055
-0.0617505
-0.0620589
-0.0708448
-0.084058
-0.0920938
-0.0877182
-0.0744692
-0.0614516
-0.0508776
-0.0452106
-0.0442542
-0.0450005
-0.0449985
-0.0427695
-0.0381659
-0.0339311
-0.02918
-0.0241109
-0.0239855
-0.0208841
-0.00768037
-0.329067
-0.324335
-0.322135
-0.321513
-0.321514
-0.320384
-0.315765
-0.306807
-0.29132
-0.268489
-0.240412
-0.210384
-0.182309
-0.1596
-0.144373
-0.13758
-0.139969
-0.152564
-0.175065
-0.203111
-0.227527
-0.237522
-0.226139
-0.19723
-0.16047
-0.125964
-0.099231
-0.0814721
-0.0717169
-0.0684552
-0.0715408
-0.0823995
-0.0993045
-0.114152
-0.116737
-0.10682
-0.0896866
-0.0745739
-0.0655366
-0.0620939
-0.0649583
-0.0765265
-0.0921091
-0.101288
-0.0961378
-0.0804764
-0.0647708
-0.0517003
-0.0441237
-0.0410138
-0.0401942
-0.0396948
-0.0379079
-0.0349485
-0.0320644
-0.0295633
-0.0259314
-0.0267356
-0.0238978
-0.00881174
-0.307877
-0.293342
-0.282031
-0.273129
-0.266428
-0.260756
-0.254525
-0.244226
-0.235162
-0.218232
-0.197494
-0.175727
-0.15574
-0.140267
-0.131234
-0.129879
-0.137527
-0.155373
-0.182519
-0.213801
-0.239699
-0.249506
-0.236734
-0.205485
-0.166176
-0.129312
-0.100466
-0.0806168
-0.0686896
-0.0631564
-0.0635608
-0.0710706
-0.0847959
-0.0981219
-0.102696
-0.0941072
-0.0802883
-0.0685885
-0.0625112
-0.0617242
-0.0671688
-0.081425
-0.0992735
-0.109603
-0.103863
-0.0859897
-0.0676934
-0.0522523
-0.0429447
-0.0379294
-0.0356702
-0.0346014
-0.0330859
-0.031636
-0.0300806
-0.0299101
-0.0277262
-0.0294012
-0.0268304
-0.00992243
-0.288842
-0.264651
-0.244271
-0.226641
-0.21221
-0.200688
-0.19123
-0.181965
-0.170966
-0.16376
-0.14905
-0.135288
-0.123102
-0.114722
-0.111899
-0.116152
-0.129178
-0.152053
-0.183307
-0.217311
-0.24449
-0.254597
-0.241499
-0.209261
-0.168717
-0.130583
-0.100421
-0.0790617
-0.0653639
-0.0578217
-0.055764
-0.0600977
-0.0706282
-0.0821567
-0.0869621
-0.0810175
-0.0704489
-0.0620102
-0.0587642
-0.0605495
-0.0684573
-0.0852231
-0.105236
-0.11677
-0.110695
-0.0908997
-0.0701861
-0.052538
-0.041692
-0.0350347
-0.0314745
-0.029782
-0.0283604
-0.0282682
-0.0279972
-0.0302194
-0.0294835
-0.0319538
-0.0296493
-0.0110001
-0.274776
-0.240881
-0.212541
-0.186895
-0.16438
-0.146115
-0.132205
-0.121465
-0.109838
-0.106704
-0.0976067
-0.0909256
-0.0857889
-0.0840914
-0.0873821
-0.0973512
-0.115715
-0.1432
-0.177867
-0.213947
-0.242268
-0.253067
-0.24059
-0.208708
-0.168306
-0.130041
-0.0993384
-0.0770138
-0.0619735
-0.0527586
-0.048552
-0.0499507
-0.0573369
-0.0668555
-0.0716591
-0.0679721
-0.060427
-0.0549719
-0.0543047
-0.0584716
-0.0686297
-0.0876948
-0.109731
-0.122514
-0.116424
-0.0951066
-0.0722363
-0.0525783
-0.0403842
-0.0323412
-0.0276307
-0.0252932
-0.0237906
-0.0248847
-0.0258317
-0.0304888
-0.0311898
-0.0343606
-0.0323201
-0.012032
-0.259311
-0.222729
-0.187853
-0.156144
-0.126601
-0.102066
-0.0840015
-0.0683667
-0.0600727
-0.0526763
-0.0491097
-0.0469762
-0.0474172
-0.0514741
-0.0604322
-0.0758312
-0.099057
-0.130328
-0.167395
-0.204781
-0.234024
-0.245696
-0.234481
-0.204145
-0.165234
-0.127936
-0.0974457
-0.0746633
-0.058675
-0.0481293
-0.0421523
-0.0409883
-0.0453785
-0.0527521
-0.057271
-0.055347
-0.0504827
-0.0476096
-0.0491759
-0.0554648
-0.0675957
-0.0886935
-0.112557
-0.126631
-0.120878
-0.0985235
-0.0738334
-0.0523918
-0.0390319
-0.0298412
-0.024144
-0.0211797
-0.0194288
-0.0215207
-0.0236003
-0.0307122
-0.0328281
-0.0365887
-0.0348095
-0.0130057
-0.249322
-0.211702
-0.173663
-0.137941
-0.104591
-0.0751796
-0.0512426
-0.032279
-0.0197338
-0.0120559
-0.00889422
-0.00897864
-0.0129532
-0.0212079
-0.0346519
-0.0544341
-0.0813915
-0.115195
-0.153468
-0.191292
-0.221048
-0.233435
-0.223975
-0.196186
-0.159916
-0.124554
-0.0949597
-0.0721749
-0.0555801
-0.0440145
-0.0366114
-0.0333343
-0.0350076
-0.0402056
-0.0441842
-0.0435039
-0.040904
-0.0400995
-0.0435008
-0.051579
-0.0653308
-0.0881361
-0.113614
-0.128998
-0.123939
-0.101075
-0.0749631
-0.0519921
-0.037643
-0.0275139
-0.0209966
-0.0174681
-0.0153167
-0.0182078
-0.021317
-0.0308808
-0.0343805
-0.0386086
-0.0370868
-0.0139089
-0.2425
-0.206052
-0.168538
-0.132009
-0.0970226
-0.064951
-0.0370505
-0.0141514
0.00265268
0.0133593
0.0187122
0.0184442
0.0132495
0.00293406
-0.0130869
-0.0354871
-0.0645104
-0.0993287
-0.137552
-0.174884
-0.204769
-0.217371
-0.209956
-0.185481
-0.152756
-0.120111
-0.091998
-0.0696251
-0.0527341
-0.0404328
-0.0319243
-0.026963
-0.0262959
-0.0294015
-0.0326839
-0.0327417
-0.0319752
-0.0326561
-0.037442
-0.0469159
-0.0619065
-0.0860275
-0.112871
-0.129568
-0.125563
-0.102712
-0.0756219
-0.0513962
-0.0362288
-0.025351
-0.0181643
-0.0141619
-0.0114827
-0.0149732
-0.0189943
-0.0309845
-0.0358299
-0.0403937
-0.039124
-0.0147314
-0.237688
-0.203862
-0.169464
-0.134853
-0.100449
-0.0677275
-0.0379725
-0.0120945
0.00899374
0.0252157
0.0322055
0.0333993
0.0291632
0.019061
0.00268958
-0.0202212
-0.049436
-0.0837254
-0.120673
-0.156549
-0.186533
-0.198486
-0.193368
-0.172796
-0.144276
-0.114924
-0.0887634
-0.0671758
-0.0502747
-0.0374899
-0.0281526
-0.0218917
-0.019286
-0.0204436
-0.0229293
-0.0246284
-0.0239511
-0.0254882
-0.0312057
-0.0416042
-0.0573644
-0.0824504
-0.11041
-0.128418
-0.125754
-0.103437
-0.075872
-0.0506827
-0.0348298
-0.0233713
-0.0156565
-0.0112709
-0.00793856
-0.0118397
-0.0166416
-0.0310135
-0.0371575
-0.0419186
-0.0408958
-0.0154658
-0.233953
-0.203687
-0.173699
-0.142498
-0.110369
-0.0788581
-0.049164
-0.0221774
0.00110027
0.0198241
0.0313992
0.0361272
0.0346696
0.02682
0.0121818
-0.00921653
-0.0368167
-0.0690897
-0.103601
-0.13665
-0.162303
-0.177451
-0.175339
-0.159198
-0.135357
-0.109701
-0.0858508
-0.0653482
-0.0486512
-0.0355398
-0.0255475
-0.0182514
-0.0140395
-0.0133998
-0.014863
-0.0163928
-0.016915
-0.018749
-0.0249489
-0.0358492
-0.0520127
-0.0775824
-0.106317
-0.12564
-0.124578
-0.103284
-0.075819
-0.0499927
-0.0335247
-0.0215763
-0.0134784
-0.0088665
-0.00471201
-0.00881983
-0.0142711
-0.0309546
-0.0383394
-0.0431625
-0.0423736
-0.0161019
-0.230742
-0.204884
-0.179388
-0.151504
-0.122017
-0.0926544
-0.0640224
-0.0366896
-0.0117036
0.0100038
0.0230148
0.0302675
0.0325307
0.0282081
0.0168342
-0.00146385
-0.026134
-0.0555302
-0.0870446
-0.117308
-0.142794
-0.155651
-0.156249
-0.144846
-0.126068
-0.104468
-0.0832337
-0.0640653
-0.0477535
-0.034423
-0.0239053
-0.0157914
-0.0102433
-0.00795831
-0.008366
-0.00966031
-0.0112979
-0.0126913
-0.0189208
-0.029674
-0.0456706
-0.0716074
-0.101115
-0.121375
-0.122012
-0.102002
-0.0752253
-0.0491807
-0.0322438
-0.0198248
-0.0114652
-0.00689018
-0.00191886
-0.00595737
-0.0118655
-0.0308004
-0.0393535
-0.0441092
-0.043522
-0.0166151
-0.227488
-0.208409
-0.187593
-0.162758
-0.136578
-0.110595
-0.0848635
-0.0595809
-0.035687
-0.015314
0.00418038
0.0167602
0.0223998
0.0221573
0.0154409
0.00190539
-0.0177985
-0.0422665
-0.0691135
-0.095428
-0.115249
-0.13108
-0.134153
-0.127324
-0.113498
-0.0959916
-0.0776186
-0.0602141
-0.0448248
-0.0317797
-0.0212103
-0.0128017
-0.00646398
-0.00286952
-0.00230766
-0.00348734
-0.00727888
-0.00730867
-0.0134812
-0.0238704
-0.0392975
-0.0648486
-0.094293
-0.11546
-0.116993
-0.0990089
-0.0731855
-0.0473449
-0.0304448
-0.0177644
-0.00930783
-0.00480258
0.000666081
-0.00327235
-0.00951139
-0.030525
-0.0401736
-0.0447353
-0.0443488
-0.0169749
-0.210432
-0.203035
-0.183043
-0.158727
-0.134463
-0.11062
-0.0868047
-0.063275
-0.0407905
-0.0212773
-0.00375415
0.00833107
0.0152547
0.0168256
0.0122053
0.00102873
-0.0162647
-0.0382596
-0.0626969
-0.0865169
-0.106066
-0.117983
-0.120227
-0.11384
-0.101393
-0.0857422
-0.0692526
-0.0534747
-0.0393277
-0.0270944
-0.0169696
-0.00872982
-0.00223094
0.0020663
0.00361758
0.00336492
0.00569984
-0.000366064
-0.0061061
-0.0156366
-0.0306433
-0.0571037
-0.0887
-0.112142
-0.116115
-0.0963547
-0.0702668
-0.0444518
-0.0280075
-0.0155063
-0.00718506
-0.00234359
0.00509615
-0.000150678
-0.00675042
-0.0300105
-0.0410563
-0.0451463
-0.0449733
-0.0171952
-0.194874
-0.190293
-0.171875
-0.149183
-0.127236
-0.106268
-0.0855031
-0.0649044
-0.0449308
-0.0276175
-0.0124646
-0.0010924
0.00590353
0.00798291
0.0046013
-0.00447387
-0.0188513
-0.0372618
-0.0576724
-0.0773302
-0.092912
-0.102271
-0.103799
-0.098364
-0.0879952
-0.0748439
-0.0607316
-0.0469224
-0.0342402
-0.0229822
-0.0134503
-0.00553784
0.00094185
0.00559202
0.00763797
0.00762678
0.00825147
0.00410989
-0.000873779
-0.00944563
-0.023648
-0.0503052
-0.0830093
-0.106873
-0.110199
-0.0912901
-0.0660962
-0.0412437
-0.0254498
-0.0132395
-0.00521848
-0.000298619
0.00675663
0.0022006
-0.00454107
-0.0295249
-0.0418346
-0.0451945
-0.0450912
-0.0172525
-0.180116
-0.176247
-0.160514
-0.140468
-0.121022
-0.102729
-0.0847913
-0.0670357
-0.0501752
-0.0341849
-0.0206653
-0.010321
-0.00377536
-0.00145873
-0.0037279
-0.0106975
-0.0219641
-0.0364195
-0.052353
-0.067635
-0.0798719
-0.0871742
-0.0885237
-0.0844146
-0.0761451
-0.0652554
-0.0531941
-0.0410505
-0.0296238
-0.0192361
-0.0102296
-0.00262345
0.00373146
0.00855092
0.0109933
0.0112086
0.0112523
0.00798292
0.00336396
-0.00475399
-0.0184974
-0.0446609
-0.0765245
-0.0994694
-0.102848
-0.0851855
-0.0614113
-0.0378052
-0.0227521
-0.0109623
-0.00325097
0.00162625
0.00814631
0.00416349
-0.00278658
-0.0290846
-0.0424165
-0.0448569
-0.0447387
-0.0171927
-0.164614
-0.162453
-0.149685
-0.132422
-0.115344
-0.0993742
-0.0838737
-0.0685312
-0.0536522
-0.0398112
-0.0279175
-0.0186419
-0.0124842
-0.00980159
-0.010866
-0.0157234
-0.0240129
-0.0348694
-0.0469987
-0.0587156
-0.0682412
-0.0740438
-0.075305
-0.0721678
-0.065491
-0.0564215
-0.0461152
-0.0354744
-0.0252329
-0.0157123
-0.007258
9.35694e-06
0.00616309
0.0110327
0.0138307
0.0143886
0.0142843
0.0116986
0.00753193
-0.000241095
-0.0134672
-0.0383431
-0.0686772
-0.0908567
-0.094467
-0.0781561
-0.0560845
-0.0340604
-0.0199227
-0.00866296
-0.00127469
0.00345424
0.00993533
0.00597884
-0.0011359
-0.0284577
-0.0426954
-0.044147
-0.0439082
-0.0169873
-0.149815
-0.149473
-0.139215
-0.124462
-0.109598
-0.0957356
-0.0824035
-0.0691991
-0.0563854
-0.0444292
-0.034004
-0.0256629
-0.0198201
-0.0167886
-0.0167784
-0.019808
-0.0255961
-0.0334932
-0.0424907
-0.0512949
-0.0584935
-0.0629506
-0.0639372
-0.0614373
-0.0560066
-0.048451
-0.0396562
-0.0303452
-0.0211781
-0.0124802
-0.00458087
0.00234013
0.00825883
0.0130786
0.0161404
0.0170615
0.0171058
0.0152557
0.0117495
0.00460438
-0.0076253
-0.0308062
-0.0597583
-0.0811639
-0.0849383
-0.0701996
-0.0501812
-0.0300624
-0.0169952
-0.00636354
0.000698863
0.00518623
0.0115377
0.00768904
0.000576408
-0.0274982
-0.0425815
-0.0430208
-0.0425306
-0.0165961
-0.137304
-0.137282
-0.128912
-0.116464
-0.103725
-0.0918326
-0.0804671
-0.0692455
-0.0582683
-0.0479526
-0.0388222
-0.0313313
-0.0258297
-0.0225763
-0.0217307
-0.0233001
-0.0270665
-0.0325281
-0.0389001
-0.0452418
-0.050472
-0.0537
-0.0543259
-0.0522327
-0.0477357
-0.0413768
-0.033831
-0.0256712
-0.0174703
-0.00954695
-0.0022068
0.00435475
0.0100272
0.0147227
0.0179503
0.0192324
0.0196623
0.0186165
0.0159554
0.00976682
-0.00115169
-0.0225411
-0.049988
-0.070423
-0.0744089
-0.0614974
-0.0438151
-0.0258604
-0.0140001
-0.004087
0.00265313
0.00683229
0.0129185
0.00927276
0.00233923
-0.02612
-0.0419284
-0.0413955
-0.0405489
-0.0159849
-0.124519
-0.125317
-0.118802
-0.1085
-0.0977376
-0.0876511
-0.0780405
-0.0685583
-0.0592262
-0.0503699
-0.0424106
-0.0357236
-0.030597
-0.0272374
-0.0257665
-0.026186
-0.0283299
-0.0318169
-0.0360455
-0.0403742
-0.0439617
-0.0461104
-0.0463233
-0.0444296
-0.0405902
-0.0351589
-0.0286392
-0.0214731
-0.0141373
-0.00693251
-0.00014439
0.00604201
0.0114706
0.0160097
0.0193255
0.0209336
0.0218652
0.0216987
0.0200376
0.0150047
0.00547935
-0.0139564
-0.0396103
-0.0589413
-0.0631892
-0.0522918
-0.0371375
-0.021524
-0.0109739
-0.00185594
0.0045716
0.00841476
0.0140789
0.0107052
0.00411881
-0.0241943
-0.0405419
-0.0392013
-0.037938
-0.0151257
-0.112473
-0.113998
-0.10909
-0.100663
-0.0916614
-0.0831822
-0.0751197
-0.0671662
-0.059293
-0.051739
-0.0448402
-0.0389035
-0.034164
-0.0307875
-0.0288694
-0.0284112
-0.0292898
-0.0312283
-0.0338256
-0.0364958
-0.0387161
-0.0399174
-0.0396927
-0.0378569
-0.0344734
-0.0297579
-0.0240737
-0.0177555
-0.011189
-0.00464439
0.00161058
0.00740791
0.0125909
0.016972
0.0203251
0.0222067
0.0236374
0.0243556
0.0238267
0.0201201
0.0120379
-0.00537614
-0.029115
-0.0471686
-0.0516601
-0.0428849
-0.0303403
-0.0171381
-0.00795358
0.000311215
0.00643841
0.00996256
0.0150431
0.0119951
0.00593892
-0.021556
-0.0382159
-0.0363899
-0.0347112
-0.014003
-0.101441
-0.103406
-0.0997651
-0.0929416
-0.0854945
-0.078443
-0.0717436
-0.0651277
-0.0585343
-0.0521324
-0.0461856
-0.0409431
-0.0365975
-0.0332834
-0.031077
-0.0299838
-0.029911
-0.0306492
-0.0319441
-0.03335
-0.0344618
-0.0348576
-0.0342159
-0.032357
-0.0292835
-0.0251154
-0.0201075
-0.0145084
-0.00862325
-0.00268318
0.00306663
0.00847018
0.0133944
0.0176221
0.0209872
0.0231025
0.0249299
0.0264262
0.0270781
0.0248377
0.0181809
0.00265975
-0.0190696
-0.0355628
-0.0402342
-0.033611
-0.0236407
-0.0128
-0.00497668
0.00240084
0.00823878
0.0115064
0.0158755
0.0132009
0.00786047
-0.0180672
-0.0347706
-0.0329378
-0.0309332
-0.0126228
-0.0913099
-0.0934444
-0.0908162
-0.0853708
-0.0792847
-0.0734838
-0.0679706
-0.0625136
-0.0570332
-0.0516432
-0.0465479
-0.0419481
-0.0380014
-0.034817
-0.0324571
-0.0309296
-0.0301695
-0.0300474
-0.0303218
-0.0307366
-0.0309709
-0.0307084
-0.029697
-0.0277742
-0.0249099
-0.0211619
-0.0167028
-0.0117127
-0.00642814
-0.00104028
0.00423556
0.00925149
0.0139001
0.0179684
0.0213286
0.0236501
0.0257784
0.027841
0.0294807
0.0285663
0.023182
0.00953043
-0.00986001
-0.0245164
-0.0293444
-0.0248143
-0.0172605
-0.00861447
-0.00208387
0.00440318
0.00995902
0.0130726
0.0166795
0.0144183
0.00993824
-0.0136746
-0.0301121
-0.0288684
-0.0267297
-0.0110184
-0.08182
-0.0840813
-0.0822971
-0.0780156
-0.0730933
-0.0683678
-0.0638733
-0.0594115
-0.0548914
-0.050385
-0.0460478
-0.0420403
-0.0384902
-0.0354866
-0.0330817
-0.0312855
-0.0300421
-0.0292761
-0.0288272
-0.0284982
-0.0280599
-0.0272783
-0.0259585
-0.0239619
-0.0212439
-0.0178236
-0.0138132
-0.00933987
-0.00458366
0.000300987
0.00513362
0.0097748
0.0141369
0.01803
0.0213553
0.0238435
0.0261787
0.028559
0.0307738
0.030739
0.026422
0.0148489
-0.00173501
-0.0144452
-0.0194342
-0.0168113
-0.0113979
-0.0046833
0.000678098
0.00630722
0.0115829
0.014668
0.0175741
0.015753
0.0121976
-0.00846283
-0.0243122
-0.0242756
-0.022283
-0.00925478
-0.0730122
-0.0753636
-0.0742461
-0.0709189
-0.0669733
-0.0631599
-0.0595315
-0.0559164
-0.0522187
-0.048478
-0.044811
-0.0413446
-0.0381816
-0.0353948
-0.0330301
-0.0311166
-0.0295456
-0.0283415
-0.0273789
-0.0265122
-0.0255781
-0.0244055
-0.0228468
-0.0207883
-0.0181819
-0.0150245
-0.0113864
-0.00735429
-0.00306345
0.00136381
0.00578195
0.0100635
0.014134
0.0178328
0.0210835
0.0236763
0.0261208
0.0285925
0.0309262
0.0312944
0.0278684
0.0185193
0.00498013
-0.00582892
-0.0108855
-0.00983214
-0.00619326
-0.00109117
0.00325946
0.00809357
0.0130844
0.0162577
0.0186492
0.0172902
0.0146183
-0.00269944
-0.0176869
-0.0193392
-0.0178097
-0.00742419
-0.0649499
-0.0672755
-0.0666519
-0.0641002
-0.0609703
-0.0579246
-0.055025
-0.0521239
-0.0491245
-0.0460429
-0.0429646
-0.0399888
-0.0371967
-0.034644
-0.0323624
-0.0303493
-0.028678
-0.0272195
-0.0259198
-0.0246868
-0.0234073
-0.0219588
-0.0202317
-0.018136
-0.0156265
-0.0126893
-0.00936648
-0.00571541
-0.00183627
0.00217634
0.00620579
0.010143
0.0139205
0.0174062
0.0205377
0.0231617
0.0256149
0.0280071
0.0301555
0.0306214
0.027912
0.02063
0.0099873
0.000992011
-0.00390669
-0.00397814
-0.00171202
0.00210301
0.00561554
0.00973576
0.0144219
0.0177502
0.0198996
0.0190506
0.0171207
0.00316942
-0.0108054
-0.0143289
-0.0135286
-0.00563359
-0.0575284
-0.0597583
-0.0595068
-0.0575859
-0.0551322
-0.0527255
-0.0504327
-0.0481278
-0.0457166
-0.0431983
-0.040634
-0.0381001
-0.0356613
-0.0333629
-0.0312354
-0.0292861
-0.0275283
-0.0259214
-0.0244191
-0.0229569
-0.0214567
-0.0198322
-0.0180036
-0.0159018
-0.0134885
-0.0107453
-0.00769675
-0.00437953
-0.00086714
0.00276876
0.00643445
0.0100425
0.0135263
0.0167811
0.0197567
0.0223334
0.0247062
0.0269081
0.0287441
0.0291647
0.0270115
0.0214483
0.0133089
0.00601464
0.00152325
0.000770559
0.00204876
0.00486766
0.00770979
0.0112075
0.0155473
0.0190129
0.0211768
0.0209101
0.0195309
0.00859932
-0.00435821
-0.0095566
-0.00962516
-0.00398433
-0.0506711
-0.0527921
-0.0528213
-0.0514051
-0.0495028
-0.047621
-0.045828
-0.0440163
-0.0420966
-0.0400561
-0.037937
-0.035798
-0.0336896
-0.0316487
-0.0296965
-0.0278523
-0.0261096
-0.0244545
-0.0228576
-0.0212759
-0.0196569
-0.0179408
-0.0160714
-0.0139972
-0.0116875
-0.00912424
-0.00632146
-0.00330169
-0.000119296
0.00317303
0.00649994
0.00979169
0.0129846
0.0159966
0.0187824
0.0212432
0.0234698
0.025432
0.0269433
0.0272738
0.0255684
0.0213708
0.0152613
0.00950209
0.00559077
0.00451356
0.00513253
0.00719581
0.00951239
0.012483
0.0164196
0.0199219
0.0222217
0.0225439
0.0215172
0.0130668
0.00110906
-0.0052809
-0.00622399
-0.00255345
-0.0443797
-0.0463678
-0.0465924
-0.0455717
-0.0441141
-0.0426597
-0.0412747
-0.0398677
-0.0383553
-0.0367173
-0.0349815
-0.0331923
-0.0313895
-0.0296017
-0.0278459
-0.026134
-0.0244668
-0.0228378
-0.021229
-0.0196134
-0.0179567
-0.0162189
-0.0143614
-0.012347
-0.0101531
-0.0077636
-0.00518732
-0.00243745
0.000445082
0.0034223
0.00643282
0.00942208
0.0123304
0.0150936
0.0176641
0.0199609
0.0220025
0.0237222
0.0249537
0.0252068
0.0238828
0.0207539
0.016236
0.0117962
0.00854134
0.00738052
0.00759905
0.00909787
0.0110033
0.013533
0.0170069
0.0203974
0.0227949
0.0235519
0.02267
0.016185
0.00535322
-0.0016552
-0.00338635
-0.00138491
-0.0386219
-0.0404517
-0.040804
-0.0400913
-0.038991
-0.0378822
-0.0368276
-0.0357498
-0.0345724
-0.0332709
-0.0318626
-0.0303804
-0.0288548
-0.0273079
-0.025753
-0.0241981
-0.0226465
-0.021096
-0.0195366
-0.0179518
-0.0163205
-0.0146166
-0.0128148
-0.0108893
-0.00882438
-0.00660745
-0.00424479
-0.00174411
0.000862956
0.00354936
0.00626411
0.00896621
0.0115992
0.0141117
0.0164553
0.018561
0.0204043
0.0219044
0.0229208
0.0231325
0.0221423
0.0198461
0.0165538
0.0132087
0.0106041
0.00950707
0.00951095
0.010596
0.012171
0.014328
0.0172952
0.0204155
0.0226943
0.0236547
0.0227711
0.0178336
0.00836486
0.00124855
-0.00112727
-0.000487963
-0.0333448
-0.035011
-0.0354437
-0.0349692
-0.0341533
-0.0333215
-0.0325319
-0.0317195
-0.0308155
-0.0297934
-0.0286626
-0.0274469
-0.0261696
-0.0248485
-0.0234925
-0.0221067
-0.0206948
-0.0192579
-0.0177907
-0.0162839
-0.0147247
-0.0130974
-0.011386
-0.00957361
-0.00765036
-0.00560703
-0.00344934
-0.00118196
0.00116964
0.00358622
0.0060252
0.00845515
0.0108245
0.013093
0.0152091
0.0171142
0.0187623
0.0200765
0.0209403
0.0211476
0.0204501
0.0188039
0.0164485
0.0139809
0.0119732
0.011019
0.0109309
0.011721
0.013017
0.0148493
0.0173007
0.0200305
0.0219655
0.0229179
0.0219708
0.0181915
0.0102452
0.00341916
0.000570226
0.000158129
-0.0285191
-0.0300231
-0.030499
-0.0302051
-0.0296134
-0.0290017
-0.0284231
-0.027823
-0.0271403
-0.0263483
-0.0254509
-0.0244652
-0.0234085
-0.0222941
-0.0211286
-0.0199147
-0.0186556
-0.0173535
-0.0160066
-0.0146098
-0.013156
-0.0116361
-0.0100413
-0.00836071
-0.00658935
-0.00472115
-0.00276204
-0.000715231
0.00139806
0.00356356
0.00574545
0.00791949
0.0100397
0.0120735
0.0139693
0.0156791
0.0171473
0.0183097
0.0190716
0.0193021
0.018858
0.0177187
0.0160728
0.0142975
0.0128065
0.01203
0.0119225
0.0125068
0.0135596
0.0150974
0.0170622
0.0193303
0.0208627
0.0216318
0.0206142
0.0176191
0.0111665
0.00490871
0.00170768
0.000596037
-0.0241175
-0.0254613
-0.0259521
-0.0257933
-0.0253773
-0.0249394
-0.0245275
-0.024096
-0.0235914
-0.0229878
-0.0222856
-0.0214965
-0.020633
-0.0197049
-0.0187175
-0.017672
-0.0165696
-0.015413
-0.0142024
-0.0129354
-0.0116086
-0.010217
-0.0087564
-0.00722079
-0.00560844
-0.00391604
-0.00214977
-0.000312721
0.00157721
0.00350903
0.00545206
0.00738727
0.00927404
0.0110857
0.012774
0.0143015
0.0156104
0.0166504
0.0173472
0.0176178
0.0173865
0.0166398
0.0155319
0.0142939
0.0132311
0.0126366
0.0125477
0.0129907
0.0138292
0.0150931
0.0166201
0.0184124
0.0195552
0.020075
0.0190067
0.0165028
0.0113629
0.00583216
0.00256668
0.000885757
-0.020108
-0.0212984
-0.0217845
-0.0217258
-0.0214465
-0.0211452
-0.0208641
-0.0205654
-0.020203
-0.0197527
-0.0192123
-0.0185901
-0.0178946
-0.0171323
-0.0163075
-0.0154216
-0.0144736
-0.013465
-0.0123974
-0.0112705
-0.0100826
-0.00883138
-0.00751563
-0.00613255
-0.00468271
-0.00316494
-0.0015857
5.18432e-05
0.00173223
0.00344628
0.00516817
0.00688255
0.00855327
0.0101586
0.0116562
0.0130152
0.0141844
0.0151267
0.0157829
0.0160981
0.0160394
0.0155969
0.0148946
0.0140665
0.0133444
0.0129203
0.0128661
0.0132107
0.0138632
0.0148721
0.0160199
0.017368
0.0181551
0.0184265
0.0173402
0.0151473
0.0110712
0.00630855
0.00311632
0.00106126
-0.0164632
-0.01751
-0.0179781
-0.0179921
-0.0178185
-0.0176237
-0.0174445
-0.01725
-0.0170004
-0.016674
-0.016267
-0.015785
-0.0152339
-0.0146177
-0.0139398
-0.0132016
-0.0124004
-0.0115364
-0.0106115
-0.00962699
-0.00858229
-0.00747649
-0.00630989
-0.00508183
-0.00379438
-0.00244786
-0.00104875
0.000399475
0.00188341
0.0033952
0.00491284
0.00642362
0.00789683
0.009314
0.0106372
0.0118434
0.0128906
0.0137535
0.0143809
0.0147376
0.0148155
0.0146036
0.0142018
0.0136855
0.0132286
0.0129508
0.0129328
0.0132058
0.0137009
0.0144789
0.0153075
0.0162656
0.0167409
0.0167913
0.0157205
0.013745
0.0104849
0.00644834
0.00340934
0.00115042
-0.0131586
-0.0140724
-0.0145139
-0.0145795
-0.0144872
-0.0143751
-0.0142749
-0.0141613
-0.0140008
-0.013774
-0.0134765
-0.0131118
-0.0126842
-0.0121957
-0.0116482
-0.0110423
-0.010377
-0.00965037
-0.00886348
-0.00801813
-0.00711496
-0.00615377
-0.00513545
-0.00406056
-0.00293191
-0.00175092
-0.000523781
0.000745911
0.00204633
0.00337063
0.0047003
0.00602429
0.00731721
0.00856418
0.00973195
0.010803
0.0117505
0.0125347
0.0131369
0.0135266
0.0137071
0.0136667
0.0134851
0.0132013
0.0129428
0.0127844
0.0127978
0.013016
0.0133803
0.0139557
0.0145196
0.0151521
0.0153686
0.0152319
0.0142006
0.0124009
0.00974341
0.00634658
0.00350986
0.00117733
-0.0101703
-0.0109629
-0.0113729
-0.0114745
-0.0114443
-0.011396
-0.0113567
-0.0113057
-0.0112151
-0.011068
-0.0108599
-0.0105928
-0.0102694
-0.00989098
-0.00945686
-0.00896817
-0.0084259
-0.00782706
-0.00717036
-0.00645734
-0.00568964
-0.00486773
-0.00399266
-0.00306543
-0.00208911
-0.00106572
-9.50426e-07
0.00110147
0.00223144
0.00338278
0.00453985
0.00569365
0.00682267
0.00791466
0.00894382
0.00989321
0.0107379
0.0114594
0.0120392
0.0124519
0.0127051
0.0127896
0.0127653
0.0126499
0.0125351
0.012469
0.0125062
0.0126798
0.0129365
0.0133385
0.0136881
0.0140585
0.0140722
0.0137835
0.0128024
0.0111624
0.00894146
0.00608115
0.00347234
0.00115964
-0.0074771
-0.00816059
-0.00853706
-0.00866284
-0.00867983
-0.00868064
-0.00868788
-0.00868503
-0.00864893
-0.00856525
-0.00842969
-0.00824304
-0.00800692
-0.00772206
-0.00738746
-0.00700282
-0.00656834
-0.00608413
-0.00554723
-0.00495742
-0.00431634
-0.00362514
-0.00288506
-0.00209716
-0.00126429
-0.000388662
0.000524553
0.00147181
0.00244452
0.00343712
0.00443674
0.00543559