/*--------------------------------*- C++ -*----------------------------------*\
| =========                 |                                                 |
| \\      /  F ield         | OpenFOAM: The Open Source CFD Toolbox           |
|  \\    /   O peration     | Version:  2512                                  |
|   \\  /    A nd           | Website:  www.openfoam.com                      |
|    \\/     M anipulation  |                                                 |
\*---------------------------------------------------------------------------*/
FoamFile
{
    version     2.0;
    format      ascii;
    arch        "LSB;label=32;scalar=64";
    class       surfaceScalarField;
    location    "177";
    object      phi;
}
// * * * * * * * * * * * * * * * * * * * * * * * * * * * * * * * * * * * * * //

dimensions      [0 3 -1 0 0 0 0];

oriented        oriented;

internalField   nonuniform List<scalar> 
26232
(
0.000174937
0.000943575
-0.00111851
0.000883222
0.00153404
-0.00224233
0.00227961
0.000935049
-0.00233144
0.00450694
-0.000825886
-0.00140145
0.00770824
-0.00372979
0.000528487
0.0120225
-0.00775628
0.00344197
0.0175661
-0.01287
0.00732637
0.0244111
-0.0190026
0.0121576
0.0325555
-0.0260375
0.0178932
0.0419007
-0.0338008
0.0244556
0.0522421
-0.042063
0.0317216
0.063277
-0.050554
0.0395191
0.0746307
-0.0589871
0.0476334
0.0858972
-0.0670876
0.0558212
0.0966863
-0.074621
0.0638319
0.10667
-0.0814154
0.0714317
0.115619
-0.0873746
0.0784253
0.123424
-0.0924798
0.0846753
0.130094
-0.0967795
0.090109
0.135739
-0.100376
0.0947313
0.140533
-0.103376
0.098583
0.144641
-0.105956
0.101848
0.14802
-0.107953
0.104574
-0.110069
0.107392
0.150697
0.00020287
0.000740705
0.00104626
0.000690657
0.00273187
-0.000750564
0.00544084
-0.00353486
0.00933833
-0.00762728
0.0145574
-0.0129754
0.0211705
-0.0194831
0.0291581
-0.0269901
0.038384
-0.0352634
0.0485895
-0.0440063
0.0594109
-0.0528843
0.0704187
-0.0615618
0.0811718
-0.0697402
0.0912745
-0.0771903
0.100425
-0.0837718
0.108449
-0.0894391
0.115306
-0.0942314
0.121078
-0.098252
0.12594
-0.101642
0.130114
-0.10455
0.133849
-0.107112
0.137347
-0.109454
0.140975
-0.11158
-0.113922
0.144828
0.000264703
0.000476003
0.00132076
-0.000365399
0.00340307
-0.00283288
0.00671437
-0.00684615
0.0114145
-0.0123274
0.0175888
-0.0191497
0.025211
-0.0271053
0.0341158
-0.0358949
0.0439965
-0.0451441
0.0544331
-0.0544429
0.0649477
-0.063399
0.0750733
-0.0716874
0.0844198
-0.0790867
0.0927227
-0.0854932
0.0998662
-0.0909153
0.105877
-0.0954501
0.110896
-0.0992502
0.115133
-0.102489
0.118822
-0.105331
0.122186
-0.107914
0.125412
-0.110338
0.128642
-0.112684
0.132002
-0.114939
-0.117373
0.135453
0.000359102
0.000116901
0.00170044
-0.00170673
0.00427152
-0.00540396
0.00826826
-0.0108429
0.0138034
-0.0178625
0.0208617
-0.026208
0.0292659
-0.0355095
0.0386745
-0.0453035
0.0486203
-0.0550899
0.0585824
-0.064405
0.0680714
-0.072888
0.0767038
-0.0803198
0.084249
-0.0866319
0.0906407
-0.0918849
0.0959552
-0.0962298
0.100368
-0.0998626
0.104101
-0.102983
0.107378
-0.105766
0.110396
-0.108348
0.113307
-0.110825
0.116228
-0.113259
0.119237
-0.115694
0.12242
-0.118122
-0.120734
0.125781
0.000480029
-0.000363128
0.0021623
-0.003389
0.00527993
-0.00852159
0.00998349
-0.0155465
0.0162883
-0.0241674
0.0240278
-0.0339475
0.0328442
-0.0443258
0.042233
-0.0546923
0.051632
-0.0644889
0.0605242
-0.0732973
0.0685234
-0.0808871
0.0754193
-0.0872157
0.0811787
-0.0923913
0.0859097
-0.0966158
0.0898063
-0.100126
0.0930929
-0.103149
0.0959805
-0.105871
0.0986433
-0.108429
0.101212
-0.110917
0.103778
-0.113392
0.106407
-0.115887
0.109137
-0.118424
0.112014
-0.120999
-0.123718
0.114997
0.00062014
-0.000983269
0.00267594
-0.00544481
0.00635313
-0.0121988
0.0117115
-0.0209048
0.0186195
-0.0310754
0.026727
-0.042055
0.0355059
-0.0531048
0.0443524
-0.0635388
0.0527111
-0.0728475
0.0601756
-0.0807618
0.0665371
-0.0872486
0.0717775
-0.0924562
0.076022
-0.0966358
0.0794746
-0.100068
0.0823588
-0.103011
0.084876
-0.105666
0.087186
-0.108181
0.0894042
-0.110647
0.0916094
-0.113122
0.0938539
-0.115636
0.096173
-0.118206
0.0985901
-0.120841
0.101132
-0.12354
-0.126361
0.103775
0.00077188
-0.00175515
0.00320799
-0.00788092
0.00740836
-0.0163991
0.0132957
-0.0267921
0.0205556
-0.0383353
0.0286567
-0.050156
0.0369556
-0.0614037
0.0448447
-0.0714279
0.0518746
-0.0798774
0.0578139
-0.0867011
0.0626399
-0.0920746
0.0664816
-0.0962979
0.0695477
-0.0997019
0.0720617
-0.102582
0.0742204
-0.105169
0.0761754
-0.107621
0.0780335
-0.110039
0.0798648
-0.112479
0.0817147
-0.114972
0.0836125
-0.117534
0.0855782
-0.120172
0.087625
-0.122888
0.0897674
-0.125683
-0.128577
0.0919842
0.000927312
-0.00268246
0.0037231
-0.0106767
0.00836107
-0.0210371
0.0145885
-0.0330196
0.0218991
-0.045646
0.0296215
-0.0578784
0.0370833
-0.0688655
0.0437659
-0.0781105
0.0493864
-0.085498
0.0538943
-0.091209
0.0574095
-0.0955897
0.0601405
-0.0990289
0.0623131
-0.101875
0.0641247
-0.104394
0.0657256
-0.10677
0.0672187
-0.109115
0.0686704
-0.11149
0.0701218
-0.11393
0.0715989
-0.116449
0.0731195
-0.119055
0.074696
-0.121748
0.0763381
-0.12453
0.078055
-0.1274
-0.130357
0.079835
0.0010775
-0.00375996
0.00418438
-0.0137836
0.00913081
-0.0259836
0.0154684
-0.0393571
0.0225226
-0.0527002
0.0295543
-0.0649101
0.0359501
-0.0752612
0.0413419
-0.0835022
0.0456228
-0.089779
0.0488863
-0.0944725
0.0513347
-0.0980381
0.0531974
-0.100892
0.0546778
-0.103355
0.05593
-0.105646
0.0570587
-0.107899
0.0581294
-0.110185
0.0591816
-0.112543
0.0602396
-0.114988
0.0613191
-0.117529
0.0624314
-0.120167
0.0635852
-0.122902
0.0647873
-0.125732
0.066043
-0.128655
-0.131661
0.0673464
0.00121232
-0.00497228
0.00455547
-0.0171267
0.00964923
-0.0310773
0.015854
-0.0455619
0.0223807
-0.0592269
0.0285037
-0.0710331
0.0337335
-0.0804911
0.0378714
-0.0876401
0.0409595
-0.092867
0.0431826
-0.0966956
0.0447724
-0.099628
0.0459421
-0.102061
0.0468557
-0.104268
0.0476243
-0.106415
0.0483165
-0.108591
0.0489724
-0.110841
0.0496154
-0.113186
0.0502606
-0.115633
0.0509182
-0.118186
0.0515963
-0.120845
0.0523011
-0.123607
0.053038
-0.126469
0.0538103
-0.129428
-0.132469
0.0546184
0.00132181
-0.00629409
0.00480553
-0.0206104
0.00986944
-0.0361412
0.0157133
-0.0514058
0.0215035
-0.065017
0.0265976
-0.0761273
0.030662
-0.0845554
0.0336521
-0.0906303
0.0357151
-0.09493
0.0370781
-0.0980587
0.037966
-0.100516
0.0385577
-0.102653
0.0389761
-0.104687
0.0392967
-0.106736
0.039563
-0.108857
0.0397991
-0.111077
0.0400195
-0.113406
0.040234
-0.115848
0.0404501
-0.118402
0.0406738
-0.121069
0.0409095
-0.123843
0.0411609
-0.126721
0.0414292
-0.129696
-0.132756
0.0417168
0.00140033
-0.00769442
0.00491626
-0.0241264
0.00977282
-0.0409978
0.0150623
-0.0566953
0.0199782
-0.0699329
0.0240077
-0.0801568
0.0269726
-0.0875203
0.0289485
-0.0926062
0.0301423
-0.0961238
0.0307873
-0.0987037
0.0310811
-0.10081
0.0311641
-0.102736
0.0311238
-0.104646
0.0310098
-0.106622
0.0308488
-0.108696
0.0306558
-0.110884
0.0304399
-0.11319
0.0302083
-0.115616
0.0299666
-0.118161
0.0297196
-0.120822
0.0294715
-0.123595
0.029225
-0.126474
0.0289803
-0.129451
0.0287416
-0.132518
-0.00030398
0.00202269
-0.00171871
-0.0010543
0.00435291
-0.00360259
-0.00215397
0.00552071
-0.00442105
-0.00353202
0.00585778
-0.00447973
-0.00513555
0.00562732
-0.00402379
-0.00692538
0.00502222
-0.0032324
-0.00887189
0.00416411
-0.0022176
-0.010952
0.00311115
-0.00103103
-0.0131441
0.00187287
0.000319186
-0.0154277
0.00042662
0.00185705
-0.0177853
-0.00126113
0.00361865
-0.0201939
-0.00323485
0.00564348
-0.0226281
-0.00553182
0.00796606
-0.0250576
-0.00818267
0.0106121
-0.0274462
-0.0112071
0.0135957
-0.0297513
-0.0146113
0.0169164
-0.0319236
-0.0183841
0.0205564
-0.0339074
-0.0224937
0.0244776
-0.0356418
-0.0268835
0.0286179
-0.0370629
-0.0314694
0.0328905
-0.0381071
-0.0361399
0.037184
-0.0387137
-0.0407584
0.0413651
-0.038839
-0.0451575
0.0452828
-0.0491353
-0.0384958
0.0487921
-0.000251789
0.00227448
-0.000900948
0.00500207
-0.00187947
0.00649923
-0.00312975
0.00710806
-0.00460228
0.00709985
-0.006256
0.00667595
-0.00805784
0.00596594
-0.00998143
0.00503474
-0.0120057
0.00389709
-0.0141135
0.00253445
-0.0162831
0.000908511
-0.0185051
-0.00101292
-0.0207595
-0.00327742
-0.0230252
-0.00591696
-0.0252781
-0.00895418
-0.027491
-0.0123984
-0.029633
-0.016242
-0.0316708
-0.020456
-0.0335681
-0.0249861
-0.0352884
-0.0297491
-0.036798
-0.0346303
-0.0380685
-0.0394879
-0.039074
-0.0441521
-0.0483809
-0.0398283
-0.000173084
0.00244756
-0.000658619
0.00548761
-0.00142546
0.00726607
-0.00243347
0.00811607
-0.00363827
0.00830465
-0.00499662
0.0080343
-0.00646983
0.00743914
-0.00802512
0.00659004
-0.00963569
0.00550766
-0.0112797
0.00417845
-0.0129404
0.00256922
-0.014589
0.000635665
-0.0162216
-0.00164482
-0.0178138
-0.00432478
-0.0193465
-0.00742145
-0.0208005
-0.0109444
-0.0221573
-0.0148852
-0.0233999
-0.0192134
-0.0245137
-0.0238723
-0.025487
-0.0287757
-0.0263141
-0.0338032
-0.0270013
-0.0388007
-0.0275531
-0.0436003
-0.0480166
-0.0279174
-7.69735e-05
0.00252454
-0.000352519
0.00576315
-0.000835611
0.00774916
-0.00150635
0.00878681
-0.00232745
0.00912576
-0.00325424
0.00896109
-0.00424157
0.00842647
-0.00524793
0.0075964
-0.00623703
0.00649677
-0.00717767
0.00511909
-0.00804273
0.00343429
-0.0088071
0.00140003
-0.00944296
-0.00100896
-0.00992849
-0.00383925
-0.0102401
-0.00710984
-0.0103571
-0.0108274
-0.0102627
-0.0149796
-0.00994681
-0.0195293
-0.00940851
-0.0244106
-0.0086563
-0.0295279
-0.00770619
-0.0347533
-0.00658522
-0.0399217
-0.00535441
-0.0448311
-0.0493025
-0.00406856
2.38121e-05
0.00250073
-2.00363e-05
0.005807
-0.0001777
0.00790682
-0.000449126
0.00905823
-0.000805703
0.00948233
-0.00120291
0.00935829
-0.00158992
0.00881348
-0.00191598
0.00792246
-0.0021337
0.00671449
-0.00219984
0.00518522
-0.00207461
0.00330906
-0.00172405
0.00104947
-0.00110544
-0.00162757
-0.000187255
-0.00475744
0.00106297
-0.00836006
0.00267421
-0.0124387
0.00466739
-0.0169728
0.00705144
-0.0219134
0.00982175
-0.0271809
0.0129562
-0.0326624
0.0164177
-0.0382148
0.0201653
-0.0436693
0.0241223
-0.0487882
-0.053404
0.0282239
0.000115345
0.00238538
0.000296059
0.00562629
0.000469412
0.00773347
0.000618587
0.00890906
0.000763618
0.0093373
0.00094737
0.00917454
0.00122464
0.00853621
0.00165443
0.00749267
0.00229536
0.00607356
0.00320356
0.00427702
0.00443251
0.00208011
0.00603253
-0.000550546
0.00805501
-0.00365005
0.0105453
-0.00724775
0.0135446
-0.0113594
0.0170856
-0.0159797
0.0211888
-0.021076
0.0258584
-0.0265829
0.0310774
-0.0323999
0.0368068
-0.0383919
0.0429853
-0.0443933
0.0495435
-0.0502275
0.0563833
-0.0556279
-0.0606367
0.0636159
0.000185986
0.00219939
0.00055809
0.00525418
0.00103193
0.00725963
0.00158157
0.00835942
0.00222085
0.00869802
0.00299079
0.00840461
0.00394901
0.00757799
0.00516171
0.00627997
0.00669821
0.00453705
0.00862808
0.00234716
0.0110191
-0.000310946
0.0139377
-0.00346914
0.017445
-0.00715737
0.0215953
-0.011398
0.026431
-0.0161951
0.0319774
-0.021526
0.0382367
-0.0273353
0.0451834
-0.0335297
0.052762
-0.0399785
0.0608879
-0.0465178
0.0694544
-0.0529597
0.0783399
-0.059113
0.0874381
-0.064726
-0.0699974
0.0967988
0.000228181
0.00197121
0.000739652
0.00474271
0.0014566
0.00654268
0.00235407
0.00746195
0.0034452
0.0076069
0.00477158
0.00707823
0.00639472
0.00595484
0.00838859
0.0042861
0.010834
0.00209168
0.0138141
-0.000632959
0.0174124
-0.00390922
0.0217053
-0.00776205
0.0267605
-0.0122125
0.0326281
-0.0172657
0.0393335
-0.0229004
0.0468689
-0.0290615
0.0551878
-0.0356542
0.0642019
-0.0425438
0.0737845
-0.0495611
0.0837764
-0.0565097
0.0940108
-0.0631941
0.104301
-0.0694031
0.114532
-0.0749577
-0.0800381
0.124573
0.000240469
0.00173074
0.000833179
0.00415
0.00172492
0.00565095
0.00290355
0.00628331
0.00438962
0.00612082
0.00623114
0.00523671
0.00849773
0.00368825
0.0112742
0.00150968
0.0146544
-0.00128857
0.0187354
-0.00471392
0.0236079
-0.00878176
0.0293503
-0.0135044
0.0360164
-0.0188787
0.0436249
-0.0248741
0.0521487
-0.0314242
0.0615084
-0.0384212
0.0715706
-0.0457164
0.0821536
-0.0531268
0.0930409
-0.0604484
0.103998
-0.0674668
0.114805
-0.0740008
0.125248
-0.0798462
0.135257
-0.0849671
-0.089328
0.144547
0.000228189
0.00150256
0.00085324
0.00352495
0.00186186
0.00464233
0.00326665
0.00487852
0.00510575
0.00428172
0.00744155
0.00290092
0.0103592
0.000770609
0.0139579
-0.00208905
0.0183431
-0.00567372
0.0236157
-0.00998652
0.029859
-0.0150251
0.0371235
-0.0207689
0.0454116
-0.0271668
0.0546656
-0.0341282
0.0647612
-0.0415198
0.0755089
-0.0491689
0.0866653
-0.0568727
0.0979533
-0.0644149
0.109089
-0.0715838
0.119813
-0.0781912
0.129912
-0.0840997
0.139244
-0.0891783
0.147783
-0.0935063
-0.0968639
0.155319
0.000202993
0.00129956
0.000835583
0.00289236
0.00193505
0.00354286
0.00354932
0.00326425
0.005745
0.00208604
0.00860399
4.19263e-05
0.0122378
-0.00286318
0.0167527
-0.00660398
0.0222549
-0.0111759
0.0288257
-0.0165574
0.036503
-0.0227024
0.0452624
-0.0295284
0.0550046
-0.0369089
0.0655506
-0.0446742
0.0766496
-0.0526188
0.0879967
-0.060516
0.0992621
-0.0681381
0.110125
-0.0752781
0.12031
-0.0817681
0.129621
-0.0875027
0.137951
-0.0924293
0.145346
-0.0965738
0.151846
-0.100006
-0.102537
0.157519
0.00018105
0.000831082
0.0020425
0.00390531
0.00651984
0.0100037
0.0144669
0.0200205
0.0267378
0.0346361
0.0436552
0.053646
0.0643704
0.0755173
0.0867305
0.0976462
0.107933
0.117331
0.125671
0.1329
0.139054
0.144328
0.148895
0.15375
-0.0355842
-0.0732533
0.0703417
-0.0313032
-0.0778558
0.0735747
-0.0255096
-0.0799351
0.0741415
-0.0181119
-0.0788708
0.0714731
-0.00916368
-0.0739058
0.0649577
0.00120242
-0.0645096
0.0541435
0.0127413
-0.0504043
0.0388654
0.0248911
-0.0313319
0.0191821
0.0371606
-0.00797988
-0.00428957
0.0493421
0.0189481
-0.0311297
0.0613874
0.0478419
-0.0598872
0.0730352
0.0766945
-0.0883423
0.0837191
0.102953
-0.113637
0.0927149
0.124202
-0.133198
0.0994053
0.13911
-0.1458
0.10326
0.148105
-0.151959
0.10371
0.153689
-0.154139
0.100787
0.159174
-0.156252
0.0961673
0.165051
-0.160431
0.0931124
0.165777
-0.162723
0.0946268
0.151563
-0.153077
0.101352
0.115346
-0.122072
0.111825
0.0582074
-0.0686803
0.123846
-0.0103751
-0.00164612
0.135385
-0.0768396
0.0653009
0.144677
-0.128925
0.119633
0.150643
-0.161797
0.155831
0.153388
-0.178326
0.175581
0.153796
-0.183685
0.183277
0.151983
-0.183705
0.185518
0.147023
-0.186166
0.191125
0.139055
-0.195967
0.203935
0.130885
-0.201913
0.210083
0.126435
-0.182412
0.186862
0.127608
-0.121542
0.120369
0.133559
-0.0317777
0.0258276
0.141649
0.0618907
-0.0699807
0.149652
0.134609
-0.142612
0.155602
0.179752
-0.185702
0.157435
0.208463
-0.210296
0.153896
0.231249
-0.227709
0.146437
0.255238
-0.247779
0.139098
0.246661
-0.239323
0.136021
0.1972
-0.194123
0.138237
0.0882943
-0.09051
0.144465
-0.0273765
0.0211484
0.150761
-0.125894
0.119598
0.152832
-0.194089
0.192018
0.14905
-0.227783
0.231565
0.142712
-0.274861
0.281199
0.138924
-0.237588
0.241376
0.140638
-0.193753
0.192039
0.144861
-0.0563411
0.0521179
0.147026
0.0698372
-0.0720022
0.145738
0.16673
-0.165442
0.143313
0.315778
-0.313353
0.142327
0.25237
-0.251384
0.142249
0.277226
-0.277148
0.141221
0.0864383
-0.0854101
-0.134473
0.136399
-0.0399248
-0.0731569
-0.0389247
-0.0788558
-0.0364451
-0.0824147
-0.0321738
-0.0831421
-0.0258531
-0.0802266
-0.0174443
-0.0729184
-0.00720498
-0.0606436
0.00497116
-0.043508
0.0185249
-0.0215337
0.0324622
0.00501091
0.046537
0.033767
0.0604116
0.0628199
0.0734704
0.0898942
0.0849132
0.112759
0.0939133
0.13011
0.0996983
0.14232
0.101838
0.151549
0.101
0.160013
0.09941
0.166641
0.100034
0.165153
0.104675
0.146922
0.112897
0.107125
0.123095
0.0480089
0.133516
-0.0207961
0.142706
-0.0860298
0.149442
-0.13566
0.153051
-0.165406
0.153769
-0.179044
0.152568
-0.182484
0.14973
-0.180866
0.144183
-0.18062
0.1356
-0.187384
0.126582
-0.192894
0.121467
-0.177297
0.122685
-0.12276
0.129466
-0.0385595
0.138991
0.052366
0.148622
0.124979
0.156024
0.17235
0.158913
0.205573
0.15622
0.233942
0.149538
0.26192
0.142721
0.253478
0.1395
0.200421
0.14077
0.087024
0.145776
-0.0323819
0.151119
-0.131238
0.152756
-0.195726
0.148713
-0.22374
0.142259
-0.268407
0.138528
-0.233857
0.140313
-0.195538
0.144587
-0.0606149
0.146694
0.0677304
0.14558
0.167844
0.143259
0.318099
0.142408
0.253221
0.142641
0.276993
0.141834
0.0872449
-0.132614
-0.0308935
-0.0701807
-0.033383
-0.0763663
-0.03482
-0.0809777
-0.034712
-0.0832501
-0.0325143
-0.0824243
-0.0277405
-0.0776922
-0.0201505
-0.0682336
-0.0100501
-0.0536084
0.00240324
-0.033987
0.0173618
-0.00994764
0.0328269
0.0183019
0.0485431
0.0471038
0.0636747
0.0747626
0.0772636
0.0991703
0.0883256
0.119048
0.0960638
0.134581
0.100364
0.147249
0.10237
0.158007
0.104381
0.16463
0.108655
0.160879
0.11586
0.139718
0.124904
0.0980805
0.134253
0.0386603
0.142787
-0.0293303
0.14949
-0.0927334
0.15363
-0.139799
0.154953
-0.16673
0.153819
-0.17791
0.151185
-0.17985
0.147494
-0.177176
0.14165
-0.174775
0.132798
-0.178532
0.123101
-0.183198
0.117186
-0.171382
0.118167
-0.123741
0.125507
-0.0458992
0.136272
0.0416007
0.147426
0.113825
0.156271
0.163505
0.160337
0.201507
0.158701
0.235578
0.152971
0.26765
0.146721
0.259728
0.143303
0.203839
0.143531
0.0867957
0.147196
-0.0360463
0.151512
-0.135554
0.152735
-0.196949
0.148501
-0.219505
0.141933
-0.261839
0.138212
-0.230136
0.140041
-0.197368
0.1444
-0.0649736
0.146489
0.0656411
0.145539
0.168795
0.143289
0.320348
0.142583
0.253927
0.143182
0.276394
0.142635
0.0877921
-0.130835
-0.00902551
-0.0652238
-0.0143166
-0.0710752
-0.0192943
-0.076
-0.0234478
-0.0790966
-0.0261904
-0.0796817
-0.0264272
-0.0774554
-0.0234826
-0.0711782
-0.0170277
-0.0600634
-0.00731115
-0.0437035
0.00573144
-0.0229902
0.0211628
0.00287047
0.0376939
0.0305727
0.0541778
0.0582787
0.0694518
0.0838963
0.0824091
0.10609
0.0923181
0.124672
0.0993391
0.140228
0.104769
0.152576
0.110587
0.158812
0.118203
0.153263
0.127335
0.130586
0.136568
0.088848
0.144789
0.0304393
0.151329
-0.0358704
0.155596
-0.0970007
0.157217
-0.14142
0.156357
-0.16587
0.153548
-0.175101
0.149649
-0.175951
0.145217
-0.172743
0.139282
-0.16884
0.130537
-0.169786
0.120456
-0.173118
0.113676
-0.164602
0.114094
-0.124159
0.121654
-0.053459
0.133441
0.0298129
0.145987
0.10128
0.156263
0.153229
0.161634
0.196135
0.161256
0.235957
0.156629
0.272277
0.15098
0.265378
0.14734
0.207478
0.146452
0.0876839
0.1487
-0.0382942
0.15192
-0.138774
0.15274
-0.197768
0.148374
-0.21514
0.141686
-0.25515
0.137926
-0.226376
0.139778
-0.199221
0.144272
-0.0694677
0.146402
0.063512
0.14561
0.169586
0.143408
0.32255
0.142858
0.254477
0.143876
0.275375
0.143625
0.0880435
-0.129144
0.0221174
-0.0591173
0.0151976
-0.0641554
0.00762317
-0.0684255
-6.28517e-05
-0.0714105
-0.0066793
-0.0730653
-0.0118406
-0.0722941
-0.0143992
-0.0686195
-0.0133728
-0.0610899
-0.00839841
-0.0486778
6.2301e-05
-0.031451
0.0136925
-0.0107597
0.0293488
0.0149163
0.0459317
0.0416959
0.0621163
0.0677117
0.0766475
0.0915591
0.0888294
0.112491
0.0988677
0.130189
0.107885
0.143559
0.117314
0.149383
0.127729
0.142848
0.138223
0.120092
0.147326
0.0797452
0.154324
0.0234414
0.158934
-0.0404808
0.160871
-0.0989378
0.160078
-0.140627
0.157168
-0.16296
0.15288
-0.170813
0.147926
-0.170997
0.142874
-0.167692
0.13699
-0.162955
0.128676
-0.161473
0.118584
-0.163026
0.11101
-0.157028
0.110561
-0.12371
0.117959
-0.0608577
0.130463
0.0173091
0.14422
0.0875234
0.155892
0.141556
0.162691
0.189337
0.163761
0.234887
0.16037
0.275668
0.155352
0.270395
0.151466
0.211364
0.14947
0.0896806
0.150251
-0.0390754
0.152317
-0.14084
0.152735
-0.198186
0.148297
-0.210703
0.141481
-0.248334
0.137624
-0.222518
0.139476
-0.201073
0.14417
-0.0741618
0.146413
0.0612696
0.145788
0.170211
0.143619
0.324719
0.143234
0.254861
0.144723
0.273887
0.144802
0.0879641
-0.127552
0.0573793
-0.0528807
0.0505191
-0.0572953
0.04282
-0.0607264
0.0342686
-0.0628591
0.0249403
-0.063737
0.0157826
-0.0631365
0.0078853
-0.0607222
0.00266808
-0.0558727
0.00171965
-0.0477294
0.00586508
-0.0355964
0.0141345
-0.0190291
0.0265778
0.00247303
0.0413948
0.0268788
0.0571713
0.0519353
0.0725085
0.0762218
0.086584
0.0984151
0.099373
0.1174
0.111573
0.13136
0.123967
0.136988
0.136445
0.13037
0.147758
0.108779
0.156615
0.0708883
0.162468
0.0175886
0.165373
-0.0433859
0.165125
-0.0986902
0.162099
-0.1376
0.157323
-0.158184
0.151761
-0.165252
0.145966
-0.165203
0.140411
-0.162137
0.134648
-0.157192
0.127015
-0.15384
0.117324
-0.153334
0.10918
-0.148884
0.107657
-0.122187
0.114461
-0.0676616
0.1273
0.00446965
0.142024
0.0727999
0.155031
0.128549
0.163362
0.181006
0.166052
0.232197
0.164016
0.277704
0.159671
0.274741
0.155552
0.215483
0.15248
0.092752
0.151801
-0.0383964
0.152666
-0.141705
0.15268
-0.1982
0.14823
-0.206253
0.141286
-0.24139
0.137268
-0.218501
0.139088
-0.202893
0.144054
-0.0791281
0.1465
0.0588234
0.146065
0.170647
0.143923
0.326861
0.143712
0.255072
0.145719
0.27188
0.146163
0.0875208
-0.126069
0.0906132
-0.0466951
0.0840256
-0.0507077
0.0768251
-0.0535258
0.0688552
-0.0548893
0.0600678
-0.0549495
0.0506355
-0.0537042
0.0410798
-0.0511666
0.0324654
-0.0472582
0.0262026
-0.0414666
0.0236512
-0.033045
0.0255909
-0.0209688
0.0326704
-0.00460646
0.043572
0.0159772
0.0571608
0.0383464
0.0719556
0.061427
0.0868767
0.083494
0.101487
0.10279
0.115916
0.116931
0.130291
0.122613
0.14397
0.116691
0.155573
0.0971765
0.164039
0.0624225
0.169014
0.0126128
0.170402
-0.0447731
0.168197
-0.0964853
0.163176
-0.132579
0.156761
-0.151769
0.150131
-0.158622
0.143714
-0.158786
0.137785
-0.156208
0.132152
-0.15156
0.125334
-0.147022
0.116428
-0.144428
0.108069
-0.140524
0.105421
-0.119539
0.111227
-0.0734679
0.123938
-0.0082414
0.139316
0.0574219
0.153546
0.114319
0.163482
0.17107
0.167951
0.227728
0.167392
0.278264
0.163775
0.278358
0.159448
0.21981
0.155387
0.0968133
0.153297
-0.0363065
0.152929
-0.141337
0.152532
-0.197803
0.14813
-0.201851
0.141074
-0.234334
0.136831
-0.214258
0.13857
-0.204631
0.14388
-0.0844386
0.146637
0.0560663
0.146433
0.170851
0.144325
0.328969
0.144294
0.255103
0.146864
0.26931
0.147703
0.086682
-0.124706
0.118246
-0.0403685
0.111675
-0.0441359
0.104755
-0.0466066
0.0975229
-0.0476567
0.0899967
-0.0474234
0.0820744
-0.0457818
0.0736682
-0.0427604
0.0649998
-0.0385898
0.0568524
-0.0333192
0.0504536
-0.0266462
0.0472297
-0.017745
0.0484126
-0.00578939
0.0541192
0.0102707
0.0638468
0.0286188
0.0764288
0.048845
0.0906633
0.0692595
0.105688
0.0877651
0.121032
0.101587
0.136218
0.107427
0.150216
0.102692
0.161664
0.0857288
0.169686
0.0544002
0.173885
0.00841407
0.173927
-0.044815
0.169967
-0.0925255
0.163218
-0.12583
0.155431
-0.143982
0.147942
-0.151133
0.141102
-0.151945
0.13494
-0.150046
0.129421
-0.146041
0.123425
-0.141026
0.115597
-0.1366
0.107463
-0.132391
0.103825
-0.1159
0.108337
-0.0779798
0.12036
-0.0202645
0.136039
0.0417425
0.151326
0.0990321
0.162895
0.159501
0.169255
0.221367
0.170286
0.277233
0.167474
0.281169
0.163021
0.224263
0.158079
0.101756
0.154675
-0.032903
0.153063
-0.139725
0.152243
-0.196983
0.147954
-0.197562
0.14082
-0.2272
0.136297
-0.209735
0.137884
-0.206218
0.143602
-0.0901561
0.146791
0.0528768
0.146879
0.170764
0.144824
0.331024
0.14498
0.254947
0.148153
0.266137
0.149416
0.0854188
-0.123472
0.138191
-0.0340123
0.131632
-0.0375769
0.12481
-0.039785
0.117974
-0.0408204
0.111316
-0.0407655
0.104833
-0.0392985
0.0983981
-0.0363256
0.0918542
-0.0320459
0.085211
-0.0266759
0.078855
-0.0202902
0.0737365
-0.0126265
0.0713107
-0.00336357
0.0722079
0.00937346
0.0773303
0.0234964
0.0863135
0.0398619
0.0982706
0.0573023
0.112154
0.0738813
0.127005
0.0867365
0.141829
0.0926025
0.15534
0.0891812
0.166246
0.0748233
0.173732
0.0469144
0.177145
0.00500029
0.175891
-0.0435611
0.170326
-0.0869602
0.162111
-0.117615
0.153242
-0.135113
0.145104
-0.142995
0.138012
-0.144853
0.131767
-0.143801
0.126352
-0.140626
0.121099
-0.135773
0.114513
-0.130014
0.107035
-0.124913
0.102712
-0.111577
0.105758
-0.0810256
0.116665
-0.0311717
0.132189
0.0262185
0.148279
0.0829417
0.161447
0.146333
0.169813
0.213001
0.172558
0.274488
0.170619
0.283108
0.166117
0.228765
0.160461
0.107411
0.155867
-0.0283089
0.15302
-0.136878
0.151757
-0.19572
0.147649
-0.193454
0.140503
-0.220054
0.135658
-0.20489
0.137002
-0.207562
0.143172
-0.0963263
0.146927
0.0491221
0.147391
0.1703
0.145421
0.332993
0.14577
0.254598
0.149582
0.262325
0.151295
0.0837056
-0.122379
0.149322
-0.0280151
0.14303
-0.0312849
0.136481
-0.0332354
0.13009
-0.0344302
0.124109
-0.0347839
0.118635
-0.0338251
0.113717
-0.031407
0.109249
-0.0275778
0.105035
-0.0224623
0.100962
-0.016217
0.0971859
-0.00885046
0.0943066
-0.000484283
0.093386
0.0102941
0.095266
0.0216164
0.10062
0.0345075
0.10936
0.0485629
0.1208
0.0624409
0.133873
0.0736634
0.147296
0.0791798
0.159636
0.0768418
0.169654
0.0648052
0.176437
0.0401309
0.178895
0.00254268
0.176265
-0.0409318
0.169195
-0.07989
0.159771
-0.108191
0.150111
-0.125453
0.141529
-0.134413
0.134324
-0.137647
0.128145
-0.137623
0.122861
-0.135342
0.118221
-0.131133
0.112902
-0.124695
0.10644
-0.118451
0.101836
-0.106973
0.103453
-0.0826423
0.112903
-0.0406216
0.127805
0.0113163
0.144373
0.0663737
0.159018
0.131688
0.169392
0.202627
0.17394
0.269941
0.173011
0.284037
0.168609
0.233167
0.162447
0.113573
0.156825
-0.0226867
0.152774
-0.132827
0.15103
-0.193976
0.147169
-0.189593
0.140109
-0.212994
0.134928
-0.199709
0.135903
-0.208537
0.142546
-0.102969
0.147005
0.0446632
0.14795
0.169355
0.146114
0.334829
0.146666
0.254047
0.151148
0.257844
0.153331
0.0815224
-0.121438
0.15228
-0.0227761
0.146481
-0.0254865
0.140413
-0.0271674
0.134629
-0.0286463
0.129326
-0.0294805
0.124676
-0.0291752
0.120843
-0.0275741
0.117859
-0.0245936
0.11562
-0.0202235
0.113957
-0.0145534
0.11277
-0.00766382
0.112291
-5.07426e-06
0.112025
0.0105595
0.113091
0.0205511
0.116512
0.0310865
0.122638
0.0424369
0.131309
0.0537691
0.141831
0.0631416
0.153038
0.0679728
0.163598
0.0662815
0.172351
0.0560526
0.17811
0.0343717
0.179224
0.00142924
0.175249
-0.0369571
0.166868
-0.0715087
0.156558
-0.0978811
0.146423
-0.115318
0.137594
-0.125584
0.130351
-0.130404
0.124316
-0.131588
0.119171
-0.130196
0.114949
-0.126911
0.110754
-0.120499
0.105512
-0.113209
0.101019
-0.10248
0.101367
-0.0829903
0.109126
-0.0483804
0.122951
-0.00250892
0.139577
0.0497481
0.155566
0.115698
0.168071
0.190122
0.174557
0.263455
0.174634
0.28396
0.17041
0.237391
0.164042
0.119941
0.157579
-0.0162242
0.15239
-0.127637
0.150106
-0.191693
0.146521
-0.186007
0.139657
-0.206131
0.134142
-0.194195
0.134622
-0.209017
0.14169
-0.110037
0.14698
0.039373
0.148537
0.167799
0.146902
0.336464
0.147668
0.25328
0.152841
0.252671
0.155514
0.0788497
-0.12066
0.149806
-0.0188316
0.144749
-0.0204303
0.139703
-0.0221204
0.134837
-0.0237805
0.130271
-0.0249144
0.126241
-0.025146
0.122969
-0.0243022
0.120655
-0.0222795
0.119386
-0.0189538
0.119101
-0.014269
0.119653
-0.0082155
0.120519
-0.000870918
0.122773
0.00830505
0.125644
0.0176805
0.129376
0.0273546
0.134594
0.0372182
0.141574
0.0467895
0.150002
0.0547141
0.159057
0.0589176
0.167692
0.0576458
0.174809
0.0489356
0.178891
0.0302897
0.178686
0.00163431
0.172789
-0.0310599
0.163354
-0.0620737
0.15268
-0.0872067
0.142549
-0.105188
0.133772
-0.116807
0.126576
-0.123208
0.120695
-0.125707
0.115672
-0.125173
0.111643
-0.122883
0.108273
-0.117129
0.104274
-0.109211
0.10021
-0.0984159
0.099564
-0.0823445
0.105635
-0.054451
0.117847
-0.014721
0.134039
0.033556
0.15075
0.098987
0.165105
0.175767
0.173723
0.254837
0.175139
0.282545
0.171378
0.241152
0.165083
0.126236
0.158038
-0.00917975
0.151851
-0.12145
0.149041
-0.188882
0.145724
-0.18269
0.139157
-0.199564
0.13331
-0.188348
0.133257
-0.208964
0.140647
-0.117428
0.146852
0.0331684
0.149124
0.165527
0.147769
0.337818
0.148775
0.252274
0.154656
0.246791
0.157843
0.0756623
-0.120048
0.188268
-0.0143402
-0.192759
0.184579
-0.0167414
0.180775
-0.0183161
0.176653
-0.0196586
0.17228
-0.0205419
0.167805
-0.0206712
0.163363
-0.01986
0.159067
-0.0179838
0.155038
-0.0149242
0.151367
-0.0105978
0.148192
-0.00504038
0.145487
0.00183319
0.143732
0.0100609
0.142635
0.0187773
0.14242
0.0275694
0.143555
0.0360832
0.146638
0.0437062
0.152122
0.0492306
0.159967
0.0510721
0.169797
0.0478157
0.180898
0.0378352
0.19141
0.0197776
0.19868
-0.00563588
0.201274
-0.0336544
0.199169
-0.0599687
0.193685
-0.0817227
0.186256
-0.097758
0.17797
-0.108521
0.169616
-0.114855
0.161608
-0.117699
0.153824
-0.117388
0.146426
-0.115485
0.139591
-0.110294
0.13228
-0.1019
0.123916
-0.0900522
0.116751
-0.0751791
0.114468
-0.0521685
0.118065
-0.0183177
0.125009
0.0266125
0.13226
0.0917353
0.138152
0.169875
0.142632
0.250357
0.147481
0.277697
0.154241
0.234391
0.160975
0.119502
0.164193
-0.0123972
0.163317
-0.120575
0.160347
-0.185912
0.155207
-0.17755
0.146962
-0.191318
0.138927
-0.180313
0.134555
-0.204592
0.135249
-0.118122
0.136035
0.0323824
0.134367
0.167195
0.133016
0.339169
0.135404
0.249886
0.142371
0.239823
0.146146
0.0718867
-0.118219
0.197844
-0.0109963
-0.201188
0.194372
-0.0132696
0.190907
-0.0148512
0.187214
-0.0159655
0.183319
-0.0166464
0.17936
-0.0167129
0.175474
-0.0159738
0.17178
-0.0142901
0.168417
-0.0115604
0.165544
-0.00772535
0.163273
-0.00276961
0.161738
0.00336895
0.161209
0.0105899
0.161644
0.0183419
0.163098
0.0261155
0.165774
0.0334068
0.169984
0.0394963
0.175932
0.0432823
0.183504
0.0435008
0.19228
0.0390391
0.201363
0.0287521
0.209126
0.0120153
0.213568
-0.0100783
0.213906
-0.0339919
0.21039
-0.0564536
0.204086
-0.0754179
0.19621
-0.0898827
0.18771
-0.100021
0.179225
-0.106369
0.171158
-0.109632
0.163366
-0.109597
0.155823
-0.107942
0.148903
-0.103374
0.142007
-0.0950039
0.134135
-0.0821804
0.126687
-0.0677311
0.123367
-0.0488486
0.125876
-0.0208265
0.13256
0.0199288
0.140255
0.0840398
0.147124
0.163006
0.15277
0.244711
0.158884
0.271583
0.166749
0.226526
0.174163
0.112089
0.1774
-0.0156348
0.175716
-0.118891
0.17177
-0.181966
0.165917
-0.171697
0.157171
-0.182572
0.148412
-0.171554
0.143274
-0.199454
0.143881
-0.118729
0.144996
0.031268
0.143586
0.168605
0.142401
0.340354
0.145126
0.247162
0.152977
0.231972
0.157054
0.0678093
-0.116141
0.207596
-0.00831209
-0.21028
0.204477
-0.0101503
0.201241
-0.0116153
0.197896
-0.0126201
0.194425
-0.0131754
0.190915
-0.0132031
0.187496
-0.0125545
0.184302