/*--------------------------------*- C++ -*----------------------------------*\
| =========                 |                                                 |
| \\      /  F ield         | OpenFOAM: The Open Source CFD Toolbox           |
|  \\    /   O peration     | Version:  2512                                  |
|   \\  /    A nd           | Website:  www.openfoam.com                      |
|    \\/     M anipulation  |                                                 |
\*---------------------------------------------------------------------------*/
FoamFile
{
    version     2.0;
    format      ascii;
    arch        "LSB;label=32;scalar=64";
    class       volVectorField;
    location    "36";
    object      U;
}
// * * * * * * * * * * * * * * * * * * * * * * * * * * * * * * * * * * * * * //

dimensions      [0 1 -1 0 0 0 0];

internalField   nonuniform List<vector> 
13248
(
(-0.0124427 0.0114936 5.84455e-20)
(-0.0240401 0.024472 0)
(-0.0233535 0.0312982 -1.10473e-19)
(-0.0112322 0.0340197 1.04069e-19)
(0.0117545 0.0342633 9.7507e-20)
(0.045207 0.0333078 0)
(0.0887984 0.0321256 0)
(0.142163 0.0314459 2.34736e-19)
(0.204771 0.0318027 -1.33014e-21)
(0.275808 0.033557 -2.04746e-19)
(0.35409 0.0369072 1.89303e-19)
(0.438038 0.0418942 -1.18281e-19)
(0.525707 0.04841 0)
(0.614887 0.0562115 -2.01715e-19)
(0.703234 0.0649453 3.76228e-19)
(0.788432 0.0741798 -8.88703e-20)
(0.868348 0.0834477 -1.59513e-19)
(0.94117 0.0922676 1.4974e-19)
(1.00553 0.100265 0)
(1.06046 0.106884 0)
(1.10594 0.112462 0)
(1.1409 0.115083 0)
(1.16934 0.118898 4.76555e-20)
(1.18494 0.114099 1.77368e-19)
(-0.0123382 0.0101681 -1.76648e-19)
(-0.0205053 0.0203665 1.20485e-19)
(-0.0132363 0.0251556 -1.06291e-21)
(0.00823239 0.0266579 -1.59242e-19)
(0.0430913 0.0265752 -9.74024e-20)
(0.0906981 0.0262468 -9.214e-20)
(0.150357 0.0266603 -1.69075e-19)
(0.221141 0.0285136 1.59888e-19)
(0.301719 0.0322455 0)
(0.390252 0.0380484 8.26921e-22)
(0.484386 0.0458771 1.80587e-21)
(0.581339 0.0554669 1.18423e-19)
(0.678093 0.0663688 0)
(0.771619 0.0780013 0)
(0.859125 0.0897155 1.38336e-19)
(0.938272 0.100864 -2.59766e-19)
(1.00733 0.110866 1.56424e-19)
(1.06527 0.119257 -1.46849e-19)
(1.11179 0.125729 -6.56867e-20)
(1.14731 0.130104 -1.20584e-19)
(1.1726 0.132512 -5.20098e-20)
(1.18952 0.132601 -9.8079e-20)
(1.19888 0.132337 1.41674e-19)
(1.20285 0.127141 4.18743e-20)
(-0.0113642 0.0084635 0)
(-0.0139054 0.015472 0)
(0.00255412 0.0183225 5.6338e-20)
(0.0362623 0.0191179 5.18651e-20)
(0.0860018 0.0195747 -1.31273e-21)
(0.150626 0.0210426 -9.51694e-20)
(0.228685 0.0244457 0)
(0.31819 0.0303176 -7.94588e-20)
(0.416488 0.0388267 7.46277e-20)
(0.52027 0.0497936 5.72041e-22)
(0.625762 0.06273 -1.27288e-19)
(0.729034 0.0769096 -1.16687e-19)
(0.826366 0.0914663 1.98223e-21)
(0.914589 0.105507 -9.70424e-20)
(0.991355 0.11822 2.32267e-19)
(1.05528 0.128962 0)
(1.10599 0.137316 -1.52821e-19)
(1.14401 0.143101 7.36844e-20)
(1.17063 0.146389 6.56234e-20)
(1.18763 0.147369 0)
(1.1971 0.146559 5.48432e-20)
(1.20107 0.143945 -1.93633e-19)
(1.2011 0.141276 1.81768e-19)
(1.20039 0.135441 1.19442e-19)
(-0.00919193 0.00640427 -6.27517e-20)
(-0.00336945 0.0100114 -6.49029e-20)
(0.025304 0.0113429 5.85564e-20)
(0.0743711 0.0123225 0)
(0.141913 0.0145693 0)
(0.225839 0.0193236 -2.05749e-21)
(0.323381 0.0272681 0)
(0.430913 0.038543 -2.42786e-19)
(0.544 0.0527918 2.25502e-19)
(0.657709 0.0692357 -2.7837e-19)
(0.767094 0.0868002 6.37324e-20)
(0.867729 0.104283 0)
(0.956165 0.12053 1.06742e-19)
(1.03023 0.134592 -1.97998e-19)
(1.0891 0.145824 4.69282e-20)
(1.13324 0.153929 1.22257e-19)
(1.16412 0.158944 -4.45288e-21)
(1.18389 0.161167 -1.3756e-19)
(1.19501 0.161073 0)
(1.19992 0.159189 0)
(1.20077 0.156126 -5.07714e-20)
(1.1992 0.152045 4.6127e-20)
(1.19652 0.148349 1.68881e-19)
(1.19357 0.142271 -1.58517e-19)
(-0.00545099 0.00406813 -6.6373e-20)
(0.0119938 0.00435684 -6.59682e-20)
(0.0561771 0.00497324 1.85499e-19)
(0.12366 0.00743101 -1.12273e-19)
(0.211367 0.0130565 1.05683e-19)
(0.315649 0.0227548 1.91647e-19)
(0.431783 0.0366806 -1.35469e-19)
(0.554032 0.05427 -1.6486e-19)
(0.676105 0.0743834 3.18115e-21)
(0.79188 0.0955166 2.10832e-19)
(0.896151 0.116066 0)
(0.985221 0.134591 5.85127e-20)
(1.05719 0.150019 0)
(1.11194 0.16175 -9.61708e-20)
(1.15081 0.169665 1.35166e-19)
(1.17621 0.174045 1.02665e-21)
(1.191 0.17544 -3.61018e-20)
(1.19812 0.174523 6.765e-20)
(1.20014 0.171963 5.92545e-20)
(1.19909 0.168331 -5.3681e-20)
(1.19641 0.164091 5.07593e-20)
(1.19303 0.159407 -4.61158e-20)
(1.18935 0.15511 0)
(1.18617 0.149064 -3.62497e-20)
(0.000238734 0.00161014 6.63636e-20)
(0.0329935 -0.000925712 6.97577e-20)
(0.0960267 0.000215936 -6.21725e-20)
(0.18453 0.0058189 1.15703e-19)
(0.293656 0.0166073 -1.08906e-19)
(0.417511 0.0327994 9.83229e-20)
(0.548907 0.0536457 -4.72619e-20)
(0.679968 0.0775773 1.23815e-19)
(0.803142 0.102556 -7.79979e-20)
(0.912256 0.12648 1.38718e-19)
(1.00327 0.147564 -3.20764e-19)
(1.07456 0.164597 1.18279e-19)
(1.12671 0.177042 -1.041e-19)
(1.16196 0.184984 9.77773e-20)
(1.18352 0.188964 8.53168e-20)
(1.19491 0.189773 7.55667e-20)
(1.19933 0.188258 -2.10821e-19)
(1.19941 0.185178 1.31035e-19)
(1.19707 0.181128 -5.92564e-20)
(1.19356 0.176528 1.56948e-19)
(1.1896 0.171654 -5.0515e-20)
(1.18558 0.166603 -1.26581e-19)
(1.18169 0.161832 1.17381e-19)
(1.17822 0.155849 3.62367e-20)
(0.00822748 -0.000723993 0)
(0.0602341 -0.0050688 6.32609e-22)
(0.145189 -0.00171792 1.30406e-19)
(0.256414 0.00895832 -1.22267e-19)
(0.386599 0.0266389 -1.09997e-19)
(0.52704 0.0504024 2.04416e-19)
(0.668043 0.0782324 -9.49201e-20)
(0.800278 0.107429 1.26663e-19)
(0.916251 0.135243 -2.57217e-21)
(1.01132 0.159421 -7.20199e-20)
(1.08397 0.178549 1.57858e-19)
(1.13542 0.192132 -2.3363e-19)
(1.16874 0.200456 0)
(1.18793 0.204328 -4.63848e-20)
(1.19704 0.204776 -1.24563e-19)
(1.19957 0.202814 3.91638e-20)
(1.19821 0.19929 1.30525e-21)
(1.19482 0.194831 -8.82619e-20)
(1.19054 0.189857 4.53018e-21)
(1.18601 0.184624 1.02552e-19)
(1.18156 0.179278 -4.64426e-20)
(1.17734 0.173896 -1.84324e-20)
(1.17335 0.168676 5.53461e-20)
(1.16973 0.162707 0)
(0.0187874 -0.00259768 0)
(0.0939838 -0.0071339 3.54201e-20)
(0.203293 0.000495966 -1.70783e-19)
(0.337611 0.0182324 6.19541e-20)
(0.486567 0.0441563 -5.83101e-20)
(0.63852 0.0757535 -5.33629e-20)
(0.781957 0.109568 -9.42598e-20)
(0.907525 0.141982 4.70222e-20)
(1.0095 0.170062 4.08509e-20)
(1.08614 0.192038 0)
(1.13911 0.207378 9.4169e-20)
(1.17228 0.21655 -1.40853e-19)
(1.1904 0.220629 1.04829e-19)
(1.19813 0.220899 4.64078e-20)
(1.19931 0.218567 -3.85298e-20)
(1.1968 0.214597 -3.25764e-20)
(1.19247 0.209676 -3.06145e-20)
(1.18745 0.204245 9.07987e-20)
(1.18234 0.198569 0)
(1.17743 0.192797 4.67589e-20)
(1.17283 0.187009 4.02503e-20)
(1.16854 0.181259 -9.88857e-20)
(1.16453 0.175582 -6.94111e-20)
(1.16083 0.169594 6.4053e-20)
(0.0320598 -0.00359852 -3.86457e-20)
(0.134052 -0.00608372 -1.61287e-21)
(0.269138 0.00814498 3.48158e-20)
(0.425296 0.0347158 9.73689e-20)
(0.588862 0.0695401 2.83357e-20)
(0.745833 0.108234 -5.48132e-20)
(0.88433 0.146089 4.99541e-20)
(0.996798 0.179157 -4.3803e-20)
(1.08073 0.205035 7.88929e-20)
(1.13792 0.222995 3.37134e-20)
(1.17291 0.233627 -9.5844e-20)
(1.19131 0.238286 2.82889e-20)
(1.19846 0.238559 4.86022e-20)
(1.19873 0.2359 -2.38705e-20)
(1.19526 0.23144 0)
(1.19005 0.225966 3.60354e-20)
(1.18426 0.219969 6.15009e-20)
(1.17851 0.213736 1.09131e-20)
(1.17306 0.207423 -5.16264e-20)
(1.16802 0.201114 2.18204e-20)
(1.16338 0.194857 0)
(1.15909 0.188676 -1.74878e-20)
(1.15508 0.18254 -1.68545e-20)
(1.15129 0.17645 0)
(0.0480013 -0.00326767 0)
(0.179699 -0.000886623 2.02957e-20)
(0.340673 0.0223068 3.74879e-20)
(0.515752 0.0589882 -9.96024e-20)
(0.688369 0.102472 3.22796e-20)
(0.843512 0.14659 0)
(0.970838 0.185981 4.85279e-20)
(1.06619 0.217177 -6.78213e-20)
(1.13098 0.238949 -3.94952e-20)
(1.17024 0.251889 1.78299e-20)
(1.1905 0.257632 -2.88252e-20)
(1.198 0.258138 6.9834e-20)
(1.19782 0.255192 3.51255e-20)
(1.19357 0.250173 -2.43304e-20)
(1.18751 0.244019 -2.18571e-21)
(1.18093 0.237307 -6.73902e-20)
(1.17447 0.230363 3.07535e-20)
(1.16842 0.223363 -8.36241e-22)
(1.16286 0.216394 0)
(1.15781 0.209508 -2.18432e-20)
(1.15319 0.20273 0)
(1.14894 0.196056 5.04665e-20)
(1.14497 0.189465 -6.04563e-20)
(1.14115 0.183181 2.77079e-20)
(0.0663396 -0.00113838 -1.0694e-20)
(0.2296 0.00937122 -5.12292e-20)
(0.415107 0.0437 5.83827e-20)
(0.604779 0.0910374 3.42101e-20)
(0.780285 0.142016 -1.62933e-20)
(0.927503 0.189229 2.74907e-20)
(1.03942 0.227566 -1.33114e-20)
(1.11619 0.254813 2.22108e-20)
(1.16298 0.271294 0)
(1.18721 0.278883 5.05272e-20)
(1.19629 0.279988 -2.06364e-21)
(1.19628 0.276848 -4.08328e-20)
(1.19149 0.271197 1.75097e-20)
(1.18464 0.26421 -1.98127e-20)
(1.17723 0.256598 -7.57315e-21)
(1.17001 0.248756 8.7419e-21)
(1.16328 0.240887 -6.75682e-21)
(1.15715 0.233093 -3.70519e-20)
(1.15162 0.225426 2.27053e-20)
(1.14664 0.217915 4.67299e-21)
(1.14212 0.210568 4.14584e-21)
(1.13796 0.203361 3.68401e-21)
(1.13406 0.196331 0)
(1.13026 0.189737 0)
(0.0866191 0.00323078 1.07014e-20)
(0.282016 0.0253953 -1.06678e-20)
(0.489303 0.07258 -1.94723e-20)
(0.688342 0.130256 0)
(0.860811 0.186801 -8.11193e-21)
(0.995472 0.234525 -7.34932e-21)
(1.08988 0.269524 -1.25618e-20)
(1.1486 0.291378 0)
(1.1798 0.302022 0)
(1.19223 0.304366 0)
(1.19331 0.301254 0)
(1.18841 0.294938 0)
(1.1809 0.286951 -1.09892e-20)
(1.17267 0.278219 5.00281e-21)
(1.16464 0.269247 8.72594e-21)
(1.1572 0.260288 4.0938e-21)
(1.15045 0.251461 1.01333e-20)
(1.14441 0.242824 0)
(1.13902 0.234405 -2.45173e-21)
(1.13421 0.226219 -2.37861e-21)
(1.12988 0.218256 -4.15245e-21)
(1.12591 0.21049 -3.68991e-21)
(1.12216 0.203035 0)
(1.11848 0.196011 2.69857e-21)
(-0.00103911 -0.00352199 6.36157e-21)
(-0.00547766 -0.00843308 -6.60876e-21)
(-0.013761 -0.0118208 -1.25216e-20)
(-0.0240252 -0.0139927 0)
(-0.035225 -0.015246 -1.67771e-20)
(-0.0468144 -0.0158483 5.27208e-21)
(-0.0584137 -0.0160156 -9.94275e-21)
(-0.069761 -0.015906 0)
(-0.0806917 -0.0156203 0)
(-0.0911075 -0.0152095 0)
(-0.100952 -0.0146849 0)
(-0.110192 -0.0140304 0)
(-0.118809 -0.013213 2.32713e-23)
(-0.126789 -0.012191 -6.51954e-21)
(-0.13412 -0.0109202 1.22081e-20)
(-0.140792 -0.00935637 1.72115e-20)
(-0.146798 -0.00745672 5.34413e-21)
(-0.152138 -0.00517981 0)
(-0.156826 -0.00248471 4.74526e-21)
(-0.160902 0.00067009 -1.32886e-20)
(-0.16444 0.00432628 -8.26524e-21)
(-0.167538 0.00852114 -7.72938e-21)
(-0.170372 0.0133201 0)
(-0.173387 0.0187861 0)
(-0.00114745 9.14968e-06 -1.91089e-20)
(-0.00569958 -9.12071e-05 3.29941e-20)
(-0.0139834 -0.000321778 -1.24231e-20)
(-0.0241556 -0.000507859 -2.36564e-20)
(-0.0351778 -0.000618178 3.34422e-20)
(-0.0465051 -0.000683081 -2.10636e-20)
(-0.0577592 -0.000739087 2.97521e-20)
(-0.0686798 -0.000811325 1.86847e-20)
(-0.0791041 -0.000906387 0)
(-0.0889351 -0.00101099 -1.66027e-20)
(-0.0981164 -0.00109549 -2.61102e-23)
(-0.106615 -0.00111967 1.46731e-20)
(-0.11441 -0.00103816 2.06582e-20)
(-0.121484 -0.000804025 2.58704e-20)
(-0.127822 -0.000370415 -1.22157e-20)
(-0.133406 0.000310554 -3.42413e-20)
(-0.13822 0.0012907 1.05965e-20)
(-0.142249 0.00263022 -3.99317e-20)
(-0.145492 0.00440304 0)
(-0.147971 0.00669956 8.82234e-21)
(-0.149732 0.00962466 8.25433e-21)
(-0.150804 0.0133092 7.71902e-21)
(-0.151294 0.0179291 0)
(-0.15196 0.0236472 0)
(-0.00163988 0.00336936 0)
(-0.00670196 0.00786262 6.6087e-20)
(-0.015023 0.0106523 -2.49358e-20)
(-0.0249117 0.0123565 2.36404e-20)
(-0.0354084 0.0133187 -6.68496e-20)
(-0.0460083 0.0137382 0)
(-0.05636 0.0137533 -3.9651e-20)
(-0.0662215 0.0134681 1.8627e-20)
(-0.0754413 0.0129677 -3.51379e-20)
(-0.0839286 0.012327 1.65068e-20)
(-0.0916299 0.0116149 9.32069e-20)
(-0.0985126 0.0108939 -4.37734e-20)
(-0.104554 0.0102201 -6.85404e-20)
(-0.109733 0.00964303 -2.56165e-20)
(-0.114029 0.00920832 9.63837e-23)
(-0.117416 0.00896118 9.03826e-20)
(-0.119864 0.00895276 -4.23763e-20)
(-0.121339 0.00924844 1.73027e-22)
(-0.121808 0.00993868 0)
(-0.121258 0.0111506 -3.43379e-20)
(-0.119693 0.0130586 0)
(-0.117043 0.0159015 -3.0028e-20)
(-0.113219 0.0200117 1.11939e-19)
(-0.109293 0.0257363 -1.64146e-22)
(-0.00246251 0.00636797 0)
(-0.00838893 0.015005 1.26785e-22)
(-0.0167962 0.0205474 2.51239e-20)
(-0.026243 0.0239772 -2.37448e-20)
(-0.035906 0.0259091 2.22273e-20)
(-0.0453532 0.0267502 1.26367e-19)
(-0.0542829 0.0267997 -3.96338e-20)
(-0.0624866 0.026282 -3.73786e-20)
(-0.0698332 0.025368 7.02687e-20)
(-0.0762433 0.0241912 -9.90585e-20)
(-0.0816685 0.0228576 3.10233e-20)
(-0.0860769 0.0214517 2.91317e-20)
(-0.0894438 0.0200398 0)
(-0.0917454 0.0186738 2.56656e-20)
(-0.0929548 0.0173956 0)
(-0.0930399 0.016242 4.48505e-20)
(-0.0919614 0.0152523 -8.38003e-20)
(-0.0896705 0.0144783 2.01371e-20)
(-0.08611 0.0139986 7.34437e-20)
(-0.0812297 0.0139402 3.43056e-20)
(-0.0749986 0.0145103 0)
(-0.0672829 0.0160558 -8.85704e-20)
(-0.0576555 0.0191565 2.7942e-20)
(-0.0469976 0.0245751 0)
(-0.00353725 0.00887122 0)
(-0.0106141 0.0210207 -7.98808e-20)
(-0.0191604 0.0289298 -2.53778e-20)
(-0.0280399 0.0338444 -4.75714e-20)
(-0.0366019 0.0365971 4.47945e-20)
(-0.0445118 0.0377715 -4.21573e-20)
(-0.0515353 0.037807 7.95315e-20)
(-0.0575097 0.037035 3.73688e-20)
(-0.0623319 0.0357041 -1.05482e-19)
(-0.0659371 0.0340019 6.60643e-20)
(-0.0682824 0.0320701 -9.30506e-20)
(-0.0693352 0.0300151 2.03748e-19)
(-0.0690661 0.0279155 -1.09295e-19)
(-0.0674446 0.0258283 5.11178e-20)
(-0.0644363 0.0237944 1.43328e-19)
(-0.0600017 0.0218436 -4.52542e-20)
(-0.0540955 0.0200015 -4.22056e-20)
(-0.0466632 0.0182967 -3.93204e-20)
(-0.0376391 0.0167737 0)
(-0.0269538 0.0155136 -6.72812e-20)
(-0.014562 0.014675 -6.18432e-20)
(-0.000354637 0.0146039 8.8296e-20)
(0.0163737 0.0161454 1.0779e-19)
(0.0357452 0.0208756 -1.01244e-19)
(-0.00477751 0.0108113 0)
(-0.0132029 0.0257212 -1.07631e-19)
(-0.0219259 0.035509 -3.08302e-22)
(-0.0301257 0.0415879 9.55933e-20)
(-0.0373398 0.0449536 0)
(-0.0433447 0.0463318 0)
(-0.0479852 0.0462788 0)
(-0.0511522 0.0452168 -3.74234e-20)
(-0.0527735 0.043462 6.65147e-23)
(-0.0527991 0.04125 6.62586e-20)
(-0.0511882 0.038756 -9.29836e-20)
(-0.0479018 0.036109 1.17627e-22)
(-0.0428984 0.0334029 0)
(-0.0361325 0.0307047 -5.10966e-20)
(-0.0275537 0.0280616 4.74812e-20)
(-0.0171086 0.0255061 -1.34042e-19)
(-0.00474155 0.0230612 1.66229e-19)
(0.0096048 0.0207444 3.77726e-20)
(0.0259904 0.0185736 -1.32756e-21)
(0.0444726 0.0165759 -1.34925e-19)
(0.0650703 0.0148068 -6.21045e-20)
(0.0878117 0.0134574 2.01141e-19)
(0.113399 0.0133967 -1.33881e-19)
(0.144563 0.0170022 0)
(-0.00610278 0.0121833 5.27176e-20)
(-0.0159724 0.0290425 5.3908e-20)
(-0.0248609 0.0401421 -5.13799e-20)
(-0.0322396 0.0469893 -9.63808e-20)
(-0.0378311 0.0506971 9.0752e-20)
(-0.0415268 0.0521027 -8.53282e-20)
(-0.0432538 0.0518556 1.20516e-19)
(-0.0429569 0.0504518 -3.73754e-20)
(-0.0405926 0.0482638 7.08223e-20)
(-0.0361192 0.0455689 0)
(-0.0294895 0.042573 6.21278e-20)
(-0.0206478 0.0394279 -1.1687e-19)
(-0.00952963 0.0362455 1.08942e-19)
(0.00393566 0.0331087 -1.02323e-19)
(0.0198221 0.0300785 0)
(0.0382014 0.0272009 8.90383e-20)
(0.0591375 0.0245112 1.6525e-19)
(0.0826795 0.0220367 -1.55237e-19)
(0.108859 0.019799 -7.17334e-20)
(0.137684 0.0178154 -6.61073e-20)
(0.169091 0.0160916 1.86622e-19)
(0.203134 0.0146656 5.61789e-20)
(0.238767 0.0138626 -5.35519e-20)
(0.286876 0.0170376 4.84046e-20)
(-0.0074475 0.0130307 -5.27248e-20)
(-0.0187396 0.0310227 1.64609e-19)
(-0.0276854 0.0428177 -5.18519e-20)
(-0.034007 0.049978 9.71876e-20)
(-0.0375972 0.0537059 -9.15109e-20)
(-0.0384562 0.0549249 3.9094e-22)
(-0.0365871 0.0543582 4.05461e-20)
(-0.0319803 0.05256 1.51667e-19)
(-0.0246098 0.0499487 -3.75636e-22)
(-0.0144301 0.0468374 -6.66843e-20)
(-0.00137509 0.0434604 0)
(0.0146373 0.0399935 -5.81713e-20)
(0.0336999 0.0365701 1.09456e-19)
(0.0559057 0.033292 1.01769e-19)
(0.0813374 0.0302405 -4.79602e-20)
(0.110058 0.0274812 -8.86201e-23)
(0.142096 0.0250688 -4.14458e-20)
(0.177434 0.0230498 7.6888e-20)
(0.215998 0.0214638 7.17187e-20)
(0.257674 0.0203513 -6.65703e-20)
(0.302026 0.0196808 6.13698e-20)
(0.350072 0.0197455 -5.66935e-20)
(0.395219 0.0194508 0)
(0.46461 0.0243515 -4.83369e-20)
(-0.00876084 0.0134232 5.37425e-20)
(-0.0213147 0.0317644 -5.50961e-20)
(-0.0300502 0.0436227 5.25276e-20)
(-0.0348985 0.0506132 0)
(-0.0359034 0.0540175 0)
(-0.03316 0.0548295 8.71253e-20)
(-0.0267311 0.0538311 -8.13534e-20)
(-0.0166358 0.0516236 7.60649e-20)
(-0.00284924 0.0486638 -3.56812e-19)
(0.0146905 0.0452969 2.59997e-22)
(0.0360724 0.0417857 6.25657e-20)
(0.0613973 0.0383313 0)
(0.0907581 0.0350902 -1.08943e-19)
(0.124222 0.0321867 2.04001e-19)
(0.161808 0.0297212 -1.43098e-19)
(0.203467 0.0277743 -2.21014e-19)
(0.249064 0.0264111 1.49357e-21)
(0.298366 0.0256832 1.53942e-19)
(0.35102 0.0256211 0)
(0.406725 0.0263145 0)
(0.464048 0.0274575 -6.13632e-20)
(0.526356 0.0302814 5.6686e-20)
(0.578169 0.0312529 -2.06552e-19)
(0.66674 0.0396635 1.93855e-19)
(-0.00999663 0.0134316 0)
(-0.0234765 0.0313903 0)
(-0.0314996 0.0426999 -1.58143e-19)
(-0.0341834 0.0490586 5.02835e-20)
(-0.031698 0.0518224 3.62449e-22)
(-0.0242198 0.0520512 8.82394e-20)
(-0.0118494 0.0505794 0)
(0.00538421 0.0480494 -7.67988e-20)
(0.0275124 0.0449524 7.15129e-20)
(0.054605 0.041665 -1.339e-19)
(0.0867406 0.0384779 3.33896e-22)
(0.123973 0.0356169 1.16712e-19)
(0.166297 0.0332581 -7.01374e-22)
(0.21361 0.0315374 1.00847e-19)
(0.26569 0.0305546 -1.43313e-19)
(0.32217 0.0303777 0)
(0.382533 0.0310438 1.63685e-19)
(0.446116 0.0325624 -2.30235e-19)
(0.512073 0.0348846 7.06044e-20)
(0.579804 0.0381368 0)
(0.646781 0.0415601 6.0496e-20)
(0.71808 0.0473239 2.23273e-19)
(0.772548 0.0497289 -2.09534e-19)
(0.867518 0.0613301 -2.39833e-19)
(-0.0110959 0.0131058 1.65773e-19)
(-0.0249397 0.0300065 -2.2817e-19)
(-0.0314306 0.0402227 4.05385e-22)
(-0.0308843 0.0455605 5.08146e-20)
(-0.0235861 0.0474595 -9.4758e-20)
(-0.00976724 0.0470534 -8.77744e-20)
(0.0104422 0.045225 1.64408e-19)
(0.0369997 0.0426546 -1.41359e-21)
(0.0699134 0.0398666 -1.44487e-19)
(0.109192 0.0372651 2.68679e-19)
(0.154785 0.0351606 -9.60774e-22)
(0.206531 0.0337872 -1.17619e-19)
(0.264104 0.033312 0)
(0.326977 0.0338407 0)
(0.39441 0.0354193 -4.74616e-20)
(0.465454 0.0380359 -8.78941e-20)
(0.538976 0.0416239 -1.62772e-19)
(0.613711 0.0460674 1.52791e-19)
(0.688283 0.0511877 -7.06295e-20)
(0.761547 0.0569317 1.29257e-19)
(0.831143 0.0625448 -6.2399e-20)
(0.900338 0.0697023 1.08968e-19)
(0.952731 0.0732494 -2.58456e-19)
(1.03431 0.0849907 4.75503e-20)
(-0.0119595 0.0124613 5.6006e-20)
(-0.0253043 0.0276853 0)
(-0.0290552 0.0363661 1.08654e-19)
(-0.0237595 0.0404356 -1.02357e-19)
(-0.0098243 0.0414312 9.48442e-20)
(0.0124641 0.0405568 0)
(0.0429278 0.0387429 0)
(0.0814509 0.0367029 -7.73343e-20)
(0.127902 0.0349824 1.10508e-21)
(0.182045 0.0339918 6.82308e-20)
(0.243455 0.0340258 -6.25748e-20)
(0.31145 0.0352737 1.17899e-19)
(0.385056 0.0378236 0)
(0.463004 0.041666 2.02359e-19)
(0.543772 0.0466988 -3.7794e-19)
(0.625652 0.0527359 2.64391e-19)
(0.706844 0.0595249 1.61452e-19)
(0.785553 0.0667483 -1.51555e-19)
(0.860136 0.0741146 0)
(0.929046 0.0811762 0)
(0.991255 0.0878349 0)
(1.04635 0.0936388 0)
(1.09024 0.0978299 5.10401e-20)
(1.14178 0.104462 -1.8783e-19)
(-0.177712 0.0257445 -4.80966e-21)
(-0.183392 0.0341605 4.83202e-21)
(-0.188732 0.0433351 -1.44581e-22)
(-0.193975 0.0531517 0)
(-0.199133 0.063386 -4.39395e-21)
(-0.20418 0.0737571 8.53581e-21)
(-0.209087 0.0839108 -6.5564e-24)
(-0.213803 0.0934132 -4.02368e-21)
(-0.218249 0.101745 0)
(-0.222312 0.108303 0)
(-0.225837 0.112428 -2.33133e-22)
(-0.228625 0.113413 -2.2834e-22)
(-0.230426 0.110548 -3.75495e-21)
(-0.230958 0.103174 3.43195e-21)
(-0.229917 0.0907537 0)
(-0.227 0.0729527 0)
(-0.221905 0.0497322 3.14338e-21)
(-0.21435 0.0214136 -4.96972e-23)
(-0.204386 -0.0112514 -2.7331e-21)
(-0.191984 -0.0470894 -1.75577e-22)
(-0.177429 -0.0836466 0)
(-0.161238 -0.118754 0)
(-0.143815 -0.149833 0)
(-0.125514 -0.174241 0)
(-0.106265 -0.189619 0)
(-0.0851203 -0.194077 0)
(-0.0601191 -0.186255 2.76659e-22)
(-0.0288489 -0.165632 -4.46371e-22)
(0.0110096 -0.133852 0)
(0.0605331 -0.0936695 0)
(0.118572 -0.0497213 -3.62702e-23)
(0.181982 -0.00683297 3.52486e-23)
(0.246571 0.0301274 -2.87514e-23)
(0.308528 0.058346 0)
(0.36471 0.0762823 0)
(0.414112 0.0847412 -1.30422e-22)
(0.456865 0.0846787 1.26773e-22)
(0.494758 0.078276 0)
(0.52965 0.0666261 -1.23901e-22)
(0.563474 0.0520717 1.7821e-22)
(0.596982 0.0355149 -5.29017e-23)
(0.630227 0.0194834 0)
(0.662266 0.00445047 8.37982e-23)
(0.692267 -0.00738579 -8.14832e-23)
(0.71915 -0.016627 0)
(0.743055 -0.0216918 0)
(0.763615 -0.0242726 2.53825e-23)
(0.782374 -0.0230164 -7.13249e-23)
(0.798959 -0.0202341 0)
(0.815836 -0.0145573 0)
(0.831127 -0.00874396 1.359e-23)
(0.848034 -0.00140255 1.34887e-25)
(0.861999 0.00453812 1.63754e-24)
(0.878556 0.0106236 -7.81822e-24)
(0.889523 0.0145248 0)
(0.905367 0.0179959 0)
(0.912038 0.0195335 0)
(0.927832 0.0206528 0)
(0.930381 0.0207484 0)
(0.947655 0.0207324 0)
(-0.154598 0.0312112 -4.55665e-22)
(-0.159329 0.0393854 -1.88971e-20)
(-0.163288 0.0482115 1.87899e-22)
(-0.166961 0.0577351 1.75576e-20)
(-0.170373 0.0676864 2.68063e-22)
(-0.173439 0.077769 0)
(-0.176076 0.0876108 -1.6182e-20)
(-0.17818 0.0967557 3.20387e-20)
(-0.179626 0.104657 -1.58557e-20)
(-0.180248 0.110674 1.54231e-20)
(-0.179853 0.11413 -1.4758e-20)
(-0.178228 0.11428 1.46824e-20)
(-0.175134 0.110395 -1.42781e-20)
(-0.170335 0.101807 -4.57334e-22)
(-0.16362 0.0879907 -1.42056e-20)
(-0.154829 0.0686621 1.38054e-20)
(-0.143839 0.0438684 -1.3467e-20)
(-0.130599 0.0140781 1.26677e-20)
(-0.115445 -0.020159 -1.24122e-20)
(-0.0982842 -0.0575028 2.34119e-20)
(-0.0797173 -0.0949337 -1.10357e-20)
(-0.0607618 -0.130589 -6.16282e-22)
(-0.0421718 -0.161804 -7.81588e-21)
(-0.0249084 -0.186044 1.40628e-20)
(-0.00963724 -0.201283 -6.28511e-21)
(0.00392963 -0.206128 2.76121e-22)
(0.0173449 -0.199753 2.91605e-21)
(0.0330737 -0.182126 -7.86205e-22)
(0.054466 -0.154149 -2.9103e-21)
(0.084524 -0.117711 1.52865e-21)
(0.124364 -0.0765222 -4.5283e-22)
(0.172575 -0.0348796 -4.5991e-23)
(0.226222 0.00265354 2.88102e-23)
(0.281599 0.0328132 -1.09372e-22)
(0.33555 0.0536782 0)
(0.386398 0.0651573 0)
(0.433902 0.0676226 5.33646e-22)
(0.478724 0.0630131 -3.90408e-22)
(0.52201 0.0524772 -3.58798e-22)
(0.564209 0.038666 -3.23792e-23)
(0.605345 0.0228068 4.8116e-22)
(0.644376 0.00766524 -9.18323e-23)
(0.680357 -0.00611747 0)
(0.712146 -0.0165007 0)
(0.739246 -0.0242681 0)
(0.761805 -0.0279886 0)
(0.780116 -0.0294892 -1.0591e-22)
(0.795716 -0.0274522 4.6683e-23)
(0.808841 -0.0242273 0)
(0.822011 -0.0182908 0)
(0.833924 -0.0123959 0)
(0.847901 -0.0048879 2.15974e-23)
(0.859652 0.00116103 -3.2718e-24)
(0.874807 0.00758412 1.69991e-23)
(0.884921 0.0116479 0)
(0.900734 0.015565 0)
(0.907343 0.0172373 -7.19495e-24)
(0.923881 0.018734 -1.69945e-23)
(0.926528 0.0188596 0)
(0.944879 0.0190056 0)
(-0.10864 0.0338735 2.15612e-22)
(-0.112048 0.0418205 -3.74042e-20)
(-0.114074 0.0502292 3.67513e-20)
(-0.115491 0.0593863 -3.4373e-20)
(-0.116475 0.0689807 -2.69895e-22)
(-0.116883 0.0786962 0)
(-0.11659 0.0881374 -3.30444e-20)
(-0.115459 0.0968259 3.23738e-20)
(-0.113347 0.104196 2.46118e-22)
(-0.110056 0.109557 4.85911e-22)
(-0.105388 0.112282 4.81921e-22)
(-0.0991535 0.111576 4.70945e-22)
(-0.0911435 0.106712 -3.0513e-20)
(-0.0811807 0.0970229 3.01137e-20)
(-0.0691276 0.0819955 0)
(-0.0549163 0.0613711 9.30115e-22)
(-0.03853 0.0352655 -2.85721e-20)
(-0.020336 0.00417022 2.81848e-20)
(-0.000823494 -0.0311808 0)
(0.0205903 -0.0688933 0)
(0.0431158 -0.106876 -2.25911e-20)
(0.0651532 -0.142638 4.17349e-20)
(0.0859828 -0.173388 -3.5013e-20)
(0.104271 -0.196615 2.9891e-21)
(0.118808 -0.210467 2.30136e-20)
(0.129126 -0.214004 -1.80836e-20)
(0.135874 -0.20725 1.23559e-20)
(0.140976 -0.190895 -2.13121e-21)
(0.147759 -0.165663 -3.15077e-21)
(0.160121 -0.133026 0)
(0.181304 -0.0956251 0)
(0.212104 -0.0567736 -5.19421e-22)
(0.251536 -0.0205145 6.20072e-22)
(0.296923 0.00971243 -1.34339e-23)
(0.345635 0.0316149 -1.07308e-21)
(0.395255 0.0446691 1.04281e-21)
(0.445056 0.0486656 0)
(0.494287 0.045314 -1.28818e-22)
(0.543099 0.0358071 -1.04159e-21)
(0.590436 0.0230379 1.94771e-21)
(0.635676 0.00837977 -8.18725e-22)
(0.677069 -0.00509697 -8.39744e-23)
(0.71385 -0.0170448 7.89096e-22)
(0.744835 -0.025513 -6.11696e-22)
(0.770172 -0.03146 -1.30827e-22)
(0.790064 -0.033586 -1.17725e-22)
(0.805299 -0.0338426 1.06177e-22)
(0.817285 -0.0309293 0)
(0.826655 -0.0272326 0)
(0.835819 -0.0210746 2.73131e-22)
(0.843963 -0.0152046 -1.28527e-22)
(0.854433 -0.0076835 1.01921e-22)
(0.863338 -0.00173945 -1.26708e-22)
(0.876301 0.00487163 -1.33837e-22)
(0.884913 0.00894432 3.12275e-23)
(0.899911 0.0132054 -4.45902e-23)
(0.906013 0.0149318 3.3748e-23)
(0.922583 0.0167743 -1.43106e-23)
(0.925133 0.0169041 0)
(0.943843 0.0172088 0)
(-0.0421993 0.0332215 -7.61997e-20)
(-0.044395 0.0410775 8.67208e-22)
(-0.0446362 0.0489741 7.1417e-20)
(-0.0437231 0.0575778 -5.5079e-22)
(-0.0421687 0.0666763 0)
(-0.039829 0.0759083 0)
(-0.0365495 0.0848371 -6.61967e-20)
(-0.0321734 0.0929705 -1.4185e-21)
(-0.0265918 0.0997353 9.55073e-20)
(-0.0195464 0.104501 1.84435e-22)
(-0.0108487 0.10655 -3.14221e-20)
(-0.000408879 0.105118 -3.06299e-20)
(0.011969 0.0994869 3.07168e-20)
(0.0263919 0.0889989 0)
(0.0429202 0.0731407 -3.11763e-20)
(0.0615509 0.0516398 2.83865e-20)
(0.0822003 0.0245939 0)
(0.104451 -0.00752291 0)
(0.127985 -0.0435304 2.7389e-20)
(0.152666 -0.0813571 -1.20847e-21)
(0.17786 -0.119696 -2.39435e-20)
(0.202403 -0.155401 -2.07598e-20)
(0.225234 -0.185559 2.06932e-20)
(0.244952 -0.207523 -1.4229e-20)
(0.260207 -0.219442 3.13675e-21)
(0.27015 -0.220724 1.03012e-20)
(0.274796 -0.212091 7.79366e-22)
(0.275151 -0.194923 1.12646e-23)
(0.27376 -0.170646 0)
(0.27422 -0.140688 -6.12884e-23)
(0.280735 -0.10699 1.02766e-22)
(0.295907 -0.0718715 -7.30332e-23)
(0.320924 -0.0385199 0)
(0.354612 -0.00979055 1.24208e-22)
(0.395444 0.011442 -2.21402e-21)
(0.440793 0.0245865 4.05151e-21)
(0.48934 0.0291163 2.13939e-22)
(0.539069 0.0265433 -8.31599e-23)
(0.589142 0.0180116 -1.64731e-21)
(0.637288 0.00655467 -2.11864e-22)
(0.682482 -0.00623412 1.47207e-21)
(0.722569 -0.0176309 -1.25344e-21)
(0.75704 -0.0274475 -6.21973e-24)
(0.784972 -0.0337827 -5.54096e-22)
(0.806989 -0.0377856 6.69956e-22)
(0.823372 -0.0382646 8.00778e-22)
(0.835194 -0.0372545 -2.2961e-22)
(0.843655 -0.0334496 -3.54303e-22)
(0.849544 -0.0292748 6.53553e-22)
(0.855018 -0.0229162 -4.41928e-22)
(0.859597 -0.017136 1.05672e-22)
(0.866536 -0.00970896 -1.3201e-22)
(0.872418 -0.0040178 -1.00492e-22)
(0.882753 0.00261466 2.05602e-22)
(0.889447 0.00654829 -6.38997e-24)
(0.902977 0.0110351 4.53209e-23)
(0.908209 0.0127291 0)
(0.924106 0.0148629 1.45718e-23)
(0.926382 0.0149679 -1.78898e-23)
(0.944694 0.0154125 0)
(0.0443326 0.0296998 7.62033e-20)
(0.0428851 0.0375864 -1.48427e-19)
(0.0431574 0.044913 7.14443e-20)
(0.0455132 0.0527149 6.99937e-20)
(0.0489338 0.0611169 -1.36985e-19)
(0.0533526 0.0697345 -7.45431e-23)
(0.0589548 0.0780576 6.57353e-20)
(0.0659294 0.0855768 6.5342e-20)
(0.0744098 0.0917382 -6.40097e-20)
(0.0845535 0.0959607 0)
(0.0965086 0.097437 -6.46705e-20)
(0.110385 0.0954676 1.27612e-19)
(0.126293 0.0893328 -6.29301e-20)
(0.144276 0.0783823 0)
(0.164329 0.0621031 0)
(0.186392 0.0402134 9.79736e-22)
(0.210315 0.0127429 -6.24255e-20)
(0.235686 -0.0196498 6.06413e-20)
(0.262137 -0.0559068 0)
(0.289275 -0.0942604 5.46557e-20)
(0.316423 -0.132697 -9.92122e-20)
(0.342513 -0.168249 8.82122e-20)
(0.366361 -0.197814 -7.69787e-20)
(0.38659 -0.218556 5.7959e-21)
(0.401955 -0.228581 5.01232e-20)
(0.411701 -0.227545 -2.17086e-20)
(0.415836 -0.216589 -3.91608e-22)
(0.414956 -0.197634 -2.62397e-21)
(0.410769 -0.172786 1.6965e-21)
(0.405845 -0.143878 1.05523e-21)
(0.403989 -0.112734 -4.36853e-23)
(0.408404 -0.0810605 1.76541e-21)
(0.421803 -0.0512224 -3.80678e-21)
(0.444522 -0.025307 2.30023e-21)
(0.476297 -0.00587214 0)
(0.514921 0.00619759 2.40617e-21)
(0.558798 0.0104592 -2.33241e-21)
(0.605046 0.00823889 1.61347e-21)
(0.65208 0.00085951 -2.01421e-21)
(0.696993 -0.00897017 1.95158e-22)
(0.738373 -0.0197174 0)
(0.774033 -0.0290032 1.62515e-22)
(0.803864 -0.0365868 -4.54514e-22)
(0.827186 -0.0408185 0)
(0.844935 -0.0429791 -1.23704e-21)
(0.857469 -0.0419368 4.95749e-22)
(0.865946 -0.0397659 -2.0938e-22)
(0.871335 -0.0351339 -1.83986e-22)
(0.874381 -0.0305052 0)
(0.876908 -0.0239546 0)
(0.878577 -0.0182852 3.50201e-22)
(0.882455 -0.0110072 -5.17951e-22)
(0.885573 -0.00563959 2.73262e-22)
(0.893235 0.000871102 -8.34833e-23)
(0.897896 0.00454669 -1.26581e-22)
(0.909535 0.00914324 -4.53639e-23)
(0.913675 0.0107256 6.73098e-23)
(0.928302 0.0130811 0)
(0.930175 0.0131345 2.96464e-23)
(0.947389 0.013687 8.85656e-24)
(0.154645 0.0255287 7.68137e-20)
(0.152964 0.0331135 -7.62266e-20)
(0.151631 0.0396019 5.69021e-22)
(0.153369 0.0463243 -5.4732e-22)
(0.156999 0.0537445 5.39638e-22)
(0.161952 0.0615049 -5.28473e-22)
(0.168366 0.0690284 1.03004e-21)
(0.176499 0.0758024 0)
(0.186504 0.0812984 -1.01156e-21)
(0.19848 0.0849007 1.00927e-21)
(0.212519 0.0858801 1.01068e-21)
(0.228696 0.0835129 -1.01581e-21)
(0.247056 0.0770852 0)
(0.267581 0.0659474 0)
(0.290197 0.0495677 1.02506e-21)
(0.314752 0.0276446 0)
(0.34115 0.000204151 -1.0056e-21)
(0.368893 -0.0320884 0)
(0.397434 -0.0682779 -5.71171e-20)
(0.42625 -0.106623 1.10276e-19)
(0.45452 -0.144868 -1.00949e-19)
(0.481077 -0.180028 4.79894e-20)
(0.504624 -0.208878 3.64152e-20)
(0.523824 -0.22847 -3.53612e-20)
(0.537654 -0.236903 -2.33053e-20)
(0.545717 -0.233999 2.24492e-20)
(0.548471 -0.221136 0)
(0.546727 -0.200498 2.56789e-22)
(0.541889 -0.174607 0)
(0.535643 -0.145715 0)
(0.530745 -0.115866 -2.25392e-21)
(0.529857 -0.0866177 2.27093e-21)
(0.535975 -0.0598009 -2.35507e-22)
(0.550366 -0.0369331 -2.71654e-22)
(0.573784 -0.0198544 2.64229e-22)
(0.604727 -0.00930943 2.06277e-21)
(0.641721 -0.00574057 -2.00283e-21)
(0.681671 -0.00777072 1.99151e-21)
(0.722529 -0.0141502 -1.70766e-21)
(0.761105 -0.0223765 -3.82292e-22)
(0.796042 -0.0313019 1.35686e-21)
(0.825389 -0.0384838 8.17722e-23)
(0.849246 -0.0439967 -9.12436e-22)