/*--------------------------------*- C++ -*----------------------------------*\
| =========                 |                                                 |
| \\      /  F ield         | OpenFOAM: The Open Source CFD Toolbox           |
|  \\    /   O peration     | Version:  2512                                  |
|   \\  /    A nd           | Website:  www.openfoam.com                      |
|    \\/     M anipulation  |                                                 |
\*---------------------------------------------------------------------------*/
FoamFile
{
    version     2.0;
    format      ascii;
    arch        "LSB;label=32;scalar=64";
    class       surfaceScalarField;
    location    "115.5";
    object      phi;
}
// * * * * * * * * * * * * * * * * * * * * * * * * * * * * * * * * * * * * * //

dimensions      [0 3 -1 0 0 0 0];

oriented        oriented;

internalField   nonuniform List<scalar> 
26232
(
0.000180079
0.000868549
-0.00104863
0.00079984
0.00133334
-0.0019531
0.0019672
0.000668313
-0.00183567
0.00380754
-0.00105883
-0.000781508
0.00645947
-0.0037979
0.00114597
0.0100637
-0.00750871
0.00390446
0.0147462
-0.0121487
0.00746625
0.0205967
-0.0176562
0.0118056
0.0276474
-0.0239345
0.0168838
0.035855
-0.0308424
0.0226348
0.0450924
-0.0381946
0.0289572
0.0551523
-0.0457716
0.0357117
0.0657636
-0.0533389
0.0427275
0.0766185
-0.0606688
0.0498139
0.0874048
-0.0675627
0.0567765
0.0978388
-0.0738684
0.0634343
0.107694
-0.0794909
0.0696357
0.11682
-0.084396
0.0752701
0.125151
-0.0886038
0.0802724
0.132704
-0.0921843
0.0846318
0.139555
-0.0952192
0.0883685
0.145832
-0.0978602
0.0915827
0.151539
-0.100061
0.0943545
-0.102248
0.0970511
0.156735
0.000215885
0.000652664
0.000999742
0.000549478
0.00249911
-0.000831055
0.00486653
-0.00342625
0.00825464
-0.00718601
0.0127985
-0.0120525
0.0185896
-0.0179398
0.0256488
-0.0247154
0.033904
-0.0321897
0.0431814
-0.0401198
0.0532144
-0.0482276
0.06367
-0.0562272
0.0741871
-0.0638559
0.0844198
-0.0709015
0.0940778
-0.0772207
0.102956
-0.0827468
0.110952
-0.0874863
0.118062
-0.0915062
0.124374
-0.0949156
0.130035
-0.0978457
0.135241
-0.100426
0.140179
-0.102798
0.145105
-0.104987
-0.107362
0.150219
0.000268095
0.000384569
0.0012552
-0.000437627
0.00314489
-0.00272074
0.00611023
-0.00639159
0.0103016
-0.0113773
0.0158179
-0.0175689
0.0226732
-0.0247952
0.0307696
-0.0328117
0.0398881
-0.0413082
0.0497046
-0.0499363
0.0598276
-0.0583506
0.0698511
-0.0662507
0.0794093
-0.0734141
0.0882219
-0.0797141
0.0961223
-0.0851211
0.103065
-0.0896894
0.109113
-0.0935341
0.11441
-0.0968034
0.119147
-0.0996532
0.12353
-0.102228
0.127749
-0.104645
0.131957
-0.107006
0.136297
-0.109327
-0.111841
0.140776
0.000344384
4.01847e-05
0.0015868
-0.00168004
0.00393376
-0.0050677
0.00756008
-0.0100179
0.0125826
-0.0163999
0.0190205
-0.0240067
0.0267611
-0.0325358
0.0355496
-0.0416002
0.0450105
-0.050769
0.0546997
-0.0596255
0.0641729
-0.0678238
0.0730516
-0.0751294
0.0810722
-0.0814347
0.0881087
-0.0867506
0.0941683
-0.0911807
0.0993643
-0.0948855
0.103877
-0.0980467
0.107912
-0.100838
0.111666
-0.103407
0.115306
-0.105868
0.11896
-0.108299
0.122715
-0.110761
0.126645
-0.113256
-0.115951
0.130755
0.000446331
-0.000406146
0.00199532
-0.00322903
0.00485403
-0.00792641
0.00916789
-0.0143318
0.0149772
-0.0222092
0.022173
-0.0312025
0.0304798
-0.0408426
0.0394806
-0.0506011
0.0486833
-0.0599717
0.0576055
-0.0685477
0.0658538
-0.0760722
0.0731766
-0.0824522
0.0794796
-0.0877378
0.0848095
-0.0920805
0.089313
-0.0956841
0.0931885
-0.098761
0.0966422
-0.1015
0.0998568
-0.104053
0.102977
-0.106527
0.106106
-0.108997
0.109314
-0.111507
0.112641
-0.114088
0.116124
-0.11674
-0.119566
0.119739
0.000570659
-0.000976805
0.00246454
-0.0051229
0.00585851
-0.0113204
0.0108278
-0.019301
0.0172888
-0.0286702
0.0249673
-0.0388811
0.0334197
-0.0492949
0.0421093
-0.0592907
0.050511
-0.0683735
0.0582067
-0.0762433
0.0649431
-0.0828086
0.0706432
-0.0881523
0.0753777
-0.0924723
0.0793132
-0.096016
0.0826567
-0.0990276
0.0856106
-0.101715
0.0883452
-0.104235
0.0909893
-0.106697
0.0936317
-0.10917
0.0963303
-0.111695
0.0991213
-0.114298
0.102025
-0.116991
0.10506
-0.119776
-0.122709
0.108203
0.000710922
-0.00168773
0.0029664
-0.00737838
0.00687593
-0.0152299
0.0123995
-0.0248246
0.0192906
-0.0355613
0.0270995
-0.04669
0.0352521
-0.0574475
0.0431728
-0.0672114
0.0504019
-0.0756025
0.0566647
-0.0825061
0.0618824
-0.0880263
0.0661346
-0.0924045
0.0695977
-0.0959353
0.0724828
-0.0989011
0.0749898
-0.101535
0.0772811
-0.104006
0.0794757
-0.10643
0.0816536
-0.108875
0.0838653
-0.111382
0.0861419
-0.113972
0.0885015
-0.116658
0.0909537
-0.119443
0.0935077
-0.12233
-0.125341
0.09614
0.000858866
-0.00254659
0.00346604
-0.00998556
0.00782338
-0.0195872
0.0137353
-0.0307366
0.0207742
-0.0426001
0.028342
-0.0542578
0.0358068
-0.0649123
0.0426464
-0.0740511
0.0485397
-0.0814958
0.0533834
-0.0873498
0.05725
-0.0918929
0.0603178
-0.0954723
0.0628011
-0.0984186
0.0649001
-0.101
0.0667751
-0.10341
0.0685406
-0.105772
0.0702719
-0.108161
0.0720155
-0.110618
0.0737994
-0.113165
0.0756402
-0.115813
0.0775476
-0.118565
0.079527
-0.121423
0.0815829
-0.124386
-0.127457
0.0836987
0.00100505
-0.00355165
0.00392556
-0.0129061
0.00861752
-0.0242792
0.014704
-0.0368231
0.0215884
-0.0494846
0.0285845
-0.0612538
0.0350878
-0.0714156
0.0407007
-0.0796641
0.0452682
-0.0860633
0.0488372
-0.0909188
0.0515791
-0.0946349
0.0537105
-0.0976037
0.0554358
-0.100144
0.0569181
-0.102482
0.0582726
-0.104764
0.0595734
-0.107073
0.0608654
-0.109453
0.0621747
-0.111928
0.0635173
-0.114508
0.0649025
-0.117198
0.066336
-0.119998
0.0678211
-0.122908
0.0693591
-0.125924
-0.129038
0.0709402
0.00113907
-0.00469072
0.00430719
-0.0160742
0.00918488
-0.0291569
0.0152103
-0.0428485
0.0216606
-0.0559348
0.027837
-0.0674302
0.0332344
-0.076813
0.0376121
-0.0840418
0.0409671
-0.0894182
0.0434509
-0.0934026
0.0452795
-0.0964635
0.0466646
-0.0989888
0.0477772
-0.101257
0.0487379
-0.103443
0.0496235
-0.10565
0.0504793
-0.107928
0.0513314
-0.110305
0.0521951
-0.112791
0.0530797
-0.115393
0.0539912
-0.118109
0.0549329
-0.12094
0.0559071
-0.123882
0.0569138
-0.126931
-0.130073
0.0579488
0.00125078
-0.0059415
0.00457826
-0.0194017
0.00947185
-0.0340505
0.0152066
-0.0485833
0.0209962
-0.0617244
0.0262017
-0.0726358
0.0304585
-0.0810697
0.0336795
-0.0872628
0.0359761
-0.0917149
0.0375559
-0.0949824
0.0386384
-0.0975459
0.039407
-0.0997575
0.039993
-0.101843
0.0404797
-0.10393
0.0409157
-0.106086
0.0413282
-0.108341
0.0417325
-0.110709
0.0421379
-0.113197
0.0425506
-0.115805
0.0429744
-0.118533
0.0434117
-0.121378
0.0438633
-0.124333
0.0443277
-0.127395
-0.13055
0.0448045
0.00133412
-0.00727563
0.00471794
-0.0227855
0.00945223
-0.0387848
0.0146944
-0.0538255
0.0196648
-0.0666948
0.0238365
-0.0768075
0.0269952
-0.0842284
0.0291798
-0.0894474
0.0305727
-0.0931078
0.0313974
-0.0958071
0.0318529
-0.0980014
0.0320859
-0.0999905
0.0321914
-0.101948
0.0322243
-0.103963
0.0322145
-0.106076
0.0321783
-0.108305
0.0321249
-0.110656
0.0320605
-0.113132
0.0319896
-0.115734
0.0319153
-0.118459
0.0318394
-0.121302
0.0317622
-0.124256
0.0316813
-0.127314
0.0315988
-0.130467
-0.000293642
-0.000563645
0.000857287
-0.00101111
-0.00197373
0.0026912
-0.00206186
-0.00352785
0.0045786
-0.00338272
-0.00509357
0.00641442
-0.00492434
-0.00659751
0.00813913
-0.00664496
-0.00802432
0.00974494
-0.00850742
-0.00940022
0.0112627
-0.0104781
-0.0107726
0.0127432
-0.0125265
-0.0121917
0.0142401
-0.0146247
-0.0136984
0.0157966
-0.0167461
-0.0153172
0.0174386
-0.0188637
-0.0170556
0.0191732
-0.0209482
-0.0189048
0.0209893
-0.022966
-0.0208418
0.0228596
-0.0248779
-0.0228302
0.024742
-0.0266377
-0.0248199
0.0265797
-0.0281924
-0.0267464
0.0283012
-0.0294827
-0.0285297
0.0298199
-0.0304441
-0.0300736
0.0310351
-0.0310108
-0.0312681
0.0318347
-0.0311178
-0.0319939
0.0321009
-0.0307067
-0.032123
0.0317119
-0.0297475
-0.0315079
0.0305487
-0.0300246
-0.0282665
0.0285436
-0.000351874
-0.000211771
-0.00120386
-0.00112174
-0.00243993
-0.00229178
-0.00397857
-0.00355493
-0.00575822
-0.00481785
-0.00773096
-0.00605158
-0.00985887
-0.00727231
-0.0121117
-0.00851976
-0.0144649
-0.00983854
-0.0168978
-0.0112655
-0.0193913
-0.0128237
-0.021926
-0.014521
-0.0244796
-0.0163512
-0.027026
-0.0182954
-0.0295335
-0.0203227
-0.0319639
-0.0223894
-0.0342726
-0.0244378
-0.0364079
-0.0263944
-0.0383133
-0.0281682
-0.0399305
-0.0296509
-0.0412039
-0.0307205
-0.0420827
-0.0312442
-0.0425263
-0.0310644
-0.0300199
-0.042531
-0.000379433
0.000167663
-0.00129693
-0.000204241
-0.00262185
-0.000966863
-0.00426001
-0.00191677
-0.00614022
-0.00293764
-0.00820879
-0.003983
-0.0104257
-0.00505536
-0.0127615
-0.00618403
-0.0151937
-0.00740626
-0.0177048
-0.00875449
-0.0202784
-0.0102501
-0.0228978
-0.0119016
-0.0255437
-0.0137052
-0.0281932
-0.0156459
-0.0308187
-0.0176973
-0.0333868
-0.0198213
-0.0358578
-0.0219667
-0.0381851
-0.0240671
-0.040315
-0.0260383
-0.0421904
-0.0277755
-0.0437582
-0.0291527
-0.0449717
-0.0300308
-0.0457785
-0.0302576
-0.0296283
-0.04617
-0.000371888
0.000539551
-0.00127743
0.000701305
-0.00258484
0.000340548
-0.00419436
-0.000307259
-0.00602785
-0.00110415
-0.00802589
-0.00198496
-0.0101441
-0.00293711
-0.01235
-0.00397822
-0.0146186
-0.00513757
-0.01693
-0.00644315
-0.0192652
-0.00791483
-0.0216049
-0.0095619
-0.0239273
-0.0113827
-0.0262081
-0.0133651
-0.0284193
-0.0154861
-0.0305293
-0.0177114
-0.0325013
-0.0199947
-0.034292
-0.0222764
-0.0358491
-0.0244812
-0.0371102
-0.0265144
-0.0380097
-0.0282531
-0.0384902
-0.0295503
-0.0384836
-0.0302642
-0.0301596
-0.0379523
-0.000330362
0.000869914
-0.001148
0.00151894
-0.00233358
0.00152613
-0.00378793
0.00114709
-0.00542899
0.000536907
-0.0071913
-0.000222647
-0.00902321
-0.0011052
-0.0108848
-0.00211659
-0.0127436
-0.00327878
-0.0145712
-0.00461562
-0.0163402
-0.00614584
-0.0180226
-0.00787951
-0.0195886
-0.00981665
-0.0210072
-0.0119466
-0.0222457
-0.0142475
-0.0232713
-0.0166858
-0.0240503
-0.0192158
-0.0245468
-0.0217798
-0.0247199
-0.0243081
-0.0245166
-0.0267176
-0.023866
-0.0289037
-0.0226936
-0.0307227
-0.0209544
-0.0320033
-0.0327318
-0.0183822
-0.000261231
0.00113114
-0.000926391
0.0021841
-0.00189807
0.00249781
-0.00308395
0.00233296
-0.00440047
0.00185344
-0.00577468
0.00115156
-0.00714444
0.00026456
-0.00845988
-0.000801161
-0.00967456
-0.0020641
-0.0107464
-0.00354378
-0.011634
-0.00525826
-0.0122952
-0.00721833
-0.012687
-0.00942485
-0.0127665
-0.0118671
-0.0124923
-0.0145216
-0.0118266
-0.0173515
-0.0107362
-0.0203062
-0.00919366
-0.0233224
-0.00717625
-0.0263256
-0.00466181
-0.0292321
-0.00161407
-0.0319515
0.00204853
-0.0343853
0.0064152
-0.03637
-0.0376216
0.011305
-0.000174838
0.00130598
-0.000642162
0.00265142
-0.00133091
0.00318656
-0.0021585
0.00316055
-0.0030407
0.00273564
-0.00389763
0.00200848
-0.00465706
0.00102399
-0.00525052
-0.000207694
-0.0056173
-0.00169732
-0.00569736
-0.00346372
-0.0054319
-0.00552372
-0.00476221
-0.00788802
-0.00363087
-0.0105562
-0.00198353
-0.0135144
0.000228599
-0.0167338
0.00304616
-0.0201691
0.00649935
-0.0237594
0.0106069
-0.0274299
0.0153762
-0.0310949
0.0208065
-0.0346624
0.0268932
-0.0380382
0.0336565
-0.0411486
0.0410414
-0.0437549
-0.0462687
0.0496886
-8.36314e-05
0.00138961
-0.000331754
0.00289955
-0.000697361
0.00355217
-0.00110753
0.00357072
-0.00147792
0.00310604
-0.00172134
0.0022519
-0.00175228
0.00105493
-0.00148754
-0.000472433
-0.000846922
-0.00233794
0.000247169
-0.00455781
0.00187052
-0.00714707
0.0040947
-0.0101122
0.00698531
-0.0134468
0.0105984
-0.0171276
0.014977
-0.0211124
0.020148
-0.02534
0.0261201
-0.0297316
0.0328848
-0.0341945
0.0404175
-0.0386276
0.0486834
-0.0429283
0.0576359
-0.0469906
0.0672583
-0.0507711
0.0774731
-0.0539697
-0.057495
0.0886994
3.47356e-07
0.00138927
-3.08378e-05
0.00293073
-6.26914e-05
0.00358402
-2.83141e-05
0.00353634
0.000157961
0.00291976
0.000591168
0.00181869
0.00136999
0.000276105
0.00259299
-0.00169542
0.00435694
-0.00410189
0.00675442
-0.00695529
0.00987085
-0.0102635
0.0137809
-0.0140222
0.018543
-0.0182089
0.0241947
-0.0227793
0.0307483
-0.027666
0.0381887
-0.0327804
0.0464737
-0.0380166
0.0555376
-0.0432584
0.0652971
-0.0483871
0.0756592
-0.0532903
0.0865339
-0.0578653
0.0978415
-0.0620787
0.109507
-0.0656349
-0.0695996
0.121611
6.88044e-05
0.00132046
0.000233647
0.00276589
0.000522984
0.00329469
0.00100377
0.00305555
0.00176627
0.00215727
0.00291461
0.000670356
0.00455981
-0.0013691
0.00681438
-0.00394999
0.00978661
-0.00707412
0.0135748
-0.0107435
0.0182603
-0.014949
0.0239002
-0.0196621
0.0305198
-0.0248285
0.0381073
-0.0303668
0.0466115
-0.0361702
0.0559434
-0.0421122
0.065982
-0.0480552
0.0765845
-0.053861
0.0875987
-0.0594012
0.0988741
-0.0645658
0.110282
-0.0692736
0.121693
-0.0734895
0.13311
-0.0770514
-0.0807653
0.144275
0.00011843
0.00120203
0.000451474
0.00243284
0.00103925
0.00270691
0.00195748
0.00213733
0.00330585
0.000808893
0.00519972
-0.00122351
0.00776149
-0.00393087
0.0111117
-0.00730021
0.0153591
-0.0113215
0.0205895
-0.0159738
0.0268543
-0.0212139
0.0341609
-0.0269687
0.0424653
-0.0331329
0.0516708
-0.0395723
0.0616325
-0.0461319
0.0721675
-0.0526472
0.0830705
-0.0589582
0.0941319
-0.0649224
0.105156
-0.0704254
0.115981
-0.0753907
0.126488
-0.0797807
0.136595
-0.0835961
0.146358
-0.0868144
-0.0897286
0.155321
0.000153404
0.000633151
0.00150439
0.00286021
0.00481507
0.00749602
0.0110314
0.0155368
0.0210991
0.0277601
0.0355033
0.0442464
0.053841
0.0640826
0.0747272
0.0855144
0.0961919
0.106539
0.116386
0.125627
0.134215
0.142202
0.149742
0.157064
-0.0237176
-0.0385443
0.0339954
-0.0182404
-0.0313814
0.0259041
-0.0118496
-0.0213124
0.0149216
-0.00454455
-0.00833898
0.00103394
0.00335683
0.00725344
-0.0151548
0.0118102
0.0253184
-0.0337718
0.0205078
0.0451192
-0.0538168
0.0290233
0.0656865
-0.074202
0.0370556
0.085458
-0.0934903
0.044071
0.103284
-0.110299
0.0493953
0.118496
-0.123821
0.0525265
0.130971
-0.134102
0.0536384
0.140843
-0.141955
0.054025
0.147534
-0.147921
0.0559046
0.148701
-0.15058
0.0613251
0.140457
-0.145878
0.0708501
0.119355
-0.12888
0.0833274
0.0845693
-0.0970466
0.0971228
0.037904
-0.0516994
0.110869
-0.0162771
0.00253101
0.123494
-0.0710826
0.058457
0.133865
-0.117641
0.10727
0.141058
-0.149781
0.142588
0.144828
-0.167267
0.163497
0.145842
-0.174073
0.173059
0.144895
-0.174388
0.175335
0.141656
-0.173145
0.176385
0.135319
-0.176541
0.182878
0.126907
-0.185288
0.1937
0.11998
-0.18643
0.193357
0.118162
-0.159565
0.161384
0.122384
-0.0966521
0.0924294
0.130762
-0.010547
0.00216958
0.140244
0.0740067
-0.0834893
0.148522
0.139914
-0.148192
0.154521
0.178658
-0.184656
0.157198
0.199665
-0.202342
0.155227
0.215733
-0.213763
0.14878
0.237612
-0.231165
0.140785
0.247818
-0.239823
0.135474
0.218793
-0.213482
0.135222
0.140649
-0.140397
0.139601
0.0245521
-0.0289317
0.14643
-0.079493
0.0726644
0.152386
-0.164851
0.158894
0.153794
-0.203614
0.202207
0.149271
-0.241404
0.245927
0.141695
-0.255987
0.263563
0.136523
-0.240602
0.245775
0.137343
-0.178056
0.177236
0.142673
-0.0441536
0.0388233
0.147394
0.0456258
-0.0503472
0.14738
0.188005
-0.187991
0.14399
0.240881
-0.23749
0.141483
0.299074
-0.296568
0.141624
0.277931
-0.278072
0.142788
0.115554
-0.116719
0.142789
0.0647271
-0.0647272
0.140996
-0.21366
0.215453
-0.241544
0.243292
-0.0394262
-0.0416491
-0.0350333
-0.0357742
-0.0293771
-0.0269686
-0.0224259
-0.0152902
-0.0143842
-0.000788243
-0.0054616
0.0163958
0.00426145
0.0353962
0.014414
0.055534
0.0238669
0.0760051
0.0325301
0.0946207
0.0398198
0.111207
0.045577
0.125214
0.0503533
0.136067
0.0554844
0.142403
0.0625876
0.141598
0.0725894
0.130456
0.0850003
0.106944
0.0983846
0.071185
0.111435
0.0248538
0.123313
-0.0281555
0.133392
-0.0811612
0.140896
-0.125145
0.145322
-0.154207
0.146709
-0.168654
0.145774
-0.173138
0.143413
-0.172027
0.139383
-0.169115
0.132532
-0.16969
0.123304
-0.176059
0.115191
-0.178318
0.112504
-0.156878
0.116712
-0.100859
0.125987
-0.0198221
0.136932
0.0630611
0.146955
0.129892
0.154616
0.170996
0.158577
0.195705
0.157576
0.216734
0.152053
0.243135
0.144869
0.255002
0.139883
0.223778
0.139114
0.141418
0.142293
0.0213735
0.147642
-0.0848425
0.15249
-0.169699
0.153356
-0.20448
0.148558
-0.236606
0.140867
-0.248297
0.135688
-0.235422
0.136802
-0.17917
0.142334
-0.0496857
0.1472
0.0407589
0.147333
0.187873
0.144008
0.244206
0.141596
0.301487
0.141834
0.277693
0.143347
0.114041
0.143587
0.0644863
0.141827
-0.2119
-0.239815
-0.0449356
-0.0428836
-0.0423104
-0.0383994
-0.0382299
-0.0310491
-0.0325696
-0.0209505
-0.0252742
-0.00808359
-0.0166233
0.00774492
-0.00700798
0.0257808
0.00350568
0.0450203
0.014301
0.0652098
0.0248631
0.0840586
0.0346907
0.101379
0.0437744
0.11613
0.0526718
0.127169
0.0623706
0.132704
0.0737429
0.130225
0.0868463
0.117352
0.100691
0.0931
0.11384
0.058036
0.125449
0.0132442
0.135133
-0.0378389
0.142545
-0.0885738
0.147182
-0.129782
0.148924
-0.155948
0.148118
-0.167848
0.145488
-0.170508
0.141916
-0.168455
0.137322
-0.164522
0.130341
-0.162709
0.120698
-0.166417
0.111524
-0.169143
0.107692
-0.153046
0.111513
-0.104681
0.121284
-0.0295931
0.133492
0.0508538
0.145168
0.118215
0.154477
0.161687
0.159808
0.190373
0.159984
0.216559
0.155605
0.247514
0.149318
0.261289
0.144595
0.228501
0.14322
0.142793
0.145095
0.0194981
0.148895
-0.0886422
0.152583
-0.173387
0.152962
-0.204859
0.147996
-0.23164
0.140254
-0.240554
0.135045
-0.230214
0.136376
-0.180501
0.142063
-0.0553725
0.147105
0.0357165
0.147418
0.18756
0.144134
0.24749
0.141784
0.303837
0.142145
0.277332
0.14405
0.112137
0.144559
0.0639765
0.142823
-0.210164
-0.238101
-0.0386148
-0.0422212
-0.0380373
-0.0389769
-0.0359521
-0.0331342
-0.0321846
-0.024718
-0.0266661
-0.0136022
-0.0191333
0.000212125
-0.0102201
0.0168676
-0.000508863
0.0353091
0.011423
0.053278
0.0235371
0.0719444
0.0357022
0.089214
0.0478583
0.103974
0.0603097
0.114718
0.0735297
0.119484
0.0877262
0.116029
0.102419
0.10266
0.116441
0.0790781
0.128614
0.0458624
0.138413
0.00344573
0.14589
-0.0453167
0.150741
-0.0934243
0.152653
-0.131694
0.151856
-0.155151
0.149048
-0.16504
0.144965
-0.166425
0.140359
-0.163849
0.135327
-0.15949
0.128529
-0.155911
0.118978
-0.156866
0.109045
-0.15921
0.103863
-0.147863
0.106801
-0.107619
0.11667
-0.0394624
0.129886
0.0376386
0.14309
0.10501
0.154011
0.150766
0.160804
0.18358
0.16236
0.215003
0.15931
0.250564
0.153991
0.266608
0.149473
0.233019
0.147406
0.144861
0.147953
0.0189507
0.150163
-0.0908527
0.152651
-0.175875
0.152576
-0.204783
0.147532
-0.226596
0.13979
-0.232812
0.134528
-0.224952
0.135998
-0.181971
0.141824
-0.0611984
0.147089
0.0304512
0.14763
0.187019
0.144379
0.250742
0.142064
0.306151
0.142567
0.276829
0.144895
0.109809
0.145701
0.0631712
0.143979
-0.208441
-0.236397
-0.0208876
-0.0397157
-0.0223885
-0.037476
-0.0223775
-0.0331452
-0.0207257
-0.0263698
-0.0172577
-0.0170701
-0.0115763
-0.00546934
-0.00410223
0.00939359
0.00586637
0.0253405
0.0171145
0.0420298
0.02976
0.059299
0.0432411
0.0757328
0.0573346
0.0898804
0.0720064
0.100046
0.0872339
0.104257
0.102729
0.100534
0.11772
0.0876687
0.131076
0.0657225
0.141925
0.0350134
0.149992
-0.00462159
0.155383
-0.0507082
0.157794
-0.0958344
0.157116
-0.131017
0.153962
-0.151997
0.149373
-0.160452
0.144106
-0.161158
0.138691
-0.158434
0.133327
-0.154126
0.126904
-0.149488
0.117912
-0.147874
0.107689
-0.148987
0.101171
-0.141346
0.10276
-0.109208
0.112198
-0.0489005
0.126096
0.0237403
0.140632
0.0904743
0.153096
0.138302
0.161432
0.175245
0.164554
0.211881
0.163013
0.252105
0.158711
0.27091
0.154346
0.237384
0.151587
0.14762
0.150762
0.0197757
0.151413
-0.0915033
0.152666
-0.177128
0.152161
-0.204278
0.147116
-0.221552
0.13942
-0.225115
0.134069
-0.219601
0.135605
-0.183507
0.141571
-0.0671645
0.147123
0.0248991
0.147957
0.186186
0.144751
0.253948
0.142452
0.308449
0.143104
0.276177
0.145881
0.107033
0.147006
0.0620455
0.145287
-0.206723
-0.234696
0.00692693
-0.0353377
0.00291103
-0.0334601
0.000340279
-0.0305744
-0.000301154
-0.0257284
0.00137458
-0.0187459
0.00532023
-0.009415
0.0119429
0.00277092
0.0203443
0.0169391
0.0305721
0.031802
0.0426349
0.0472362
0.056143
0.0622247
0.0707467
0.0752767
0.0861135
0.0846795
0.101829
0.0885414
0.117274
0.0850885
0.131562
0.0733802
0.143724
0.053561
0.153163
0.0255736
0.159761
-0.0112187
0.163299
-0.0542465
0.163438
-0.0959735
0.160378
-0.127957
0.155139
-0.146757
0.149026
-0.154339
0.142828
-0.154959
0.136831
-0.152437
0.131215
-0.14851
0.125242
-0.143516
0.117183
-0.139815
0.107245
-0.139049
0.0996357
-0.133737
0.0995414
-0.109114
0.108015
-0.057374
0.122129
0.00962572
0.137705
0.074899
0.151589
0.124418
0.161522
0.165312
0.166375
0.207028
0.166504
0.251976
0.163286
0.274127
0.159065
0.241605
0.155585
0.1511
0.153473
0.0218885
0.152596
-0.0906268
0.152595
-0.177127
0.151673
-0.203356
0.146699
-0.216579
0.139087
-0.217503
0.133607
-0.214122
0.135132
-0.185032
0.141251
-0.0732838
0.147168
0.0189823
0.148381
0.184973
0.145257
0.257072
0.142961
0.310746
0.143761
0.275376
0.146998
0.103796
0.148468
0.0605761
0.146741
-0.204995
-0.232993
0.0438689
-0.029518
0.0386866
-0.0282778
0.0343762
-0.0262641
0.0314673
-0.0228195
0.030318
-0.0175965
0.0312251
-0.0103221
0.0351477
-0.00115165
0.0410137
0.0110732
0.0493072
0.0235084
0.0598333
0.0367101
0.0722541
0.049804
0.0861292
0.0614016
0.100916
0.0698927
0.115941
0.0735164
0.130399
0.0706307
0.143397
0.0603815
0.154165
0.042793
0.162278
0.0174607
0.167556
-0.0164964
0.169406
-0.056096
0.167462
-0.0940296
0.162288
-0.122783
0.15529
-0.139759
0.147944
-0.146994
0.141053
-0.148068
0.1347
-0.146084
0.12892
-0.14273
0.123357
-0.137953
0.116428
-0.132886
0.107353
-0.129974
0.0991552
-0.125539
0.0972809
-0.107239
0.104257
-0.0643506
0.118022
-0.00413905
0.134239
0.0586819
0.149355
0.109302
0.160892
0.153775
0.167614
0.200306
0.169571
0.25002
0.167531
0.276167
0.163478
0.245658
0.159268
0.15531
0.155996
0.0251607
0.153662
-0.0882929
0.152402
-0.175867
0.151064
-0.202018
0.146229
-0.211743
0.138743
-0.210017
0.13309
-0.208469
0.13452
-0.186462
0.140808
-0.079572
0.147177
0.0126131
0.14888
0.183271
0.145899
0.260052
0.143602
0.313043
0.144541
0.274437
0.148244
0.100093
0.150076
0.0587442
0.148327
-0.203246
-0.231285
0.0823524
-0.0231709
0.0764671
-0.0223925
0.0710778
-0.0208747
0.0665147
-0.0182565
0.0632317
-0.0143135
0.0617196
-0.00881007
0.0623872
-0.00181923
0.0655244
0.00793597
0.0711884
0.0178444
0.0793507
0.0285478
0.0897517
0.039403
0.101917
0.0492365
0.115188
0.0566215
0.128748
0.0599566
0.141696
0.0576825
0.153176
0.0489019
0.162571
0.0333979
0.169446
0.0105858
0.173434
-0.0204845
0.173615
-0.0562774
0.169729
-0.0901434
0.162738
-0.115792
0.154356
-0.131377
0.146098
-0.138736
0.138729
-0.140698
0.132212
-0.139567
0.126379
-0.136897
0.121131
-0.132705
0.115321
-0.127076
0.107556
-0.122209
0.0994286
-0.117411
0.0959986
-0.103809
0.101085
-0.0694374
0.113809
-0.0168626
0.130209
0.0422822
0.146293
0.0932172
0.159384
0.140684
0.16805
0.19164
0.171952
0.246118
0.171222
0.276897
0.167405
0.249474
0.162532
0.160183
0.158217
0.0294761
0.15455
-0.0846265
0.152045
-0.173362
0.150283
-0.200256
0.145652
-0.207112
0.138347
-0.202712
0.132474
-0.202597
0.133719
-0.187707
0.140185
-0.0860381
0.147097
0.00570166
0.149421
0.180946
0.146672
0.262801
0.144383
0.315332
0.145443
0.273377
0.149611
0.0959257
0.151817
0.0565379
0.150034
-0.201463
-0.229569
0.115538
-0.0170977
0.109829
-0.0166838
0.104487
-0.0155321
0.0996484
-0.0134182
0.0956248
-0.0102899
0.0927884
-0.00597367
0.0915748
-0.000605596
0.0922279
0.00728281
0.0951476
0.0149247
0.100506
0.0231897
0.108204
0.0317051
0.117873
0.0395671
0.12889
0.0456046
0.140415
0.0484316
0.151517
0.0465806
0.161344
0.0390744
0.169285
0.0254571
0.1749
0.00497119
0.177385
-0.0229693
0.175794
-0.054687
0.170097
-0.0844467
0.161624
-0.107319
0.152253
-0.122006
0.143412
-0.129895
0.135759
-0.133045
0.129223
-0.133031
0.123466
-0.13114
0.11846
-0.127699
0.113602
-0.122218
0.107367
-0.115974
0.0999849
-0.110029
0.0955005
-0.0993251
0.098524
-0.0724609
0.109642
-0.0279803
0.125647
0.0262768
0.14234
0.0765242
0.156848
0.126176
0.167503
0.180985
0.173506
0.240115
0.174209
0.276194
0.170703
0.25298
0.165289
0.165597
0.16003
0.0347348
0.155192
-0.0797878
0.151471
-0.169641
0.149264
-0.198049
0.144908
-0.202755
0.137862
-0.195666
0.131734
-0.196469
0.132686
-0.188659
0.139329
-0.0926817
0.146867
-0.0018356
0.149968
0.177844
0.147565
0.265204
0.145309
0.317589
0.146469
0.272217
0.15109
0.0913051
0.153679
0.0539488
0.151849
-0.199634
-0.227848
0.139015
-0.0118372
0.134081
-0.0117502
0.12945
-0.0109005
0.125305
-0.00927376
0.121849
-0.00683409
0.119269
-0.00339296
0.117334
0.00132913
0.11717
0.00744659
0.118539
0.0135556
0.121757
0.019972
0.12694
0.0265219
0.133929
0.0325786
0.142302
0.0372313
0.151379
0.0393542
0.160294
0.0376659
0.16821
0.0311586
0.174518
0.0191485
0.178572
0.000917585
0.179236
-0.0236329
0.175755
-0.0512065
0.168445
-0.077136
0.158874
-0.0977486
0.148902
-0.112034
0.139776
-0.120769
0.13201
-0.125278
0.125556
-0.126577
0.120001
-0.125586
0.115232
-0.12293
0.111097
-0.118083
0.106374
-0.111251
0.100269
-0.103924
0.0954166
-0.0944727
0.0965316
-0.0735759
0.105632
-0.0370806
0.120644
0.0112648
0.137498
0.0596698
0.153196
0.110478
0.165756
0.168425
0.173885
0.231986
0.176184
0.273896
0.173184
0.25598
0.16739
0.171391
0.161403
0.0407215
0.155539
-0.0739235
0.150656
-0.164759
0.147964
-0.195357
0.143944
-0.198735
0.137263
-0.188986
0.130867
-0.190073
0.1314
-0.189191
0.13819
-0.0994723
0.146428
-0.0100736
0.150473
0.1738
0.148557
0.26712
0.146375
0.319771
0.147614
0.270977
0.15267
0.0862493
0.155647
0.0509723
0.153761
-0.197747
-0.226126
0.151119
-0.00763505
0.147113
-0.00774425
0.143363
-0.00715063
0.140174
-0.0060849
0.137704
-0.00436394
0.136163
-0.00185216
0.135357
0.00213521
0.135583
0.00722081
0.136688
0.0124508
0.139064
0.0175962
0.14287
0.0227159
0.148027
0.0274211
0.154249
0.0310094
0.161048
0.0325557
0.167759
0.0309549
0.173635
0.025282
0.177914
0.0148693
0.179962
-0.00112987
0.178798
-0.0224687
0.173599
-0.0460082
0.165099
-0.0686352
0.154934
-0.0875843
0.144777
-0.101877
0.135646
-0.111637
0.127908
-0.11754
0.121561
-0.120231
0.116247
-0.120271
0.111705
-0.118388
0.108024
-0.114401
0.104539
-0.107766
0.0999616
-0.099347
0.0954156
-0.0899267
0.0950093
-0.0731696
0.101868
-0.0439392
0.115319
-0.0021862
0.131788
0.0432004
0.148398
0.093869
0.162879
0.153944
0.173322
0.221544
0.177316
0.269901
0.174829
0.258467
0.168857
0.177363
0.162344
0.0472344
0.155656
-0.0672347
0.149702
-0.158805
0.146452
-0.192107
0.142786
-0.195069
0.136562
-0.182762
0.129916
-0.183427
0.129906
-0.18918
0.136748
-0.106315
0.145707
-0.0190325
0.150885
0.168622
0.14962
0.268386
0.14757
0.32182
0.148876
0.269672
0.154346
0.0807791
0.157695
0.0476231
0.155756
-0.195808
-0.224412
0.154287
-0.0048575
0.151226
-0.00468349
0.148405
-0.00432946
0.146037
-0.00371705
0.144191
-0.00251756
0.143002
-0.000663984
0.142693
0.00244487
0.143621
0.00629223
0.145567
0.0105047
0.148331
0.0148327
0.151892
0.0191544
0.156262
0.0230516
0.161289
0.0259822
0.166607
0.0272384
0.171651
0.0259101
0.175806
0.0211274
0.1785
0.0121756
0.178793
-0.0014233
0.175665
-0.0193409
0.169205
-0.0395484
0.160235
-0.0596646
0.150214
-0.0775637
0.140439
-0.092102
0.131667
-0.102866
0.12415
-0.110022
0.117932
-0.114014
0.112811
-0.11515
0.108454
-0.114031
0.104964
-0.110911
0.102269
-0.105071
0.0991303
-0.0962081
0.0953783
-0.0861748
0.0940062
-0.0717974
0.0987248
-0.0486578
0.109905
-0.0133661
0.125452
0.0276534
0.142221
0.0770996
0.158039
0.138126
0.170744
0.208839
0.176818
0.263827
0.175336
0.259948
0.16945
0.183249
0.162849
0.0538355
0.155457
-0.0598426
0.148643
-0.151991
0.144826
-0.188289
0.141488
-0.191731
0.135774
-0.177048
0.128916
-0.176569
0.128301
-0.188565
0.135144
-0.113158
0.144683
-0.0285712
0.151137
0.162167
0.150708
0.268815
0.148886
0.323642
0.150254
0.268304
0.156096
0.0749367
0.159814
0.0439056
0.157837
-0.193832
-0.222689
0.183683
-0.00160872
-0.186932
0.180899
-0.00189995
0.178225
-0.00165516
0.175522
-0.00101393
0.17292
8.43968e-05
0.170541
0.00171524
0.168755
0.00423033
0.167652
0.00739505
0.167244
0.0109132
0.167556
0.0145202
0.168755
0.0179557
0.170971
0.0208363
0.174291
0.0226615
0.17872
0.0228092
0.184084
0.0205461
0.189976
0.0152354
0.19568
0.00647184
0.200418
-0.00616108
0.203003
-0.0219257
0.202799
-0.0393451
0.199816
-0.0566814
0.194613
-0.0723609
0.187915
-0.0854035
0.180395
-0.0953462
0.172545
-0.102172
0.164737
-0.106205
0.157204
-0.107618
0.149867
-0.106694
0.142743
-0.103786
0.136125
-0.0984537
0.129372
-0.0894547
0.121462
-0.0782654
0.113691
-0.0640258
0.1096
-0.0445667
0.111536
-0.0153029
0.117799
0.021391
0.125385
0.0695128
0.132095
0.131417
0.13782
0.203113
0.143195
0.258452
0.149992
0.253151
0.158652
0.174589
0.165843
0.046644
0.168248
-0.0622476
0.165516
-0.149259
0.160818
-0.183591
0.154855
-0.185768
0.146809
-0.169002
0.138011
-0.167771
0.132903
-0.183457
0.133285
-0.113541
0.13555
-0.0308355
0.136399
0.161318
0.134525
0.27069
0.133917
0.32425
0.13852
0.263701
0.145568
0.0678891
0.149604
0.0398693
0.146756
-0.190983
-0.21879
0.194534
0.000677166
-0.19682
0.192368
0.000265583
0.190329
0.000383999
0.188395
0.000919683
0.186611
0.00186873
0.185055
0.00327127
0.184005
0.00528002
0.183592
0.00780836
0.183878
0.010627
0.184917
0.0134811
0.18677
0.0161025
0.18947
0.0181362
0.193003
0.0191284
0.19727
0.0185429
0.201999
0.0158174
0.20677
0.0104634
0.211057
0.00218506
0.214047
-0.00915058
0.21502
-0.0228991
0.213612
-0.0379365
0.2099
-0.0529697
0.204309
-0.0667694
0.19741
-0.0785047
0.189802
-0.0877381
0.181945
-0.0943153
0.174142
-0.0984023
0.166619
-0.100095
0.159352
-0.0994266
0.15221
-0.0966437
0.145519
-0.0917627
0.139141
-0.0830769
0.131998
-0.0711224
0.124347
-0.0563751
0.119216
-0.0394352
0.119536
-0.0156229
0.124985
0.0159415
0.132612
0.061886
0.140118
0.123911
0.147064
0.196168
0.153929
0.251587
0.162239
0.244841
0.171807
0.165022
0.179516
0.0389348
0.181528
-0.0642594
0.177827
-0.145559
0.172014
-0.177778
0.165364
-0.179118
0.156975
-0.160612
0.147558
-0.158355
0.141781
-0.17768
0.141753
-0.113513
0.144244
-0.0333262
0.145715
0.159846
0.144311
0.272094
0.144041
0.324519
0.149006
0.258736
0.15656
0.0603348
0.160844
0.0355853