/*--------------------------------*- C++ -*----------------------------------*\
| =========                 |                                                 |
| \\      /  F ield         | OpenFOAM: The Open Source CFD Toolbox           |
|  \\    /   O peration     | Version:  2512                                  |
|   \\  /    A nd           | Website:  www.openfoam.com                      |
|    \\/     M anipulation  |                                                 |
\*---------------------------------------------------------------------------*/
FoamFile
{
    version     2.0;
    format      ascii;
    arch        "LSB;label=32;scalar=64";
    class       volVectorField;
    location    "91";
    object      U;
}
// * * * * * * * * * * * * * * * * * * * * * * * * * * * * * * * * * * * * * //

dimensions      [0 1 -1 0 0 0 0];

internalField   nonuniform List<vector> 
13248
(
(-0.011779 0.0117359 8.43759e-20)
(-0.0178709 0.0226872 0)
(-0.00763611 0.0261317 -1.60072e-19)
(0.0170629 0.0241712 1.50787e-19)
(0.0550943 0.0187081 1.41822e-19)
(0.105705 0.0113389 0)
(0.168181 0.00328154 0)
(0.241603 -0.00455578 3.46056e-19)
(0.32462 -0.0115056 -1.84601e-21)
(0.415309 -0.0171012 -3.01905e-19)
(0.511142 -0.0210553 2.77156e-19)
(0.609102 -0.0232476 -1.73222e-19)
(0.705902 -0.0237107 0)
(0.798276 -0.0226071 -2.82661e-19)
(0.883278 -0.0201966 5.20939e-19)
(0.958541 -0.0167954 -1.23869e-19)
(1.02245 -0.0127324 -2.0495e-19)
(1.07423 -0.0083208 1.92411e-19)
(1.11393 -0.00378538 0)
(1.14227 0.000566343 0)
(1.1607 0.00500839 0)
(1.17025 0.00816379 0)
(1.17443 0.0132848 4.82133e-20)
(1.17051 0.0112109 1.60745e-19)
(-0.0102571 0.0092312 -2.54754e-19)
(-0.0106549 0.016176 1.73727e-19)
(0.00836662 0.0172323 -1.19527e-21)
(0.0447722 0.0142636 -2.30015e-19)
(0.0971977 0.00903087 -1.41668e-19)
(0.164478 0.00306125 -1.33984e-19)
(0.245198 -0.00249116 -2.47684e-19)
(0.337402 -0.00681098 2.33492e-19)
(0.438408 -0.00938543 0)
(0.544791 -0.00998705 1.64043e-21)
(0.65256 -0.00865201 3.02478e-21)
(0.757509 -0.00563974 1.71679e-19)
(0.855632 -0.0013708 0)
(0.94354 0.00365037 0)
(1.01877 0.00891576 1.86519e-19)
(1.07996 0.0139838 -3.50149e-19)
(1.12686 0.0185288 1.99393e-19)
(1.16023 0.0223631 -1.87205e-19)
(1.18162 0.0254404 -7.95063e-20)
(1.19308 0.0278034 -1.37809e-19)
(1.19681 0.0296943 -5.34316e-20)
(1.19513 0.0308827 -9.82328e-20)
(1.18986 0.0331014 1.50688e-19)
(1.18163 0.03123 4.16521e-20)
(-0.007747 0.00654327 0)
(9.93744e-05 0.00912113 0)
(0.0307974 0.00777087 8.14009e-20)
(0.0819378 0.00416654 7.53634e-20)
(0.151665 -5.98112e-05 -1.39973e-21)
(0.238 -0.00348735 -1.37023e-19)
(0.33828 -0.00513784 0)
(0.448912 -0.00447603 -1.16133e-19)
(0.565376 -0.00138443 1.08051e-19)
(0.682516 0.00387489 -2.42942e-22)
(0.795055 0.0107396 -1.83212e-19)
(0.898197 0.0184669 -1.65105e-19)
(0.988167 0.0262728 5.21053e-21)
(1.06256 0.0334605 -1.29881e-19)
(1.12049 0.0395162 3.17042e-19)
(1.16245 0.0441575 0)
(1.19007 0.0473333 -1.93713e-19)
(1.20571 0.0491826 9.47909e-20)
(1.21207 0.0499834 7.94374e-20)
(1.2118 0.0500362 0)
(1.20728 0.0497732 6.17487e-20)
(1.20029 0.0491061 -2.07905e-19)
(1.19224 0.0493601 1.95166e-19)
(1.18384 0.0465549 1.17356e-19)
(-0.00392764 0.00374077 -8.93705e-20)
(0.0152502 0.00197933 -9.21864e-20)
(0.0609499 -0.00125075 8.38859e-20)
(0.13005 -0.00454516 0)
(0.21974 -0.00648129 0)
(0.326606 -0.00587964 -2.01611e-21)
(0.446057 -0.00216046 0)
(0.572319 0.00464659 -3.49726e-19)
(0.698869 0.0139831 3.24059e-19)
(0.819182 0.0249024 -3.99471e-19)
(0.927571 0.0362708 9.11876e-20)
(1.01988 0.0469876 0)
(1.09387 0.0561711 1.46747e-19)
(1.14923 0.063273 -2.69819e-19)
(1.1873 0.0681074 6.42393e-20)
(1.21059 0.0708059 1.57777e-19)
(1.2222 0.0717241 -1.03519e-20)
(1.22528 0.0713306 -1.73765e-19)
(1.22269 0.0701057 0)
(1.21672 0.0684617 0)
(1.20904 0.0667634 -5.85178e-20)
(1.20069 0.0649886 5.1646e-20)
(1.19243 0.0641194 1.78782e-19)
(1.18413 0.0607022 -1.67862e-19)
(0.0016052 0.000893136 -9.33275e-20)
(0.0356916 -0.00477647 -9.32732e-20)
(0.099899 -0.00881929 2.62634e-19)
(0.189923 -0.0103254 -1.60024e-19)
(0.301333 -0.00829307 1.50624e-19)
(0.42852 -0.00205166 2.74703e-19)
(0.564358 0.00824662 -1.9354e-19)
(0.700743 0.0216893 -2.34014e-19)
(0.829648 0.0368504 5.59521e-21)
(0.944287 0.0521118 2.99713e-19)
(1.04001 0.0659927 0)
(1.11472 0.0774042 8.06854e-20)
(1.16871 0.0857754 0)
(1.20419 0.0910447 -1.28581e-19)
(1.22448 0.0935483 1.80462e-19)
(1.23332 0.093859 1.60692e-21)
(1.23423 0.0926257 -4.59869e-20)
(1.23014 0.0904489 8.43707e-20)
(1.22325 0.0878101 7.23865e-20)
(1.21503 0.0850475 -6.4088e-20)
(1.2064 0.0823819 5.85028e-20)
(1.19788 0.079822 -5.16323e-20)
(1.18969 0.0778934 0)
(1.18189 0.0740852 -3.89643e-20)
(0.00926921 -0.00186159 9.33142e-20)
(0.0621917 -0.0105455 9.74403e-20)
(0.148254 -0.0138262 -8.78721e-20)
(0.261382 -0.0116576 1.63608e-19)
(0.394732 -0.00382621 -1.5399e-19)
(0.539816 0.00942619 1.39367e-19)
(0.686774 0.0268383 -6.66824e-20)
(0.825743 0.046404 1.75793e-19)
(0.948476 0.0658869 -1.1001e-19)
(1.04955 0.083314 1.93014e-19)
(1.12684 0.0973231 -4.43698e-19)
(1.18119 0.107299 1.62081e-19)
(1.21561 0.113307 -1.40051e-19)
(1.23423 0.115898 1.31553e-19)
(1.24137 0.115866 1.11445e-19)
(1.24089 0.114035 9.62277e-20)
(1.23581 0.11112 -2.676e-19)
(1.22828 0.107663 1.65318e-19)
(1.21968 0.10403 -7.23879e-20)
(1.21082 0.100443 1.86516e-19)
(1.20214 0.0970207 -6.026e-20)
(1.19382 0.0937806 -1.43933e-19)
(1.18599 0.0909908 1.32418e-19)
(1.17854 0.0869194 3.89516e-20)
(0.0194229 -0.00427947 0)
(0.0952282 -0.0145427 6.00125e-22)
(0.20595 -0.015046 1.81925e-19)
(0.343086 -0.00711237 -1.70852e-19)
(0.496643 0.00816918 -1.543e-19)
(0.654944 0.029177 2.86678e-19)
(0.805934 0.053274 -1.33089e-19)
(0.93937 0.0774304 1.76928e-19)
(1.04856 0.0989916 -4.22392e-21)
(1.13099 0.116185 -9.97171e-20)
(1.18786 0.128277 2.16028e-19)
(1.22292 0.135438 -3.1762e-19)
(1.2411 0.138438 0)
(1.24738 0.138304 -6.13782e-20)
(1.24599 0.136053 -1.62405e-19)
(1.24015 0.132531 5.12765e-20)
(1.23206 0.128357 2.34841e-21)
(1.22304 0.123937 -1.08693e-19)
(1.21388 0.119516 8.06954e-21)
(1.20497 0.115225 1.25101e-19)
(1.19646 0.111128 -5.46878e-20)
(1.18844 0.107252 -2.05404e-20)
(1.18086 0.103661 6.42081e-20)
(1.17368 0.0993309 0)
(0.0323012 -0.00600751 0)
(0.134845 -0.0158125 4.92249e-20)
(0.272102 -0.0111968 -2.3591e-19)
(0.43252 0.00452999 8.58837e-20)
(0.602534 0.0283831 -8.08305e-20)
(0.767663 0.0569848 -7.35272e-20)
(0.915035 0.0863501 -1.3019e-19)
(1.03592 0.112862 6.49645e-20)
(1.12681 0.134086 5.66492e-20)
(1.18892 0.149019 0)
(1.22664 0.157875 1.27412e-19)
(1.24573 0.161643 -1.88447e-19)
(1.25193 0.16162 1.40272e-19)
(1.25005 0.159058 6.14097e-20)
(1.24361 0.154974 -4.96737e-20)
(1.23496 0.150094 -4.0935e-20)
(1.22549 0.144888 -3.78817e-20)
(1.21596 0.139633 1.14649e-19)
(1.20675 0.134481 0)
(1.19801 0.129507 5.6467e-20)
(1.18978 0.124749 4.67496e-20)
(1.18204 0.120222 -1.16844e-19)
(1.17472 0.115888 -7.87061e-20)
(1.16777 0.111301 7.29348e-20)
(0.0479648 -0.0066089 -5.23338e-20)
(0.180552 -0.0133117 -1.58791e-21)
(0.344961 -0.00108348 4.78227e-20)
(0.526184 0.0241055 1.331e-19)
(0.707263 0.0568455 3.85652e-20)
(0.872147 0.0919123 -7.4544e-20)
(1.0091 0.124403 6.83207e-20)
(1.11269 0.150829 -5.9996e-20)
(1.18355 0.169632 1.06933e-19)
(1.22647 0.180943 4.54462e-20)
(1.24813 0.185958 -1.28648e-19)
(1.2552 0.186293 3.78673e-20)
(1.25327 0.183511 6.41742e-20)
(1.24638 0.178863 -3.16527e-20)
(1.23716 0.173235 0)
(1.22714 0.167186 4.65484e-20)
(1.21714 0.161043 7.81895e-20)
(1.20752 0.15498 1.29511e-20)
(1.19845 0.149089 -6.482e-20)
(1.18995 0.143415 2.69513e-20)
(1.18199 0.137978 0)
(1.17451 0.132774 -2.09417e-20)
(1.16744 0.127741 -1.95274e-20)
(1.16068 0.122833 0)
(0.0662559 -0.00560757 0)
(0.231273 -0.00603782 2.73308e-20)
(0.421985 0.0162231 5.0506e-20)
(0.619966 0.0519172 -1.35023e-19)
(0.805827 0.0929374 4.34057e-20)
(0.963858 0.132552 0)
(1.08545 0.165715 6.53385e-20)
(1.16966 0.189847 -9.11087e-20)
(1.22123 0.204728 -5.32261e-20)
(1.2477 0.211698 2.41293e-20)
(1.25695 0.212754 -3.80697e-20)
(1.2556 0.209869 9.27321e-20)
(1.24849 0.204632 4.623e-20)
(1.23872 0.198159 -3.23013e-20)
(1.22808 0.191146 -3.19216e-21)
(1.2175 0.183993 -8.72857e-20)
(1.20738 0.176912 3.96687e-20)
(1.19789 0.170008 -9.43285e-22)
(1.18904 0.163336 0)
(1.18082 0.156921 -2.69791e-20)
(1.17315 0.150772 0)
(1.16595 0.144865 6.04126e-20)
(1.15914 0.13917 -7.17569e-20)
(1.15258 0.13386 3.26151e-20)
(0.0867717 -0.00253792 -1.40379e-20)
(0.285365 0.00684388 -6.84063e-20)
(0.500041 0.0412391 7.75819e-20)
(0.709615 0.0876755 4.56884e-20)
(0.893981 0.135518 -2.18991e-20)
(1.03992 0.177308 3.66429e-20)
(1.14346 0.208786 -1.78529e-20)
(1.20841 0.228904 2.96962e-20)
(1.24296 0.238957 0)
(1.25633 0.24135 6.70411e-20)
(1.25658 0.238598 -2.80052e-21)
(1.24966 0.232772 -5.40173e-20)
(1.23945 0.225332 2.30893e-20)
(1.22815 0.217187 -2.59668e-20)
(1.21689 0.208849 -9.81085e-21)
(1.20617 0.200584 1.13998e-20)
(1.19617 0.192523 -8.76377e-21)
(1.18691 0.184727 -4.72849e-20)
(1.17836 0.177227 2.89738e-20)
(1.17046 0.170036 5.91256e-21)
(1.16312 0.163145 5.18823e-21)
(1.15622 0.156522 4.55334e-21)
(1.14968 0.150206 0)
(1.14334 0.144383 0)
(0.108932 0.00301745 1.40476e-20)
(0.340839 0.0259084 -1.40834e-20)
(0.575842 0.0739842 -2.58e-20)
(0.791336 0.130539 0)
(0.968675 0.183126 -1.08334e-20)
(1.09903 0.224637 -9.68634e-21)
(1.18378 0.252449 -1.66361e-20)
(1.23109 0.267394 0)
(1.25155 0.272208 0)
(1.25503 0.270083 0)
(1.24908 0.263771 0)
(1.2387 0.255251 0)
(1.22679 0.245766 -1.44789e-20)
(1.21481 0.23601 6.58965e-21)
(1.20342 0.226338 1.14334e-20)
(1.19283 0.216914 5.33494e-21)
(1.1831 0.207813 1.31726e-20)
(1.17419 0.199066 0)
(1.16602 0.190689 -3.13948e-21)
(1.15852 0.182682 -2.97442e-21)
(1.15157 0.175022 -5.19645e-21)
(1.14506 0.167684 -4.56058e-21)
(1.13886 0.160775 0)
(1.13285 0.154335 3.25279e-21)
(-0.000801787 -0.019405 8.58867e-21)
(-0.00536313 -0.0535624 -8.92192e-21)
(-0.014847 -0.0832121 -1.68996e-20)
(-0.0270772 -0.107963 0)
(-0.040792 -0.128051 -2.26105e-20)
(-0.0552662 -0.144256 7.09e-21)
(-0.0699265 -0.157616 -1.34271e-20)
(-0.0843262 -0.169166 0)
(-0.0981469 -0.179752 0)
(-0.111174 -0.189943 0)
(-0.123268 -0.200014 0)
(-0.134337 -0.209995 0)
(-0.144315 -0.219721 3.80906e-23)
(-0.153141 -0.228897 -8.90802e-21)
(-0.160747 -0.237131 1.67646e-20)
(-0.167053 -0.243962 2.37709e-20)
(-0.171964 -0.248874 7.35562e-21)
(-0.175376 -0.251303 0)
(-0.177183 -0.250657 6.73707e-21)
(-0.177305 -0.246342 -1.86688e-20)
(-0.175648 -0.237801 -1.15911e-20)
(-0.172048 -0.224512 -1.08723e-20)
(-0.166516 -0.20593 0)
(-0.160165 -0.181777 0)
(-0.000385273 -0.0144491 -2.58244e-20)
(-0.00467862 -0.0419685 4.45684e-20)
(-0.0148391 -0.0672748 -1.68462e-20)
(-0.0281868 -0.0892562 -3.20156e-20)
(-0.0431952 -0.107722 4.52145e-20)
(-0.0590146 -0.123167 -2.85406e-20)
(-0.074997 -0.136413 4.02705e-20)
(-0.0906601 -0.14832 2.54695e-20)
(-0.105682 -0.159601 0)
(-0.119866 -0.170724 -2.25411e-20)
(-0.133099 -0.181902 -1.02067e-22)
(-0.14532 -0.193128 1.99434e-20)
(-0.156494 -0.204232 2.82776e-20)
(-0.166591 -0.214928 3.54433e-20)
(-0.175576 -0.224844 -1.67498e-20)
(-0.183404 -0.233548 -4.70291e-20)
(-0.19002 -0.240548 1.44242e-20)
(-0.195359 -0.245297 -5.44812e-20)
(-0.199372 -0.247204 0)
(-0.202048 -0.245651 1.23316e-20)
(-0.203337 -0.240025 1.15791e-20)
(-0.202978 -0.229699 1.08609e-20)
(-0.201 -0.21399 0)
(-0.199791 -0.192548 0)
(-0.000620857 -0.00865214 0)
(-0.00519417 -0.0285754 8.98915e-20)
(-0.0158616 -0.0490869 -3.39065e-20)
(-0.0297412 -0.0681649 3.21063e-20)
(-0.0451986 -0.0850528 -9.1235e-20)
(-0.061337 -0.0998574 0)
(-0.0774786 -0.113108 -5.42437e-20)
(-0.093128 -0.125452 2.5574e-20)
(-0.107965 -0.137449 -4.8427e-20)
(-0.121804 -0.14947 2.29865e-20)
(-0.134547 -0.161674 1.28274e-19)
(-0.146148 -0.174034 -6.02093e-20)
(-0.15659 -0.186385 -9.40357e-20)
(-0.16586 -0.198456 -3.50376e-20)
(-0.173944 -0.209906 3.72929e-22)
(-0.180824 -0.220328 1.22982e-19)
(-0.186469 -0.229256 -5.75084e-20)
(-0.190846 -0.23616 7.75383e-22)
(-0.193934 -0.240448 0)
(-0.195769 -0.241466 -4.41194e-20)
(-0.196336 -0.238514 0)
(-0.195254 -0.230846 -3.84239e-20)
(-0.192367 -0.217722 1.38417e-19)
(-0.191317 -0.198931 -1.53519e-21)
(-0.00153751 -0.00253325 0)
(-0.00692412 -0.0144559 4.15544e-22)
(-0.0178439 -0.0299595 3.45547e-20)
(-0.0315611 -0.0460686 -3.2761e-20)
(-0.0465128 -0.061402 3.03155e-20)
(-0.061838 -0.0756213 1.74372e-19)
(-0.0768754 -0.0889222 -5.46524e-20)
(-0.0911369 -0.101711 -5.19995e-20)
(-0.104307 -0.114387 9.73927e-20)
(-0.116201 -0.127224 -1.37162e-19)
(-0.126723 -0.140333 4.32331e-20)
(-0.135833 -0.153675 4.06024e-20)
(-0.143514 -0.167091 0)
(-0.149767 -0.180331 3.52672e-20)
(-0.154593 -0.193079 0)
(-0.157996 -0.204961 6.08029e-20)
(-0.159975 -0.215547 -1.11309e-19)
(-0.160525 -0.224345 2.86389e-20)
(-0.159642 -0.230791 9.58028e-20)
(-0.157374 -0.234229 4.40812e-20)
(-0.153744 -0.23388 0)
(-0.148307 -0.228812 -1.04167e-19)
(-0.140336 -0.218078 3.41246e-20)
(-0.133757 -0.20146 0)
(-0.00305508 0.00335767 0)
(-0.0096982 -0.000728543 -1.09969e-19)
(-0.0205514 -0.0112356 -3.53203e-20)
(-0.0333554 -0.0243578 -6.59345e-20)
(-0.0467894 -0.038118 6.20892e-20)
(-0.0601047 -0.0517276 -5.83741e-20)
(-0.0726985 -0.0650355 1.11136e-19)
(-0.084107 -0.078199 5.22222e-20)
(-0.0940168 -0.0914515 -1.47502e-19)
(-0.102237 -0.104968 9.27379e-20)
(-0.10866 -0.118813 -1.30256e-19)
(-0.113237 -0.13293 2.86076e-19)
(-0.11595 -0.147164 -1.52896e-19)
(-0.116804 -0.161281 7.12917e-20)
(-0.115822 -0.174981 1.96373e-19)
(-0.113045 -0.187916 -6.32338e-20)
(-0.108524 -0.199691 -5.84903e-20)
(-0.102319 -0.209869 -5.25286e-20)
(-0.0944896 -0.217958 0)
(-0.0851259 -0.223388 -8.0345e-20)
(-0.0743522 -0.225431 -6.68343e-20)
(-0.0619387 -0.223061 1.02091e-19)
(-0.0465253 -0.214894 1.10229e-19)
(-0.029327 -0.199949 -1.01763e-19)
(-0.00499029 0.00851978 0)
(-0.0131677 0.0115646 -1.49999e-19)
(-0.0235947 0.00580653 -1.06164e-21)
(-0.0347316 -0.00437022 1.33412e-19)
(-0.0456238 -0.0165094 0)
(-0.0556994 -0.0294185 0)
(-0.0644457 -0.0426226 0)
(-0.071439 -0.0560271 -5.28171e-20)
(-0.0763645 -0.0696968 -1.05254e-22)
(-0.0790124 -0.0837042 9.42044e-20)
(-0.0792537 -0.0980566 -1.31195e-19)
(-0.0770187 -0.112674 3.13939e-22)
(-0.0722833 -0.127392 0)
(-0.0650624 -0.141972 -7.12569e-20)
(-0.0554102 -0.156116 6.49717e-20)
(-0.0434217 -0.169477 -1.8387e-19)
(-0.0292328 -0.181672 2.20032e-19)
(-0.0130138 -0.192294 4.37888e-20)
(0.00504388 -0.20092 -8.91965e-21)
(0.0247346 -0.207113 -1.64845e-19)
(0.0457924 -0.210376 -6.95173e-20)
(0.0679607 -0.209999 2.08127e-19)
(0.0918119 -0.204523 -1.33458e-19)
(0.122743 -0.190242 0)
(-0.00709911 0.0125656 7.40802e-20)
(-0.0168758 0.0215675 7.52523e-20)
(-0.0264749 0.0200684 -7.26247e-20)
(-0.0352032 0.0126928 -1.36334e-19)
(-0.042549 0.00219748 1.28378e-19)
(-0.0481568 -0.00990672 -1.21728e-19)
(-0.0516175 -0.0228556 1.72385e-19)
(-0.052547 -0.0363271 -5.28174e-20)
(-0.0506406 -0.0502193 1.01812e-19)
(-0.0456657 -0.064493 0)
(-0.0374662 -0.0790872 9.0029e-20)
(-0.0259565 -0.0938814 -1.69478e-19)
(-0.0111185 -0.108684 1.55222e-19)
(0.0069997 -0.123238 -1.45791e-19)
(0.0282777 -0.137222 0)
(0.0525187 -0.150272 1.2213e-19)
(0.0794514 -0.161988 2.17666e-19)
(0.108738 -0.171959 -2.04274e-19)
(0.139992 -0.17978 -8.89132e-20)
(0.172802 -0.185078 -7.36284e-20)
(0.206687 -0.187551 2.12054e-19)
(0.241415 -0.18685 5.21185e-20)
(0.275629 -0.18229 -5.42694e-20)
(0.323244 -0.168181 4.06412e-20)
(-0.00911436 0.0152696 -7.40901e-20)
(-0.0203062 0.0287055 2.33603e-19)
(-0.0286407 0.0307273 -7.37433e-20)
(-0.0342518 0.0258471 1.38817e-19)
(-0.0370781 0.0169317 -1.30713e-19)
(-0.0369836 0.00570454 8.18044e-22)
(-0.0336906 -0.00684484 5.86541e-20)
(-0.0268668 -0.0202003 2.2184e-19)
(-0.0162103 -0.0340983 4.19675e-23)
(-0.00148548 -0.0483851 -9.67035e-20)
(0.0174649 -0.0629187 0)
(0.0407055 -0.0775207 -8.47508e-20)
(0.0681931 -0.0919579 1.58965e-19)
(0.0997709 -0.105936 1.44713e-19)
(0.135162 -0.119105 -6.85489e-20)
(0.173964 -0.13108 1.91545e-22)
(0.215661 -0.14145 -5.55132e-20)
(0.259645 -0.149809 9.94973e-20)
(0.305247 -0.155778 8.88741e-20)
(0.351809 -0.159012 -7.82483e-20)
(0.39841 -0.159349 6.72278e-20)
(0.445897 -0.156158 -5.75344e-20)
(0.486882 -0.151102 0)
(0.552159 -0.135707 -4.05586e-20)
(-0.010799 0.0165861 7.66186e-20)
(-0.0229614 0.0327253 -7.83347e-20)
(-0.0295197 0.0372969 7.54247e-20)
(-0.0313011 0.0344192 0)
(-0.0286435 0.0268925 0)
(-0.0216179 0.0165386 1.27728e-19)
(-0.0100734 0.00449788 -1.18383e-19)
(0.00624598 -0.00855176 1.12483e-19)
(0.0276016 -0.0222074 -5.25344e-19)
(0.054192 -0.0361974 3.43477e-22)
(0.0861083 -0.0502876 9.25349e-20)
(0.123298 -0.0642292 0)
(0.165536 -0.0777354 -1.58115e-19)
(0.212413 -0.0904725 2.93974e-19)
(0.263328 -0.102073 -2.03945e-19)
(0.317505 -0.11215 -3.02503e-19)
(0.374026 -0.120321 9.5683e-21)
(0.43188 -0.126236 2.02905e-19)
(0.490009 -0.129605 0)
(0.547535 -0.130137 0)
(0.60279 -0.128058 -6.72097e-20)
(0.65848 -0.121941 5.75189e-20)
(0.701083 -0.116078 -1.83458e-19)
(0.773836 -0.0986521 1.72174e-19)
(-0.0119825 0.0166361 0)
(-0.0244089 0.0337026 0)
(-0.028538 0.0396809 -2.27815e-19)
(-0.0256867 0.0381318 7.22183e-20)
(-0.0165035 0.0316609 -1.62642e-22)
(-0.00123872 0.0220933 1.2913e-19)
(0.0201281 0.0106519 0)
(0.0477493 -0.00186857 -1.13509e-19)
(0.0817833 -0.0149414 1.0559e-19)
(0.122291 -0.0281828 -1.99064e-19)
(0.16916 -0.0412653 7.66859e-22)
(0.222045 -0.053869 1.71698e-19)
(0.280336 -0.0656609 -2.70921e-21)
(0.343145 -0.0762933 1.42171e-19)
(0.409333 -0.0854179 -2.06123e-19)
(0.47756 -0.0927054 0)
(0.54637 -0.0978694 2.15326e-19)
(0.614283 -0.100687 -3.01004e-19)
(0.679866 -0.101038 8.66319e-20)
(0.742051 -0.0987559 0)
(0.798952 -0.094405 6.61664e-20)
(0.853516 -0.0863155 2.18676e-19)
(0.89252 -0.0797261 -2.05233e-19)
(0.956348 -0.0620898 -2.00221e-19)
(-0.0125726 0.0156583 2.39226e-19)
(-0.024289 0.0319926 -3.29499e-19)
(-0.0250895 0.038172 1.86688e-22)
(-0.0165813 0.0371706 7.35999e-20)
(0.000379056 0.0313422 -1.3818e-19)
(0.0253947 0.0224527 -1.28399e-19)
(0.0583398 0.0117543 2.42755e-19)
(0.0991971 0.000119258 -1.31299e-21)
(0.1479 -0.0118295 -2.142e-19)
(0.204193 -0.0236146 3.99184e-19)
(0.267526 -0.0348358 -1.95516e-21)
(0.336988 -0.0451336 -1.7419e-19)
(0.411293 -0.054178 0)
(0.488819 -0.0616736 0)
(0.56769 -0.0673737 -6.72151e-20)
(0.645907 -0.0710973 -1.20499e-19)
(0.721494 -0.0727409 -2.12899e-19)
(0.792639 -0.0722908 1.9985e-19)
(0.85783 -0.0698116 -8.66638e-20)
(0.915967 -0.0654138 1.45991e-19)
(0.966078 -0.0595327 -7.63865e-20)
(1.00951 -0.0513728 1.00145e-19)
(1.03962 -0.0446485 -2.54918e-19)
(1.08113 -0.0296709 4.15499e-20)
(-0.0125213 0.0139376 8.09465e-20)
(-0.022255 0.0281278 0)
(-0.0184534 0.0333919 1.57574e-19)
(-0.00286991 0.0322021 -1.48439e-19)
(0.0235038 0.0266623 1.38301e-19)
(0.0601323 0.0184496 0)
(0.106684 0.00880816 0)
(0.162831 -0.00135103 -1.14707e-19)
(0.228056 -0.0113481 1.28644e-21)
(0.301484 -0.0206609 1.01126e-19)
(0.381774 -0.0288811 -9.19156e-20)
(0.467103 -0.0356943 1.73975e-19)
(0.555224 -0.0408763 0)
(0.64361 -0.0442965 2.86829e-19)
(0.72965 -0.04592 -5.29419e-19)
(0.810859 -0.0458041 3.64776e-19)
(0.885085 -0.0440841 2.0948e-19)
(0.950658 -0.0409698 -1.96651e-19)
(1.00652 -0.0366655 0)
(1.05216 -0.0315338 0)
(1.08792 -0.025581 0)
(1.11426 -0.0193473 0)
(1.13178 -0.013172 4.92404e-20)
(1.14933 -0.00310387 -1.65997e-19)
(-0.15363 -0.148188 -7.24244e-21)
(-0.138687 -0.0987348 7.26407e-21)
(-0.120189 -0.0380703 -2.06235e-22)
(-0.0978396 0.0330962 0)
(-0.0719012 0.112289 -6.4313e-21)
(-0.0428945 0.196346 1.22358e-20)
(-0.011777 0.281386 -3.57369e-22)
(0.0200536 0.362956 -5.30727e-21)
(0.050449 0.437157 0)
(0.0771396 0.49978 0)
(0.0986774 0.548647 -2.03073e-22)
(0.115169 0.582995 -1.80068e-22)
(0.129752 0.600295 -2.79378e-21)
(0.149115 0.594406 2.5551e-21)
(0.181595 0.556088 0)
(0.232385 0.477683 0)
(0.299764 0.358699 2.87031e-21)
(0.376627 0.206343 1.52457e-22)
(0.455746 0.0319783 -2.66762e-21)
(0.532544 -0.148262 -1.79486e-22)
(0.602052 -0.310164 0)
(0.65848 -0.430528 0)
(0.697776 -0.500168 0)
(0.718829 -0.526535 0)
(0.725316 -0.52327 0)
(0.722051 -0.505648 0)
(0.705617 -0.494002 2.91801e-22)
(0.669132 -0.500278 -4.62982e-22)
(0.619477 -0.503293 0)
(0.581731 -0.453573 0)
(0.57896 -0.317215 -5.89729e-22)
(0.611844 -0.115592 5.73149e-22)
(0.665365 0.0953515 2.67127e-22)
(0.720211 0.263564 0)
(0.765269 0.369941 0)
(0.797603 0.415708 2.78789e-22)
(0.816252 0.429924 -2.70996e-22)
(0.810216 0.444963 0)
(0.77477 0.468675 2.34577e-22)
(0.727255 0.45759 -3.54768e-22)
(0.698977 0.35942 1.5005e-22)
(0.701521 0.183999 0)
(0.733927 -0.0266832 -2.85506e-22)
(0.77177 -0.187858 2.77615e-22)
(0.815772 -0.300174 0)
(0.834133 -0.343325 0)
(0.821282 -0.384865 -6.39792e-23)
(0.774515 -0.391874 1.78307e-22)
(0.733935 -0.341718 0)
(0.723226 -0.225722 0)
(0.757403 -0.0268494 -5.60472e-23)
(0.793832 0.0906146 5.44154e-24)
(0.821443 0.256141 -5.61456e-24)
(0.799476 0.306636 3.43532e-23)
(0.778878 0.36331 0)
(0.765547 0.329302 0)
(0.790132 0.131273 0)
(0.790725 0.0783041 0)
(0.803811 -0.224603 0)
(0.778011 -0.258425 0)
(-0.203279 -0.162264 -5.99858e-22)
(-0.195955 -0.117506 -2.52493e-20)
(-0.184889 -0.061563 5.1655e-22)
(-0.169235 0.00457579 2.32493e-20)
(-0.149008 0.0798954 3.1291e-22)
(-0.124402 0.161313 0)
(-0.0958685 0.245198 -1.82979e-20)
(-0.0639948 0.327352 3.48305e-20)
(-0.0310224 0.404469 -1.65332e-20)
(0.00117527 0.471304 1.33157e-20)
(0.0333629 0.524203 -1.27391e-20)
(0.0668972 0.560847 1.07902e-20)
(0.104642 0.576409 -1.04676e-20)
(0.151576 0.564034 -3.20049e-22)
(0.212276 0.516339 -1.11626e-20)
(0.287229 0.429556 1.08471e-20)
(0.371472 0.306327 -1.26905e-20)
(0.457722 0.153882 1.19187e-20)
(0.540574 -0.0183741 -1.27934e-20)
(0.617019 -0.194793 2.38174e-20)
(0.681778 -0.350317 -1.10698e-20)
(0.728657 -0.46096 -5.4259e-22)
(0.755512 -0.518744 -5.86873e-21)
(0.763738 -0.534059 1.02136e-20)
(0.757935 -0.522994 -4.38334e-21)
(0.74461 -0.499024 1.97664e-22)
(0.722798 -0.478829 2.93786e-21)
(0.683854 -0.476416 2.12472e-22)
(0.62892 -0.478565 -6.00134e-21)
(0.579762 -0.440417 6.78645e-21)
(0.563029 -0.322443 -3.57789e-21)
(0.585534 -0.136123 4.83291e-22)
(0.634255 0.0680153 -2.67678e-22)
(0.689821 0.237875 4.06661e-22)
(0.740159 0.35014 0)
(0.780769 0.403084 0)
(0.806178 0.426478 -9.53097e-22)
(0.804312 0.452175 6.99721e-22)
(0.772577 0.483212 7.69277e-22)
(0.731482 0.47135 3.23675e-22)
(0.711435 0.365206 -1.29151e-21)
(0.719801 0.180168 3.63902e-22)
(0.754766 -0.0371417 0)
(0.789224 -0.20041 0)
(0.829088 -0.309555 0)
(0.843299 -0.344268 0)
(0.829806 -0.376493 2.61409e-22)
(0.781125 -0.379783 -1.16188e-22)
(0.738086 -0.334687 0)
(0.725 -0.228663 0)
(0.756063 -0.0363052 0)
(0.792138 0.0825431 -8.06227e-23)
(0.816642 0.255226 1.43583e-23)
(0.795675 0.311108 -7.60369e-23)
(0.774223 0.366891 0)
(0.762463 0.328508 0)
(0.791065 0.12793 6.21496e-23)
(0.793912 0.0770632 1.97703e-22)
(0.810496 -0.222907 0)
(0.782597 -0.256758 0)
(-0.200316 -0.172206 -8.09371e-22)
(-0.201324 -0.132887 -4.36972e-20)
(-0.19795 -0.0822552 4.07647e-20)
(-0.189764 -0.0217434 -3.82103e-20)
(-0.17621 0.0479785 -3.15095e-22)
(-0.157402 0.125099 0)
(-0.132911 0.206107 -3.03245e-20)
(-0.10208 0.286695 2.96049e-20)
(-0.066883 0.364533 2.23477e-22)
(-0.0291215 0.431208 3.27527e-22)
(0.0138156 0.485295 3.06284e-22)
(0.0637382 0.521747 3.32976e-22)
(0.121926 0.534474 -2.05102e-20)
(0.190896 0.516993 2.02529e-20)
(0.271768 0.464032 0)
(0.362014 0.374621 7.60573e-22)
(0.455509 0.252953 -2.70691e-20)
(0.545803 0.105167 2.67145e-20)
(0.629421 -0.0614486 0)
(0.703831 -0.231547 0)
(0.762646 -0.37918 -2.09444e-20)
(0.799184 -0.480137 3.67839e-20)
(0.813126 -0.527789 -2.77352e-20)
(0.808857 -0.534392 2.93954e-21)
(0.791882 -0.517803 1.58952e-20)
(0.769153 -0.490047 -1.30758e-20)
(0.742207 -0.463325 1.06549e-20)
(0.702136 -0.452225 -2.90662e-22)
(0.644405 -0.451876 -4.95227e-21)
(0.585819 -0.424223 0)
(0.555133 -0.325718 0)
(0.565783 -0.156865 2.67618e-21)
(0.608042 0.0387662 -3.46709e-21)
(0.663201 0.20894 -5.47525e-23)
(0.718066 0.326525 2.33488e-21)
(0.76619 0.387171 -2.26908e-21)
(0.797769 0.420718 0)
(0.800197 0.45754 2.27675e-22)
(0.772949 0.495898 2.36339e-21)
(0.738703 0.48367 -5.17674e-21)
(0.726707 0.370675 2.45923e-21)
(0.740709 0.1775 4.17684e-22)
(0.778198 -0.0451929 -3.44218e-21)
(0.809223 -0.210255 2.61942e-21)
(0.844395 -0.317033 4.70868e-22)
(0.854136 -0.344384 3.43169e-22)
(0.84002 -0.367771 -2.62061e-22)
(0.789804 -0.367584 0)
(0.74473 -0.327624 0)
(0.729279 -0.231927 -7.23886e-22)
(0.756852 -0.0459615 3.60525e-22)
(0.792212 0.0743041 -3.03173e-22)
(0.813468 0.254136 4.50002e-22)
(0.793383 0.315528 5.72924e-22)
(0.770771 0.370324 -1.43584e-22)
(0.760478 0.327549 2.89981e-22)
(0.793199 0.124079 -2.79908e-22)
(0.798372 0.075436 1.61558e-22)
(0.818309 -0.221123 0)
(0.788085 -0.254968 0)
(-0.143471 -0.177269 -7.66014e-20)
(-0.152238 -0.143548 4.4797e-21)
(-0.155161 -0.0984479 6.81147e-20)
(-0.154254 -0.0440148 -5.43787e-22)
(-0.147239 0.018935 0)
(-0.133915 0.0903583 0)
(-0.114519 0.167077 -4.66939e-20)
(-0.0854869 0.243972 2.14014e-21)
(-0.0504732 0.316708 6.13328e-20)
(-0.00978914 0.381013 -8.39516e-22)
(0.0419602 0.434225 -1.84278e-20)
(0.10353 0.46911 -1.80114e-20)
(0.175553 0.479357 1.80085e-20)
(0.258376 0.459213 0)
(0.350646 0.405148 -2.39386e-20)
(0.448184 0.317967 2.17169e-20)
(0.544698 0.202265 0)
(0.635108 0.0623582 0)
(0.717805 -0.0966354 2.76572e-20)
(0.78978 -0.259489 -1.95561e-21)
(0.842543 -0.398692 -2.34957e-20)
(0.868736 -0.490189 -1.70353e-20)
(0.869874 -0.529092 1.68783e-20)
(0.853557 -0.528878 -9.67261e-21)
(0.826585 -0.508351 2.20432e-21)
(0.795327 -0.478898 6.9207e-21)
(0.763176 -0.448175 6.306e-22)
(0.722781 -0.428886 3.31537e-23)
(0.665026 -0.423641 0)
(0.599897 -0.404046 5.10585e-21)
(0.555829 -0.325382 -5.26074e-21)
(0.553252 -0.176261 4.0902e-22)
(0.587337 0.00863543 0)
(0.640785 0.177275 -3.56419e-22)
(0.699163 0.299441 4.1726e-21)
(0.75379 0.368126 -7.34111e-21)
(0.790907 0.412431 -4.35919e-22)
(0.797753 0.460524 -3.10701e-22)
(0.775605 0.506211 3.2382e-21)
(0.748354 0.494381 5.83134e-22)
(0.744131 0.376135 -6.23916e-21)
(0.763544 0.176307 5.27547e-21)
(0.803639 -0.0507418 -4.19302e-23)
(0.831445 -0.217425 2.28435e-21)
(0.861531 -0.322696 -2.69311e-21)
(0.866497 -0.343879 -2.27014e-21)
(0.85165 -0.358918 6.83199e-22)
(0.800208 -0.355296 7.6498e-22)
(0.753473 -0.320364 -1.43677e-21)
(0.735723 -0.235299 1.02808e-21)
(0.759546 -0.0556949 -3.13962e-22)
(0.793943 0.0658926 3.12064e-22)
(0.811891 0.252835 2.57381e-22)
(0.792635 0.319915 -8.39712e-22)
(0.768659 0.373662 -8.84187e-24)
(0.759729 0.326468 -3.36994e-22)
(0.796565 0.119744 0)
(0.804103 0.0734298 -1.48004e-22)
(0.827219 -0.219235 3.7221e-22)
(0.794456 -0.253033 0)
(-0.0373072 -0.177311 6.61136e-20)
(-0.0537566 -0.148824 -1.23429e-19)
(-0.0622934 -0.109715 5.68852e-20)
(-0.0677688 -0.0613987 4.68421e-20)
(-0.0663695 -0.00441381 -8.75701e-20)
(-0.0571756 0.0594343 3.40634e-21)
(-0.0426997 0.127888 3.67038e-20)
(-0.0199408 0.197866 3.20002e-20)
(0.0130853 0.263824 -3.13797e-20)
(0.0560269 0.325508 0)
(0.111057 0.375807 -3.10117e-20)
(0.177784 0.408326 6.35244e-20)
(0.25596 0.416982 -3.25122e-20)
(0.344379 0.396696 0)
(0.440235 0.344992 0)
(0.538596 0.263498 7.82394e-22)
(0.633556 0.15644 -5.66053e-20)
(0.721888 0.0260719 5.49799e-20)
(0.803304 -0.124197 0)
(0.872938 -0.278681 5.20878e-20)
(0.919424 -0.408466 -9.13251e-20)
(0.935227 -0.490486 7.45147e-20)
(0.924084 -0.52218 -5.86099e-20)
(0.896561 -0.517585 5.73497e-21)
(0.861043 -0.494996 3.28917e-20)
(0.82273 -0.465511 -1.4085e-20)
(0.785572 -0.433425 -3.07756e-22)
(0.74501 -0.407722 -3.62674e-21)
(0.689444 -0.395947 -6.6481e-24)
(0.62129 -0.380897 3.67919e-21)
(0.565569 -0.320656 3.03032e-22)
(0.548788 -0.193092 -4.8803e-21)
(0.572737 -0.0215907 9.44487e-21)
(0.622911 0.143358 -5.06345e-21)
(0.683527 0.269156 0)
(0.74339 0.345915 -3.85862e-21)
(0.785364 0.401218 3.74153e-21)
(0.79674 0.460577 -3.39671e-21)
(0.780163 0.513763 4.21796e-21)
(0.759894 0.503494 -6.22643e-22)
(0.763061 0.381783 0)
(0.787622 0.176669 -8.68895e-22)
(0.8305 -0.0538236 2.46329e-21)
(0.855516 -0.221833 0)
(0.880234 -0.326364 4.50293e-21)
(0.880196 -0.342703 -1.96838e-21)
(0.864494 -0.349993 5.11401e-22)
(0.81205 -0.342994 3.62048e-22)
(0.763899 -0.312889 0)
(0.743933 -0.238645 0)
(0.76386 -0.0654356 -7.68956e-22)
(0.797169 0.0572814 1.1848e-21)
(0.811851 0.251267 -7.0063e-22)
(0.793457 0.324254 2.18307e-22)
(0.768023 0.376953 5.50732e-22)
(0.760345 0.325306 3.37318e-22)
(0.801184 0.114941 -6.85447e-22)
(0.811093 0.0710445 0)
(0.837184 -0.217209 -5.47829e-22)
(0.801679 -0.250922 -1.11594e-22)
(0.11536 -0.171339 5.90136e-20)
(0.0905618 -0.147549 -5.84691e-20)
(0.0745445 -0.11588 3.97777e-22)
(0.0625458 -0.0752345 -2.83807e-22)
(0.0560217 -0.0258016 3.0558e-22)
(0.0574655 0.0295321 -2.67372e-22)
(0.0671294 0.089247 3.53603e-22)
(0.0854721 0.151883 0)
(0.114825 0.212999 -3.1387e-22)
(0.155687 0.269464 3.22559e-22)
(0.209138 0.3155 3.52623e-22)
(0.275139 0.345308 -4.65388e-22)
(0.352826 0.353214 0)
(0.440172 0.334645 0)
(0.533768 0.287542 6.57284e-22)
(0.628598 0.213596 0)
(0.719537 0.116114 -8.20658e-22)
(0.805181 -0.00432305 0)
(0.885379 -0.145224 -5.38335e-20)
(0.952224 -0.289937 1.02465e-19)
(0.991678 -0.409205 -8.95644e-20)
(0.997006 -0.482009 4.10215e-20)
(0.97456 -0.50813 2.5407e-20)
(0.937154 -0.50149 -2.46741e-20)
(0.894528 -0.478629 -1.45118e-20)
(0.850779 -0.450205 1.39838e-20)
(0.809061 -0.418801 0)
(0.767948 -0.389088 2.1435e-22)
(0.716016 -0.370282 0)
(0.648565 -0.35593 0)
(0.58412 -0.311132 6.70583e-21)
(0.553012 -0.206246 -6.85645e-21)
(0.56498 -0.0511382 4.14652e-22)
(0.610005 0.107826 5.00287e-22)
(0.671159 0.235983 -3.51339e-22)
(0.734754 0.320506 -3.03819e-21)
(0.780886 0.386725 2.95004e-21)
(0.796839 0.457185 -4.17874e-21)
(0.78613 0.518251 3.63609e-21)
(0.772721 0.511028 1.25902e-21)
(0.782807 0.387654 -6.81829e-21)
(0.812297 0.178713 -1.38024e-21)
(0.858194 -0.0544669 5.19531e-21)
(0.881024 -0.22347 0)
(0.900216 -0.327942 -2.08425e-21)
(0.895001 -0.340867 1.75378e-21)
(0.878315 -0.341081 -2.39788e-21)
(0.825046 -0.330697 -3.64339e-22)
(0.775589 -0.305122 0)
(0.753459 -0.241836 2.31219e-22)