/*--------------------------------*- C++ -*----------------------------------*\
| =========                 |                                                 |
| \\      /  F ield         | OpenFOAM: The Open Source CFD Toolbox           |
|  \\    /   O peration     | Version:  2512                                  |
|   \\  /    A nd           | Website:  www.openfoam.com                      |
|    \\/     M anipulation  |                                                 |
\*---------------------------------------------------------------------------*/
FoamFile
{
    version     2.0;
    format      ascii;
    arch        "LSB;label=32;scalar=64";
    class       volVectorField;
    location    "21.25";
    object      U;
}
// * * * * * * * * * * * * * * * * * * * * * * * * * * * * * * * * * * * * * //

dimensions      [0 1 -1 0 0 0 0];

internalField   nonuniform List<vector> 
13248
(
(-0.0127074 0.011698 6.39334e-20)
(-0.0245471 0.0250397 0)
(-0.0236154 0.032232 -1.20932e-19)
(-0.0106798 0.0353017 1.1392e-19)
(0.0137392 0.0358645 1.06678e-19)
(0.0492749 0.0351925 0)
(0.0956161 0.034258 0)
(0.152393 0.0337955 2.57179e-19)
(0.219039 0.0343424 -1.26383e-21)
(0.29466 0.0362564 -2.24681e-19)
(0.37794 0.0397214 2.08437e-19)
(0.467117 0.044751 -1.30301e-19)
(0.560028 0.0511962 0)
(0.654219 0.0587631 -2.24594e-19)
(0.747106 0.0670418 4.19864e-19)
(0.83615 0.0755452 -9.93161e-20)
(0.91904 0.0837581 -1.8029e-19)
(0.993842 0.0911593 1.69245e-19)
(1.05913 0.0973662 0)
(1.11396 0.101775 0)
(1.15833 0.104862 0)
(1.19156 0.10428 0)
(1.21689 0.105398 5.49566e-20)
(1.2305 0.0948755 2.05892e-19)
(-0.0126306 0.0103557 -1.93129e-19)
(-0.0208521 0.0206974 1.31728e-19)
(-0.0130022 0.0255554 -1.14747e-21)
(0.00974741 0.0271091 -1.74097e-19)
(0.0466366 0.0270888 -1.06563e-19)
(0.0970508 0.0268502 -1.00758e-19)
(0.160285 0.0273909 -1.85061e-19)
(0.235344 0.0294089 1.74975e-19)
(0.320765 0.0333324 0)
(0.414505 0.0393277 7.70881e-22)
(0.513941 0.0473067 1.6487e-21)
(0.615996 0.056947 1.30377e-19)
(0.717347 0.0677331 0)
(0.814701 0.0790166 0)
(0.905065 0.0900912 1.54492e-19)
(0.985982 0.100269 -2.90149e-19)
(1.0557 0.108952 1.75967e-19)
(1.11327 0.115684 -1.65198e-19)
(1.15853 0.120188 -7.41386e-20)
(1.19213 0.122337 -1.3727e-19)
(1.21506 0.122317 -5.94498e-20)
(1.22942 0.119857 -1.12507e-19)
(1.23616 0.117075 1.61721e-19)
(1.23824 0.109283 4.77578e-20)
(-0.0116582 0.00864153 0)
(-0.0139648 0.0156423 0)
(0.00358142 0.0183769 6.15838e-20)
(0.0392493 0.0190496 5.67251e-20)
(0.0918398 0.0194356 -1.39597e-21)
(0.160184 0.0209173 -1.03974e-19)
(0.242735 0.0244284 0)
(0.337319 0.0304894 -8.6988e-20)
(0.440996 0.0392314 8.176e-20)
(0.550108 0.0504147 6.00703e-22)
(0.660505 0.0634733 -1.39902e-19)
(0.767912 0.0775975 -1.28684e-19)
(0.868345 0.0918458 1.8718e-21)
(0.958487 0.105271 -1.07945e-19)
(1.03597 0.117037 2.57723e-19)
(1.09953 0.126508 0)
(1.14898 0.13331 -1.71125e-19)
(1.18513 0.137325 8.25509e-20)
(1.20958 0.138705 7.40703e-20)
(1.22434 0.137699 0)
(1.23176 0.134946 6.22929e-20)
(1.23393 0.130337 -2.19502e-19)
(1.23251 0.126092 2.06054e-19)
(1.23061 0.11813 1.35269e-19)
(-0.00942258 0.00654888 -6.83971e-20)
(-0.00294393 0.0100263 -7.07352e-20)
(0.027483 0.0111434 6.3921e-20)
(0.0793565 0.0119366 0)
(0.150704 0.0140942 0)
(0.239304 0.0188907 -2.19125e-21)
(0.342147 0.0270038 0)
(0.455242 0.0385295 -2.65744e-19)
(0.573715 0.0530337 2.47013e-19)
(0.692181 0.0696391 -3.05196e-19)
(0.805313 0.0871707 7.00288e-20)
(0.90844 0.104345 0)
(0.998043 0.119962 1.17836e-19)
(1.07204 0.13307 -2.18837e-19)
(1.12986 0.143064 5.19234e-20)
(1.17227 0.149719 1.36107e-19)
(1.20109 0.153153 -4.52287e-21)
(1.21879 0.153753 -1.53096e-19)
(1.22805 0.152056 0)
(1.23142 0.148637 0)
(1.23105 0.144118 -5.69136e-20)
(1.22853 0.138651 5.17603e-20)
(1.22499 0.133752 1.9012e-19)
(1.22137 0.126155 -1.78453e-19)
(-0.00552735 0.00414756 -7.21987e-20)
(0.0131474 0.00419574 -7.18556e-20)
(0.0598924 0.00456696 2.02093e-19)
(0.131135 0.00686898 -1.22483e-19)
(0.223622 0.0124861 1.15292e-19)
(0.333408 0.0223371 2.09357e-19)
(0.455326 0.0365334 -1.4799e-19)
(0.583101 0.0544182 -1.80339e-19)
(0.709908 0.0747307 3.30972e-21)
(0.8292 0.0958481 2.3101e-19)
(0.935552 0.11608 0)
(1.02527 0.133953 6.42712e-20)
(1.09666 0.148416 0)
(1.14996 0.158938 -1.06202e-19)
(1.1869 0.165496 1.49377e-19)
(1.21026 0.168467 1.24912e-21)
(1.22319 0.168479 -4.00346e-20)
(1.22875 0.166252 7.54122e-20)
(1.22956 0.16247 6.59547e-20)
(1.22759 0.15769 -5.98411e-20)
(1.22416 0.152363 5.69008e-20)
(1.22009 0.146614 -5.17483e-20)
(1.21569 0.141339 0)
(1.21178 0.134106 -4.04864e-20)
(0.000421468 0.0016022 7.21884e-20)
(0.0351397 -0.00126859 7.58368e-20)
(0.101654 -0.00034016 -6.77231e-20)
(0.1949 0.00522202 1.26106e-19)
(0.309675 0.0161613 -1.18696e-19)
(0.439566 0.0326602 1.07328e-19)
(0.576744 0.0538643 -5.15512e-20)
(0.712691 0.0780582 1.35415e-19)
(0.839369 0.103061 -8.52784e-20)
(0.950387 0.126677 1.51973e-19)
(1.04178 0.147097 -3.51589e-19)
(1.11222 0.163159 1.29661e-19)
(1.16272 0.174423 -1.14544e-19)
(1.19598 0.181088 1.07588e-19)
(1.2156 0.183796 9.42189e-20)
(1.22529 0.183406 8.37121e-20)
(1.22836 0.180789 -2.33454e-19)
(1.22742 0.1767 1.45249e-19)
(1.22429 0.17171 -6.59576e-20)
(1.22012 0.16621 1.74811e-19)
(1.21555 0.160451 -5.62788e-20)
(1.2109 0.154524 -1.41028e-19)
(1.20632 0.14891 1.30786e-19)
(1.20211 0.141958 4.04727e-20)
(0.00877921 -0.000822932 0)
(0.0636355 -0.00555855 6.71126e-22)
(0.153059 -0.00231987 1.41846e-19)
(0.269952 0.00850458 -1.33005e-19)
(0.406415 0.0265419 -1.19857e-19)
(0.552998 0.0507559 2.22823e-19)
(0.699236 0.0789552 -1.03507e-19)
(0.835208 0.108265 1.38343e-19)
(0.953164 0.135821 -2.73576e-21)
(1.04857 0.159354 -7.87268e-20)
(1.12028 0.177519 1.72985e-19)
(1.17003 0.189945 -2.56049e-19)
(1.20138 0.197051 0)
(1.21869 0.199746 -5.09832e-20)
(1.22621 0.199119 -1.37273e-19)
(1.2275 0.196194 4.31039e-20)
(1.22521 0.191803 1.40137e-21)
(1.22108 0.186541 -9.78489e-20)
(1.21619 0.180798 4.86379e-21)
(1.21109 0.174808 1.13768e-19)
(1.20606 0.168707 -5.16666e-20)
(1.2012 0.162575 -2.04423e-20)
(1.19652 0.15661 6.14431e-20)
(1.19216 0.14985 0)
(0.0198166 -0.00276964 0)
(0.0988772 -0.0076854 3.8496e-20)
(0.213651 9.50482e-06 -1.85456e-19)
(0.354401 0.0181387 6.73717e-20)
(0.509917 0.0446262 -6.34082e-20)
(0.667638 0.076749 -5.80597e-20)
(0.815304 0.110828 -1.02738e-19)
(0.943204 0.143098 5.1165e-20)
(1.0457 0.170596 4.4569e-20)
(1.12149 0.191639 0)
(1.1728 0.205844 1.03047e-19)
(1.20403 0.213831 -1.54238e-19)
(1.22032 0.216786 1.14879e-19)
(1.2265 0.216052 5.10093e-20)
(1.22649 0.21284 -4.24442e-20)
(1.22307 0.208091 -3.60327e-20)
(1.21803 0.202456 -3.39383e-20)
(1.21241 0.196346 1.0037e-19)
(1.20674 0.190004 0)
(1.20128 0.183566 5.18464e-20)
(1.19608 0.177112 4.46883e-20)
(1.19116 0.170698 -1.09737e-19)
(1.18645 0.164354 -7.70427e-20)
(1.18199 0.157701 7.10818e-20)
(0.0336666 -0.00380446 -4.18264e-20)
(0.140624 -0.00656493 -1.69022e-21)
(0.282102 0.00798136 3.77855e-20)
(0.445205 0.0352139 1.05706e-19)
(0.615209 0.0707586 3.08146e-20)
(0.777154 0.109943 -5.95554e-20)
(0.918621 0.147847 5.43331e-20)
(1.03206 0.18046 -4.77289e-20)
(1.11539 0.205468 8.59863e-20)
(1.17103 0.222317 3.68477e-20)
(1.20413 0.231774 -1.0465e-19)
(1.22071 0.235325 3.09656e-20)
(1.22633 0.23462 5.33095e-20)
(1.2254 0.23112 -2.61623e-20)
(1.22101 0.225929 0)
(1.21509 0.219795 3.97111e-20)
(1.2087 0.213178 6.79153e-20)
(1.2024 0.206339 1.21519e-20)
(1.1964 0.199424 -5.70921e-20)
(1.19078 0.192511 2.41806e-20)
(1.18553 0.185649 0)
(1.18059 0.178863 -1.94079e-20)
(1.17587 0.172125 -1.87034e-20)
(1.17134 0.165462 0)
(0.0502696 -0.00344976 0)
(0.188062 -0.00112966 2.19523e-20)
(0.35621 0.0226956 4.05832e-20)
(0.538433 0.0602917 -1.08033e-19)
(0.716985 0.10456 3.49719e-20)
(0.876041 0.149017 0)
(1.00507 0.18817 5.27495e-20)
(1.10028 0.218615 -7.37191e-20)
(1.16375 0.239317 -4.3021e-20)
(1.20121 0.251078 1.9459e-20)
(1.21964 0.255696 -3.15116e-20)
(1.22558 0.255212 7.63179e-20)
(1.22417 0.251426 3.85299e-20)
(1.21897 0.245689 -2.66205e-20)
(1.21217 0.2389 -2.32557e-21)
(1.20497 0.231599 -7.42474e-20)
(1.19795 0.224088 3.39143e-20)
(1.19135 0.216525 -9.12295e-22)
(1.18524 0.208994 0)
(1.17959 0.201544 -2.4206e-20)
(1.17436 0.194205 0)
(1.16945 0.186972 5.60298e-20)
(1.16478 0.179831 -6.71389e-20)
(1.16023 0.173035 3.07752e-20)
(0.0693278 -0.00122361 -1.15333e-20)
(0.239774 0.00955469 -5.54027e-20)
(0.433027 0.0448652 6.3118e-20)
(0.629715 0.0933129 3.70511e-20)
(0.810371 0.145029 -1.76511e-20)
(0.96036 0.192341 2.98186e-20)
(1.07288 0.230138 -1.444e-20)
(1.14874 0.2564 2.4141e-20)
(1.19387 0.271703 0)
(1.21629 0.278127 5.5085e-20)
(1.22375 0.278195 -2.1898e-21)
(1.22244 0.27418 -4.46256e-20)
(1.21666 0.267795 1.9191e-20)
(1.20903 0.260171 -2.17818e-20)
(1.20097 0.25198 -8.38451e-21)
(1.19317 0.243586 9.61362e-21)
(1.18589 0.235177 -7.47519e-21)
(1.1792 0.226845 -4.10312e-20)
(1.1731 0.218641 2.51569e-20)
(1.16752 0.210595 5.1981e-21)
(1.16237 0.202717 4.61811e-21)
(1.15756 0.194984 4.10819e-21)
(1.15298 0.187447 0)
(1.14847 0.180379 0)
(0.0903541 0.00332587 1.15413e-20)
(0.293924 0.0261964 -1.15202e-20)
(0.509277 0.0747149 -2.10506e-20)
(0.71492 0.133611 0)
(0.8916 0.190745 -8.78552e-21)
(1.02796 0.238283 -7.95528e-21)
(1.12214 0.272473 -1.36245e-20)
(1.17949 0.293183 0)
(1.20894 0.302615 0)
(1.2197 0.303848 0)
(1.2194 0.299793 0)
(1.21341 0.292693 0)
(1.20507 0.28404 -1.20593e-20)
(1.19615 0.274716 5.49468e-21)
(1.18752 0.265191 9.61174e-21)
(1.17951 0.255696 4.511e-21)
(1.17221 0.246341 1.12106e-20)
(1.1656 0.237179 0)
(1.15964 0.228238 -2.72952e-21)
(1.15423 0.219535 -2.64378e-21)
(1.14927 0.21106 -4.6255e-21)
(1.14466 0.202794 -4.11478e-21)
(1.14025 0.194865 0)
(1.13589 0.187387 3.02159e-21)
(-0.00140619 -0.001017 6.92507e-21)
(-0.00701362 -0.00257122 -7.19986e-21)
(-0.0172537 -0.00377085 -1.36493e-20)
(-0.0298993 -0.00462227 0)
(-0.043739 -0.00518779 -1.83076e-20)
(-0.0581729 -0.00554673 5.75013e-21)
(-0.0727962 -0.00576895 -1.08781e-20)
(-0.087339 -0.00590613 0)
(-0.101642 -0.0059895 0)
(-0.115618 -0.00603134 0)
(-0.129228 -0.00602927 0)
(-0.142458 -0.0059712 0)
(-0.155306 -0.00583975 2.41366e-23)
(-0.167777 -0.00561521 -7.2489e-21)
(-0.17988 -0.00527709 1.37029e-20)
(-0.19162 -0.00480469 1.94225e-20)
(-0.203007 -0.00417695 6.10651e-21)
(-0.214054 -0.00337212 0)
(-0.224786 -0.00236757 5.45902e-21)
(-0.235247 -0.00114102 -1.53744e-20)
(-0.245479 0.000326679 -9.67051e-21)
(-0.255534 0.00205588 -9.1244e-21)
(-0.265599 0.00408802 0)
(-0.276126 0.00645495 0)
(-0.00169632 0.00328626 -2.08265e-20)
(-0.00753658 0.00753491 3.59647e-20)
(-0.017663 0.0101759 -1.35697e-20)
(-0.029981 0.0118221 -2.58432e-20)
(-0.0433412 0.0128145 3.65234e-20)
(-0.0571687 0.0133577 -2.30594e-20)
(-0.0710721 0.0135929 3.25645e-20)
(-0.0847872 0.0136223 2.0535e-20)
(-0.0981544 0.0135233 0)
(-0.111084 0.0133568 -1.83328e-20)
(-0.12353 0.0131724 -1.42275e-22)
(-0.135467 0.0130101 1.61976e-20)
(-0.146886 0.0129018 2.30399e-20)
(-0.157779 0.0128742 2.90408e-20)
(-0.16814 0.0129506 -1.35618e-20)
(-0.177959 0.0131546 -3.8647e-20)
(-0.187225 0.0135134 1.21986e-20)
(-0.19593 0.0140613 -4.58149e-20)
(-0.204073 0.0148436 0)
(-0.211674 0.0159172 1.02356e-20)
(-0.218746 0.0173465 9.65715e-21)
(-0.225257 0.0192079 9.11157e-21)
(-0.231303 0.0216324 0)
(-0.237723 0.0247535 0)
(-0.00239572 0.0071769 0)
(-0.00882304 0.0167639 7.23297e-20)
(-0.0187179 0.0230038 -2.7286e-20)
(-0.0303015 0.0270188 2.58705e-20)
(-0.0425789 0.0294984 -7.32591e-20)
(-0.0550427 0.0309018 0)
(-0.0673391 0.0315638 -4.35962e-20)
(-0.0792223 0.0317299 2.04902e-20)
(-0.0905367 0.0315797 -3.88116e-20)
(-0.101187 0.0312443 1.83396e-20)
(-0.111115 0.0308187 1.03634e-19)
(-0.120281 0.0303699 -4.86772e-20)
(-0.128655 0.0299442 -7.683e-20)
(-0.136211 0.0295735 -2.91778e-20)
(-0.142918 0.0292815 -2.18626e-22)
(-0.148745 0.0290895 1.02911e-19)
(-0.15365 0.0290235 -4.84123e-20)
(-0.157589 0.0291207 5.43937e-23)
(-0.160517 0.0294384 0)
(-0.16241 0.0300614 -4.05261e-20)
(-0.163241 0.0311092 0)
(-0.162853 0.0327466 -3.62699e-20)
(-0.16105 0.035222 1.35862e-19)
(-0.159104 0.0388077 5.9019e-22)
(-0.00340405 0.0103789 0)
(-0.0107182 0.0245078 2.1556e-22)
(-0.0203292 0.0339154 2.7596e-20)
(-0.0308869 0.0400618 -2.61106e-20)
(-0.0416137 0.043895 2.43415e-20)
(-0.0521032 0.0460794 1.38988e-19)
(-0.0620622 0.0471122 -4.3608e-20)
(-0.0712788 0.0473635 -4.12725e-20)
(-0.0796106 0.0471042 7.76943e-20)
(-0.0869619 0.0465304 -1.09949e-19)
(-0.0932645 0.0457805 3.44569e-20)
(-0.0984652 0.0449487 3.25864e-20)
(-0.102517 0.0440966 0)
(-0.105376 0.0432618 2.89208e-20)
(-0.106992 0.0424671 0)
(-0.107313 0.0417274 5.1346e-20)
(-0.10628 0.0410582 -9.69419e-20)
(-0.103823 0.0404833 2.25343e-20)
(-0.0998634 0.0400466 8.57065e-20)
(-0.0943324 0.0398279 4.04822e-20)
(-0.08718 0.0399704 0)
(-0.0781953 0.0407367 -1.07525e-19)
(-0.0667119 0.0426106 3.37153e-20)
(-0.0535231 0.0462238 0)
(-0.0045962 0.0127381 0)
(-0.0130211 0.0303863 -8.78148e-20)
(-0.0223694 0.0423644 -2.79081e-20)
(-0.0317478 0.0502837 -5.23308e-20)
(-0.0406213 0.0552508 4.9276e-20)
(-0.0487061 0.0580756 -4.63915e-20)
(-0.0557892 0.0593799 8.78027e-20)
(-0.0617088 0.0596335 4.14372e-20)
(-0.066349 0.0591845 -1.16717e-19)
(-0.069624 0.058286 7.35227e-20)
(-0.0714649 0.0571168 -1.03752e-19)
(-0.0718112 0.0557987 2.28298e-19)
(-0.0706057 0.0544104 -1.22642e-19)
(-0.067791 0.0529991 5.78176e-20)
(-0.0633076 0.0515902 1.63494e-19)
(-0.0570925 0.050195 -5.10431e-20)
(-0.0490782 0.0488174 -4.79571e-20)
(-0.0391893 0.0474616 -4.54035e-20)
(-0.0273391 0.0461393 0)
(-0.0134383 0.0448832 -8.04477e-20)
(0.00257169 0.0437778 -7.57523e-20)
(0.0208393 0.0430663 1.06587e-19)
(0.0422896 0.0434556 1.33802e-19)
(0.0677725 0.046285 -1.25778e-19)
(-0.00585379 0.0142337 0)
(-0.0155265 0.0342761 -1.1859e-19)
(-0.0246866 0.048098 -3.65561e-22)
(-0.0328485 0.057309 1.05263e-19)
(-0.0397109 0.0630857 0)
(-0.0451201 0.0663287 0)
(-0.0489558 0.0677451 0)
(-0.0511204 0.0678785 -4.14816e-20)
(-0.0515367 0.0671369 -1.23828e-22)
(-0.050139 0.0658202 7.35324e-20)
(-0.0468658 0.0641428 -1.03998e-19)
(-0.0416551 0.0622531 -8.69424e-23)
(-0.0344426 0.0602495 0)
(-0.0251609 0.058193 -5.77896e-20)
(-0.0137393 0.0561185 5.44104e-20)
(-0.000105282 0.054042 -1.53203e-19)
(0.0158164 0.0519669 1.92389e-19)
(0.034102 0.0498898 4.53114e-20)
(0.0548311 0.0478027 2.03015e-22)
(0.0780858 0.0456965 -1.59654e-19)
(0.103915 0.0435688 -7.47314e-20)
(0.132384 0.0414872 2.46371e-19)
(0.163851 0.04004 -1.64827e-19)
(0.20375 0.0413173 0)
(-0.00709113 0.0149604 5.82097e-20)
(-0.0180584 0.0362885 5.94165e-20)
(-0.0271086 0.0511502 -5.66107e-20)
(-0.0340652 0.0610662 -1.06192e-19)
(-0.0388267 0.0672266 9.99891e-20)
(-0.0413638 0.07058 -9.41256e-20)
(-0.0416525 0.0718878 1.32941e-19)
(-0.0396641 0.0717418 -4.14554e-20)
(-0.0353643 0.070593 7.83565e-20)
(-0.0287101 0.0687773 0)
(-0.0196464 0.0665388 6.94185e-20)
(-0.00810636 0.0640506 -1.30289e-19)
(0.00598736 0.0614317 1.22668e-19)
(0.0227202 0.0587614 -1.15213e-19)
(0.0421818 0.0560902 0)
(0.0644609 0.0534478 1.01805e-19)
(0.0896433 0.050851 1.91195e-19)
(0.117805 0.048305 -1.79728e-19)
(0.149004 0.0458064 -8.41128e-20)
(0.183285 0.0433452 -7.9598e-20)
(0.220576 0.0408911 2.23496e-19)
(0.261319 0.0384511 6.94519e-20)
(0.302706 0.0359234 -6.52012e-20)
(0.361265 0.0362618 6.07053e-20)
(-0.00826688 0.0150874 -5.82176e-20)
(-0.0204811 0.0367032 1.81425e-19)
(-0.0294273 0.051785 -5.71677e-20)
(-0.0351284 0.0617565 1.07041e-19)
(-0.0376382 0.0678027 -1.00788e-19)
(-0.0370354 0.0709004 3.34959e-22)
(-0.0333802 0.0718409 4.46486e-20)
(-0.0267058 0.0712462 1.67427e-19)
(-0.0170097 0.0695971 -1.06696e-22)
(-0.00425879 0.0672561 -7.38209e-20)
(0.0116091 0.064492 0)
(0.03068 0.0615012 -6.50657e-20)
(0.0530558 0.0584252 1.22325e-19)
(0.0788455 0.0553648 1.14886e-19)
(0.108155 0.0523913 -5.40751e-20)
(0.141073 0.0495547 -2.78532e-22)
(0.177659 0.0468892 -4.76966e-20)
(0.21793 0.044416 8.89365e-20)
(0.261837 0.0421459 8.40944e-20)
(0.309346 0.0401039 -7.89215e-20)
(0.359765 0.038167 7.33424e-20)
(0.415276 0.0368134 -6.86319e-20)
(0.465585 0.0344291 0)
(0.546086 0.0359739 -6.06265e-20)
(-0.00937684 0.0148053 5.92836e-20)
(-0.0226787 0.035873 -6.07237e-20)
(-0.0313602 0.050404 5.77888e-20)
(-0.0355564 0.0597825 0)
(-0.0354328 0.0652071 0)
(-0.0311545 0.0676793 9.57544e-20)
(-0.0228418 0.0680112 -8.95361e-20)
(-0.01056 0.0668477 8.38455e-20)
(0.00568486 0.0646902 -3.93631e-19)
(0.0259388 0.0619227 1.41285e-22)
(0.0502872 0.0588369 6.92474e-20)
(0.0788391 0.0556526 0)
(0.111707 0.0525351 -1.21909e-19)
(0.148983 0.0496071 2.2888e-19)
(0.190716 0.0469589 -1.61227e-19)
(0.236889 0.0446552 -2.51861e-19)
(0.287393 0.0427388 1.71274e-22)
(0.342014 0.0412369 1.76562e-19)
(0.400374 0.0401409 0)
(0.462288 0.0395612 0)
(0.525715 0.0389991 -7.33348e-20)
(0.59571 0.0400024 6.86232e-20)
(0.652278 0.0386155 -2.54792e-19)
(0.750575 0.0433016 2.39007e-19)
(-0.0104289 0.0142739 0)
(-0.0245058 0.0341283 0)
(-0.0324861 0.0474407 -1.73889e-19)
(-0.0345829 0.0556523 5.52604e-20)
(-0.0310395 0.060017 4.15227e-22)
(-0.0220759 0.0615741 9.67977e-20)
(-0.00784105 0.0611622 0)
(0.0115994 0.0594466 -8.43742e-20)
(0.0362553 0.0569484 7.88142e-20)
(0.0661907 0.0540731 -1.47655e-19)
(0.101492 0.0511347 1.84489e-22)
(0.14223 0.048374 1.2964e-19)
(0.18842 0.0459725 -2.61814e-22)
(0.239982 0.0440622 1.13659e-19)
(0.296702 0.0427313 -1.60608e-19)
(0.35821 0.0420275 0)
(0.423961 0.0419612 1.87383e-19)
(0.493245 0.0425137 -2.64121e-19)
(0.565102 0.0435852 8.17123e-20)
(0.638967 0.0453223 0)
(0.711695 0.0468112 7.14038e-20)
(0.78943 0.0503472 2.69181e-19)
(0.848274 0.0502091 -2.52616e-19)
(0.948851 0.0578256 -2.94536e-19)
(-0.0114038 0.013584 1.82231e-19)
(-0.0257234 0.0316969 -2.50636e-19)
(-0.03219 0.043266 4.95707e-22)
(-0.0311174 0.0498899 5.57488e-20)
(-0.0228137 0.0529215 -1.03892e-19)
(-0.00752706 0.0534604 -9.63594e-20)
(0.0145907 0.0523827 1.8042e-19)
(0.0434824 0.0503799 -1.29413e-21)
(0.0791526 0.0479956 -1.58674e-19)
(0.121614 0.0456544 2.95852e-19)
(0.170827 0.0436822 -5.75694e-22)
(0.226628 0.0423211 -1.29903e-19)
(0.288681 0.041737 0)
(0.356425 0.0420235 0)
(0.429055 0.043205 -5.32902e-20)
(0.505527 0.045238 -9.90087e-20)
(0.584584 0.0480183 -1.85598e-19)
(0.664812 0.0513846 1.74214e-19)
(0.744663 0.0551189 -8.17423e-20)
(0.822847 0.0590992 1.51231e-19)
(0.896756 0.0626282 -7.22643e-20)
(0.969612 0.067059 1.31287e-19)
(1.025 0.067893 -3.0817e-19)
(1.10683 0.0752258 5.80728e-20)
(-0.0122162 0.0127423 6.14943e-20)
(-0.0259301 0.0286714 0)
(-0.0296094 0.0381464 1.19095e-19)
(-0.0237395 0.0429836 -1.12192e-19)
(-0.00870551 0.0446649 1.03987e-19)
(0.0152182 0.0443698 0)
(0.0478602 0.0430215 0)
(0.0891095 0.0413397 -8.48003e-20)
(0.138835 0.0398818 1.01901e-21)
(0.196791 0.0390684 7.48117e-20)
(0.262517 0.0391988 -6.90475e-20)
(0.335267 0.0404568 1.3001e-19)
(0.413965 0.0429135 0)
(0.497203 0.0465305 2.25763e-19)
(0.583286 0.0511663 -4.22757e-19)
(0.670312 0.0565871 2.96959e-19)
(0.75628 0.062491 1.83323e-19)
(0.839192 0.068502 -1.72084e-19)
(0.917235 0.0743068 0)
(0.98871 0.0793347 0)
(1.05252 0.0836906 0)
(1.10813 0.0862955 0)
(1.152 0.0877218 6.07312e-20)
(1.20073 0.0892661 -2.23541e-19)
(-0.289235 0.00939327 -5.85911e-21)
(-0.305592 0.0119184 5.87968e-21)
(-0.320762 0.0146127 -1.80754e-22)
(-0.335245 0.017342 0)
(-0.348481 0.0199861 -5.57313e-21)
(-0.360112 0.022364 1.08446e-20)
(-0.369662 0.0243079 -1.87095e-23)
(-0.376585 0.0256115 -5.1104e-21)
(-0.380272 0.0260703 0)
(-0.380065 0.0255053 0)
(-0.375289 0.0237978 -2.75026e-22)
(-0.365272 0.0209229 -2.5559e-22)
(-0.349475 0.0170196 -3.78422e-21)
(-0.327223 0.0118776 3.45077e-21)
(-0.298268 0.00510393 0)
(-0.262503 -0.00264222 0)
(-0.219648 -0.010936 1.78193e-21)
(-0.1699 -0.0194559 -4.01946e-22)
(-0.113937 -0.0271249 -1.22139e-21)
(-0.0525543 -0.0336923 -4.47589e-23)
(0.0130518 -0.0379332 0)
(0.0812024 -0.0399281 0)
(0.150346 -0.0393885 0)
(0.219084 -0.0364641 0)
(0.286075 -0.0315747 0)
(0.350258 -0.0252971 0)
(0.410904 -0.0182829 -2.23238e-22)
(0.467565 -0.0110803 3.60835e-22)
(0.520003 -0.0041837 0)
(0.568146 0.00214637 0)
(0.611998 0.00759499 2.3032e-22)
(0.651759 0.0122898 -2.2384e-22)
(0.687656 0.0158875 -9.66197e-23)
(0.719954 0.0187558 0)
(0.748947 0.0204708 0)
(0.775016 0.0218342 -1.26533e-22)
(0.798388 0.0221113 1.22995e-22)
(0.819489 0.0225193 0)
(0.83851 0.021943 -8.41743e-23)
(0.855845 0.0219907 1.20511e-22)
(0.871653 0.0210681 -3.36438e-23)
(0.88627 0.021169 0)
(0.899879 0.020204 4.80635e-23)
(0.912754 0.0206684 -4.67365e-23)
(0.924952 0.0198581 0)
(0.936513 0.0209681 0)
(0.947158 0.0202784 1.34386e-23)
(0.956815 0.0220005 -3.76156e-23)
(0.965108 0.0212419 0)
(0.972211 0.0234416 0)
(0.977881 0.0226852 7.00874e-24)
(0.982595 0.0254771 -3.2457e-26)
(0.986103 0.0248281 8.53896e-25)
(0.989146 0.0283933 -3.92918e-24)
(0.991178 0.0278044 0)
(0.993269 0.0321211 0)
(0.994391 0.0316393 0)
(0.996059 0.0366562 0)
(0.996574 0.0363394 0)
(0.998198 0.0421544 0)
(-0.247079 0.0286948 -5.6127e-22)
(-0.262153 0.0300159 -2.36652e-20)
(-0.275256 0.0312052 -3.97672e-23)
(-0.287558 0.0321532 2.22462e-20)
(-0.298574 0.0326407 3.47562e-22)
(-0.307915 0.0325022 0)
(-0.315108 0.0315614 -2.07927e-20)
(-0.319621 0.0296015 4.09349e-20)
(-0.320842 0.0264145 -2.01395e-20)
(-0.318112 0.0218544 1.85556e-20)
(-0.310744 0.015904 -1.77605e-20)
(-0.298013 0.0088175 1.58059e-20)
(-0.279699 -0.000127648 -1.53871e-20)
(-0.255821 -0.0104639 -4.34235e-22)
(-0.22565 -0.0223163 -1.12358e-20)
(-0.188664 -0.0348746 1.09187e-20)
(-0.145354 -0.0474868 -7.52674e-21)
(-0.0956407 -0.0602004 7.10333e-21)
(-0.0406804 -0.0703497 -3.97591e-21)
(0.0186788 -0.0782513 6.13047e-21)
(0.0813506 -0.0830293 -2.22621e-21)
(0.145202 -0.084414 -2.4153e-23)
(0.208994 -0.082208 1.11871e-21)
(0.271456 -0.0767961 -2.82256e-21)
(0.331522 -0.0688825 1.6864e-21)
(0.388455 -0.0593122 -1.3671e-22)
(0.441873 -0.0489585 -2.44504e-21)
(0.491651 -0.0385803 -8.72343e-23)
(0.537833 -0.0287178 4.45069e-21)
(0.580492 -0.019649 -4.17027e-21)
(0.61983 -0.011705 1.97762e-21)
(0.655963 -0.00476406 -2.1626e-22)
(0.689071 0.000813399 9.68156e-23)
(0.71932 0.00545807 -1.71947e-22)
(0.746973 0.00890817 0)
(0.772183 0.0117941 0)
(0.795164 0.0133388 4.44671e-22)
(0.816118 0.0148387 -3.30174e-22)
(0.83525 0.0151731 -2.49046e-22)
(0.852753 0.0160005 -4.28565e-24)
(0.868846 0.0157349 3.19699e-22)
(0.883724 0.0163766 -5.86316e-23)
(0.897643 0.0158464 0)
(0.910802 0.0166712 0)
(0.923317 0.0161869 0)
(0.935184 0.017644 0)
(0.946149 0.0173359 -5.73565e-23)
(0.956102 0.0194833 2.45691e-23)
(0.964658 0.019156 0)
(0.971988 0.0217683 0)
(0.977821 0.0213741 0)
(0.982682 0.0244712 1.08716e-23)
(0.986272 0.0240587 -1.79796e-24)
(0.989409 0.0278115 8.64707e-24)
(0.991477 0.0273544 0)
(0.993642 0.0317733 0)
(0.994778 0.0313568 -3.56274e-24)
(0.99652 0.0364304 -8.14788e-24)
(0.997039 0.0361393 0)
(0.998744 0.041992 0)
(-0.16138 0.0437101 1.02921e-21)
(-0.173047 0.0443024 -4.696e-20)
(-0.182105 0.0441638 4.73987e-20)
(-0.19007 0.0435763 -4.43218e-20)
(-0.196828 0.0421926 -3.49905e-22)
(-0.201935 0.0397861 0)
(-0.204973 0.0361867 -4.31363e-20)
(-0.205471 0.0312495 4.22639e-20)
(-0.202848 0.0247577 3.12073e-22)
(-0.196431 0.0166176 6.05925e-22)
(-0.185425 0.00706731 5.75494e-22)
(-0.170099 -0.00463273 5.26659e-22)
(-0.149894 -0.0187096 -3.04087e-20)
(-0.124002 -0.0338835 2.99882e-20)
(-0.0924545 -0.050001 0)
(-0.0550958 -0.0666943 6.92531e-22)
(-0.0128908 -0.0831247 -1.61776e-20)
(0.0352996 -0.0980759 1.59309e-20)
(0.0884277 -0.110644 0)
(0.143903 -0.119544 0)
(0.20136 -0.124523 -2.52603e-21)
(0.258989 -0.124894 2.3797e-21)
(0.315416 -0.120696 1.89958e-21)
(0.369521 -0.112584 1.30658e-21)
(0.420521 -0.101576 -7.06862e-21)
(0.467997 -0.0888012 8.5915e-21)
(0.511884 -0.0753331 -8.7604e-21)
(0.55235 -0.0620609 2.23199e-22)
(0.589728 -0.0496302 4.45286e-21)
(0.62428 -0.0382773 0)
(0.656336 -0.0282799 0)
(0.686047 -0.0196286 -1.23488e-21)
(0.713688 -0.0124929 1.61996e-21)
(0.739387 -0.00644176 1.03495e-24)
(0.763332 -0.00176108 -1.16035e-21)
(0.785394 0.00213331 1.12765e-21)
(0.805892 0.00487774 0)
(0.82481 0.00742564 -1.02473e-22)
(0.842362 0.00861145 -7.67297e-22)
(0.858536 0.0101646 1.4041e-21)
(0.873583 0.0105126 -5.73484e-22)
(0.887536 0.011667 -5.86165e-23)
(0.900698 0.011553 4.89442e-22)
(0.913172 0.0127202 -3.76587e-22)
(0.925128 0.0125442 -7.69589e-23)
(0.936517 0.01433 -6.66868e-23)
(0.947123 0.014389 5.75023e-23)
(0.956807 0.0169517 0)
(0.965182 0.0170506 0)
(0.972406 0.0200747 1.39074e-22)
(0.978168 0.020043 -6.53346e-23)
(0.983018 0.0234477 5.09515e-23)
(0.986588 0.0232728 -6.34456e-23)
(0.989756 0.0272156 -6.66411e-23)
(0.991825 0.0268906 1.56089e-23)
(0.994042 0.0314137 -2.2157e-23)
(0.995181 0.0310627 1.66822e-23)
(0.996989 0.0361947 -6.97922e-24)
(0.99751 0.0359292 0)
(0.999293 0.0418216 0)
(-0.0479122 0.0516196 -9.6962e-20)
(-0.0545672 0.0525131 -3.44173e-22)
(-0.0585957 0.0516057 9.22815e-20)
(-0.0611433 0.0498587 -7.20113e-22)
(-0.0626735 0.0470859 0)
(-0.0627794 0.0429328 0)
(-0.0609772 0.0371557 -8.77712e-20)
(-0.0569129 0.0296229 -6.4566e-22)
(-0.0501118 0.0202697 1.23774e-19)
(-0.0397465 0.00905004 -1.23743e-21)
(-0.0260757 -0.00427112 -3.85636e-20)
(-0.00908433 -0.0201247 -3.34446e-20)
(0.0130771 -0.0373757 3.35848e-20)
(0.040402 -0.0560754 0)
(0.0721883 -0.0759221 -2.51025e-20)
(0.108826 -0.0961996 2.29562e-20)
(0.149691 -0.115856 0)
(0.194745 -0.132551 0)
(0.243267 -0.146995 9.77691e-21)
(0.293506 -0.156907 -3.22679e-21)
(0.34436 -0.161578 -5.9636e-21)
(0.39431 -0.16059 -6.8187e-22)
(0.442129 -0.154191 6.12393e-22)
(0.486945 -0.143301 2.8666e-21)
(0.528275 -0.129239 9.11484e-22)
(0.565985 -0.113403 -3.62672e-21)
(0.600236 -0.0970544 -5.42853e-22)
(0.631351 -0.0811649 -1.50786e-23)
(0.659821 -0.0664835 0)
(0.686018 -0.0532398 -3.99017e-21)
(0.710344 -0.0416511 4.10865e-21)
(0.732981 -0.0316043 -2.16532e-22)
(0.754273 -0.0232237 0)
(0.774265 -0.0160778 1.72958e-22)
(0.793185 -0.0105726 -2.31848e-21)
(0.810963 -0.00586642 4.02233e-21)
(0.827831 -0.00240331 3.46628e-23)
(0.843447 0.000748416 -1.74828e-22)
(0.858198 0.00270099 -1.33208e-21)
(0.87193 0.00491298 -1.56118e-22)
(0.884898 0.00579498 1.02834e-21)
(0.896988 0.0073873 -8.81244e-22)
(0.908521 0.00762951 -3.96151e-25)
(0.919505 0.00908721 -3.37334e-22)
(0.930148 0.00916892 4.05173e-22)
(0.94037 0.0112313 4.53723e-22)
(0.950004 0.0116068 -1.30483e-22)
(0.958899 0.0145383 -1.86833e-22)
(0.966673 0.0150241 3.40889e-22)
(0.973471 0.0184298 -2.26947e-22)
(0.978931 0.0187377 5.26752e-23)
(0.983612 0.0224351 -6.66475e-23)
(0.987059 0.0224874 -4.9855e-23)
(0.990195 0.0266148 1.01737e-22)
(0.992225 0.0264182 -2.9808e-24)
(0.994473 0.031045 2.21675e-23)
(0.995601 0.0307581 0)
(0.997468 0.0359496 6.95626e-24)
(0.997988 0.0357096 -9.10157e-24)
(0.999846 0.0416431 0)
(0.0795634 0.051628 9.77173e-20)
(0.078889 0.0535078 -1.91997e-19)
(0.0793098 0.0526143 9.3182e-20)
(0.0819071 0.0502879 9.36774e-20)
(0.0855962 0.0467312 -1.8399e-19)
(0.0903907 0.0415578 -2.15004e-22)
(0.0967491 0.0344095 8.87107e-20)
(0.105078 0.0250724 8.63858e-20)
(0.115838 0.013533 -8.4613e-20)
(0.129271 -0.000164447 0)
(0.145409 -0.0165962 -7.63508e-20)
(0.164775 -0.0349722 1.45881e-19)
(0.187903 -0.0546538 -6.96402e-20)
(0.215127 -0.0763162 0)
(0.246249 -0.0990301 0)
(0.28118 -0.121975 7.44592e-22)
(0.319366 -0.143937 -3.77259e-20)
(0.360406 -0.163174 3.66473e-20)
(0.403427 -0.17873 0)
(0.446945 -0.189002 1.53054e-20)
(0.489724 -0.193099 -2.25869e-20)
(0.530553 -0.190676 1.09769e-20)
(0.568537 -0.18216 -1.50931e-21)
(0.603212 -0.168722 3.15343e-21)
(0.6345 -0.15194 -1.09981e-20)
(0.662582 -0.133424 6.55708e-21)
(0.68781 -0.11459 2.64875e-22)
(0.710545 -0.096455 3.96592e-21)
(0.731266 -0.0798203 -9.93836e-25)
(0.750327 -0.0649625 -3.99693e-21)
(0.768069 -0.0520475 -2.34586e-22)
(0.784601 -0.0408895 3.25771e-21)
(0.800247 -0.0315922 -6.09189e-21)
(0.815014 -0.0236672 3.17954e-21)
(0.829177 -0.0174157 0)
(0.842576 -0.0119508 2.29624e-21)
(0.85547 -0.00808531 -2.2052e-21)
(0.867593 -0.00449917 1.35305e-21)
(0.879241 -0.00216645 -1.69134e-21)
(0.890079 0.000480824 1.54861e-22)
(0.900478 0.00182364 0)
(0.91024 0.00377655 1.17584e-22)
(0.919672 0.00429674 -3.07501e-22)
(0.928706 0.00597603 0)
(0.937568 0.00624747 -7.41496e-22)
(0.946175 0.0085145 3.01682e-22)
(0.954408 0.00913158 -1.16076e-22)
(0.962134 0.0123589 -9.96226e-23)
(0.968985 0.0131655 0)
(0.975105 0.0168985 0)
(0.98007 0.0175031 1.75295e-22)
(0.984448 0.021463 -2.57553e-22)
(0.98768 0.0217213 1.35264e-22)
(0.990726 0.0260207 -4.09158e-23)
(0.992679 0.0259441 -6.23522e-23)
(0.994936 0.0306709 -2.21886e-23)
(0.99604 0.0304456 3.33922e-23)
(0.997959 0.0356964 0)
(0.998473 0.0354812 1.48023e-23)
(1.0004 0.0414572 3.45032e-24)
(0.217933 0.0463971 9.871e-20)
(0.221488 0.048616 -9.80256e-20)
(0.224558 0.0478541 7.49417e-22)
(0.230455 0.0454005 -7.31201e-22)
(0.238016 0.0415905 7.2746e-22)
(0.246635 0.03599 -7.1581e-22)
(0.256592 0.0281977 1.39594e-21)
(0.26825 0.0180099 0)
(0.282108 0.00534845 -1.33335e-21)
(0.298054 -0.00996698 1.29183e-21)
(0.316219 -0.0279106 1.24069e-21)
(0.337048 -0.0481161 -1.17074e-21)
(0.3608 -0.0702527 0)
(0.387704 -0.0941 0)
(0.417607 -0.118964 9.22894e-22)
(0.450245 -0.143901 0)
(0.485021 -0.167564 -6.97769e-22)
(0.521217 -0.188242 0)
(0.55778 -0.204477 -2.36017e-20)
(0.593327 -0.214732 4.02799e-20)
(0.626702 -0.218078 -2.65923e-20)
(0.657077 -0.214281 1.01508e-20)
(0.684069 -0.203954 3.57394e-22)
(0.707768 -0.188481 -3.4706e-22)
(0.728606 -0.169624 5.50898e-21)
(0.747121 -0.149107 -5.40836e-21)
(0.763845 -0.128425 0)
(0.77913 -0.108608 -2.27934e-22)
(0.793329 -0.0904337 0)
(0.806675 -0.0742609 0)
(0.819354 -0.0602485 -6.5174e-21)
(0.831309 -0.0481693 6.74732e-21)
(0.842735 -0.0381025 -3.65552e-22)
(0.853554 -0.0295263 -3.40157e-22)
(0.864004 -0.0227107 2.94432e-22)
(0.873897 -0.0167966 2.01713e-21)
(0.883515 -0.0124427 -1.95858e-21)
(0.892549 -0.00838963 1.75923e-21)
(0.901347 -0.00581571 -1.50838e-21)
(0.909589 -0.00297419 -3.11249e-22)
(0.917546 -0.00141513 1.02956e-21)
(0.925009 0.00087566 1.37358e-23)
(0.932303 0.00162621 -6.64689e-22)
(0.939318 0.00347042 0)
(0.946276 0.0038678 3.10583e-22)
(0.953113 0.00626796 -3.74612e-22)