/*--------------------------------*- C++ -*----------------------------------*\
| =========                 |                                                 |
| \\      /  F ield         | OpenFOAM: The Open Source CFD Toolbox           |
|  \\    /   O peration     | Version:  2512                                  |
|   \\  /    A nd           | Website:  www.openfoam.com                      |
|    \\/     M anipulation  |                                                 |
\*---------------------------------------------------------------------------*/
FoamFile
{
    version     2.0;
    format      ascii;
    arch        "LSB;label=32;scalar=64";
    class       volScalarField;
    location    "88";
    object      p;
}
// * * * * * * * * * * * * * * * * * * * * * * * * * * * * * * * * * * * * * //

dimensions      [0 2 -2 0 0 0 0];

internalField   nonuniform List<scalar> 
13248
(
-0.304534
-0.303762
-0.302177
-0.299924
-0.297106
-0.293748
-0.289842
-0.285377
-0.280344
-0.274757
-0.268654
-0.262105
-0.255207
-0.248082
-0.240863
-0.233685
-0.226668
-0.219913
-0.213485
-0.20744
-0.201735
-0.196487
-0.191234
-0.186539
-0.312151
-0.310435
-0.308066
-0.305148
-0.301741
-0.297873
-0.293531
-0.288678
-0.283282
-0.277329
-0.270838
-0.263863
-0.256493
-0.248844
-0.241044
-0.23322
-0.225485
-0.217929
-0.210613
-0.203571
-0.196792
-0.190267
-0.18382
-0.177799
-0.321122
-0.318327
-0.315048
-0.311352
-0.30725
-0.30277
-0.297878
-0.292502
-0.286571
-0.280041
-0.272913
-0.26524
-0.257119
-0.248682
-0.240071
-0.231428
-0.222875
-0.214513
-0.206406
-0.198595
-0.19106
-0.183819
-0.176721
-0.170049
-0.331515
-0.327516
-0.323227
-0.318668
-0.313782
-0.308573
-0.302972
-0.296856
-0.290113
-0.282682
-0.274574
-0.265869
-0.256707
-0.247257
-0.237695
-0.228184
-0.218857
-0.209808
-0.201095
-0.192739
-0.184725
-0.177057
-0.169612
-0.162712
-0.343424
-0.338106
-0.332736
-0.327252
-0.321487
-0.315396
-0.308851
-0.30168
-0.293752
-0.285029
-0.275578
-0.265549
-0.255146
-0.244586
-0.23407
-0.223762
-0.213778
-0.204189
-0.195027
-0.186292
-0.177963
-0.170026
-0.162398
-0.155311
-0.356895
-0.350163
-0.343667
-0.337202
-0.330433
-0.323228
-0.3154
-0.306753
-0.297196
-0.286777
-0.275669
-0.264116
-0.252386
-0.240723
-0.229321
-0.218315
-0.207785
-0.197765
-0.188257
-0.179244
-0.170694
-0.16258
-0.154838
-0.147634
-0.371852
-0.363648
-0.355997
-0.348475
-0.340502
-0.331843
-0.322278
-0.311665
-0.300031
-0.287576
-0.274608
-0.261456
-0.24842
-0.23573
-0.22354
-0.211936
-0.20095
-0.19058
-0.180803
-0.171582
-0.162877
-0.154649
-0.146855
-0.139572
-0.388032
-0.378346
-0.36952
-0.360808
-0.351329
-0.340759
-0.328931
-0.315859
-0.301778
-0.287076
-0.27218
-0.257466
-0.243215
-0.229605
-0.216727
-0.20461
-0.193241
-0.182584
-0.172594
-0.163221
-0.154416
-0.146132
-0.138336
-0.131022
-0.404945
-0.393833
-0.383801
-0.373686
-0.362287
-0.34927
-0.334653
-0.318722
-0.301973
-0.284971
-0.268212
-0.252056
-0.236722
-0.22231
-0.208844
-0.196295
-0.18461
-0.173728
-0.163583
-0.154115
-0.145264
-0.136981
-0.129229
-0.121932
-0.421856
-0.409433
-0.398132
-0.386306
-0.372491
-0.356491
-0.338662
-0.319646
-0.3002
-0.281001
-0.262544
-0.245119
-0.228854
-0.213766
-0.199809
-0.18691
-0.174981
-0.16394
-0.153704
-0.1442
-0.135361
-0.127134
-0.119461
-0.112229
-0.437801
-0.424216
-0.411529
-0.397601
-0.380853
-0.361419
-0.340127
-0.317999
-0.295987
-0.274802
-0.254867
-0.236369
-0.219333
-0.203697
-0.189359
-0.176204
-0.164118
-0.152999
-0.142751
-0.133288
-0.124535
-0.116429
-0.108884
-0.101789
-0.451672
-0.43712
-0.422901
-0.406441
-0.386263
-0.363041
-0.338163
-0.313007
-0.288638
-0.265714
-0.244541
-0.22518
-0.207555
-0.191528
-0.176948
-0.163664
-0.151541
-0.140457
-0.130303
-0.120984
-0.112422
-0.104539
-0.0972231
-0.0904124
-0.325253
-0.327592
-0.328947
-0.329785
-0.33052
-0.331266
-0.332053
-0.332878
-0.333717
-0.334526
-0.335251
-0.335828
-0.336177
-0.336212
-0.335907
-0.33518
-0.333909
-0.332021
-0.329474
-0.326259
-0.322407
-0.317998
-0.313241
-0.308574
-0.315892
-0.318377
-0.319728
-0.320415
-0.320851
-0.321137
-0.321296
-0.321324
-0.321195
-0.320868
-0.320294
-0.319419
-0.31819
-0.316558
-0.314492
-0.311962
-0.308949
-0.305464
-0.301555
-0.297317
-0.292883
-0.288404
-0.284166
-0.281018
-0.307794
-0.310291
-0.311573
-0.31209
-0.312234
-0.312088
-0.311666
-0.310962
-0.309951
-0.308596
-0.306857
-0.304696
-0.30208
-0.298989
-0.295421
-0.291398
-0.286963
-0.282198
-0.277224
-0.272214
-0.267386
-0.262946
-0.259126
-0.256915
-0.301073
-0.303481
-0.304649
-0.304989
-0.304856
-0.304316
-0.303372
-0.302017
-0.300229
-0.297979
-0.295237
-0.291981
-0.288201
-0.283906
-0.27913
-0.273934
-0.268416
-0.262711
-0.256996
-0.251496
-0.246481
-0.242186
-0.238835
-0.237437
-0.295753
-0.298014
-0.299039
-0.299197
-0.298803
-0.297903
-0.296494
-0.294567
-0.292104
-0.289085
-0.285496
-0.281333
-0.276608
-0.271357
-0.265647
-0.259578
-0.253286
-0.246948
-0.240774
-0.235027
-0.229997
-0.225975
-0.223145
-0.222193
-0.291821
-0.29391
-0.294773
-0.294742
-0.294094
-0.292859
-0.29103
-0.288595
-0.285545
-0.281872
-0.277575
-0.27267
-0.267193
-0.261207
-0.254806
-0.248117
-0.241316
-0.234605
-0.228225
-0.222445
-0.217559
-0.21387
-0.211658
-0.210705
-0.289267
-0.291172
-0.291858
-0.291624
-0.290722
-0.28917
-0.286956
-0.284073
-0.280518
-0.276295
-0.271421
-0.26593
-0.259881
-0.253361
-0.246491
-0.239427
-0.232363
-0.225527
-0.21917
-0.213564
-0.208993
-0.205638
-0.204196
-0.202822
-0.288109
-0.289811
-0.290296
-0.289843
-0.288681
-0.286827
-0.284266
-0.280998
-0.277026
-0.272368
-0.267056
-0.261143
-0.25471
-0.247867
-0.240758
-0.233562
-0.22649
-0.219778
-0.213677
-0.20843
-0.204349
-0.201262
-0.200677
-0.198685
-0.288394
-0.289845
-0.290091
-0.289392
-0.287966
-0.285828
-0.282966
-0.279385
-0.275095
-0.27013
-0.264532
-0.25837
-0.251746
-0.244789
-0.237661
-0.230554
-0.223684
-0.217283
-0.211587
-0.206774
-0.203218
-0.200314
-0.200288
-0.198032
-0.290175
-0.291285
-0.291229
-0.29025
-0.288548
-0.286141
-0.283024
-0.279203
-0.274699
-0.269539
-0.263786
-0.257521
-0.250857
-0.243934
-0.236922
-0.230014
-0.223419
-0.217346
-0.212006
-0.207514
-0.204234
-0.201484
-0.201318
-0.199274
-0.293477
-0.294118
-0.293669
-0.292349
-0.290338
-0.287655
-0.284301
-0.280279
-0.275608
-0.270324
-0.264489
-0.258188
-0.251537
-0.24468
-0.237782
-0.231023
-0.224589
-0.218653
-0.213377
-0.208866
-0.205333
-0.202507
-0.201542
-0.199824
-0.298284
-0.298297
-0.297338
-0.295588
-0.2932
-0.290197
-0.286578
-0.282342
-0.277503
-0.272089
-0.266158
-0.25979
-0.253098
-0.246215
-0.239292
-0.232487
-0.225948
-0.219807
-0.214161
-0.209104
-0.204667
-0.200979
-0.198367
-0.19655
-0.303416
-0.297695
-0.293336
-0.291163
-0.292027
-0.296467
-0.304476
-0.315241
-0.32706
-0.337455
-0.343177
-0.341395
-0.329072
-0.304997
-0.270385
-0.229603
-0.188897
-0.153938
-0.12805
-0.11199
-0.105001
-0.106655
-0.117475
-0.136251
-0.15674
-0.168828
-0.164915
-0.146375
-0.120983
-0.0970709
-0.0797441
-0.0703978
-0.0677791
-0.0713126
-0.0829899
-0.102156
-0.120389
-0.125193
-0.114577
-0.0940991
-0.0743069
-0.0606454
-0.052371
-0.0504108
-0.05587
-0.0640135
-0.0664837
-0.0607054
-0.0514701
-0.0441181
-0.0383132
-0.0371055
-0.0378347
-0.0371397
-0.0352993
-0.0316206
-0.0231159
-0.0169306
-0.0077049
-0.00151499
-0.279448
-0.278888
-0.28064
-0.285342
-0.293506
-0.305157
-0.319796
-0.336142
-0.352162
-0.365206
-0.372044
-0.370287
-0.356477
-0.329437
-0.2906
-0.244859
-0.199087
-0.159317
-0.128942
-0.108657
-0.0976032
-0.0950227
-0.101106
-0.115188
-0.132455
-0.144149
-0.142818
-0.128991
-0.108572
-0.0890542
-0.0754836
-0.0693276
-0.0694373
-0.0757047
-0.0904943
-0.112602
-0.132592
-0.13652
-0.124353
-0.10096
-0.0780113
-0.06156
-0.0509349
-0.0467542
-0.0497289
-0.0560047
-0.0578526
-0.0534738
-0.0467259
-0.0417053
-0.0382997
-0.0391573
-0.0422418
-0.0422724
-0.0399655
-0.0354426
-0.0252972
-0.0180399
-0.0072335
-0.000856897
-0.258698
-0.262755
-0.269276
-0.279217
-0.292787
-0.309638
-0.328868
-0.348949
-0.367736
-0.382601
-0.39079
-0.388577
-0.373832
-0.344964
-0.303432
-0.254438
-0.205242
-0.162097
-0.128387
-0.104644
-0.0899266
-0.0832494
-0.0845998
-0.0938229
-0.10752
-0.118439
-0.11936
-0.110057
-0.0945415
-0.0795096
-0.0698507
-0.0669954
-0.069907
-0.0789201
-0.096662
-0.121469
-0.143178
-0.147971
-0.132948
-0.106882
-0.0810821
-0.0620673
-0.04929
-0.0431067
-0.0437908
-0.048327
-0.0495293
-0.0463741
-0.0418787
-0.0390809
-0.0381277
-0.0411904
-0.0467582
-0.047501
-0.044499
-0.0390865
-0.0273578
-0.0191008
-0.00679939
-0.000241904
-0.242188
-0.248742
-0.258614
-0.27211
-0.289105
-0.309082
-0.330979
-0.353157
-0.373451
-0.389351
-0.397912
-0.396073
-0.381108
-0.351532
-0.30887
-0.258446
-0.207619
-0.162671
-0.126838
-0.100535
-0.0827783
-0.0725067
-0.0694208
-0.0737533
-0.0835069
-0.0930707
-0.0964698
-0.0902877
-0.0793739
-0.0687388
-0.0629583
-0.0633224
-0.0689286
-0.0805037
-0.100903
-0.128199
-0.151579
-0.156527
-0.140052
-0.111731
-0.0834758
-0.0622059
-0.0475128
-0.0395817
-0.0382253
-0.0411805
-0.0417067
-0.0395358
-0.0370093
-0.0362795
-0.037783
-0.0431515
-0.0513193
-0.0527748
-0.0488477
-0.0425121
-0.029271
-0.0201
-0.00640349
0.000331089
-0.228814
-0.237325
-0.248862
-0.264017
-0.282601
-0.303929
-0.326848
-0.349731
-0.37044
-0.38667
-0.395543
-0.393951
-0.379183
-0.349852
-0.307551
-0.257555
-0.206982
-0.161764
-0.124916
-0.0968609
-0.0766958
-0.0633731
-0.0564343
-0.0561159
-0.061666
-0.0690872
-0.0730863
-0.0701531
-0.0635556
-0.0570365
-0.0548755
-0.0582052
-0.066264
-0.0801035
-0.102832
-0.132383
-0.157431
-0.162787
-0.145505
-0.115444
-0.0851955
-0.0620351
-0.0456846
-0.0362613
-0.0331325
-0.0346904
-0.0345352
-0.033081
-0.0322006
-0.0333323
-0.0372423
-0.0449779
-0.0558391
-0.0580254
-0.05299
-0.0456835
-0.0310116
-0.0210244
-0.00604577
0.000863426
-0.21877
-0.228418
-0.240226
-0.255483
-0.274178
-0.295439
-0.318067
-0.340593
-0.361147
-0.376591
-0.38535
-0.383795
-0.369494
-0.341186
-0.300566
-0.25268
-0.204043
-0.159946
-0.123097
-0.0940143
-0.0720273
-0.0562019
-0.0460065
-0.041586
-0.0429191
-0.047607
-0.0513169
-0.0504412
-0.0476795
-0.0447516
-0.0457371
-0.0516574
-0.0618555
-0.077602
-0.102252
-0.133763
-0.160478
-0.166624
-0.149204
-0.117982
-0.0862473
-0.0615988
-0.0438619
-0.0331928
-0.0285611
-0.0289263
-0.0281197
-0.0271085
-0.0275286
-0.0302695
-0.0364797
-0.0465943
-0.0602101
-0.0631653
-0.0580401
-0.048578
-0.0325555
-0.0218585
-0.0057238
0.00135791
-0.212145
-0.222184
-0.23306
-0.247199
-0.264902
-0.285007
-0.306244
-0.327373
-0.347696
-0.361611
-0.369167
-0.367337
-0.353684
-0.327114
-0.289358
-0.244983
-0.199616
-0.157745
-0.121744
-0.0922609
-0.0689659
-0.0511498
-0.0382813
-0.0303864
-0.0277736
-0.0293971
-0.0321088
-0.0318674
-0.032411
-0.0323111
-0.0358328
-0.043866
-0.0558036
-0.0730078
-0.0990897
-0.132229
-0.160585
-0.167968
-0.151101
-0.119327
-0.0866366
-0.0609212
-0.0420788
-0.030395
-0.024512
-0.0238912
-0.0225103
-0.0216889
-0.0230685
-0.0271253
-0.0354691
-0.0479144
-0.064317
-0.068043
-0.0617729
-0.0511325
-0.0338816
-0.0225888
-0.00543226
0.0018195
-0.208806
-0.218412
-0.227368
-0.239513
-0.255366
-0.273421
-0.292381
-0.311146
-0.327203
-0.34152
-0.348145
-0.346093
-0.333376
-0.309241
-0.275333
-0.235492
-0.194295
-0.155408
-0.120907
-0.0915766
-0.0674469
-0.0481252
-0.0331516
-0.0224486
-0.016383
-0.014851
-0.0162051
-0.0190745
-0.0184543
-0.020185
-0.0255412
-0.0351038
-0.0483023
-0.0664936
-0.093455
-0.127809
-0.15783
-0.166894
-0.151173
-0.119473
-0.0863739
-0.0600181
-0.0403577
-0.0278742
-0.0209664
-0.0195443
-0.0176922
-0.0168573
-0.0188977
-0.0239362
-0.034189
-0.0488514
-0.068047
-0.0725583
-0.0651258
-0.0533276
-0.0349752
-0.0232118
-0.00516991
0.00225554
-0.207797
-0.215826
-0.22234
-0.232103
-0.245419
-0.260618
-0.276766
-0.293725
-0.307493
-0.318531
-0.323786
-0.321623
-0.310247
-0.289192
-0.259812
-0.225074
-0.188491
-0.152987
-0.12042
-0.0917149
-0.0672063
-0.0468351
-0.0302933
-0.0174293
-0.00853291
-0.00395743
-0.00314406
-0.0046228
-0.00562466
-0.00871838
-0.0152184
-0.0256859
-0.0395983
-0.0582315
-0.0856073
-0.120824
-0.152492
-0.163808
-0.14947
-0.118523
-0.0855844
-0.0590055
-0.0387983
-0.0256803
-0.0179216
-0.0158517
-0.013637
-0.0126266
-0.0150805
-0.0207371
-0.0326107
-0.0493315
-0.0713016
-0.076613
-0.0680946
-0.0551545
-0.0358323
-0.0237304
-0.00494939
0.00267362
-0.206957
-0.212318
-0.216726
-0.224209
-0.234475
-0.246414
-0.259422
-0.272213
-0.284871
-0.293599
-0.297917
-0.296011
-0.286494
-0.269013
-0.244485
-0.214992
-0.183098
-0.151118
-0.120749
-0.0930423
-0.0685531
-0.0474951
-0.0297751
-0.0152371
-0.0040616
0.00328293
0.00665737
0.00690062
0.00558691
0.00187343
-0.0051118
-0.0159025
-0.0300508
-0.0487725
-0.0760858
-0.111582
-0.144896
-0.159324
-0.146128
-0.116731
-0.0845603
-0.0581276
-0.0375994
-0.0239301
-0.0153837
-0.012757
-0.0103509
-0.00905359
-0.0116447
-0.0175515
-0.0307495
-0.0492879
-0.0739737
-0.0800861
-0.0706592
-0.0566088
-0.0364518
-0.024132
-0.00477994
0.00307918
-0.204132
-0.206872
-0.21012
-0.215451
-0.222621
-0.231553
-0.241832
-0.252132
-0.26127
-0.268533
-0.27234
-0.271169
-0.263978
-0.250355
-0.230755
-0.206465
-0.179234
-0.150845
-0.12283
-0.0963351
-0.0721105
-0.0505904
-0.031915
-0.0160262
-0.00300019
0.00678629
0.0128708
0.015294
0.0148669
0.0113354
0.00451194
-0.00598836
-0.0197394
-0.0380033
-0.0651197
-0.101182
-0.135632
-0.153964
-0.140963
-0.113845
-0.0830875
-0.0571388
-0.0365548
-0.0224915
-0.0132032
-0.0100361
-0.00765052
-0.00616306
-0.00874223
-0.0143949
-0.0285106
-0.0486807
-0.0760441
-0.0828188
-0.0727638
-0.0576343
-0.0367888
-0.0243715
-0.00461017
0.0034879
-0.198642
-0.200707
-0.202981
-0.205808
-0.209995
-0.215945
-0.223384
-0.231072
-0.237974
-0.243136
-0.24599
-0.245274
-0.240026
-0.229732
-0.214429
-0.194754
-0.171806
-0.14693
-0.121475
-0.0966152
-0.0732368
-0.0519291
-0.0329959
-0.0165485
-0.00264043
0.00864437
0.0169842
0.0217103
0.0224085
0.0196398
0.0132001
0.00333186
-0.00978334
-0.0273539
-0.05359
-0.0889109
-0.123444
-0.14043
-0.132279
-0.108257
-0.0793795
-0.0543865
-0.0343137
-0.02044
-0.0108411
-0.00732401
-0.00494013
-0.00344785
-0.00617799
-0.0114442
-0.0261143
-0.0474551
-0.0772709
-0.0847834
-0.074229
-0.058125
-0.0367192
-0.024402
-0.00431914
0.00394465
-0.191049
-0.195935
-0.197412
-0.198733
-0.201747
-0.206665
-0.212572
-0.218436
-0.223642
-0.227582
-0.229271
-0.227709
-0.222124
-0.212094
-0.197673
-0.179419
-0.158272
-0.135372
-0.111872
-0.088782
-0.0668734
-0.0466696
-0.0284572
-0.0123695
0.00150956
0.013122
0.0223046
0.0284687
0.030891
0.0293338
0.0236585
0.0150661
0.00326671
-0.0136153
-0.0407149
-0.0788948
-0.116752
-0.136155
-0.12675
-0.102084
-0.0738393
-0.0498973
-0.0307286
-0.0175116
-0.00820212
-0.00477238
-0.00213106
-0.000209071
-0.00239456
-0.00733069
-0.0226256
-0.0453528
-0.0781844
-0.087065
-0.0755379
-0.0582659
-0.0362858
-0.0242752
-0.00391256
0.00440382
-0.181835
-0.188872
-0.190433
-0.190661
-0.19235
-0.195793
-0.200073
-0.204318
-0.207899
-0.210114
-0.210243
-0.207594
-0.201598
-0.191948
-0.178703
-0.162298
-0.14345
-0.123041
-0.101974
-0.0810696
-0.0609876
-0.0422096
-0.0250287
-0.00963435
0.00387167
0.0155124
0.0251877
0.0322278
0.0354912
0.0348131
0.0306041
0.0236207
0.0133446
-0.00269521
-0.0303741
-0.0700982
-0.10846
-0.125682
-0.116996
-0.0933928
-0.0670733
-0.0450022
-0.0272771
-0.0149257
-0.00591407
-0.00252288
0.000144483
0.00199685
2.67811e-05
-0.00444108
-0.0198408
-0.0434401
-0.0783033
-0.0883076
-0.0757311
-0.0577428
-0.0355075
-0.0238502
-0.00351611
0.00466174
-0.171232
-0.179657
-0.181594
-0.18118
-0.181703
-0.183843
-0.186898
-0.189876
-0.191989
-0.192759
-0.191753
-0.18849
-0.182541
-0.17365
-0.161809
-0.14729
-0.130605
-0.112422
-0.093471
-0.0744452
-0.0559354
-0.0384031
-0.0221536
-0.00738872
0.00574731
0.0172323
0.0270196
0.0346053
0.0389338
0.0392506
0.0361791
0.0304811
0.0211944
0.00527504
-0.0229484
-0.0620179
-0.0980954
-0.114032
-0.105727
-0.0840772
-0.0601522
-0.040075
-0.023793
-0.0123349
-0.00370721
-0.00038117
0.00227591
0.00405905
0.00212767
-0.00228513
-0.01783
-0.0418201
-0.077522
-0.0884775
-0.0752297
-0.0567198
-0.0344613
-0.0232134
-0.00316971
0.00482329
-0.160137
-0.168979
-0.171286
-0.170668
-0.17048
-0.17171
-0.173754
-0.175619
-0.176637
-0.176444
-0.174736
-0.17116
-0.165381
-0.157174
-0.146495
-0.133526
-0.118653
-0.1024
-0.0853562
-0.0680968
-0.0511268
-0.0348623
-0.0196028
-0.00555072
0.00712182
0.0183233
0.0280361
0.0359688
0.0409553
0.0424055
0.0407011
0.0364215
0.0281531
0.0123731
-0.0157564
-0.0531433
-0.0866722
-0.101025
-0.0932588
-0.0740613
-0.0528625
-0.0349462
-0.0202098
-0.00974563
-0.00158839
0.00165873
0.00431775
0.00609439
0.0041839
-0.000258976
-0.0158834
-0.0397151
-0.0756614
-0.087623
-0.0740629
-0.0551793
-0.0331368
-0.0223443
-0.0028638
0.00490878
-0.148485
-0.157401
-0.16009
-0.159555
-0.158993
-0.159531
-0.160744
-0.161789
-0.162059
-0.161223
-0.159045
-0.155283
-0.149691
-0.142091
-0.132435
-0.120848
-0.10761
-0.0931215
-0.0778391
-0.0622308
-0.0467253
-0.0316958
-0.0174358
-0.0041513
0.0079777
0.0188097
0.0283119
0.0363768
0.0416566
0.044078
0.0436983
0.0409278
0.0340181
0.0189765
-0.0083757
-0.0437919
-0.0743146
-0.0866841
-0.0798902
-0.0635955
-0.0454193
-0.0297721
-0.0166033
-0.00718157
0.000440166
0.00359393
0.00626899
0.00806054
0.00617908
0.00184482
-0.0135476
-0.0367674
-0.0726281
-0.0855392
-0.0720739
-0.053072
-0.0315176
-0.0212418
-0.00259442
0.00490993
-0.136529
-0.145448
-0.14844
-0.148071
-0.147315
-0.14736
-0.147988
-0.148462
-0.148215
-0.146942
-0.144474
-0.140653
-0.13531
-0.128309
-0.119601
-0.109259
-0.0974835
-0.0845718
-0.0708828
-0.0567981
-0.0426812
-0.0288612
-0.0156147
-0.00314933
0.00835365
0.0187235
0.0278919
0.0360538
0.041259
0.0443314
0.0449624
0.0434609
0.0379085
0.0240209
-0.00175423
-0.0342339
-0.0609718
-0.0715011
-0.0661734
-0.0530601
-0.0380103
-0.0246499
-0.013024
-0.00465714
0.00237766
0.00541855
0.00812347
0.00996355
0.0081162
0.00404692
-0.0107771
-0.0330189
-0.0682818
-0.0820235
-0.0691413
-0.0503851
-0.0296086
-0.0199106
-0.00235403
0.00482226
-0.124803
-0.133446
-0.136584
-0.136397
-0.135584
-0.135303
-0.135584
-0.135665
-0.135068
-0.133534
-0.130938
-0.127181
-0.122148
-0.115735
-0.107893
-0.0986639
-0.0881888
-0.0766926
-0.064456
-0.0517868
-0.038989
-0.0263486
-0.0141196
-0.00250802
0.00830098
0.018117
0.0267602
0.0337839
0.0398772
0.0434017
0.0446616
0.043928
0.0393347
0.0268809
0.00388773
-0.0243748
-0.0470102
-0.0562051
-0.0527391
-0.042841
-0.0308278
-0.0196862
-0.00953659
-0.00219212
0.0042246
0.00713658
0.00988483
0.0118186
0.0100097
0.0063122
-0.00767323
-0.0285231
-0.0625331
-0.0769833
-0.0652024
-0.0471313
-0.0274312
-0.0183636
-0.00213352
0.00464797
-0.113402
-0.121551
-0.124739
-0.124758
-0.124028
-0.123707
-0.123631
-0.123425
-0.122616
-0.120963
-0.118367
-0.114764
-0.110079
-0.104235
-0.0971888
-0.088964
-0.0796596
-0.0694443
-0.0585355
-0.0471796
-0.035629
-0.0241306
-0.012914
-0.00217808
0.00789005
0.0171036
0.0252723
0.0321808
0.0379004
0.0415673
0.0431475
0.0427559
0.0387877
0.0281017
0.00886989
-0.0145217
-0.0333385
-0.0417447
-0.0402431
-0.0333071
-0.0240494
-0.0149699
-0.00620107
0.000192171
0.00598257
0.00876088
0.0115603
0.0136369
0.0118778
0.00862724
-0.00425589
-0.0232991
-0.0554464
-0.0704462
-0.0602434
-0.0433496
-0.0250256
-0.0166238
-0.00192073
0.00439635
-0.102313
-0.109944
-0.113124
-0.113321
-0.112681
-0.11227
-0.112092
-0.111749
-0.110849
-0.109185
-0.10668
-0.103296
-0.0989851
-0.0936945
-0.0873887
-0.080079
-0.0718347
-0.0627812
-0.0530864
-0.0429474
-0.0325728
-0.0221741
-0.0119558
-0.00210511
0.00719627
0.0157722
0.0234366
0.030032
0.0354054
0.0390489
0.0407735
0.0405562
0.0371566
0.0284103
0.0130919
-0.00560124
-0.0211264
-0.0289956
-0.0291917
-0.024728
-0.0178113
-0.0105695
-0.00307018
0.00246962
0.0076487
0.0103055
0.0131567
0.0154323
0.0137593
0.0110468
-0.000475999
-0.0174452
-0.0472403
-0.0625685
-0.0543182
-0.0391066
-0.0224493
-0.0147251
-0.00169969
0.0040847
-0.0917316
-0.0988078
-0.101901
-0.102235
-0.101703
-0.10129
-0.101062
-0.100663
-0.0997545
-0.0981557
-0.095806
-0.0926859
-0.0887685
-0.0840167
-0.0784026
-0.0719309
-0.0646496
-0.0566524
-0.0480693
-0.0390574
-0.0297884
-0.0204421
-0.0111983
-0.00222949
0.00629226
0.0142018
0.0213181
0.0274948
0.0325199
0.0360447
0.0378302
0.0377682
0.0349607
0.0280152
0.0161274
0.00150739
-0.0111745
-0.018427
-0.0198119
-0.017237
-0.0122007
-0.00653332
-0.000184987
0.00460993
0.00921462
0.0117758
0.0146721
0.0172237
0.0157313
0.013673
0.00367914
-0.0111699
-0.038264
-0.0536415
-0.0475714
-0.0344967
-0.0197697
-0.012712
-0.0014469
0.0037387
-0.0817795
-0.0882229
-0.0911612
-0.0915999
-0.0911878
-0.090818
-0.0905852
-0.0901841
-0.089322
-0.0878407
-0.0856909
-0.0828642
-0.0793475
-0.0751162
-0.0701489
-0.0644466
-0.0580431
-0.0510088
-0.0434441
-0.0354746
-0.0272409
-0.0188945
-0.0105928
-0.00249081
0.00525037
0.0124768
0.0190169
0.0247244
0.0293839
0.0327335
0.0345262
0.0346168
0.0323718
0.0269353
0.017826
0.00656791
-0.00360651
-0.0100505
-0.0120927
-0.0108527
-0.00726055
-0.00289234
0.00242614
0.00658059
0.0106693
0.0131628
0.0160867
0.0190104
0.0179536
0.0166091
0.00815646
-0.00477392
-0.0290023
-0.0440877
-0.0402246
-0.0296324
-0.0170543
-0.0106391
-0.00112771
0.00339363
-0.0724123
-0.0782217
-0.0809795
-0.0815
-0.0812118
-0.0809234
-0.0806953
-0.0803234
-0.079544
-0.0782134
-0.0762895
-0.0737704
-0.0706521
-0.0669193
-0.0625558
-0.057561
-0.0519591
-0.0458029
-0.0391707
-0.0321624
-0.0248933
-0.0174905
-0.0100902
-0.00283037
0.00414232
0.0106844
0.016636
0.0218525
0.0261344
0.0292729
0.0310336
0.0312684
0.0295382
0.0253422
0.0184386
0.00988721
0.00188702
-0.0036263
-0.00589211
-0.00552115
-0.00299956
0.000335285
0.00474774
0.00835114
0.0119973
0.0144458
0.0173655
0.0207234
0.0205881
0.0198769
0.012816
0.00135169
-0.020005
-0.0344145
-0.0325918
-0.0246436
-0.0143599
-0.00856728
-0.000703549
0.00300589
-0.0636378
-0.0688549
-0.0714167
-0.0719875
-0.0718004
-0.0715669
-0.0713911
-0.0710814
-0.0704107
-0.0692499
-0.0675633
-0.0653538
-0.0626234
-0.0593632
-0.0555613
-0.0512165
-0.0463459
-0.0409899
-0.0352096
-0.0290846
-0.0227094
-0.0161901
-0.00964345
-0.00319165
0.00303469
0.00890597
0.0142723
0.0189959
0.022898
0.0258088
0.0275178
0.0278928
0.0266332
0.0234651
0.0183046
0.0119037
0.00573595
0.0011804
-0.00101499
-0.00115185
0.00060021
0.00314105
0.00677407
0.00990037
0.0131718
0.0155944
0.0184735
0.0222014
0.0231033
0.0231923
0.0172975
0.00676873
-0.0117765
-0.0251226
-0.0250413
-0.0196745
-0.0117282
-0.00655558
-0.00013455
0.00277787
-0.0555106
-0.0601544
-0.0625013
-0.0630951
-0.0629962
-0.0628321
-0.0627095
-0.0624693
-0.061914
-0.0609279
-0.0594787
-0.0575713
-0.0552114
-0.0523945
-0.0491119
-0.0453619
-0.0411572
-0.0365286
-0.0315239
-0.0262071
-0.0206549
-0.0149564
-0.00921012
-0.00352279
0.00198961
0.0072118
0.012009
0.0162525
0.0197861
0.0224679
0.0241184
0.0246286
0.0237941
0.0214818
0.0177002
0.0129948
0.0083526
0.00469757
0.00274147
0.0023586
0.00357584
0.0055263
0.00850337
0.0112181
0.0141651
0.0165617
0.0193705
0.0232959
0.0250408
0.0258982
0.0209813
0.0111246
-0.00468603
-0.0166418
-0.0179384
-0.0148825
-0.00919405
-0.00465876
0.000597878
0.00265658
-0.0480169
-0.0521097
-0.054236
-0.054836
-0.0548145
-0.0547198
-0.054653
-0.0544836
-0.0540422
-0.0532263
-0.0520058
-0.0503857
-0.0483734
-0.0459673
-0.043161
-0.0399527
-0.0363516
-0.0323815
-0.02808
-0.0234985
-0.0186994
-0.0137564
-0.00875299
-0.00378056
0.00105973
0.00566457
0.0099173
0.013702
0.0168869
0.019348
0.0209387
0.0215725
0.0211141
0.0195132
0.0168228
0.0134505
0.0100689
0.0071987
0.0055635
0.00511643
0.00597783
0.0075015
0.00993864
0.0122996
0.0149551
0.0172952
0.0199965
0.0239018
0.0261782
0.0273645
0.0233099
0.0142662
0.00106237
-0.00933499
-0.0116265
-0.0104351
-0.00679615
-0.00292599
0.00147581
0.00264099
-0.0411156
-0.0447051
-0.0466201
-0.0472151
-0.0472586
-0.0472276
-0.0472179
-0.0471133
-0.0467783
-0.0461219
-0.0451155
-0.0437628
-0.0420713
-0.0400412
-0.0376679
-0.0349497
-0.0318929
-0.028516
-0.0248486
-0.0209318
-0.0168163
-0.0125629
-0.00824157
-0.00392992
0.000285182
0.00431344
0.00805529
0.0114089
0.014267
0.0165181
0.0180474
0.0187894
0.0186543
0.0176365
0.015798
0.0134534
0.0111682
0.00890188
0.00761873
0.0072243
0.00786373
0.00908563
0.0110879
0.0131432
0.0155237
0.0177567
0.0202924
0.0239402
0.0262933
0.0273976
0.0241328
0.0162201
0.00539031
-0.00346623
-0.0063415
-0.00647848
-0.00458241
-0.00140179
0.00242039
0.0027034
-0.0347938
-0.0379279
-0.0396415
-0.040221
-0.0403172
-0.040341
-0.0403764
-0.040333
-0.0400969
-0.0395888
-0.0387794
-0.0376711
-0.0362713
-0.0345814
-0.032598
-0.0303195
-0.0277502
-0.0249042
-0.0218047
-0.0184847
-0.014985
-0.0113557
-0.00765416
-0.003946
-0.000304327
0.00319361
0.00646379
0.0094257
0.0119693
0.0140213
0.0154865
0.0163159
0.0164475
0.015896
0.0147076
0.0130852
0.0112028
0.00992567
0.00905037
0.0087809
0.00929418
0.0103063
0.0119629
0.0137487
0.0158634
0.0179351
0.0202358
0.0233725
0.0255372
0.0263389
0.0237239
0.0171267
0.00836631
0.000929783
-0.00215233
-0.00311372
-0.00259606
-0.0001259
0.00327396
0.00278221
-0.0290326
-0.0317521
-0.0332747
-0.0338312
-0.0339683
-0.0340375
-0.034116
-0.0341312
-0.0339804
-0.0336017
-0.0329683
-0.0320799
-0.030942
-0.0295564
-0.0279208
-0.0260335
-0.0238974
-0.021523
-0.0189285
-0.0161402
-0.0131907
-0.0101207
-0.00697716
-0.00381433
-0.000692866
0.00232171
0.00515856
0.0077528
0.0100091
0.0118765
0.0132746
0.0141663
0.0145083
0.0143234
0.0136489
0.0126473
0.011474
0.0105792
0.01001
0.00988173
0.0103308
0.011197
0.0125791
0.014124
0.0159794
0.0178431
0.0198651
0.0223779
0.0242005
0.0246693
0.0225335
0.017214
0.0102126
0.00403411
0.00100954
-0.000394506
-0.000866121
0.000893742
0.00385471
0.00278221
-0.0237944
-0.0261422
-0.0274889
-0.0280187
-0.0281888
-0.0282978
-0.0284147
-0.0284758
-0.028398
-0.0281324
-0.0276548
-0.0269612
-0.0260551
-0.0249386
-0.0236097
-0.0220671
-0.0203125
-0.0183539
-0.016205
-0.0138865
-0.0114243
-0.0088512
-0.00620496
-0.00353031
-0.000876759
0.00170076
0.00414272
0.00639418
0.0083904
0.010087
0.0114121
0.0123393
0.0128384
0.0129351
0.0126602
0.0121483
0.0114624
0.0109185
0.0106021
0.0106098
0.0110321
0.011794
0.012957
0.0142869
0.0158878
0.017513
0.019235
0.0211691
0.0225708
0.0227551
0.0209657
0.0167475
0.0112138
0.00608867
0.00295053
0.00167378
0.000582809
0.00168274
0.00407401
0.00263884
-0.0190458
-0.0210657
-0.0222531
-0.0227543
-0.0229497
-0.023091
-0.0232387
-0.0233429
-0.0233328
-0.0231604
-0.0228135
-0.0222876
-0.0215837
-0.0207022
-0.0196413
-0.0183996
-0.0169781
-0.0153825
-0.0136233
-0.0117164
-0.00968226
-0.00754678
-0.00534017
-0.0030984
-0.000861115
0.00132684
0.00341557
0.00535773
0.00710246
0.00864123
0.00988672
0.0108226
0.0114294
0.0117335
0.0117521
0.0115427
0.0112567
0.0110154
0.0109096
0.011037
0.0114522
0.0121361
0.0131221
0.01426
0.0156141
0.0169905
0.0184101
0.0198476
0.0208516
0.0208169
0.0192945
0.0159604
0.0116165
0.00740935
0.00456874
0.00319582
0.00173969
0.00223884
0.00394476
0.00236038
-0.0147575
-0.0164887
-0.0175324
-0.0180042
-0.0182184
-0.0183856
-0.0185586
-0.0186973
-0.018742
-0.0186529
-0.0184162
-0.0180327
-0.0175022
-0.0168236
-0.0159943
-0.0150127
-0.0138792
-0.012598
-0.0111766
-0.00962732
-0.00796592
-0.00621264
-0.00439099
-0.0025294
-0.000659524
0.00118391
0.00296261
0.00463855
0.00618385
0.00752645
0.00867428
0.00959401
0.0102645
0.0107136
0.0109776
0.0109913
0.0109522
0.0109399
0.0110011
0.0112255
0.0116418
0.0122633
0.0131027
0.0140685
0.0151932
0.0163257
0.0174595
0.0184893
0.0191619
0.0189715
0.0176666
0.0150194
0.0116106
0.00818778
0.00561167
0.0042276
0.00261243
0.00258774
0.0035767
0.00200824
-0.0108969
-0.0123756
-0.0132911
-0.0137338
-0.0139616
-0.0141493
-0.0143423
-0.0145084
-0.0145986
-0.014579
-0.0144363
-0.0141715
-0.013787
-0.0132808
-0.0126495
-0.0118907
-0.0110041
-0.00999251
-0.00886139
-0.00762008
-0.00628042
-0.00485792
-0.00337069
-0.00184073
-0.000292656
0.00124577
0.00274471
0.00417466
0.00550286
0.00670064
0.00774229
0.00862265
0.00931257
0.00982196
0.0101282
0.010418
0.0105854
0.0107455
0.0109331
0.0112295
0.0116469
0.012214
0.0129301
0.013742
0.0146594
0.0155655
0.0164441
0.0171535
0.0175655
0.0172719
0.0161492
0.0140325
0.0113363
0.00856588
0.00623052
0.00486289
0.00323476
0.00279445
0.00312493
0.00164922
-0.00743179
-0.00869159
-0.00949385
-0.00990878
-0.010146
-0.0103493
-0.0105574
-0.0107447
-0.0108713
-0.0109091
-0.0108462
-0.0106809
-0.0104169
-0.0100541
-0.00958917
-0.00901889
-0.00834219
-0.00756025
-0.0066767
-0.0056983
-0.00463392
-0.0034954
-0.00229641
-0.00105375
0.000213602
0.00148446
0.00273586
0.00394455
0.00508492
0.00613682
0.00707643
0.00789369
0.00857614
0.0091331
0.00956115
0.00992356
0.0102076
0.0104796
0.0107535
0.0110964
0.0115095
0.0120256
0.012636
0.0133115
0.0140476
0.0147523
0.0154118
0.0158764
0.016091
0.0157371
0.0147669
0.0130596
0.0108953
0.00864922
0.00655101
0.00520793
0.00364835
0.0029021
0.00269862
0.00133016
-0.00433261
-0.00540369
-0.0061067
-0.00649533
-0.00673843
-0.00695333
-0.00717231
-0.0073755
-0.0075306
-0.00761459
-0.00761747
-0.00753708
-0.00737268
-0.00712582
-0.00679815
-0.00638577
-0.0058857
-0.00529736
-0.00462297
-0.00386725
-0.00303667
-0.0021401
-0.00118774
-0.00019215
0.000832472
0.00187009
0.00290305
0.00391343
0.00488164
0.005792
0.00662579
0.00737592
0.00803033
0.00859704
0.00907072
0.00948472
0.009837
0.0101749
0.0105006
0.0108663
0.0112671
0.0117332
0.0122521
0.0128073
0.0133885
0.0139213
0.0143979
0.0146796
0.0147498
0.0143676
0.013521
0.0121301
0.0103643
0.00852373
0.00666213
0.00535488
0.00388911
0.00294672
0.00235035
0.00107785
-0.00157107
-0.00248039
-0.00309688
-0.00346097
-0.00370723
-0.00393023
-0.00415669
-0.00437119
-0.00454789
-0.00466802
-0.00472315
-0.00471132
-0.00463237
-0.00448578
-0.00426903
-0.00398241
-0.0036281
-0.00320115
-0.00270216
-0.00213362
-0.0015
-0.000807941
-6.50229e-05
0.00071959
0.00153547
0.00237068
0.00321189
0.00404573
0.00485713
0.00563412
0.00636236
0.00703614
0.00764392
0.00819105
0.0086707
0.00910419
0.00948779
0.00985577
0.0102046
0.0105732
0.010953
0.0113687
0.0118074
0.0122583
0.012709
0.0130957
0.0134303