/*--------------------------------*- C++ -*----------------------------------*\
| =========                 |                                                 |
| \\      /  F ield         | OpenFOAM: The Open Source CFD Toolbox           |
|  \\    /   O peration     | Version:  2512                                  |
|   \\  /    A nd           | Website:  www.openfoam.com                      |
|    \\/     M anipulation  |                                                 |
\*---------------------------------------------------------------------------*/
FoamFile
{
    version     2.0;
    format      ascii;
    arch        "LSB;label=32;scalar=64";
    class       volScalarField;
    location    "190.75";
    object      p;
}
// * * * * * * * * * * * * * * * * * * * * * * * * * * * * * * * * * * * * * //

dimensions      [0 2 -2 0 0 0 0];

internalField   nonuniform List<scalar> 
13248
(
-0.440052
-0.43738
-0.433741
-0.429478
-0.425057
-0.420985
-0.417671
-0.415365
-0.414131
-0.413829
-0.414132
-0.414559
-0.414537
-0.413472
-0.410832
-0.406207
-0.399356
-0.390216
-0.378872
-0.365536
-0.350316
-0.333561
-0.314145
-0.29307
-0.449109
-0.445799
-0.441611
-0.436879
-0.432012
-0.427456
-0.42353
-0.420373
-0.417931
-0.415961
-0.414074
-0.411792
-0.408628
-0.404156
-0.398071
-0.390215
-0.380576
-0.369258
-0.356433
-0.342288
-0.326974
-0.310638
-0.293094
-0.27523
-0.46052
-0.456262
-0.451353
-0.446062
-0.440677
-0.435537
-0.430829
-0.426548
-0.422515
-0.418424
-0.4139
-0.408572
-0.402135
-0.394399
-0.385294
-0.374865
-0.363234
-0.350559
-0.336998
-0.3227
-0.307752
-0.292308
-0.276225
-0.260098
-0.474214
-0.468746
-0.462954
-0.456985
-0.450938
-0.444998
-0.439186
-0.433348
-0.427226
-0.420531
-0.413008
-0.404484
-0.394888
-0.384253
-0.372682
-0.360321
-0.347321
-0.333816
-0.319916
-0.305709
-0.291269
-0.276698
-0.261944
-0.247567
-0.49003
-0.483159
-0.47635
-0.469565
-0.462638
-0.455561
-0.448184
-0.440251
-0.431517
-0.421823
-0.411126
-0.39949
-0.387058
-0.374011
-0.360528
-0.346762
-0.332831
-0.318814
-0.304767
-0.290729
-0.276737
-0.26284
-0.249016
-0.235593
-0.50775
-0.499355
-0.491431
-0.483664
-0.475551
-0.466868
-0.45734
-0.446715
-0.434889
-0.421937
-0.40807
-0.393563
-0.378692
-0.363693
-0.348735
-0.333928
-0.319328
-0.304961
-0.290835
-0.276952
-0.26332
-0.249951
-0.236842
-0.224188
-0.52703
-0.517078
-0.507964
-0.499002
-0.489283
-0.478395
-0.466054
-0.452163
-0.43689
-0.420598
-0.403725
-0.386677
-0.36977
-0.35321
-0.33711
-0.321511
-0.306414
-0.291796
-0.27763
-0.263888
-0.250551
-0.237604
-0.225046
-0.212934
-0.547378
-0.535901
-0.525522
-0.515067
-0.503201
-0.489423
-0.473615
-0.456005
-0.437112
-0.417573
-0.397971
-0.378742
-0.360157
-0.342348
-0.325348
-0.309135
-0.293658
-0.278858
-0.264679
-0.251073
-0.237997
-0.225421
-0.213338
-0.201698
-0.568073
-0.555169
-0.543423
-0.53108
-0.516435
-0.49908
-0.479275
-0.457698
-0.435225
-0.412684
-0.390697
-0.369641
-0.349692
-0.330886
-0.313181
-0.296497
-0.280743
-0.26583
-0.25168
-0.238224
-0.225404
-0.213178
-0.201516
-0.190296
-0.588147
-0.573963
-0.560699
-0.545986
-0.527911
-0.506409
-0.482301
-0.456758
-0.430942
-0.405754
-0.381753
-0.359203
-0.338163
-0.318577
-0.300333
-0.283307
-0.267373
-0.252421
-0.238351
-0.225077
-0.212527
-0.200649
-0.189381
-0.178573
-0.606418
-0.591115
-0.576117
-0.558503
-0.536415
-0.510389
-0.48192
-0.452628
-0.423832
-0.396395
-0.370747
-0.347009
-0.325125
-0.304956
-0.286335
-0.269098
-0.253095
-0.238192
-0.224273
-0.211236
-0.198999
-0.187492
-0.176614
-0.166236
-0.621598
-0.605365
-0.588392
-0.567346
-0.540752
-0.509979
-0.477237
-0.444494
-0.413109
-0.383814
-0.356865
-0.332236
-0.30976
-0.289224
-0.270411
-0.253125
-0.237191
-0.222457
-0.208791
-0.196081
-0.184235
-0.173169
-0.162749
-0.152917
-0.366312
-0.367587
-0.36841
-0.369182
-0.370313
-0.371986
-0.374273
-0.377188
-0.380712
-0.384807
-0.389424
-0.394495
-0.399925
-0.40558
-0.411283
-0.416801
-0.421845
-0.426048
-0.428941
-0.430703
-0.430361
-0.427662
-0.42236
-0.414386
-0.377865
-0.378269
-0.378665
-0.379319
-0.380545
-0.382531
-0.385365
-0.389069
-0.393633
-0.399028
-0.405211
-0.41212
-0.419655
-0.427671
-0.435967
-0.444266
-0.452233
-0.459487
-0.465645
-0.469378
-0.470876
-0.469461
-0.46447
-0.455587
-0.388675
-0.388174
-0.38808
-0.38852
-0.389707
-0.391835
-0.395006
-0.399252
-0.404569
-0.41093
-0.41829
-0.426582
-0.435698
-0.445471
-0.455685
-0.465983
-0.475974
-0.485156
-0.49292
-0.498409
-0.501064
-0.500153
-0.49491
-0.484824
-0.398197
-0.396843
-0.396222
-0.39634
-0.397319
-0.399361
-0.402591
-0.407053
-0.412746
-0.419642
-0.427691
-0.436812
-0.446879
-0.457705
-0.469019
-0.480453
-0.49154
-0.5017
-0.51023
-0.51633
-0.519177
-0.517909
-0.511815
-0.499633
-0.406088
-0.404022
-0.402876
-0.402566
-0.403149
-0.404849
-0.407818
-0.412124
-0.417774
-0.424741
-0.432963
-0.442344
-0.452737
-0.463928
-0.475615
-0.487382
-0.498723
-0.509001
-0.517458
-0.523232
-0.525431
-0.523037
-0.515732
-0.501147
-0.412238
-0.40967
-0.408042
-0.40722
-0.407236
-0.408344
-0.410742
-0.414529
-0.419735
-0.426337
-0.434267
-0.443411
-0.4536
-0.464598
-0.476088
-0.487503
-0.498406
-0.508084
-0.515717
-0.520389
-0.521238
-0.517057
-0.508169
-0.49111
-0.416779
-0.413954
-0.411921
-0.410538
-0.409857
-0.410177
-0.411749
-0.41472
-0.419154
-0.425042
-0.432317
-0.440847
-0.450431
-0.460779
-0.471494
-0.482208
-0.492167
-0.500642
-0.506795
-0.50967
-0.508523
-0.502052
-0.491187
-0.471873
-0.420068
-0.417222
-0.414871
-0.412918
-0.411473
-0.410889
-0.411479
-0.413447
-0.416901
-0.421858
-0.428251
-0.435934
-0.444666
-0.454123
-0.46386
-0.473316
-0.481782
-0.488451
-0.492468
-0.492903
-0.489185
-0.480154
-0.467082
-0.446064
-0.422651
-0.419958
-0.417367
-0.414867
-0.412657
-0.411152
-0.410723
-0.411638
-0.414047
-0.417994
-0.423398
-0.430097
-0.437806
-0.446105
-0.45446
-0.462215
-0.468609
-0.47282
-0.474056
-0.471553
-0.464969
-0.453513
-0.438505
-0.41664
-0.425217
-0.422745
-0.419955
-0.41695
-0.414034
-0.411678
-0.410309
-0.41024
-0.411653
-0.414597
-0.418991
-0.424591
-0.431031
-0.437806
-0.44428
-0.449724
-0.453365
-0.454464
-0.452403
-0.446746
-0.437447
-0.424224
-0.40828
-0.386746
-0.428523
-0.426206
-0.423206
-0.419741
-0.416212
-0.413135
-0.410965
-0.410038
-0.410545
-0.412507
-0.415784
-0.420059
-0.424866
-0.429603
-0.433574
-0.436048
-0.436338
-0.433886
-0.428327
-0.419592
-0.407897
-0.393581
-0.377762
-0.358043
-0.433287
-0.430931
-0.427655
-0.423763
-0.419721
-0.41606
-0.413238
-0.411574
-0.411218
-0.412134
-0.414092
-0.416686
-0.419362
-0.421475
-0.42235
-0.421364
-0.41802
-0.412003
-0.403198
-0.391755
-0.377887
-0.362277
-0.345577
-0.327881
-0.402507
-0.383438
-0.360344
-0.334361
-0.307443
-0.282015
-0.260786
-0.245956
-0.239037
-0.240548
-0.247254
-0.256682
-0.263699
-0.262944
-0.250714
-0.22644
-0.193885
-0.159783
-0.130511
-0.109762
-0.0983465
-0.0952404
-0.0993705
-0.111348
-0.132281
-0.158948
-0.181459
-0.189057
-0.173126
-0.145711
-0.116072
-0.0918585
-0.0760012
-0.0678365
-0.06593
-0.0713898
-0.0851502
-0.101458
-0.109448
-0.102831
-0.0868747
-0.071278
-0.0601138
-0.0542818
-0.0548887
-0.0622414
-0.0702947
-0.0707081
-0.0630112
-0.0539288
-0.0444693
-0.0390789
-0.0352809
-0.0336479
-0.0332121
-0.0313314
-0.0247428
-0.0184519
-0.0102576
-0.00292097
-0.443763
-0.420447
-0.39217
-0.359716
-0.324998
-0.290514
-0.259594
-0.23458
-0.217036
-0.210979
-0.209462
-0.21404
-0.219424
-0.219943
-0.211237
-0.192837
-0.167278
-0.140155
-0.117079
-0.101562
-0.0945243
-0.0951211
-0.102714
-0.11846
-0.143404
-0.173543
-0.197823
-0.203606
-0.186026
-0.155001
-0.121933
-0.0947954
-0.0763503
-0.0658646
-0.0616736
-0.0644634
-0.0752538
-0.0893008
-0.0966966
-0.0915694
-0.0784719
-0.0660924
-0.0578874
-0.0545538
-0.0578626
-0.067736
-0.0777971
-0.0783525
-0.0688463
-0.057519
-0.0457401
-0.0386449
-0.0327576
-0.0298764
-0.0287144
-0.0270015
-0.0218575
-0.0166539
-0.0102886
-0.00351984
-0.471494
-0.445528
-0.412512
-0.374575
-0.33357
-0.292066
-0.253135
-0.219547
-0.193477
-0.177089
-0.168382
-0.167815
-0.170798
-0.172182
-0.167118
-0.155001
-0.136729
-0.116911
-0.100386
-0.0904035
-0.08789
-0.0921766
-0.1031
-0.122239
-0.150551
-0.183487
-0.209248
-0.214545
-0.195543
-0.161858
-0.12609
-0.0965775
-0.0759381
-0.0633861
-0.0571004
-0.0573534
-0.0651924
-0.0769524
-0.0837333
-0.0800149
-0.0696876
-0.0604273
-0.0551353
-0.0543428
-0.060419
-0.0728413
-0.0849222
-0.0856709
-0.0743617
-0.0607851
-0.0467674
-0.0381051
-0.0303368
-0.026256
-0.0242833
-0.022662
-0.0189267
-0.0148137
-0.010315
-0.0041368
-0.485034
-0.457438
-0.421425
-0.37956
-0.3339
-0.287107
-0.242206
-0.201994
-0.168832
-0.1445
-0.129045
-0.122216
-0.121781
-0.123241
-0.122273
-0.115021
-0.10372
-0.0910441
-0.0809891
-0.0764411
-0.0782066
-0.0858387
-0.0996316
-0.121547
-0.152607
-0.187917
-0.21528
-0.221066
-0.201415
-0.166079
-0.128449
-0.0972194
-0.0748799
-0.0605943
-0.0524667
-0.0504051
-0.0554257
-0.064898
-0.0709699
-0.0685145
-0.060753
-0.054403
-0.0518876
-0.0535724
-0.0623743
-0.0773129
-0.0914249
-0.0924846
-0.0794605
-0.0636814
-0.0475361
-0.0374563
-0.028031
-0.0228131
-0.0199711
-0.0183569
-0.0159801
-0.0129467
-0.0103356
-0.00476892
-0.485003
-0.456222
-0.41944
-0.376275
-0.32843
-0.278757
-0.230277
-0.185629
-0.147099
-0.116483
-0.0947089
-0.0817673
-0.0766227
-0.0763303
-0.077047
-0.0746327
-0.0697545
-0.0635917
-0.0594768
-0.0598124
-0.065298
-0.0757554
-0.0918864
-0.116
-0.149252
-0.186631
-0.215723
-0.22278
-0.203518
-0.167666
-0.129111
-0.0968509
-0.0733138
-0.057666
-0.0479928
-0.0439028
-0.0462928
-0.0535311
-0.0588057
-0.0573863
-0.0518789
-0.0481302
-0.0481563
-0.0521583
-0.0635636
-0.0809281
-0.0970444
-0.0986109
-0.0840336
-0.0661729
-0.0480432
-0.0366989
-0.0258431
-0.019567
-0.0158271
-0.0141308
-0.0130464
-0.0110677
-0.0103474
-0.00541168
-0.472716
-0.443328
-0.408188
-0.366578
-0.319344
-0.269558
-0.22021
-0.173635
-0.131868
-0.0966445
-0.0692431
-0.0502843
-0.0395783
-0.035631
-0.0358842
-0.0368523
-0.0363325
-0.0355396
-0.0364738
-0.0408487
-0.0493846
-0.0621386
-0.0801325
-0.105924
-0.140799
-0.179891
-0.210803
-0.219642
-0.20184
-0.166658
-0.128192
-0.0956039
-0.0713616
-0.0547212
-0.0438084
-0.0380276
-0.0380598
-0.0431607
-0.0475705
-0.0469276
-0.043259
-0.0417148
-0.043971
-0.0500581
-0.0638629
-0.0834904
-0.101536
-0.103869
-0.08798
-0.0682319
-0.0482882
-0.0358298
-0.0237646
-0.0165302
-0.0118966
-0.0100221
-0.0101517
-0.00918986
-0.0103444
-0.00605943
-0.450841
-0.421359
-0.389694
-0.351971
-0.30786
-0.260583
-0.212978
-0.166981
-0.124329
-0.0865849
-0.0550119
-0.0305844
-0.0138865
-0.00468265
-0.00170387
-0.0025775
-0.00469063
-0.00786666
-0.0126283
-0.0201349
-0.0310554
-0.0456186
-0.0650772
-0.0921094
-0.128096
-0.168464
-0.201075
-0.212119
-0.196616
-0.163228
-0.125841
-0.0936117
-0.0691265
-0.0518396
-0.0399829
-0.0328377
-0.0308482
-0.0339724
-0.0375025
-0.0376243
-0.0350632
-0.0352849
-0.0394074
-0.0472713
-0.0631876
-0.0848442
-0.10473
-0.107948
-0.0911914
-0.0698326
-0.0482719
-0.0348503
-0.0217777
-0.0137026
-0.00821727
-0.00606136
-0.00731811
-0.00732427
-0.0103186
-0.00670678
-0.422592
-0.393786
-0.366767
-0.334247
-0.294912
-0.252093
-0.208259
-0.164876
-0.123394
-0.0851925
-0.051418
-0.0230516
-0.000972839
0.014182
0.022401
0.0247106
0.0229375
0.0181151
0.0111268
0.0015136
-0.0111385
-0.027111
-0.0477575
-0.0757144
-0.112344
-0.153455
-0.187523
-0.200943
-0.18831
-0.157606
-0.122185
-0.0909641
-0.0666712
-0.0490623
-0.0365448
-0.0283526
-0.0246859
-0.0260391
-0.0286913
-0.0289438
-0.0274226
-0.0289955
-0.0345663
-0.043847
-0.0615133
-0.0848921
-0.106535
-0.110688
-0.0935945
-0.0709629
-0.0480018
-0.0337724
-0.0198799
-0.01108
-0.00481324
-0.00227035
-0.00456457
-0.00548058
-0.010262
-0.00734935
-0.391541
-0.364628
-0.342648
-0.315436
-0.281487
-0.244122
-0.205155
-0.165596
-0.126694
-0.0896687
-0.0555318
-0.0251786
0.000540447
0.0207796
0.0347945
0.0423735
0.0442878
0.04039
0.0331791
0.0228001
0.00920673
-0.00775882
-0.0293596
-0.0580168
-0.0949317
-0.136257
-0.171313
-0.186886
-0.177454
-0.150167
-0.117485
-0.0878699
-0.0641714
-0.046528
-0.0335991
-0.0246341
-0.019617
-0.0193999
-0.0211709
-0.0213961
-0.0204908
-0.023012
-0.0295792
-0.0398324
-0.0588366
-0.0836326
-0.106916
-0.112119
-0.0951792
-0.0716598
-0.0475248
-0.0326261
-0.0180998
-0.00868781
-0.00170855
0.00134032
-0.00190731
-0.00366663
-0.0101683
-0.00798299
-0.361511
-0.337921
-0.320459
-0.297586
-0.26873
-0.236908
-0.202992
-0.167591
-0.131851
-0.0969296
-0.0636667
-0.0328882
-0.00547043
0.0178268
0.036322
0.0493139
0.0572124
0.0562126
0.0511047
0.0417155
0.0282253
0.0108442
-0.0113191
-0.0402545
-0.0768974
-0.117848
-0.153284
-0.170586
-0.164763
-0.141576
-0.112326
-0.0848481
-0.0620733
-0.0445831
-0.0313943
-0.0218298
-0.0156946
-0.0140713
-0.0149873
-0.0150878
-0.0143276
-0.017457
-0.0245491
-0.0353932
-0.055291
-0.0810792
-0.105886
-0.112175
-0.0959339
-0.071981
-0.0469298
-0.0314509
-0.0164377
-0.00656834
0.00102251
0.00476339
0.000641079
-0.00188969
-0.0100306
-0.0086026
-0.335501
-0.316856
-0.302786
-0.282932
-0.258581
-0.231927
-0.202802
-0.171503
-0.139089
-0.106652
-0.0748167
-0.0443256
-0.0160114
0.0092808
0.0306995
0.0475108
0.0604373
0.0637678
0.0626295
0.0562985
0.0444386
0.0275701
0.00539102
-0.0234739
-0.0597121
-0.0998129
-0.134569
-0.153066
-0.1504
-0.131732
-0.106571
-0.0817453
-0.060214
-0.0430355
-0.0297054
-0.0197118
-0.0126489
-0.00975196
-0.00991804
-0.0100179
-0.00903185
-0.0125877
-0.0196251
-0.0304441
-0.0508123
-0.0774959
-0.103637
-0.110734
-0.0956931
-0.0717614
-0.0461294
-0.0301865
-0.0147381
-0.00462049
0.00334549
0.00796393
0.00306513
-0.000149537
-0.00984399
-0.00920289
-0.312413
-0.300867
-0.288333
-0.269919
-0.249171
-0.226962
-0.202334
-0.175249
-0.146432
-0.116766
-0.0870267
-0.0579661
-0.0303743
-0.00497189
0.017495
0.036119
0.0486731
0.0615482
0.0659654
0.063483
0.0548085
0.0400262
0.0192891
-0.00810918
-0.0424239
-0.0802616
-0.113347
-0.131281
-0.131774
-0.118077
-0.0974189
-0.0757155
-0.0560237
-0.0397389
-0.0267729
-0.016872
-0.00939024
-0.0055815
-0.0051063
-0.0054672
-0.00722115
-0.00839594
-0.0151725
-0.0256653
-0.0458752
-0.0727104
-0.0998928
-0.107817
-0.0940689
-0.0704392
-0.0445641
-0.0285231
-0.0127012
-0.00255365
0.00563323
0.011032
0.00533851
0.00152926
-0.00959352
-0.00979059
-0.284255
-0.28699
-0.273156
-0.253336
-0.232978
-0.212106
-0.189411
-0.164503
-0.1379
-0.110412
-0.0827637
-0.0555948
-0.0295562
-0.00527557
0.0166179
0.0353872
0.0501295
0.0618328
0.0680047
0.068351
0.062167
0.0491113
0.0293513
0.00232534
-0.0324207
-0.0709621
-0.103509
-0.121327
-0.119574
-0.106097
-0.08702
-0.0673148
-0.0494383
-0.0345061
-0.0224178
-0.0130484
-0.00569673
-0.00154423
-0.000485771
-0.000633883
-0.00175594
-0.00273548
-0.0088644
-0.018881
-0.0394727
-0.067657
-0.0970645
-0.106802
-0.0928796
-0.0685388
-0.0422413
-0.0264769
-0.0105123
-0.000492763
0.00823106
0.0142211
0.00762164
0.00321499
-0.00926862
-0.0103954
-0.256598
-0.263137
-0.250818
-0.231351
-0.211882
-0.192898
-0.172774
-0.150687
-0.126942
-0.102286
-0.077398
-0.0528285
-0.0291186
-0.00684462
0.0134558
0.0312634
0.0456871
0.0572055
0.0641199
0.0656671
0.0609568
0.0494957
0.0312805
0.00580533
-0.0269185
-0.0623326
-0.0909082
-0.104781
-0.10298
-0.0913332
-0.0751954
-0.0584297
-0.0429095
-0.029587
-0.0185294
-0.00981164
-0.00274002
0.00154696
0.00290755
0.00274332
0.00175753
0.000924575
-0.00439387
-0.0136747
-0.0340585
-0.0628577
-0.0930255
-0.10342
-0.0895662
-0.0654869
-0.0395111
-0.0241074
-0.0082787
0.00134976
0.0104494
0.0165892
0.00952481
0.00463845
-0.00889225
-0.0108354
-0.231957
-0.238678
-0.228661
-0.211154
-0.193289
-0.176196
-0.158412
-0.138906
-0.117782
-0.0956959
-0.0732959
-0.0510884
-0.0295471
-0.00917362
0.00956261
0.0262137
0.0400421
0.0508296
0.0575438
0.0593706
0.0554167
0.0451708
0.0286107
0.00562655
-0.0229303
-0.0525602
-0.075885
-0.087256
-0.0862833
-0.0772608
-0.0642398
-0.0502233
-0.0368185
-0.0249637
-0.0148479
-0.00674702
-2.41685e-05
0.0042875
0.00590717
0.00579854
0.00500386
0.00412606
-0.000901312
-0.00985705
-0.0299076
-0.0581606
-0.0873944
-0.0982763
-0.085093
-0.0617958
-0.0364796
-0.0215403
-0.00600867
0.00320004
0.0125046
0.0186267
0.0112167
0.00589092
-0.00840296
-0.0111197
-0.20909
-0.215493
-0.207638
-0.192473
-0.17639
-0.160973
-0.145175
-0.127965
-0.109267
-0.0896064
-0.0695772
-0.049646
-0.0302199
-0.011723
0.00541809
0.0207395
0.0336037
0.0436002
0.049991
0.0520295
0.0488946
0.0401221
0.0257706
0.00616783
-0.0174672
-0.0415723
-0.0606301
-0.0704387
-0.0706034
-0.064067
-0.053835
-0.0423158
-0.030901
-0.0204862
-0.0113169
-0.00384582
0.00246811
0.00672493
0.00858595
0.00868162
0.00808959
0.0072677
0.00246323
-0.00625503
-0.0256133
-0.0524983
-0.0805194
-0.0919176
-0.0795871
-0.0574018
-0.0331183
-0.0187831
-0.00367614
0.00505611
0.0143577
0.0204845
0.0127912
0.00708584
-0.00776191
-0.0112569
-0.187663
-0.194039
-0.187908
-0.174894
-0.160623
-0.146842
-0.132868
-0.117768
-0.101344
-0.0839798
-0.0661972
-0.0484262
-0.0310281
-0.0143763
0.00112613
0.0150262
0.0268555
0.036098
0.0421788
0.0444681
0.0422959
0.0352873
0.0235423
0.00753704
-0.0115663
-0.030997
-0.0465749
-0.0551961
-0.0563743
-0.0520056
-0.0442339
-0.03494
-0.0253227
-0.0162547
-0.00799976
-0.00113689
0.00474276
0.00888053
0.0109373
0.0113076
0.0109331
0.0103214
0.00590216
-0.00227849
-0.0204417
-0.0457722
-0.0725884
-0.0842061
-0.072989
-0.052306
-0.0294496
-0.015866
-0.00130591
0.00690835
0.0159741
0.0221332
0.0142606
0.00826473
-0.00695873
-0.0112276
-0.168287
-0.174358
-0.169491
-0.158378
-0.145895
-0.13374
-0.121478
-0.10831
-0.0939788
-0.0787524
-0.0630747
-0.0473394
-0.0318757
-0.0170113
-0.00310588
0.00943942
0.0201962
0.0287046
0.034476
0.0370031
0.0357737
0.0304961
0.0212655
0.00857014
-0.00654576
-0.021934
-0.0345519
-0.0421178
-0.0440209
-0.0413622
-0.0355977
-0.0281807
-0.0201328
-0.0122979
-0.00492174
0.001359
0.00680128
0.0107699
0.0129639
0.0136514
0.0135713
0.0132696
0.00941022
0.00208804
-0.0145811
-0.0382549
-0.063599
-0.0752136
-0.0653747
-0.0465714
-0.0255095
-0.0128251
0.001072
0.0087486
0.0173311
0.0235164
0.0155968
0.00941415
-0.00597328
-0.0109933
-0.150716
-0.156215
-0.152371
-0.142973
-0.132189
-0.121597
-0.110929
-0.0995159
-0.0870905
-0.0738342
-0.0601158
-0.0462875
-0.032646
-0.0194764
-0.00709443
0.00414359
0.013856
0.0216424
0.0270916
0.0298003
0.029384
0.0256312
0.0186368
0.00885739
-0.00281607
-0.0147876
-0.0249087
-0.0314125
-0.0336533
-0.032188
-0.0279672
-0.0220896
-0.0153865
-0.00865493
-0.0021101
0.00361874
0.00864359
0.0124141
0.0146922
0.0157152
0.0160215
0.0161016
0.0129254
0.00662467
-0.00834731
-0.0300833
-0.0536902
-0.065176
-0.0569102
-0.0403015
-0.0213514
-0.00970322
0.00342143
0.0105707
0.0184202
0.0245953
0.0167792
0.0105327
-0.00476307
-0.0105085
-0.134444
-0.139526
-0.136591
-0.128711
-0.119474
-0.110331
-0.101129
-0.0913084
-0.0806097
-0.0691537
-0.0572417
-0.0451808
-0.0332352
-0.0216538
-0.0107106
-0.00071778
0.00799226
0.0150777
0.0201968
0.0230288
0.0232905
0.0208387
0.0157667
0.00846293
-0.00035738
-0.00951714
-0.0174913
-0.0229024
-0.0251419
-0.0244279
-0.0213432
-0.016693
-0.0111194
-0.00535223
0.000420855
0.00562662
0.0102681
0.0138353
0.0161537
0.0175001
0.0182645
0.0188076
0.0164054
0.0112259
-0.00184
-0.0214394
-0.0431773
-0.0544256
-0.0478349
-0.0336483
-0.0170475
-0.00654674
0.00570382
0.0123696
0.0192592
0.025363
0.0178223
0.0116537
-0.00328033
-0.0097234
-0.119577
-0.12432
-0.122123
-0.115545
-0.10769
-0.0998696
-0.0920025
-0.0836189
-0.0744763
-0.0646516
-0.0543884
-0.0439497
-0.033568
-0.0234606
-0.0138613
-0.00503605
0.00272986
0.00914874
0.0139384
0.0168447
0.0176594
0.0162851
0.0128061
0.00753441
0.00103318
-0.00580807
-0.0119263
-0.0162665
-0.0182767
-0.0179751
-0.0156875
-0.0119887
-0.00734855
-0.0024082
0.00266434
0.00737472
0.0116664
0.0150477
0.0173802
0.0190162
0.0202502
0.0213748
0.0198749
0.015933
0.00483342
-0.0126961
-0.032513
-0.0433631
-0.0384448
-0.0268053
-0.012687
-0.00340442
0.00788146
0.0141382
0.0199084
0.0258584
0.0187829
0.0128319
-0.00148515
-0.00859004
-0.106186
-0.110478
-0.108846
-0.103399
-0.0967782
-0.0901509
-0.0834864
-0.0763909
-0.0686414
-0.060283
-0.051511
-0.0425474
-0.0335935
-0.0248377
-0.0164782
-0.00873286
-0.00184372
0.00394797
0.00841039
0.0113418
0.0125861
0.0120772
0.00988538
0.00626017
0.00164396
-0.0032923
-0.00784585
-0.0111829
-0.0128265
-0.0126931
-0.0109368
-0.00795542
-0.00407486
0.000167437
0.00461863
0.00886455
0.0128296
0.0160516
0.0183948
0.0202821
0.021929
0.0237566
0.0233136
0.0206902
0.0113711
-0.00437047
-0.0222065
-0.0320455
-0.0290885
-0.0199996
-0.00837195
-0.000326137
0.00992164
0.015861
0.0204796
0.0261731
0.0197562
0.0141304
0.000643796
-0.00707929
-0.0939795
-0.0978305
-0.0966817
-0.0922256
-0.086697
-0.0811309
-0.0755357
-0.0695833
-0.0630701
-0.0560171
-0.0485796
-0.0409437
-0.0332805
-0.0257509
-0.0185239
-0.0117631
-0.00568186
-0.000478598
0.00365695
0.00656514
0.00812679
0.00829821
0.00713454
0.00482744
0.00171505
-0.00172008
-0.00493208
-0.00735365
-0.00856613
-0.00843773
-0.00701344
-0.00455775
-0.00128505
0.00237494
0.00628508
0.0101042
0.0137565
0.016837
0.0192003
0.0213015
0.0232742
0.0257063
0.0264338
0.0250682
0.0172442
0.00303508
-0.0127317
-0.0216824
-0.0201868
-0.0134764
-0.00421377
0.00263632
0.0117988
0.0175087
0.0211253
0.0264371
0.0208638
0.0156049
0.00308585
-0.00520804
-0.0828241
-0.0863247
-0.0855863
-0.0819785
-0.0773973
-0.0727613
-0.0681067
-0.0631593
-0.0577336
-0.0518322
-0.0455773
-0.039123
-0.0326134
-0.0261864
-0.0199975
-0.0141121
-0.00877003
-0.00411827
-0.000308371
0.00253291
0.00431382
0.00500315
0.00464307
0.00337584
0.00145802
-0.000792779
-0.00290337
-0.00451966
-0.00528846
-0.00506569
-0.00383047
-0.00174923
0.00104515
0.00422412
0.00766868
0.0111038
0.0144559
0.0173974
0.0197807
0.0220481
0.024276
0.0271099
0.0287535
0.0283443
0.0218356
0.009203
-0.00437172
-0.0122892
-0.0120923
-0.0074687
-0.000324625
0.00542733
0.0134936
0.0190332
0.0219942
0.0267894
0.0222202
0.0172692
0.00574435
-0.00306825
-0.0727788
-0.0759288
-0.0754708
-0.0725796
-0.0688202
-0.0649978
-0.0611643
-0.0570911
-0.0526122
-0.0477171
-0.0424998
-0.0370852
-0.031591
-0.026127
-0.0207975
-0.0157703
-0.0111181
-0.00698467
-0.0034988
-0.000762396
0.00115108
0.00221526
0.00246259
0.00200359
0.00103877
-0.000270619
-0.00152505
-0.00246014
-0.00281025
-0.00244085
-0.00129728
0.000524568
0.00294793
0.00573261
0.00877987
0.0118729
0.0149415
0.0177358
0.0201179
0.0224824
0.0248875
0.0278061
0.0298977
0.0300186
0.0247667
0.0139865
0.00263661
-0.00411392
-0.00509025
-0.00216119
0.00319824
0.00798855
0.0149904
0.0203712
0.0231438
0.0273313
0.023865
0.0190499
0.00842152
-0.000842636
-0.0637269
-0.0665487
-0.0663524
-0.0640122
-0.0609369
-0.0578085
-0.0546793
-0.0513585
-0.0476959
-0.0436711
-0.0393561
-0.0348519
-0.0302546
-0.0256525
-0.0211344
-0.0168151
-0.0127751
-0.00912053
-0.00595266
-0.0033533
-0.00138233
-6.2272e-05
0.000626865
0.000761194
0.000454084
-6.09639e-05
-0.000620747
-0.000992568
-0.00097094
-0.000436816
0.000676829
0.00232293
0.00446149
0.00692415
0.00963411
0.012423
0.0152263
0.0178605
0.0202054
0.0225794
0.0249975
0.0277758
0.0298701
0.0301693
0.0260849
0.0173235
0.00804792
0.00256559
0.000640049
0.0023433
0.00628875
0.0102683
0.0162755
0.0214574
0.0244617
0.0280626
0.0256933
0.0207602
0.0108317
0.00121616
-0.0555023
-0.0580158
-0.0580032
-0.056188
-0.0537036
-0.0511596
-0.0486231
-0.0459454
-0.04298
-0.0397024
-0.0361651
-0.0324479
-0.0286298
-0.024789
-0.0209765
-0.017288
-0.0137955
-0.0105819
-0.0077245
-0.00528807
-0.00332137
-0.00184484
-0.000847971
-0.000276243
-4.86457e-05
-1.74644e-05
-4.47616e-05
3.28821e-05
0.000367743
0.00106112
0.00217962
0.00370719
0.00562774
0.00782766
0.0102508
0.0127676
0.0153231
0.0177843
0.0200527
0.0223509
0.0246432
0.0271293
0.028976
0.029257
0.0261464
0.0192978
0.011748
0.0056259
0.00501812
0.00603317
0.00891505
0.0122301
0.0173439
0.0222433
0.0256586
0.0288193
0.0274187
0.0221267
0.0126775
0.00286577
-0.04807
-0.0503129
-0.0504436
-0.049045
-0.0470681
-0.0450341
-0.0430094
-0.0408564
-0.0384716
-0.0358228
-0.0329461
-0.0299039
-0.0267573
-0.0235577
-0.020369
-0.0172435
-0.0142451
-0.0114371
-0.00888057
-0.00662661
-0.00471455
-0.00316416
-0.00197172
-0.00110363
-0.000496068
-5.88115e-05
0.000313066
0.000736438
0.00132274
0.0021551
0.00329302
0.00473868
0.00649059
0.00847487
0.0106523
0.012925
0.0152488
0.0175255
0.019677
0.0218309
0.0239326
0.0260466
0.0275623
0.0277571
0.025404
0.0202118
0.0143165
0.00958679
0.00847586
0.00898464
0.0110762
0.0138485
0.0181915
0.0227054
0.0263981
0.0292595
0.0286034
0.0228768
0.013767
0.00397853
-0.0413831
-0.0433682
-0.0435962
-0.0425351
-0.0409766
-0.0393641
-0.0377614
-0.0360628
-0.034169
-0.0320491
-0.0297283
-0.0272555
-0.0246798
-0.0220425
-0.0193866
-0.016756
-0.0141981
-0.0117616
-0.00949361
-0.00743412
-0.00561717
-0.00406217
-0.00276228
-0.00170307
-0.000843396
-0.000120791
0.000537182
0.00121467
0.00199166
0.00293432
0.00409195
0.0054766
0.00709417
0.00889872
0.010864
0.012917
0.0150232
0.0171048
0.019106
0.0210732
0.0229508
0.0247012
0.0258988
0.0260117
0.0242449
0.0204015
0.0159422
0.0123392
0.0110782
0.0112745
0.0127871
0.0151099
0.0187864
0.0228185
0.0264816
0.0290474
0.0288175
0.0228484
0.0140884
0.00457259
-0.0353566
-0.037104
-0.0373989
-0.0366123
-0.0354
-0.0341383
-0.0328879
-0.031563
-0.0300769
-0.0283988
-0.026545
-0.0245523
-0.0224587
-0.0202977
-0.0181008
-0.0159006
-0.0137329
-0.0116338
-0.00963861
-0.00778014
-0.00608979
-0.00457077
-0.00324117
-0.0020795
-0.00106606
-0.000158567
0.000691554
0.00154402
0.00245484
0.00347522
0.00464375
0.00597643
0.00748189
0.00913299
0.010913
0.0127666
0.0146688
0.016553
0.0183817
0.0201435
0.0217883
0.0232257
0.0241634
0.0242274
0.0229211
0.0201393
0.0168481
0.0141306
0.0129377
0.0129758
0.0140739
0.0160112
0.0190909
0.0225626
0.0258691
0.027965
0.0279052
0.0220625
0.0137686
0.0047483
-0.0299235
-0.0314602
-0.0317992
-0.0312333
-0.0303045
-0.0293313
-0.02837
-0.0273508
-0.0261995
-0.024886
-0.02342
-0.0218289
-0.0201419
-0.0183842
-0.0165794
-0.0147514
-0.0129269
-0.0111321
-0.00939408
-0.00774002
-0.00618527
-0.00475161
-0.00343924
-0.00224397
-0.00115437
-0.000142324
0.000823168
0.00178368
0.00277722
0.00384228
0.00500754
0.00628909
0.0076956
0.00921145
0.0108269
0.0124993
0.0142111
0.0159031
0.0175502
0.0191063
0.0205313
0.0217154
0.0224613
0.0225138
0.0215739
0.0196067
0.0172295
0.0152158
0.0141853
0.0141632
0.0149685
0.0165621
0.0190877
0.0219482
0.0246797
0.0261864
0.0260757
0.0206811
0.0129861
0.00462105
-0.025037
-0.0263835
-0.0267459
-0.0263546
-0.0256559
-0.0249178
-0.0241915
-0.0234207
-0.0225417
-0.0215267
-0.0203802
-0.0191223
-0.0177748
-0.0163567
-0.014885
-0.0133771
-0.0118525
-0.0103323
-0.00884168
-0.00737434
-0.00597386
-0.00464349
-0.00339077
-0.00221403
-0.00110759
-5.40749e-05
0.000965161
0.00197835
0.00301021
0.00408878
0.00523411
0.00646026
0.00777462
0.00916779
0.0106345
0.0121415
0.0136767
0.0151868
0.0166549
0.0180195
0.0192485
0.0202357
0.0208493
0.0209198
0.020272
0.0189182
0.017236
0.0157873
0.0149491
0.0149113
0.0155065
0.0167876
0.0187887
0.0210313
0.0231215
0.0240285
0.0237009
0.0189185
0.0119238
0.00430007
-0.020646
-0.02182
-0.0221897
-0.0219354
-0.0214223
-0.0208745
-0.0203378
-0.0197667
-0.0191076
-0.0183348
-0.0174494
-0.0164659
-0.0154002
-0.0142662
-0.0130757
-0.0118408
-0.0105747
-0.00929143
-0.00800423
-0.006743
-0.00550293
-0.00429615
-0.00313209
-0.00201116
-0.00093225
0.000114505
0.00113929
0.00216059
0.00319354
0.00425772
0.00536628
0.00653014
0.00775476
0.00903401
0.0103647
0.0117199
0.0130922
0.0144341
0.0157338
0.0169274
0.0179889
0.0188273
0.0193537
0.0194598
0.019044
0.0181465
0.0169818
0.0159744
0.0153262
0.0152912
0.0157268
0.0167222
0.0182373
0.0198969
0.0213787
0.0217438
0.0211243
0.0169764
0.0107355
0.00388003
-0.0167012
-0.017721
-0.0180873
-0.0179393
-0.0175747
-0.0171796
-0.0167943
-0.0163827
-0.0158996
-0.0153219
-0.0146484
-0.0138894
-0.0130564
-0.0121591
-0.0112058
-0.0102046
-0.00916493
-0.00809735
-0.00701313
-0.00592389
-0.00483663
-0.00375958
-0.00270026
-0.00166011
-0.000640306
0.000364265
0.00135816
0.00235285
0.00335681
0.00438298
0.00543921
0.00653315
0.00766796
0.00883905
0.010044
0.0112605
0.0124837
0.0136725
0.0148188
0.0158635
0.0167858
0.0175121
0.0179828
0.0181318
0.0178969
0.0173336
0.0165516
0.0158731
0.0153934
0.0153661
0.0156741
0.0164097
0.0174924
0.0186279
0.0195762
0.0194971
0.01859
0.0150126
0.00952894
0.00343116
-0.0131624
-0.0140453
-0.0143998
-0.0143331
-0.0140861
-0.0138125
-0.0135474
-0.013262
-0.0129186
-0.0124968
-0.0119943
-0.0114178
-0.0107757
-0.0100746
-0.00932006
-0.00851728
-0.00767253
-0.00679325
-0.00588734
-0.00496132
-0.00402212
-0.0030763
-0.00213048
-0.00118672
-0.00024719
0.000690366
0.00162701
0.00256924
0.003521
0.00449032
0.00548102
0.00649771
0.00754175
0.00860859
0.0096962
0.0107864
0.0118745
0.0129254
0.013934
0.0148512
0.0156588
0.0163002
0.0167349
0.0169243
0.0168266
0.0165043
0.0160021
0.0155615
0.0152171
0.0151943
0.0153954
0.0158987
0.0166153
0.0172914
0.0177909
0.01738
0.0162398
0.0131352
0.00837011
0.00299603
-0.00999353
-0.0107546
-0.0110916
-0.011086
-0.0109316
-0.010754
-0.0105834
-0.0103969
-0.0101637
-0.00986576
-0.00950006
-0.00907106
-0.00858463
-0.00804524
-0.00745614
-0.00682053
-0.00614245
-0.00542687
-0.00468002
-0.00390235
-0.00310292
-0.00228573
-0.00145624
-0.000616935
0.000229582
0.00108402
0.00194549
0.00281712
0.00369993
0.00459822
0.00551317
0.00644679
0.00739882
0.00836483
0.00934235
0.0103161
0.0112823
0.0122117
0.0130989
0.0139051
0.0146173
0.0151931
0.0156022
0.0158237
0.0158282
0.0156742
0.0153704
0.0150986
0.0148524
0.0148297
0.0149386
0.0152391
0.0156548
0.0159613
0.0160912
0.0154411
0.0141379
0.0114095
0.0072973
0.00259674
-0.00716137
-0.00781479
-0.0081308
-0.00817053
-0.00808829
-0.00798597
-0.00788907
-0.00777972
-0.00763253
-0.00743231
-0.00717555
-0.00686505
-0.0065048
-0.00609766
-0.00564539
-0.00514948
-0.00461202
-0.00403553
-0.00342335
-0.00278448
-0.00211662
-0.00142314
-0.000708695
2.3782e-05
0.000771299
0.00153362
0.00230902
0.00309851
0.00390124
0.004719
0.00555113
0.00639778
0.00725747