/*--------------------------------*- C++ -*----------------------------------*\
| =========                 |                                                 |
| \\      /  F ield         | OpenFOAM: The Open Source CFD Toolbox           |
|  \\    /   O peration     | Version:  2512                                  |
|   \\  /    A nd           | Website:  www.openfoam.com                      |
|    \\/     M anipulation  |                                                 |
\*---------------------------------------------------------------------------*/
FoamFile
{
    version     2.0;
    format      ascii;
    arch        "LSB;label=32;scalar=64";
    class       volScalarField;
    location    "67";
    object      p;
}
// * * * * * * * * * * * * * * * * * * * * * * * * * * * * * * * * * * * * * //

dimensions      [0 2 -2 0 0 0 0];

internalField   nonuniform List<scalar> 
13248
(
-0.358666
-0.356592
-0.354366
-0.352104
-0.349911
-0.347892
-0.346052
-0.344298
-0.342464
-0.340327
-0.337635
-0.334127
-0.329569
-0.323778
-0.316642
-0.308135
-0.298318
-0.287325
-0.275342
-0.262609
-0.249276
-0.235687
-0.221318
-0.206901
-0.366613
-0.36384
-0.360865
-0.357818
-0.354809
-0.351952
-0.349248
-0.346578
-0.343739
-0.34048
-0.336531
-0.331647
-0.325637
-0.318393
-0.309894
-0.30021
-0.28948
-0.277894
-0.265663
-0.252995
-0.240063
-0.227052
-0.213859
-0.201064
-0.375691
-0.37208
-0.368278
-0.364408
-0.360548
-0.356803
-0.353145
-0.349411
-0.345362
-0.340725
-0.335249
-0.328742
-0.321102
-0.312321
-0.302485
-0.291744
-0.280291
-0.268333
-0.256065
-0.243661
-0.231243
-0.218959
-0.206727
-0.194861
-0.38618
-0.381565
-0.376857
-0.372124
-0.367366
-0.362643
-0.357872
-0.352839
-0.347279
-0.340939
-0.333635
-0.325279
-0.315887
-0.305568
-0.294493
-0.28286
-0.270873
-0.258713
-0.246529
-0.234438
-0.222523
-0.210882
-0.199444
-0.188548
-0.398235
-0.392449
-0.386753
-0.381106
-0.375362
-0.369502
-0.363371
-0.356717
-0.34929
-0.340917
-0.331539
-0.321209
-0.310071
-0.298324
-0.286182
-0.273846
-0.261484
-0.249225
-0.237161
-0.225359
-0.213863
-0.202719
-0.191881
-0.181584
-0.411864
-0.404763
-0.398008
-0.39137
-0.384493
-0.377241
-0.369401
-0.360725
-0.351052
-0.340359
-0.328751
-0.316432
-0.303644
-0.290627
-0.27759
-0.264693
-0.252046
-0.23972
-0.227759
-0.216185
-0.205012
-0.194252
-0.183875
-0.174043
-0.426902
-0.418396
-0.410521
-0.402778
-0.39453
-0.385524
-0.375531
-0.364397
-0.352134
-0.338923
-0.32505
-0.310829
-0.296549
-0.282439
-0.268657
-0.255302
-0.242423
-0.230041
-0.218156
-0.20676
-0.195842
-0.185389
-0.175384
-0.1659
-0.443002
-0.433066
-0.424016
-0.414994
-0.405035
-0.393807
-0.381168
-0.367165
-0.352065
-0.336269
-0.320207
-0.304247
-0.288661
-0.273621
-0.259217
-0.245479
-0.232403
-0.219967
-0.208139
-0.196889
-0.186185
-0.175999
-0.166317
-0.157129
-0.459608
-0.448288
-0.438004
-0.42745
-0.415342
-0.401368
-0.385613
-0.36844
-0.350403
-0.332096
-0.314021
-0.296531
-0.279832
-0.264015
-0.249095
-0.235043
-0.221808
-0.209334
-0.197566
-0.186453
-0.175948
-0.166015
-0.15663
-0.147713
-0.475943
-0.463349
-0.451742
-0.439319
-0.424563
-0.407342
-0.388123
-0.367654
-0.346757
-0.32614
-0.306298
-0.287511
-0.269889
-0.253439
-0.238105
-0.223808
-0.210461
-0.197982
-0.186296
-0.175332
-0.165034
-0.155356
-0.146249
-0.137599
-0.491019
-0.477294
-0.464225
-0.44953
-0.431625
-0.410761
-0.387909
-0.364206
-0.340666
-0.318019
-0.296685
-0.276833
-0.258473
-0.24153
-0.22589
-0.211433
-0.198043
-0.185615
-0.174057
-0.163284
-0.153228
-0.143831
-0.13501
-0.126655
-0.50373
-0.489056
-0.474367
-0.45697
-0.435451
-0.410648
-0.384113
-0.35733
-0.331414
-0.307032
-0.284479
-0.263798
-0.244896
-0.227622
-0.211814
-0.197315
-0.183985
-0.171701
-0.160354
-0.149849
-0.140111
-0.131066
-0.122602
-0.114662
-0.289925
-0.292083
-0.293433
-0.29432
-0.295049
-0.295699
-0.296303
-0.296883
-0.297439
-0.297963
-0.298441
-0.298856
-0.29919
-0.29943
-0.299563
-0.299579
-0.299475
-0.299251
-0.298919
-0.298503
-0.298023
-0.297488
-0.296965
-0.296767
-0.292404
-0.294736
-0.296221
-0.297236
-0.298103
-0.298899
-0.299649
-0.300362
-0.301027
-0.301621
-0.302111
-0.30246
-0.302625
-0.302562
-0.302225
-0.301567
-0.300545
-0.299117
-0.297255
-0.294947
-0.292173
-0.288873
-0.285124
-0.281624
-0.295924
-0.298289
-0.29983
-0.300927
-0.301905
-0.302831
-0.303719
-0.304567
-0.305351
-0.306031
-0.306558
-0.306871
-0.306901
-0.306573
-0.305806
-0.304514
-0.302608
-0.3
-0.296617
-0.292405
-0.287307
-0.281198
-0.27413
-0.267231
-0.300456
-0.302707
-0.304216
-0.305345
-0.306396
-0.307427
-0.308439
-0.309417
-0.310323
-0.311106
-0.311693
-0.312003
-0.311943
-0.311407
-0.310279
-0.308433
-0.305737
-0.302059
-0.297273
-0.291282
-0.284003
-0.275273
-0.265008
-0.254572
-0.305868
-0.307863
-0.30925
-0.31035
-0.311425
-0.312521
-0.313627
-0.314716
-0.315736
-0.316613
-0.317265
-0.317592
-0.317473
-0.316773
-0.315346
-0.31303
-0.309655
-0.305048
-0.299038
-0.291482
-0.28228
-0.271281
-0.258167
-0.243626
-0.311946
-0.313568
-0.314747
-0.315744
-0.316778
-0.317877
-0.319022
-0.320172
-0.32126
-0.3222
-0.322885
-0.323211
-0.323021
-0.322158
-0.320446
-0.317698
-0.313714
-0.308293
-0.301241
-0.292388
-0.281616
-0.268802
-0.253644
-0.236267
-0.318438
-0.319601
-0.320488
-0.321301
-0.322206
-0.323222
-0.324321
-0.325449
-0.326525
-0.327452
-0.328113
-0.328344
-0.328005
-0.326909
-0.324854
-0.321631
-0.317025
-0.310827
-0.302846
-0.292925
-0.280963
-0.266864
-0.250772
-0.231427
-0.325098
-0.325751
-0.326272
-0.326807
-0.327477
-0.328297
-0.329232
-0.33022
-0.331166
-0.331955
-0.332448
-0.332479
-0.331869
-0.330415
-0.327898
-0.324098
-0.318799
-0.311804
-0.302956
-0.292142
-0.279366
-0.264442
-0.248463
-0.228267
-0.331744
-0.33187
-0.331957
-0.332111
-0.332426
-0.332916
-0.333549
-0.334254
-0.334925
-0.33543
-0.335609
-0.335282
-0.334243
-0.332275
-0.329151
-0.324651
-0.318577
-0.310771
-0.301135
-0.289616
-0.276392
-0.261131
-0.245711
-0.226062
-0.338299
-0.337896
-0.337491
-0.337166
-0.336997
-0.337017
-0.337201
-0.337472
-0.337715
-0.337779
-0.337487
-0.336635
-0.335002
-0.332357
-0.328476
-0.323159
-0.316245
-0.307638
-0.297322
-0.285336
-0.271972
-0.25696
-0.242179
-0.224073
-0.344823
-0.343893
-0.342934
-0.342029
-0.341256
-0.340674
-0.340267
-0.339958
-0.339622
-0.339091
-0.338165
-0.336619
-0.334217
-0.330728
-0.325942
-0.319696
-0.311888
-0.302497
-0.291593
-0.27933
-0.266018
-0.251715
-0.237656
-0.221332
-0.351514
-0.350037
-0.348463
-0.346889
-0.345414
-0.34412
-0.343008
-0.342001
-0.340957
-0.339686
-0.337963
-0.335544
-0.332184
-0.327664
-0.321807
-0.314508
-0.305737
-0.295554
-0.284088
-0.271568
-0.258226
-0.24447
-0.230996
-0.217587
-0.297203
-0.298227
-0.299618
-0.301067
-0.30215
-0.302207
-0.300383
-0.296463
-0.289324
-0.278361
-0.263542
-0.245391
-0.225338
-0.205582
-0.188287
-0.176386
-0.172095
-0.17641
-0.188377
-0.204512
-0.2191
-0.224918
-0.219458
-0.199072
-0.168988
-0.137013
-0.109795
-0.0907926
-0.0803991
-0.0774836
-0.0822365
-0.0960976
-0.116252
-0.133243
-0.136883
-0.125144
-0.104658
-0.0849097
-0.0718744
-0.06567
-0.0655588
-0.0740749
-0.0902231
-0.103448
-0.102643
-0.088764
-0.0718436
-0.0585951
-0.0496251
-0.0466155
-0.0491719
-0.0520168
-0.0510353
-0.0455357
-0.0389726
-0.030755
-0.0223724
-0.0179131
-0.0135411
-0.00437338
-0.278522
-0.274984
-0.271836
-0.268815
-0.265745
-0.262217
-0.257672
-0.252015
-0.244932
-0.235833
-0.224313
-0.211039
-0.197163
-0.185064
-0.175652
-0.172168
-0.176352
-0.188394
-0.206508
-0.226703
-0.243317
-0.250513
-0.240983
-0.216484
-0.181696
-0.145122
-0.113758
-0.0909902
-0.0771488
-0.0710423
-0.0723136
-0.0821843
-0.0988316
-0.114351
-0.119453
-0.111196
-0.0949505
-0.0794402
-0.0701364
-0.0669177
-0.0696195
-0.0812003
-0.100121
-0.114772
-0.113071
-0.0964537
-0.075914
-0.0594377
-0.0478802
-0.0423963
-0.0424358
-0.0438171
-0.0432578
-0.0398746
-0.0357793
-0.0299966
-0.0238543
-0.0207608
-0.0165819
-0.00574063
-0.260994
-0.252792
-0.245096
-0.237556
-0.230248
-0.223023
-0.215513
-0.207478
-0.200233
-0.192891
-0.184121
-0.175304
-0.16721
-0.162336
-0.16085
-0.165542
-0.177554
-0.196318
-0.219399
-0.242618
-0.260501
-0.267123
-0.256494
-0.229139
-0.190837
-0.150756
-0.11617
-0.090373
-0.0735325
-0.0644495
-0.0624015
-0.0683544
-0.0814109
-0.0952039
-0.101422
-0.0963475
-0.0842996
-0.073093
-0.0675605
-0.067394
-0.0729983
-0.0876095
-0.109134
-0.125089
-0.122622
-0.103516
-0.0795591
-0.0599736
-0.0460237
-0.0383482
-0.036145
-0.0361671
-0.0358847
-0.034368
-0.0325517
-0.0292035
-0.0254142
-0.023789
-0.0197715
-0.0071891
-0.246115
-0.233412
-0.221503
-0.209773
-0.198487
-0.187764
-0.177537
-0.16675
-0.158823
-0.153842
-0.147017
-0.141476
-0.13894
-0.139935
-0.145576
-0.157336
-0.175715
-0.19966
-0.226371
-0.251709
-0.270536
-0.277118
-0.265892
-0.236861
-0.196359
-0.153976
-0.117173
-0.0891387
-0.0698737
-0.0581734
-0.0531069
-0.055334
-0.0647675
-0.0764854
-0.083247
-0.0810421
-0.0730198
-0.0660171
-0.0641495
-0.0669761
-0.0754377
-0.0929522
-0.116955
-0.134164
-0.131112
-0.109811
-0.082732
-0.0602164
-0.0440873
-0.0345126
-0.0303737
-0.0291485
-0.0289824
-0.029062
-0.0293138
-0.0283893
-0.0270415
-0.0269616
-0.0230617
-0.00868478
-0.234939
-0.218008
-0.202485
-0.187204
-0.172492
-0.158768
-0.146674
-0.135815
-0.122408
-0.122638
-0.115943
-0.113198
-0.114229
-0.119999
-0.131061
-0.148126
-0.1711
-0.198548
-0.227573
-0.254207
-0.273742
-0.280549
-0.269321
-0.2398
-0.198491
-0.155103
-0.117099
-0.0875568
-0.066434
-0.052531
-0.0448477
-0.0436515
-0.0494852
-0.0588529
-0.0655941
-0.0657619
-0.0614263
-0.0583432
-0.0598749
-0.065516
-0.0766979
-0.0969806
-0.123359
-0.141793
-0.138354
-0.115224
-0.085408
-0.0601996
-0.0421091
-0.0309084
-0.0251458
-0.0228001
-0.022598
-0.0239945
-0.0260862
-0.0275634
-0.0287209
-0.0302367
-0.0264018
-0.0101945
-0.226791
-0.207617
-0.188694
-0.170717
-0.153387
-0.137274
-0.123007
-0.110531
-0.0991393
-0.0947704
-0.0910356
-0.0906573
-0.0945768
-0.103567
-0.118131
-0.138534
-0.164263
-0.193649
-0.223795
-0.250941
-0.270711
-0.277997
-0.267227
-0.238245
-0.1975
-0.154451
-0.116248
-0.0858745
-0.063403
-0.0477143
-0.0378078
-0.033658
-0.0360289
-0.0428687
-0.0490657
-0.0509958
-0.0498517
-0.0501921
-0.054731
-0.0629316
-0.0766379
-0.0995282
-0.128179
-0.147834
-0.144228
-0.119668
-0.0875589
-0.0599488
-0.0401162
-0.0275349
-0.0204491
-0.0171233
-0.0167557
-0.01919
-0.0228844
-0.0267306
-0.0304339
-0.0335723
-0.0297447
-0.0116906
-0.221581
-0.202007
-0.180865
-0.160902
-0.141809
-0.123857
-0.10772
-0.0937966
-0.0822393
-0.0769458
-0.0739937
-0.0748408
-0.0802843
-0.0909653
-0.107268
-0.129178
-0.155969
-0.185899
-0.216142
-0.243159
-0.26294
-0.270418
-0.26042
-0.232844
-0.193888
-0.152371
-0.114882
-0.0842923
-0.0609113
-0.0438203
-0.032057
-0.0254152
-0.0246293
-0.0288714
-0.0341427
-0.0371873
-0.0386279
-0.0417313
-0.0487901
-0.0592119
-0.0751717
-0.100489
-0.13131
-0.152191
-0.148673
-0.123081
-0.0891491
-0.0594781
-0.0381265
-0.0243812
-0.0162386
-0.0120818
-0.0114556
-0.0146631
-0.0197203
-0.025891
-0.0321609
-0.0369313
-0.0330534
-0.0131515
-0.218238
-0.199397
-0.177834
-0.157003
-0.137113
-0.11828
-0.101176
-0.086653
-0.0760453
-0.0677465
-0.0643211
-0.0652721
-0.0710294
-0.0820729
-0.0986284
-0.120529
-0.146985
-0.176303
-0.205785
-0.232069
-0.251445
-0.258816
-0.249793
-0.224338
-0.18816
-0.149129
-0.113113
-0.0828539
-0.058955
-0.0408178
-0.0275549
-0.0188653
-0.0153111
-0.016979
-0.0210719
-0.0246698
-0.0280451
-0.0331624
-0.0421679
-0.0544082
-0.0722931
-0.0997816
-0.132678
-0.154827
-0.151654
-0.125423
-0.0901597
-0.05881
-0.0361614
-0.021447
-0.0124682
-0.00761782
-0.00667106
-0.010414
-0.0166023
-0.0250407
-0.0338819
-0.0402815
-0.0362992
-0.0145619
-0.2157
-0.198121
-0.177756
-0.157452
-0.137699
-0.118764
-0.101254
-0.0859999
-0.0729212
-0.064931
-0.0609623
-0.0612337
-0.0662798
-0.0765381
-0.092136
-0.112836
-0.137861
-0.165618
-0.193632
-0.21881
-0.237105
-0.244172
-0.236292
-0.213539
-0.180889
-0.145033
-0.111072
-0.0816248
-0.0575726
-0.0387054
-0.0242786
-0.0139337
-0.00805079
-0.00722641
-0.0099176
-0.0135877
-0.0183217
-0.0246679
-0.0350188
-0.0485607
-0.0679264
-0.0974138
-0.13234
-0.155748
-0.153148
-0.126725
-0.0906701
-0.0580605
-0.0343021
-0.0187672
-0.0091265
-0.00369455
-0.0023649
-0.00642311
-0.0135326
-0.0241694
-0.0355773
-0.0435925
-0.0394573
-0.0159115
-0.213415
-0.19757
-0.179724
-0.161276
-0.142719
-0.124622
-0.107543
-0.0919404
-0.0793506
-0.0687864
-0.0631199
-0.0619117
-0.0653804
-0.073939
-0.0876346
-0.106213
-0.128922
-0.154319
-0.180148
-0.204189
-0.220642
-0.227462
-0.221086
-0.201609
-0.173071
-0.140898
-0.109437
-0.0811969
-0.0572862
-0.0378918
-0.0225215
-0.0107821
-0.00291779
0.000305489
-0.000718139
-0.00400891
-0.00958395
-0.0163308
-0.0274582
-0.0418457
-0.062304
-0.0933596
-0.130177
-0.154905
-0.153205
-0.127083
-0.090834
-0.0574172
-0.0326859
-0.0163871
-0.00619361
-0.000308917
0.00147296
-0.00266323
-0.0105108
-0.023265
-0.0372197
-0.0468296
-0.0425036
-0.0171913
-0.209696
-0.195577
-0.180415
-0.163968
-0.146963
-0.13024
-0.113906
-0.0976381
-0.0852812
-0.0750686
-0.0687163
-0.0657954
-0.0670785
-0.0732648
-0.0843813
-0.100226
-0.120145
-0.142781
-0.166143
-0.189127
-0.202215
-0.209032
-0.204649
-0.189068
-0.165203
-0.13716
-0.10854
-0.0817828
-0.058228
-0.0384227
-0.0222446
-0.00935252
0.000209014
0.00577589
0.00674567
0.00415266
-0.00216763
-0.00830923
-0.0196037
-0.0341299
-0.0551077
-0.0877944
-0.126734
-0.152336
-0.151707
-0.126245
-0.0903492
-0.0566178
-0.0311544
-0.0141728
-0.00348163
0.00267476
0.0048269
0.00084748
-0.00752031
-0.0222837
-0.038793
-0.049962
-0.0454002
-0.0183829
-0.208889
-0.197105
-0.18382
-0.16857
-0.153184
-0.138974
-0.12485
-0.111062
-0.0971676
-0.0856875
-0.0773579
-0.0727668
-0.0719342
-0.0752064
-0.082976
-0.095089
-0.11101
-0.129562
-0.149124
-0.165553
-0.181897
-0.188016
-0.18534
-0.173442
-0.153966
-0.129898
-0.104227
-0.0793296
-0.0567235
-0.037126
-0.0207181
-0.00738165
0.00311066
0.0105144
0.0135666
0.0119759
0.00393685
-0.000732254
-0.0119236
-0.0262879
-0.0472067
-0.0806189
-0.120887
-0.147682
-0.147671
-0.123323
-0.0879051
-0.0543388
-0.0287722
-0.0115965
-0.000609556
0.00568984
0.00806125
0.00420917
-0.00461477
-0.0212361
-0.0402244
-0.0529262
-0.0481108
-0.0194551
-0.196042
-0.193923
-0.182967
-0.169101
-0.154861
-0.140104
-0.125743
-0.112456
-0.100069
-0.0895847
-0.0817197
-0.076864
-0.0752071
-0.0773615
-0.0836871
-0.0940991
-0.108088
-0.124583
-0.142002
-0.157094
-0.169507
-0.174441
-0.171075
-0.159393
-0.141084
-0.118794
-0.0950994
-0.0720155
-0.050858
-0.0322472
-0.016363
-0.00319428
0.00743672
0.0154741
0.0199462
0.0203088
0.0204712
0.00928332
-0.00147328
-0.0151794
-0.0362126
-0.0718451
-0.116259
-0.146141
-0.146622
-0.12003
-0.0839722
-0.050587
-0.0254065
-0.00864944
0.00229511
0.00878775
0.0116943
0.00805451
-0.00125265
-0.0198282
-0.0414864
-0.055754
-0.0506558
-0.0203745
-0.184036
-0.184104
-0.173962
-0.16046
-0.147415
-0.135154
-0.123362
-0.11205
-0.101466
-0.0923333
-0.0852647
-0.0806934
-0.0790364
-0.0807183
-0.0859546
-0.0946466
-0.10629
-0.119946
-0.134594
-0.146161
-0.15518
-0.158157
-0.154019
-0.143025
-0.12659
-0.106799
-0.0856759
-0.0648505
-0.0454511
-0.0280359
-0.0128778
-0.000114779
0.0105182
0.0190986
0.024632
0.0260137
0.0242555
0.0164801
0.00695899
-0.00575577
-0.0266255
-0.0639337
-0.111176
-0.142172
-0.14112
-0.114089
-0.0786886
-0.0464507
-0.0221138
-0.00580893
0.00501316
0.0114806
0.0146744
0.0111293
0.00158085
-0.0187018
-0.042755
-0.0582822
-0.0527771
-0.0210834
-0.17205
-0.172898
-0.164494
-0.152613
-0.141202
-0.130833
-0.120942
-0.111317
-0.102249
-0.0943309
-0.0881218
-0.0840652
-0.0824952
-0.0836778
-0.087748
-0.0945772
-0.103657
-0.114066
-0.124106
-0.13403
-0.140386
-0.141819
-0.137574
-0.127798
-0.113463
-0.0961046
-0.0773202
-0.0584763
-0.0406017
-0.0242634
-0.00975551
0.00268574
0.0132349
0.0220771
0.0283858
0.0308144
0.0295583
0.0232538
0.0146229
0.00230325
-0.0191266
-0.0576334
-0.105164
-0.135534
-0.133553
-0.106883
-0.0728147
-0.0420485
-0.0186966
-0.00294443
0.00770344
0.0141566
0.0175974
0.0140144
0.00405551
-0.0179117
-0.0440878
-0.0605722
-0.0546068
-0.0216648
-0.159486
-0.161449
-0.155021
-0.144984
-0.135135
-0.126311
-0.118021
-0.10994
-0.102262
-0.0954754
-0.0900738
-0.0864249
-0.0847838
-0.0853455
-0.0881932
-0.093189
-0.0999132
-0.107651
-0.115328
-0.122235
-0.126456
-0.126833
-0.122668
-0.113954
-0.101369
-0.0860811
-0.0693694
-0.0523629
-0.0359617
-0.0207143
-0.006906
0.00517504
0.0155513
0.0244722
0.0313714
0.0349127
0.0346728
0.0299494
0.0224715
0.0103478
-0.011864
-0.0507401
-0.0974146
-0.127006
-0.124348
-0.0984243
-0.0661347
-0.0372274
-0.0151289
-6.00251e-05
0.0103607
0.016822
0.0205303
0.0169579
0.00648532
-0.0171356
-0.0452647
-0.0625621
-0.05611
-0.0220893
-0.147139
-0.150187
-0.145498
-0.137186
-0.128804
-0.121348
-0.114457
-0.10776
-0.101337
-0.0955674
-0.0908605
-0.0875255
-0.0857791
-0.0857687
-0.0875404
-0.0909751
-0.0957404
-0.101251
-0.106722
-0.111329
-0.113876
-0.113378
-0.109232
-0.101384
-0.0903065
-0.0768539
-0.0620103
-0.0466891
-0.0316638
-0.0174682
-0.0043842
0.00729819
0.0174619
0.0263292
0.0335888
0.0380492
0.0389723
0.036188
0.0303023
0.018785
-0.00374338
-0.0424341
-0.0880691
-0.116528
-0.113329
-0.0887238
-0.0587743
-0.0320833
-0.0114598
0.00281581
0.0129633
0.0194609
0.0234347
0.0199858
0.00902935
-0.0161445
-0.0461476
-0.0641393
-0.0571486
-0.0223037
-0.135504
-0.139148
-0.135881
-0.12915
-0.122154
-0.115942
-0.110276
-0.10479
-0.0994728
-0.094601
-0.0905112
-0.0874729
-0.085668
-0.0852042
-0.086103
-0.0882598
-0.0914029
-0.0950851
-0.0986566
-0.101465
-0.102633
-0.101393
-0.0972638
-0.0901519
-0.080352
-0.0684688
-0.0552533
-0.0414473
-0.0277045
-0.0145247
-0.00219078
0.0090345
0.0189493
0.0276702
0.0350736
0.0401888
0.0422496
0.0414107
0.0374921
0.0271836
0.00484065
-0.0333529
-0.0773805
-0.104103
-0.100624
-0.077996
-0.0508857
-0.026693
-0.00772795
0.00565685
0.0154825
0.022047
0.0262883
0.0230749
0.0117087
-0.0148764
-0.046622
-0.0651164
-0.0575565
-0.0222549
-0.124309
-0.128302
-0.126249
-0.120948
-0.115231
-0.110142
-0.105546
-0.101106
-0.0967534
-0.0926787
-0.089155
-0.0864105
-0.0845945
-0.083785
-0.0839877
-0.0851098
-0.086932
-0.0891194
-0.0911789
-0.0925647
-0.0926348
-0.0908117
-0.086704
-0.0801893
-0.0714414
-0.0608872
-0.0490932
-0.036653
-0.0241076
-0.011905
-0.000331543
0.0103754
0.0199894
0.028512
0.0359002
0.0413662
0.0443487
0.0451806
0.0432822
0.0345666
0.0128305
-0.0241974
-0.0656073
-0.0900014
-0.0865338
-0.0665274
-0.0426743
-0.0211742
-0.00398816
0.00843303
0.0178894
0.0245484
0.0290655
0.026188
0.0144956
-0.013302
-0.046521
-0.0652803
-0.0571717
-0.0218912
-0.113495
-0.117784
-0.116747
-0.112687
-0.108105
-0.104009
-0.100341
-0.0967992
-0.0932813
-0.0899111
-0.0869016
-0.0844406
-0.0826507
-0.08159
-0.0812568
-0.0815739
-0.0823701
-0.0833825
-0.084247
-0.0845305
-0.0837557
-0.0814824
-0.0773935
-0.0713646
-0.0634927
-0.0540729
-0.0435228
-0.0323095
-0.0208775
-0.00961467
0.00119703
0.0113337
0.0205813
0.0288613
0.0361265
0.0417475
0.0452853
0.0472818
0.0470391
0.039937
0.0194109
-0.0153262
-0.052956
-0.0745806
-0.0715277
-0.0547098
-0.0343852
-0.0156608
-0.000300978
0.0111139
0.0201589
0.0269255
0.0317251
0.0292765
0.0173725
-0.0113351
-0.045641
-0.0644148
-0.0558355
-0.021166
-0.103292
-0.10771
-0.107457
-0.104438
-0.100842
-0.0976108
-0.0947389
-0.0919629
-0.0891611
-0.0864054
-0.083857
-0.0816683
-0.0799395
-0.0787169
-0.0779946
-0.0777075
-0.0777262
-0.0778458
-0.0777956
-0.0772437
-0.0758311
-0.0732227
-0.0691687
-0.063554
-0.0564239
-0.0479771
-0.0385175
-0.0284072
-0.0180089
-0.00765096
0.00240245
0.0119327
0.0207447
0.0287255
0.0357869
0.0414126
0.0452145
0.0477829
0.0485153
0.0427784
0.0242654
-0.00682941
-0.0395778
-0.0574115
-0.0562463
-0.0430146
-0.0262822
-0.0102933
0.00326702
0.0136667
0.0222691
0.029137
0.0342166
0.0322879
0.0203494
-0.00884777
-0.0437737
-0.0623085
-0.0534123
-0.0200458
-0.093712
-0.0980822
-0.0984196
-0.0962662
-0.0935122
-0.0910216
-0.0888256
-0.0866958
-0.0845022
-0.0822775
-0.0801412
-0.0782147
-0.0765795
-0.075272
-0.0742846
-0.0735629
-0.0730128
-0.0724765
-0.0717493
-0.0705827
-0.0687084
-0.0658742
-0.0618845
-0.0566373
-0.0501457
-0.0425416
-0.0340436
-0.0249286
-0.0154893
-0.00600071
0.00329951
0.0121998
0.020518
0.0281298
0.0349139
0.0404268
0.0442999
0.0470013
0.0480469
0.0433562
0.0275812
0.00124945
-0.0261146
-0.0413157
-0.0416097
-0.0319402
-0.018617
-0.00520192
0.0066493
0.0160569
0.024201
0.0311462
0.0364943
0.0351776
0.0234465
-0.00571617
-0.0407258
-0.0587778
-0.0498186
-0.01852
-0.0846499
-0.0889084
-0.0896933
-0.0882451
-0.0861931
-0.0843236
-0.0826919
-0.0811013
-0.0794191
-0.0776501
-0.07588
-0.0742035
-0.0726863
-0.0713567
-0.0702076
-0.069198
-0.0682486
-0.0672479
-0.0660418
-0.064446
-0.0622619
-0.0592996
-0.0554075
-0.0504989
-0.0445697
-0.0377055
-0.0300624
-0.0218492
-0.0132997
-0.00464285
0.00391237
0.012167
0.0199487
0.0271281
0.0335611
0.0388619
0.0426813
0.0452934
0.046276
0.0424334
0.029705
0.00849775
-0.0136394
-0.0266369
-0.028415
-0.0219066
-0.0115903
-0.000493328
0.00978437
0.0182511
0.0259352
0.0329204
0.0385305
0.0379205
0.0266774
-0.00185007
-0.0363543
-0.0537114
-0.045049
-0.0166087
-0.0761255
-0.0802266
-0.0813275
-0.0804352
-0.0789554
-0.0775967
-0.0764288
-0.0752818
-0.0740252
-0.0726435
-0.0711955
-0.0697541
-0.0683712
-0.067069
-0.0658412
-0.0646553
-0.0634516
-0.0621453
-0.0606241
-0.0587529
-0.0563852
-0.0533795
-0.0496196
-0.0450349
-0.0396128
-0.0334078
-0.0265308
-0.0191381
-0.0114149
-0.00355049
0.00427336
0.0118741
0.0190899
0.0257877
0.0318116
0.0368193
0.0404987
0.0429381
0.0437496
0.0406492
0.0307492
0.0142402
-0.00324761
-0.0142159
-0.0171758
-0.0131639
-0.00532977
0.00375782
0.0126184
0.0202189
0.0274497
0.0344234
0.0403094
0.0405123
0.030044
0.00277307
-0.0306339
-0.0471228
-0.0392063
-0.0143689
-0.0681667
-0.0720446
-0.0733447
-0.0728816
-0.0718614
-0.070916
-0.0701229
-0.0693354
-0.0684283
-0.0673722
-0.0662049
-0.0649816
-0.063743
-0.062506
-0.0612651
-0.0599944
-0.0586486
-0.0571644
-0.0554601
-0.0534378
-0.0509904
-0.0480134
-0.0444195
-0.0401524
-0.0351971
-0.0295877
-0.023403
-0.0167603
-0.00980461
-0.00269214
0.00442003
0.011368
0.0180003
0.0241835
0.0297653
0.0344196
0.0378933
0.0401348
0.0407874
0.0383091
0.0307199
0.0181129
0.00455991
-0.00441564
-0.00803159
-0.00578337
0.00010631
0.00750774
0.0151088
0.0219306
0.0287207
0.0356108
0.0417954
0.0429125
0.0334736
0.00801772
-0.0236953
-0.0391828
-0.0325381
-0.0119021
-0.0607327
-0.0643491
-0.0657618
-0.0656244
-0.064967
-0.06435
-0.0638538
-0.0633527
-0.0627285
-0.0619431
-0.0610183
-0.0599949
-0.0589041
-0.0577588
-0.0565542
-0.0552698
-0.0538698
-0.0523076
-0.0505244
-0.0484499
-0.0460067
-0.0431186
-0.0397207
-0.0357695
-0.0312508
-0.0261862
-0.0206323
-0.0146773
-0.00843457
-0.00203277
0.00439339
0.0106996
0.0167431
0.0223933
0.0275288
0.03178
0.0350062
0.0370492
0.0375879
0.0356182
0.0298346
0.0203263
0.00995549
0.0029575
-0.000876395
0.000284937
0.00471175
0.010735
0.0172293
0.0233547
0.0297198
0.0364369
0.0428866
0.0448917
0.0366634
0.0135112
-0.0158167
-0.0302572
-0.0254346
-0.00934727
-0.053794
-0.0571361
-0.0585957
-0.058697
-0.0583196
-0.0579579
-0.0576921
-0.0574147
-0.0570163
-0.0564533
-0.0557358
-0.0548932
-0.0539489
-0.0529121
-0.0517793
-0.0505334
-0.0491461
-0.0475826
-0.0458008
-0.0437511
-0.041378
-0.0386266
-0.0354494
-0.0318139
-0.0277085
-0.0231474
-0.0181719
-0.0128492
-0.00726814
-0.0015347
0.00423661
0.0099194
0.0153807
0.0204851
0.0250573
0.0290026
0.0319773
0.0338402
0.0343237
0.0327937
0.0284276
0.0213288
0.0133246
0.00630151
0.0044561
0.00515909
0.00851842
0.0134329
0.0189713
0.024462
0.030397
0.0368539
0.0433919
0.045986
0.0390579
0.0186738
-0.00750781
-0.0209714
-0.0184051
-0.0068686
-0.0473428
-0.0504009
-0.0518541
-0.0521229
-0.0519567
-0.0517894
-0.0516984
-0.0515922
-0.0513706
-0.0509881
-0.0504461
-0.0497648
-0.0489618
-0.0480428
-0.0470045
-0.0458332
-0.0445076
-0.0429999
-0.0412799
-0.0393127
-0.0370594
-0.034481
-0.0315434
-0.0282231
-0.0245114
-0.020419
-0.0159765
-0.0112359
-0.00626767
-0.00115891
0.00399297
0.0090785
0.0139792
0.0185678
0.0226958
0.0262334
0.0289426
0.0306506
0.0311367
0.0300086
0.0267786
0.0215703
0.0156179
0.010542
0.00864463
0.00901627
0.0115875
0.0156096
0.0203341
0.025233
0.0306892
0.0367721
0.0429459
0.0458078
0.0401281
0.0228288
0.000355303
-0.0122168
-0.0119982
-0.00462946
-0.0413574
-0.0441288
-0.0455368
-0.0459174
-0.0459071
-0.0458844
-0.0459227
-0.0459442
-0.0458586
-0.0456203
-0.0452251
-0.044686
-0.044016
-0.0432183
-0.0422871
-0.0412137
-0.0399832
-0.0385725
-0.0369574
-0.0351141
-0.0330162
-0.0306366
-0.027951
-0.0249432
-0.0216077
-0.017953
-0.0140031
-0.00979877
-0.00539661
-0.000867923
0.00370453
0.00822601
0.0125929
0.016691
0.0203889
0.023555
0.0260099
0.0275917
0.0281248
0.0273693
0.0250618
0.0213383
0.0170573
0.0134317
0.0117861
0.0119896
0.0139873
0.0172883
0.0213175
0.0256543
0.0305672
0.0361244
0.0416291
0.044264
0.0396864
0.0254675
0.00682607
-0.00480043
-0.00661353
-0.00274009
-0.0358131
-0.0383045
-0.039641
-0.0400902
-0.0401916
-0.0402736
-0.0404044
-0.0405185
-0.0405352
-0.0404107
-0.0401367
-0.0397214
-0.0391734
-0.0384944
-0.0376781
-0.0367176
-0.0356026
-0.034314
-0.0328324
-0.0311409
-0.0292218
-0.0270568
-0.0246295
-0.0219288
-0.018952
-0.0157067
-0.0122122
-0.00850155
-0.00462019
-0.000626942
0.00340838
0.0074043
0.0112706
0.0149078
0.0182011
0.0210324
0.0232574
0.0247407
0.0253468
0.0249325
0.0233745
0.0208088
0.0178305
0.015305
0.0140406
0.0141981
0.0157863
0.018503
0.0219263
0.0257195
0.0300413
0.0349233
0.0395124
0.0416197
0.0379053
0.0264704
0.0113933
0.000879087
-0.0024039
-0.00123711
-0.0306898
-0.0329125
-0.03416
-0.0346452
-0.0348235
-0.0349788
-0.0351733
-0.035352
-0.0354438
-0.0354075
-0.0352326
-0.0349236
-0.0344859
-0.0339204
-0.0332208
-0.0323792
-0.0313899
-0.0302375
-0.0289062
-0.0273829
-0.0256559
-0.0237134
-0.0215444
-0.0191422
-0.0165059
-0.0136427
-0.0105689
-0.00731127
-0.0039071
-0.000405089
0.00313643
0.00664793
0.0100521
0.0132644
0.0161867
0.0187164
0.020738
0.0221434
0.0228321
0.0227216
0.0217666
0.0200911
0.0181112
0.0164284
0.0155649
0.0157516
0.017052
0.0192936
0.0221818
0.0254426
0.0291409
0.0332858
0.036853
0.0383355
0.0352557
0.0261696
0.0141547
0.00487578
0.000695397
-0.000103242
-0.0259666
-0.0279353
-0.0290838
-0.0295808
-0.0298097
-0.0300141
-0.0302501
-0.0304717
-0.0306169
-0.030648
-0.0305533
-0.0303348
-0.0299957
-0.0295356
-0.0289494
-0.0282297
-0.0273667
-0.0263551
-0.0251812
-0.0238335
-0.0223037
-0.0205842
-0.0186685
-0.0165527
-0.0142375
-0.0117296
-0.00904291
-0.00619982
-0.0032309
-0.000176384
0.00291481
0.00598472
0.00896877
0.0117937
0.0143784
0.0166383
0.0184813
0.0198226
0.0205904
0.0207378
0.0202587
0.0192629
0.01804
0.0170013
0.0164969
0.0167513
0.0178496
0.0197038
0.0221171
0.0248635
0.0279186
0.031049
0.0339078
0.0348268
0.0322197
0.0250346
0.0155141
0.00746257
0.00284661
0.000706248
-0.0216227
-0.0233547
-0.0244001
-0.0248922
-0.0251519
-0.0253872
-0.0256478
-0.0258958
-0.0260776
-0.0261591
-0.0261286
-0.0259861
-0.0257335
-0.0253694
-0.0248891
-0.0242842
-0.0235476
-0.0226763
-0.0216602
-0.0204884
-0.019154
-0.0176526
-0.0159805
-0.0141361
-0.0121209
-0.00994152
-0.00760973
-0.00514413
-0.00257013
7.91233e-05
0.00276336
0.00543475
0.00803919
0.0105141
0.0127947
0.0148144
0.0164988
0.0177827
0.0186155
0.01897
0.01886
0.0183771
0.0177191
0.0171644
0.016959
0.0172902
0.0182438
0.0197811
0.0217752
0.0240412
0.0265088
0.0289348
0.0309467
0.031379
0.0291272
0.0234317
0.0158764
0.00896147
0.00424007
0.00124889
-0.0176388
-0.0191528
-0.0200954
-0.020571
-0.0208471
-0.0210998
-0.021373
-0.0216351
-0.0218405
-0.0219589
-0.0219792
-0.0219001
-0.0217224
-0.021444
-0.0210605
-0.0205653
-0.0199521
-0.0192136
-0.0183474
-0.0173448
-0.0161989
-0.014906
-0.0134643
-0.0118738
-0.0101365
-0.00825862
-0.00625013
-0.00412659
-0.00190883
0.000375993
0.00269492
0.00500802
0.00727075
0.00943356
0.0114448
0.0132485
0.0147883
0.0160147
0.0168917
0.0174044
0.0175724
0.0174663
0.0172222
0.017024
0.0170563
0.0174547
0.0182989
0.0195745
0.0212011
0.023028
0.0249631
0.026765
0.0280998
0.0281445
0.0261621
0.0216081
0.01557
0.00965901
0.00505024
0.00158083
-0.0139961
-0.0153114
-0.0161544
-0.0166065
-0.0168889
-0.0171495
-0.0174264
-0.0176939
-0.0179132
-0.0180581
-0.018118
-0.0180913
-0.0179776
-0.0177749
-0.0174787
-0.0170833
-0.0165824
-0.0159712
-0.0152452
-0.0144012
-0.0134326
-0.0123353
-0.0111084
-0.00975247
-0.00827001
-0.00666644
-0.00495048
-0.00313488
-0.00123656
0.000722034
0.00271426
0.00470806
0.00666691
0.00855135
0.0103207
0.0119296
0.0133358
0.014501
0.0154001
0.0160248
0.016392
0.016554
0.0166063
0.0166716
0.0168764
0.0173225
0.0180759
0.0191323
0.0204409
0.0218767
0.023343
0.0246185
0.025431
0.0251874
0.0234128
0.0197214
0.014841
0.0097876
0.00542091
0.00175135
-0.0106765
-0.0118127
-0.0125618
-0.0129865
-0.0132682
-0.0135301
-0.0138049
-0.0140716
-0.0142977
-0.0144609
-0.0145515
-0.0145675
-0.0145081
-0.0143711
-0.0141525
-0.013847
-0.013449
-0.012953
-0.0123564
-0.0116568
-0.010851
-0.00993395
-0.00890422
-0.00776266
-0.00651155
-0.00515563
-0.00370228
-0.00216214
-0.000548943
0.00111942
0.00282156
0.0045318
0.00622117
0.00785752
0.00940948
0.0108413
0.0121212
0.0132197
0.0141187
0.0148124
0.0153136
0.0156593
0.0159152
0.0161627
0.016487
0.0169598
0.0176326
0.0185035
0.0195407
0.0206386
0.0217108
0.0225555
0.0229703
0.0225218
0.0209126
0.0178675
0.0138654
0.00953009
0.00547691
0.00180374
-0.00766322
-0.00863953
-0.00930161
-0.00969728
-0.00997394
-0.0102329
-0.0105017
-0.0107636
-0.0109916
-0.0111668
-0.0112809
-0.0113314
-0.0113175
-0.0112369
-0.0110858
-0.0108598
-0.0105538
-0.0101633
-0.00968427
-0.00911441
-0.00845304
-0.00769791
-0.00684665
-0.00589858
-0.0048553
-0.00372102
-0.00250194
-0.0012067
0.000153747
0.00156516
0.00301074
0.00447018
0.00592072
0.00733653
0.00869373
0.0099625
0.0111213
0.0121468
0.0130246
0.0137498
0.014332
0.0147941
0.0151818
0.0155459
0.0159444
0.0164238
0.0170223
0.0177355
0.0185427
0.0193546
0.0201011
0.0206083
0.020726
0.0201388
0.0186645
0.0161032
0.0127668
0.00902889