/*--------------------------------*- C++ -*----------------------------------*\
| =========                 |                                                 |
| \\      /  F ield         | OpenFOAM: The Open Source CFD Toolbox           |
|  \\    /   O peration     | Version:  2512                                  |
|   \\  /    A nd           | Website:  www.openfoam.com                      |
|    \\/     M anipulation  |                                                 |
\*---------------------------------------------------------------------------*/
FoamFile
{
    version     2.0;
    format      ascii;
    arch        "LSB;label=32;scalar=64";
    class       volVectorField;
    location    "67";
    object      U;
}
// * * * * * * * * * * * * * * * * * * * * * * * * * * * * * * * * * * * * * //

dimensions      [0 1 -1 0 0 0 0];

internalField   nonuniform List<vector> 
13248
(
(-0.0124479 0.0121151 7.61283e-20)
(-0.021168 0.0249192 0)
(-0.0144778 0.0308648 -1.44088e-19)
(0.00611625 0.0318215 1.35731e-19)
(0.0396354 0.0294821 1.27465e-19)
(0.0854031 0.0252806 0)
(0.142804 0.0203271 0)
(0.211097 0.0154574 3.10847e-19)
(0.289222 0.0112807 -1.12215e-21)
(0.375643 0.00820757 -2.72217e-19)
(0.468275 0.00646756 2.52182e-19)
(0.564527 0.00612367 -1.57743e-19)
(0.661441 0.00709073 0)
(0.755914 0.00916188 -2.653e-19)
(0.844962 0.0120444 4.92144e-19)
(0.925966 0.0154014 -1.17126e-19)
(0.996884 0.0188982 -2.00832e-19)
(1.05639 0.022227 1.8854e-19)
(1.10393 0.0251975 0)
(1.13967 0.0274961 0)
(1.16463 0.0295872 0)
(1.17935 0.0296797 0)
(1.18753 0.0323807 5.10455e-20)
(1.18577 0.0249326 1.75857e-19)
(-0.0113546 0.00987042 -2.29894e-19)
(-0.0149765 0.0186541 1.56676e-19)
(-0.000139804 0.0218427 -1.2268e-21)
(0.031418 0.0212774 -2.07244e-19)
(0.0785147 0.0186226 -1.27328e-19)
(0.140151 0.0152932 -1.20503e-19)
(0.215148 0.0123547 -2.2258e-19)
(0.301894 0.0105558 2.10055e-19)
(0.398152 0.010357 0)
(0.500995 0.0119428 1.03735e-21)
(0.606896 0.0152399 1.90175e-21)
(0.711979 0.019954 1.5667e-19)
(0.812371 0.0256278 0)
(0.904566 0.0317169 0)
(0.985754 0.0376705 1.7754e-19)
(1.05405 0.0430055 -3.33415e-19)
(1.10857 0.0473626 1.94306e-19)
(1.14947 0.0505366 -1.82425e-19)
(1.17773 0.052484 -7.87086e-20)
(1.19502 0.0532788 -1.39742e-19)
(1.2033 0.0532142 -5.57659e-20)
(1.20488 0.0521318 -1.03596e-19)
(1.20155 0.0520059 1.55788e-19)
(1.19446 0.047513 4.36661e-20)
(-0.00934381 0.00744584 0)
(-0.00543669 0.0119831 0)
(0.0204136 0.012583 7.33342e-20)
(0.0660309 0.0110316 6.77633e-20)
(0.129779 0.00894987 -1.37341e-21)
(0.20996 0.0076989 -1.23678e-19)
(0.304312 0.00820388 0)
(0.409757 0.0109641 -1.04542e-19)
(0.522341 0.016076 9.77875e-20)
(0.637418 0.0232634 6.09278e-23)
(0.750047 0.0319464 -1.67093e-19)
(0.855516 0.0413502 -1.52198e-19)
(0.949848 0.0506382 3.60566e-21)
(1.03019 0.0590433 -1.23176e-19)
(1.09503 0.0659732 2.97929e-19)
(1.14419 0.071073 0)
(1.17868 0.0742422 -1.87705e-19)
(1.20039 0.0756021 9.16252e-20)
(1.21173 0.0754563 7.86397e-20)
(1.21526 0.0741499 0)
(1.21343 0.0722377 6.2613e-20)
(1.20815 0.0696375 -2.12488e-19)
(1.20105 0.0680826 1.9947e-19)
(1.19329 0.0631341 1.2232e-19)
(-0.00606172 0.00485331 -8.09364e-20)
(0.00835967 0.00519209 -8.35522e-20)
(0.0485053 0.00381554 7.58039e-20)
(0.111456 0.00231552 0)
(0.194693 0.00216749 0)
(0.295234 0.00454567 -2.15528e-21)
(0.409065 0.0100294 0)
(0.531054 0.0186033 -3.16653e-19)
(0.655246 0.0297277 2.94023e-19)
(0.77547 0.04246 -3.63181e-19)
(0.886078 0.0556388 8.32868e-20)
(0.982628 0.0680958 0)
(1.06233 0.078849 1.36598e-19)
(1.12419 0.0872349 -2.52168e-19)
(1.16885 0.0929634 6.00703e-20)
(1.19825 0.0960949 1.50982e-19)
(1.2151 0.09696 -8.25184e-21)
(1.22241 0.0960518 -1.66965e-19)
(1.22303 0.0939134 0)
(1.21938 0.0910451 0)
(1.21331 0.0879149 -5.79434e-20)
(1.20604 0.0845714 5.15547e-20)
(1.19847 0.0822078 1.81707e-19)
(1.19068 0.0772019 -1.70597e-19)
(-0.00109328 0.00214069 -8.48675e-20)
(0.0273386 -0.0013451 -8.46695e-20)
(0.0852541 -0.0036303 2.38301e-19)
(0.168578 -0.00357303 -1.44919e-19)
(0.273296 -6.38719e-05 1.36408e-19)
(0.394407 0.00762491 2.48521e-19)
(0.525493 0.0194052 -1.75374e-19)
(0.659097 0.0344291 -2.12988e-19)
(0.78758 0.0513073 4.44799e-21)
(0.904172 0.0684042 2.73193e-19)
(1.00387 0.0841587 0)
(1.08394 0.0973528 7.45402e-20)
(1.14394 0.107269 0)
(1.18538 0.113716 -1.20623e-19)
(1.21107 0.116947 1.69532e-19)
(1.22446 0.11751 1.65267e-21)
(1.229 0.116086 -4.38651e-20)
(1.2277 0.113343 8.1479e-20)
(1.22289 0.10985 7.0022e-20)
(1.21623 0.106031 -6.24347e-20)
(1.20876 0.10219 5.79289e-20)
(1.20108 0.0983818 -5.15413e-20)
(1.19351 0.0952685 0)
(1.18623 0.0902466 -3.9031e-20)
(0.00597841 -0.000556941 8.48554e-20)
(0.0522981 -0.0070735 8.88046e-20)
(0.131348 -0.00874381 -7.9781e-20)
(0.237374 -0.0052507 1.48594e-19)
(0.364116 0.00378763 -1.3986e-19)
(0.503842 0.0182573 1.26626e-19)
(0.64742 0.0370196 -6.06609e-20)
(0.785444 0.0581521 1.59928e-19)
(0.909695 0.0794228 -1.00316e-19)
(1.01435 0.0987729 1.77253e-19)
(1.09658 0.114687 -4.08478e-19)
(1.15645 0.126374 1.49665e-19)
(1.19627 0.133751 -1.30557e-19)
(1.2197 0.137277 1.22633e-19)
(1.23086 0.137725 1.05107e-19)
(1.23356 0.135955 9.16405e-20)
(1.23095 0.132753 -2.5482e-19)
(1.22533 0.128742 1.57861e-19)
(1.21822 0.124365 -7.00238e-20)
(1.21054 0.119908 1.81622e-19)
(1.2028 0.115541 -5.86782e-20)
(1.19524 0.111314 -1.41607e-19)
(1.188 0.107574 1.30543e-19)
(1.18108 0.102555 3.90179e-20)
(0.0155114 -0.00299242 0)
(0.0837591 -0.0112214 6.41549e-22)
(0.186839 -0.0103313 1.65942e-19)
(0.316711 -0.00132108 -1.55748e-19)
(0.46413 0.0149608 -1.40602e-19)
(0.618228 0.0370864 2.61328e-19)
(0.767514 0.0625639 -1.21366e-19)
(0.901832 0.0884075 1.61778e-19)
(1.01408 0.111883 -3.58593e-21)
(1.10098 0.131047 -9.15358e-20)
(1.16292 0.144964 1.99504e-19)
(1.20293 0.153636 -2.93952e-19)
(1.22549 0.157731 0)
(1.23539 0.158259 -5.73591e-20)
(1.23687 0.156272 -1.52729e-19)
(1.23328 0.152688 4.80898e-20)
(1.22694 0.148204 2.03527e-21)
(1.21935 0.143294 -1.04169e-19)
(1.21136 0.138258 7.01848e-21)
(1.20343 0.13327 1.20273e-19)
(1.19576 0.128423 -5.32271e-20)
(1.18844 0.123769 -2.0149e-20)
(1.18146 0.119421 6.24323e-20)
(1.17482 0.114344 0)
(0.0277487 -0.00481151 0)
(0.121829 -0.0128328 4.49515e-20)
(0.250987 -0.00710112 -2.15824e-19)
(0.404287 0.00946967 7.85297e-20)
(0.569016 0.0342108 -7.39094e-20)
(0.73139 0.0639721 -6.74044e-20)
(0.878749 0.0948743 -1.19364e-19)
(1.00199 0.123247 5.94942e-20)
(1.09684 0.146474 5.19045e-20)
(1.16361 0.163323 0)
(1.20592 0.173816 1.17918e-19)
(1.22908 0.178827 -1.75022e-19)
(1.23864 0.179626 1.30359e-19)
(1.23941 0.177503 5.73885e-20)
(1.23505 0.173545 -4.67363e-20)
(1.22805 0.168555 -3.88611e-20)
(1.21992 0.163066 -3.62287e-20)
(1.21154 0.157407 1.08795e-19)
(1.20331 0.151764 0)
(1.19544 0.146241 5.42451e-20)
(1.18798 0.140894 4.53704e-20)
(1.18092 0.135757 -1.1293e-19)
(1.1742 0.130817 -7.68758e-20)
(1.16778 0.125637 7.10873e-20)
(0.0427716 -0.00557844 -4.81614e-20)
(0.1661 -0.0108559 -1.6343e-21)
(0.322189 0.00217691 4.3833e-20)
(0.496772 0.0280278 1.2224e-19)
(0.673709 0.0616577 3.55036e-20)
(0.837354 0.0980441 -6.86158e-20)
(0.975722 0.132284 6.27896e-20)
(1.08262 0.160713 -5.51595e-20)
(1.15772 0.181517 9.86644e-20)
(1.20496 0.194596 4.20631e-20)
(1.23049 0.201006 -1.19147e-19)
(1.24076 0.202323 3.51532e-20)
(1.24134 0.200142 5.98342e-20)
(1.23642 0.195786 -2.94854e-20)
(1.22876 0.190215 0)
(1.22003 0.184057 4.37804e-20)
(1.21113 0.177683 7.38228e-20)
(1.20249 0.171305 1.24635e-20)
(1.19429 0.165036 -6.14229e-20)
(1.18658 0.158937 2.56195e-20)
(1.17934 0.153042 0)
(1.17251 0.147362 -2.00554e-20)
(1.16603 0.141844 -1.89183e-20)
(1.1598 0.136467 0)
(0.0604524 -0.0048172 0)
(0.215584 -0.00426994 2.51926e-20)
(0.398028 0.0184844 4.65688e-20)
(0.590133 0.0547394 -1.24327e-19)
(0.773131 0.0967617 4.00637e-20)
(0.931289 0.137924 0)
(1.05531 0.173034 6.03485e-20)
(1.14324 0.199235 -8.42082e-20)
(1.19887 0.216026 -4.91847e-20)
(1.22909 0.224564 2.22931e-20)
(1.24146 0.226777 -3.5412e-20)
(1.24257 0.224659 8.61346e-20)
(1.23736 0.219871 4.30994e-20)
(1.22909 0.213607 -3.00383e-20)
(1.21969 0.206633 -2.87991e-21)
(1.21017 0.199399 -8.17913e-20)
(1.201 0.19215 3.7219e-20)
(1.19237 0.185014 -9.53793e-22)
(1.18432 0.178059 0)
(1.17683 0.171323 -2.56461e-20)
(1.16983 0.164824 0)
(1.16326 0.158547 5.77843e-20)
(1.15701 0.152469 -6.87089e-20)
(1.15098 0.146792 3.12831e-20)
(0.0804229 -0.00205823 -1.30419e-20)
(0.26872 0.00779029 -6.32457e-20)
(0.475448 0.0424025 7.18399e-20)
(0.680103 0.0893949 4.22629e-20)
(0.862851 0.138434 -2.02168e-20)
(1.00999 0.182007 3.39311e-20)
(1.11653 0.21557 -1.65013e-20)
(1.18521 0.237739 2.74865e-20)
(1.22339 0.249556 0)
(1.23987 0.253309 6.22272e-20)
(1.24258 0.25151 -2.57232e-21)
(1.23756 0.246295 -5.02037e-20)
(1.22882 0.23921 2.14885e-20)
(1.21872 0.231239 -2.4211e-20)
(1.20849 0.222951 -9.17504e-21)
(1.19868 0.214647 1.06511e-20)
(1.18952 0.20648 -8.19005e-21)
(1.18103 0.198526 -4.44261e-20)
(1.17321 0.190824 2.72116e-20)
(1.16599 0.183398 5.55638e-21)
(1.15928 0.176246 4.88649e-21)
(1.15298 0.169339 4.29873e-21)
(1.14699 0.162726 0)
(1.14116 0.156623 0)
(0.102136 0.0031255 1.3051e-20)
(0.323581 0.0259424 -1.30648e-20)
(0.551185 0.0740215 -2.39139e-20)
(0.762798 0.131217 0)
(0.939604 0.185233 -1.00219e-20)
(1.07188 0.228727 -8.99695e-21)
(1.15985 0.258686 -1.54347e-20)
(1.21062 0.275599 0)
(1.2342 0.282007 0)
(1.24019 0.281053 0)
(1.23618 0.275537 0)
(1.22728 0.267527 0)
(1.21655 0.258349 -1.34675e-20)
(1.20557 0.248765 6.12857e-21)
(1.19506 0.239168 1.0656e-20)
(1.18528 0.229751 4.98328e-21)
(1.1763 0.220601 1.22997e-20)
(1.16809 0.21176 0)
(1.16059 0.203249 -2.93834e-21)
(1.15372 0.195078 -2.80651e-21)
(1.14737 0.187228 -4.89425e-21)
(1.14142 0.17968 -4.30558e-21)
(1.13575 0.172552 0)
(1.13022 0.1659 3.07529e-21)
(-0.00122748 -0.00339171 7.64061e-21)
(-0.00615753 -0.0132287 -7.93634e-21)
(-0.015306 -0.0246049 -1.50349e-20)
(-0.0266208 -0.036205 0)
(-0.0389756 -0.0472453 -2.01007e-20)
(-0.051788 -0.0574223 6.28988e-21)
(-0.0646363 -0.0667736 -1.19417e-20)
(-0.0772106 -0.0755351 0)
(-0.0892986 -0.084016 0)
(-0.100758 -0.0925063 0)
(-0.111494 -0.101221 0)
(-0.121441 -0.11028 0)
(-0.130552 -0.119709 -4.42242e-23)
(-0.138786 -0.129454 -7.77575e-21)
(-0.146102 -0.139394 1.4684e-20)
(-0.15246 -0.149349 2.0639e-20)
(-0.15782 -0.159089 6.46583e-21)
(-0.162147 -0.168335 0)
(-0.165426 -0.17676 5.66594e-21)
(-0.16768 -0.184002 -1.58862e-20)
(-0.168954 -0.189675 -9.8652e-21)
(-0.169276 -0.193373 -9.19999e-21)
(-0.168794 -0.194623 0)
(-0.168322 -0.193013 0)
(-0.00153785 0.000848635 -2.30306e-20)
(-0.00682227 -0.00332302 3.9707e-20)
(-0.0163631 -0.0110351 -1.50856e-20)
(-0.0280593 -0.0203447 -2.85758e-20)
(-0.0407673 -0.0300666 4.03157e-20)
(-0.0539026 -0.0396232 -2.5467e-20)
(-0.0670383 -0.048852 3.58931e-20)
(-0.0798591 -0.0578436 2.27816e-20)
(-0.092152 -0.0668037 0)
(-0.103778 -0.0759508 -1.99688e-20)
(-0.11465 -0.0854549 -5.27092e-23)
(-0.124711 -0.0954105 1.76368e-20)
(-0.133921 -0.105834 2.51517e-20)
(-0.142248 -0.116672 3.139e-20)
(-0.149658 -0.127808 -1.4716e-20)
(-0.156116 -0.139068 -4.1402e-20)
(-0.161583 -0.150218 1.28825e-20)
(-0.166023 -0.160963 -4.8385e-20)
(-0.169422 -0.17094 0)
(-0.171812 -0.179721 1.0555e-20)
(-0.173239 -0.186829 9.8537e-21)
(-0.173653 -0.19174 9.18915e-21)
(-0.173163 -0.193857 0)
(-0.173367 -0.19273 0)
(-0.00233312 0.00521802 0)
(-0.0084017 0.00691724 8.07764e-20)
(-0.0182395 0.00301935 -3.04491e-20)
(-0.0299103 -0.00390562 2.87477e-20)
(-0.0423634 -0.012259 -8.19307e-20)
(-0.0550665 -0.0211701 0)
(-0.0676197 -0.0302557 -4.8667e-20)
(-0.0797205 -0.0394434 2.30142e-20)
(-0.0911621 -0.0488241 -4.35702e-20)
(-0.10181 -0.0585401 2.08442e-20)
(-0.111581 -0.0687161 1.15371e-19)
(-0.120422 -0.079426 -5.41842e-20)
(-0.128299 -0.0906834 -8.45544e-20)
(-0.135182 -0.102443 -3.19321e-20)
(-0.141043 -0.114604 1.99448e-22)
(-0.145852 -0.127011 1.11367e-19)
(-0.149571 -0.139445 -5.21493e-20)
(-0.152162 -0.151616 -1.18615e-22)
(-0.153595 -0.163146 0)
(-0.15389 -0.173558 -4.14827e-20)
(-0.153073 -0.18227 0)
(-0.150974 -0.18859 -3.47216e-20)
(-0.14748 -0.191748 1.28949e-19)
(-0.144923 -0.191201 -1.3652e-21)
(-0.0035666 0.0093617 0)
(-0.0107945 0.0167426 5.16814e-22)
(-0.0207906 0.0166219 3.12148e-20)
(-0.0319866 0.0121022 -2.9585e-20)
(-0.0435305 0.00515553 2.72712e-20)
(-0.0549929 -0.00306443 1.57177e-19)
(-0.0660298 -0.0119518 -4.92418e-20)
(-0.0763674 -0.0212654 -4.69404e-20)
(-0.0858094 -0.0309756 8.78162e-20)
(-0.094223 -0.0411437 -1.23838e-19)
(-0.101521 -0.051845 3.91975e-20)
(-0.107648 -0.0631306 3.69657e-20)
(-0.112565 -0.0750115 0)
(-0.116242 -0.0874513 3.20197e-20)
(-0.118656 -0.100367 0)
(-0.119784 -0.113626 5.6799e-20)
(-0.119606 -0.127042 -1.04333e-19)
(-0.118099 -0.140356 2.56146e-20)
(-0.115245 -0.15322 9.06834e-20)
(-0.111065 -0.165166 4.14452e-20)
(-0.105607 -0.17556 0)
(-0.0986625 -0.183546 -1.0244e-19)
(-0.0896208 -0.18805 3.27542e-20)
(-0.0806571 -0.188162 0)
(-0.00512774 0.01295 0)
(-0.0137876 0.0254429 -9.95427e-20)
(-0.0237711 0.0288716 -3.19064e-20)
(-0.0340321 0.0266952 -5.9586e-20)
(-0.0439989 0.021172 5.6109e-20)
(-0.053385 0.0136993 -5.26595e-20)
(-0.0619281 0.00508796 1.00432e-19)
(-0.0693952 -0.00425726 4.7235e-20)
(-0.0756013 -0.0141835 -1.33377e-19)
(-0.0804043 -0.0246672 8.42374e-20)
(-0.0837008 -0.0357324 -1.18484e-19)
(-0.0854236 -0.0473956 2.61827e-19)
(-0.085517 -0.0596599 -1.40037e-19)
(-0.0839388 -0.0724859 6.61687e-20)
(-0.0806641 -0.0857961 1.84082e-19)
(-0.0756833 -0.0994709 -5.77952e-20)
(-0.0690047 -0.113344 -5.48222e-20)
(-0.0606543 -0.127192 -4.96172e-20)
(-0.0506757 -0.140722 0)
(-0.0391523 -0.153539 -8.14446e-20)
(-0.0262484 -0.165091 -7.10764e-20)
(-0.0119938 -0.174514 1.04706e-19)
(0.00454839 -0.180343 1.18494e-19)
(0.02385 -0.180559 -1.11147e-19)
(-0.0068592 0.015726 0)
(-0.0170799 0.0324322 -1.36112e-19)
(-0.0268521 0.0389882 -8.79836e-22)
(-0.0357282 0.0389871 1.20816e-19)
(-0.0434618 0.0348538 0)
(-0.0499335 0.0281659 0)
(-0.0549773 0.019905 0)
(-0.0584065 0.0106243 -4.78847e-20)
(-0.0600476 0.000594824 -2.87176e-22)
(-0.059749 -0.0100729 8.5479e-20)
(-0.0573712 -0.0213406 -1.20013e-19)
(-0.0528123 -0.0331998 -2.12873e-23)
(-0.0460018 -0.0456183 0)
(-0.0368722 -0.0585376 -6.61368e-20)
(-0.0253933 -0.0718667 6.22755e-20)
(-0.0115707 -0.0854728 -1.74874e-19)
(0.00454621 -0.0991778 2.14125e-19)
(0.0228589 -0.112756 4.67615e-20)
(0.0432189 -0.125934 -4.79344e-21)
(0.0654212 -0.138382 -1.68409e-19)
(0.0891486 -0.149696 -7.48769e-20)
(0.114081 -0.159241 2.31257e-19)
(0.140664 -0.165519 -1.51716e-19)
(0.173566 -0.165189 0)
(-0.00858527 0.0175375 6.74105e-20)
(-0.0203251 0.0373085 6.83186e-20)
(-0.0296515 0.0463785 -6.57775e-20)
(-0.0367035 0.0482493 -1.23305e-19)
(-0.0415625 0.0453842 1.16106e-19)
(-0.044281 0.0394655 -1.09965e-19)
(-0.0447948 0.0315993 1.55673e-19)
(-0.0429658 0.0224599 -4.79527e-20)
(-0.0386271 0.0124243 9.21206e-20)
(-0.0316089 0.00168829 0)
(-0.02176 -0.0096511 8.2621e-20)
(-0.00893171 -0.0215339 -1.55065e-19)
(0.00698828 -0.0338843 1.44312e-19)
(0.0260554 -0.0466189 -1.35544e-19)
(0.0482806 -0.059615 0)
(0.073609 -0.0727054 1.17256e-19)
(0.101906 -0.0856763 2.15629e-19)
(0.132949 -0.0982676 -2.02019e-19)
(0.166424 -0.110177 -9.14673e-20)
(0.201939 -0.12107 -7.98209e-20)
(0.238947 -0.130608 2.27572e-19)
(0.277211 -0.138329 6.24574e-20)
(0.314415 -0.143731 -6.22776e-20)
(0.36572 -0.141356 5.06283e-20)
(-0.0101435 0.0183518 -6.74196e-20)
(-0.0231764 0.0398908 2.11696e-19)
(-0.0317603 0.0506882 -6.68561e-20)
(-0.036531 0.0539743 1.2539e-19)
(-0.0378613 0.0521377 -1.18066e-19)
(-0.0359616 0.0468906 6.29395e-22)
(-0.0308647 0.0394118 5.28485e-20)
(-0.022481 0.0304634 2.00113e-19)
(-0.010654 0.0205105 4.91407e-22)
(0.00479802 0.00982625 -8.75055e-20)
(0.0240503 -0.00142327 0)
(0.0472486 -0.0131109 -7.83255e-20)
(0.0744881 -0.0251279 1.46372e-19)
(0.105778 -0.0373436 1.36232e-19)
(0.141031 -0.0495928 -6.4093e-20)
(0.180041 -0.0616687 2.75441e-22)
(0.222474 -0.0733221 -5.44539e-20)
(0.267864 -0.0842643 1.00105e-19)
(0.315616 -0.094177 9.14334e-20)
(0.365085 -0.102703 -8.28816e-20)
(0.415167 -0.109618 7.38915e-20)
(0.466863 -0.114021 -6.55812e-20)
(0.511487 -0.117758 0)
(0.580895 -0.111599 -5.0537e-20)
(-0.0114105 0.0182478 6.95288e-20)
(-0.0253202 0.04022 -7.0994e-20)
(-0.0327524 0.0518274 6.81192e-20)
(-0.0347015 0.0559276 0)
(-0.0317668 0.0547563 0)
(-0.0242875 0.0499947 1.14707e-19)
(-0.0123801 0.042847 -1.06523e-19)
(0.00399878 0.034131 1.01296e-19)
(0.0249852 0.0243808 -4.73703e-19)
(0.0507478 0.0139427 1.21235e-23)
(0.0814362 0.00305323 8.40263e-20)
(0.117134 -0.00810266 0)
(0.157817 -0.0193565 -1.46865e-19)
(0.203316 -0.030528 2.74811e-19)
(0.253291 -0.0414117 -1.92368e-19)
(0.307212 -0.0517735 -2.9392e-19)
(0.364369 -0.0613526 4.74143e-21)
(0.423883 -0.0698691 2.01746e-19)
(0.48472 -0.0770503 0)
(0.545959 -0.0825292 0)
(0.605581 -0.0864784 -7.38763e-20)
(0.666464 -0.0870653 6.55674e-20)
(0.713598 -0.0889331 -2.2114e-19)
(0.791446 -0.0789724 2.07504e-19)
(-0.0123138 0.0173864 0)
(-0.0264856 0.038525 0)
(-0.0321648 0.0499637 -2.05528e-19)
(-0.0305631 0.0541769 6.52345e-20)
(-0.0224301 0.0532183 2.76371e-23)
(-0.00819544 0.048702 1.15885e-19)
(0.0119572 0.0418221 0)
(0.0380199 0.0334257 -1.01879e-19)
(0.0700768 0.0241007 9.51052e-20)
(0.108219 0.0142584 -1.79966e-19)
(0.152466 0.00420233 2.24384e-22)
(0.202693 -0.00582223 1.57596e-19)
(0.258573 -0.0155952 -9.37855e-22)
(0.319536 -0.0249022 1.35444e-19)
(0.384755 -0.0335269 -1.93296e-19)
(0.453154 -0.0412521 0)
(0.523451 -0.0478653 2.13789e-19)
(0.59422 -0.0531669 -3.00111e-19)
(0.663941 -0.0570092 8.88761e-20)
(0.731374 -0.0591037 0)
(0.794123 -0.0599774 7.15212e-20)
(0.855267 -0.0574568 2.4927e-19)
(0.899683 -0.057418 -2.33944e-19)
(0.970052 -0.0453709 -2.41677e-19)
(-0.0128177 0.0159652 2.16123e-19)
(-0.0264155 0.0351563 -2.97373e-19)
(-0.029452 0.0454811 3.80272e-22)
(-0.0232481 0.0491041 6.62961e-20)
(-0.00863934 0.0479121 -1.24102e-19)
(0.0138862 0.0434415 -1.15269e-19)
(0.0440815 0.03686 2.17695e-19)
(0.0818533 0.0290271 -8.75268e-22)
(0.12715 0.0205698 -1.92288e-19)
(0.179842 0.0119507 3.60366e-19)
(0.239613 0.00352198 -6.73839e-22)
(0.305875 -0.00443679 -1.58408e-19)
(0.377706 -0.0116965 0)
(0.453845 -0.0180675 0)
(0.532722 -0.0233976 -6.36129e-20)
(0.612532 -0.0275733 -1.15756e-19)
(0.691351 -0.0305213 -2.10615e-19)
(0.767256 -0.0322161 1.97704e-19)
(0.838471 -0.0326655 -8.89107e-20)
(0.903526 -0.0318755 1.54642e-19)
(0.960883 -0.0301976 -7.88956e-20)
(1.01178 -0.0264953 1.15177e-19)
(1.04786 -0.0249827 -2.84412e-19)
(1.0963 -0.0141822 4.90687e-20)
(-0.0128869 0.0141639 7.3091e-20)
(-0.0247938 0.0305021 0)
(-0.0238926 0.0389213 1.41822e-19)
(-0.0115731 0.0413878 -1.33599e-19)
(0.0112771 0.0396642 1.24213e-19)
(0.0441153 0.0352217 0)
(0.086589 0.0291969 0)
(0.138409 0.0224471 -1.03015e-19)
(0.199196 0.0156143 6.54137e-22)
(0.26833 0.00917534 9.08262e-20)
(0.344821 0.00347681 -8.38934e-20)
(0.427253 -0.00124263 1.58221e-19)
(0.513776 -0.00483932 0)
(0.60219 -0.00725642 2.69172e-19)
(0.690072 -0.00851574 -5.00377e-19)
(0.774959 -0.00870728 3.48329e-19)
(0.854527 -0.00796989 2.06277e-19)
(0.926764 -0.00649328 -1.93641e-19)
(0.990154 -0.00441805 0)
(1.04361 -0.00207742 0)
(1.087 0.000717675 0)
(1.12029 0.00329089 0)
(1.14346 0.00577449 5.49726e-20)
(1.16666 0.0120033 -1.88609e-19)
(-0.16898 -0.188128 -5.8154e-21)
(-0.167625 -0.177561 5.83811e-21)
(-0.164672 -0.159681 -1.70292e-22)
(-0.160017 -0.13378 0)
(-0.153054 -0.0989942 -5.45076e-21)
(-0.143325 -0.0550703 1.05849e-20)
(-0.130733 -0.00193737 -4.8701e-23)
(-0.11526 0.0598004 -4.94815e-21)
(-0.0970019 0.128112 0)
(-0.0763737 0.200442 0)
(-0.0539997 0.273503 -2.32147e-22)
(-0.0310634 0.343378 -2.1111e-22)
(-0.00912378 0.406469 -3.29195e-21)
(0.0110031 0.459563 3.01487e-21)
(0.029984 0.498963 0)
(0.0504088 0.521153 0)
(0.0769811 0.520124 2.23609e-21)
(0.115066 0.488641 1.0082e-22)
(0.167846 0.421474 -2.05996e-21)
(0.233483 0.318403 -1.58716e-22)
(0.306316 0.185245 0)
(0.381276 0.0310625 0)
(0.455531 -0.131386 0)
(0.525253 -0.28096 0)
(0.584315 -0.396439 0)
(0.62684 -0.467957 0)
(0.651303 -0.498679 3.49213e-22)
(0.661352 -0.49923 -5.76574e-22)
(0.655345 -0.489888 0)
(0.623921 -0.493405 0)
(0.569846 -0.505798 -3.82762e-22)
(0.520526 -0.483131 3.72019e-22)
(0.507902 -0.378486 2.18277e-22)
(0.538831 -0.192983 0)
(0.59667 0.0231068 0)
(0.659678 0.214555 4.28887e-22)
(0.711066 0.348573 -4.16889e-22)
(0.749287 0.417187 0)
(0.772694 0.439428 2.35639e-22)
(0.767618 0.456921 -3.39428e-22)
(0.726479 0.484651 1.09379e-22)
(0.672915 0.477224 0)
(0.642663 0.374922 -2.96002e-22)
(0.653339 0.175449 2.87826e-22)
(0.687175 -0.0504011 0)
(0.734247 -0.23102 0)
(0.774212 -0.330312 -8.93687e-23)
(0.790795 -0.386106 2.44003e-22)
(0.761601 -0.4217 0)
(0.712117 -0.425286 0)
(0.667724 -0.346785 -6.1963e-23)
(0.661275 -0.179249 7.48217e-24)
(0.680191 0.00238767 -3.72055e-24)
(0.728638 0.173547 4.18584e-23)
(0.737963 0.256127 0)
(0.73189 0.348095 0)
(0.692126 0.324027 0)
(0.66604 0.263756 0)
(0.67347 0.127299 0)
(0.722989 -0.057074 0)
(-0.177437 -0.188311 -5.22386e-22)
(-0.180185 -0.17958 -2.15127e-20)
(-0.181244 -0.163612 4.06934e-22)
(-0.181241 -0.139989 1.98248e-20)
(-0.17936 -0.107887 2.80344e-22)
(-0.175012 -0.0669248 0)
(-0.167544 -0.0170915 -1.71855e-20)
(-0.156829 0.0414148 3.3484e-20)
(-0.142766 0.107072 -1.62947e-20)
(-0.125043 0.177338 1.44666e-20)
(-0.103707 0.249213 -1.38289e-20)
(-0.0792806 0.319253 1.19797e-20)
(-0.0523565 0.383449 -1.15953e-20)
(-0.0232453 0.437207 -3.04403e-22)
(0.009446 0.476233 -9.48167e-21)
(0.0483946 0.495842 9.21424e-21)
(0.0962572 0.489666 -9.38366e-21)
(0.155571 0.451645 8.81752e-21)
(0.226191 0.378892 -1.06709e-20)
(0.304067 0.273215 2.14751e-20)
(0.383729 0.140195 -1.07786e-20)
(0.461451 -0.0130299 -7.21327e-22)
(0.535591 -0.173472 -9.91736e-21)
(0.60164 -0.318708 1.80279e-20)
(0.652866 -0.426126 -8.15401e-21)
(0.684815 -0.486935 3.67521e-22)
(0.697156 -0.507658 4.09552e-21)
(0.695408 -0.499835 -5.8294e-22)
(0.682499 -0.4802 -5.7746e-21)
(0.649444 -0.471762 5.16874e-21)
(0.591853 -0.478948 -2.46908e-21)
(0.530738 -0.465223 3.1495e-22)
(0.500935 -0.379497 -2.18709e-22)
(0.517476 -0.211403 4.14146e-22)
(0.5674 -0.00379478 0)
(0.628554 0.188031 0)
(0.68406 0.3274 -1.26782e-21)
(0.730293 0.403024 9.63256e-22)
(0.760279 0.435131 7.04388e-22)
(0.758266 0.464655 1.06494e-22)
(0.719962 0.500325 -9.94521e-22)
(0.672952 0.491154 2.66039e-22)
(0.652092 0.379402 0)
(0.670475 0.170197 0)
(0.706819 -0.0617619 0)
(0.751094 -0.243789 0)
(0.786593 -0.338534 4.25907e-22)
(0.801592 -0.384478 -1.5723e-22)
(0.770395 -0.411454 0)
(0.720078 -0.413203 0)
(0.67349 -0.340253 0)
(0.664247 -0.180952 -9.34408e-23)
(0.681814 -0.00565651 1.84473e-23)
(0.726707 0.166755 -9.64487e-23)
(0.734572 0.255868 0)
(0.722627 0.353018 0)
(0.686604 0.330237 4.64898e-23)
(0.662206 0.265588 1.35318e-22)
(0.671981 0.122018 0)
(0.725999 -0.0621312 0)
(-0.149473 -0.187105 -9.03299e-22)
(-0.155936 -0.180404 -4.07139e-20)
(-0.159821 -0.166369 3.776e-20)
(-0.163202 -0.145012 -3.53555e-20)
(-0.165136 -0.115571 -2.82274e-22)
(-0.165039 -0.077656 0)
(-0.161879 -0.0312466 -2.93998e-20)
(-0.155147 0.023134 2.87255e-20)
(-0.144735 0.0852882 2.26315e-22)
(-0.129834 0.152419 3.42591e-22)
(-0.109393 0.221477 3.18016e-22)
(-0.0833227 0.290393 3.60731e-22)
(-0.0521338 0.352629 -1.91496e-20)
(-0.0152092 0.404559 1.89162e-20)
(0.0294347 0.442007 0)
(0.0831348 0.458744 5.37842e-22)
(0.146691 0.448699 -1.93527e-20)
(0.220299 0.407112 1.91061e-20)
(0.301731 0.332709 0)
(0.386203 0.228226 0)
(0.468768 0.09825 -2.51162e-20)
(0.547108 -0.0515354 4.86343e-20)
(0.619761 -0.207969 -4.39968e-20)
(0.680779 -0.34762 3.38879e-21)
(0.722851 -0.446949 3.08716e-20)
(0.743402 -0.498084 -2.47308e-20)
(0.744043 -0.510284 1.78528e-20)
(0.730878 -0.496617 -2.03704e-21)
(0.710437 -0.469879 -6.01843e-21)
(0.676347 -0.450488 0)
(0.618255 -0.450377 0)
(0.54864 -0.443218 1.93964e-21)
(0.502602 -0.376718 -2.44514e-21)
(0.503488 -0.228273 -7.52536e-23)
(0.54359 -0.0314934 3.05471e-21)
(0.601661 0.158971 -2.96873e-21)
(0.660747 0.302715 0)
(0.714012 0.385815 2.70207e-22)
(0.749618 0.428937 2.09614e-21)
(0.750551 0.470997 -4.13535e-21)
(0.715811 0.514355 1.82609e-21)
(0.676033 0.503465 3.04159e-22)
(0.66435 0.383097 -3.57268e-21)
(0.690176 0.165708 2.79714e-21)
(0.729329 -0.0709681 7.37233e-22)
(0.770581 -0.254195 6.0258e-22)
(0.800865 -0.345415 -4.2697e-22)
(0.813989 -0.382247 0)
(0.78092 -0.400893 0)
(0.729738 -0.401185 -7.4437e-22)
(0.681517 -0.334018 3.66098e-22)
(0.670115 -0.18299 -3.12031e-22)
(0.686086 -0.0136821 4.85353e-22)
(0.726285 0.160298 5.89462e-22)
(0.732474 0.256179 -1.58299e-22)
(0.714595 0.358128 2.4926e-22)
(0.682128 0.335981 -2.16353e-22)
(0.66029 0.267065 1.24885e-22)
(0.673141 0.116254 0)
(0.730508 -0.0675154 0)
(-0.0838791 -0.183779 -7.88689e-20)
(-0.0946539 -0.179335 4.50942e-21)
(-0.101214 -0.167603 7.03332e-20)
(-0.107389 -0.148713 -5.29261e-22)
(-0.112212 -0.122072 0)
(-0.115209 -0.0873213 0)
(-0.115631 -0.0445098 -4.83165e-20)
(-0.111869 0.00561736 2.14355e-21)
(-0.103844 0.0636376 6.37194e-20)
(-0.091533 0.127143 -1.0994e-21)
(-0.0717374 0.191999 -1.90264e-20)
(-0.0453091 0.256101 -1.64594e-20)
(-0.0121334 0.3146 1.64617e-20)
(0.0307125 0.364233 0)
(0.0834881 0.399385 -1.67777e-20)
(0.14649 0.413565 1.52442e-20)
(0.219379 0.401274 0)
(0.300719 0.358845 0)
(0.387158 0.286023 2.35857e-20)
(0.473777 0.185675 2.12298e-21)
(0.556513 0.0610096 -2.35456e-20)
(0.63423 -0.0836545 -2.53531e-20)
(0.70487 -0.235286 2.53506e-20)
(0.760526 -0.368735 -1.91491e-20)
(0.79297 -0.460116 3.93948e-21)
(0.801638 -0.50265 1.41456e-20)
(0.79103 -0.507522 1.1444e-21)
(0.767352 -0.48972 6.70679e-24)
(0.738865 -0.459097 0)
(0.703451 -0.43084 3.99896e-21)
(0.647545 -0.421427 -4.09888e-21)
(0.573617 -0.416986 2.61949e-22)
(0.513244 -0.368758 0)
(0.497489 -0.242333 -3.43283e-22)
(0.526138 -0.0593074 5.11031e-21)
(0.579922 0.127805 -9.07052e-21)
(0.641499 0.2749 -5.16098e-23)
(0.70045 0.365836 2.55267e-22)
(0.740639 0.420753 3.17969e-21)
(0.744445 0.475496 4.52488e-22)
(0.71394 0.526303 -4.40166e-21)
(0.681712 0.514007 3.70325e-21)
(0.678783 0.38638 -4.39718e-23)
(0.711676 0.162167 3.18729e-21)
(0.754062 -0.0780414 -3.83803e-21)
(0.792471 -0.262253 -4.07103e-21)
(0.816924 -0.351031 1.20062e-21)
(0.827736 -0.379645 1.12069e-21)
(0.792987 -0.390138 -1.91003e-21)
(0.740807 -0.389149 1.16682e-21)
(0.691264 -0.327997 -3.1312e-22)
(0.678324 -0.185301 3.26216e-22)
(0.692555 -0.0215448 2.39401e-22)
(0.727226 0.154267 -7.91754e-22)
(0.731611 0.257045 -1.53694e-23)
(0.707867 0.363438 -2.39643e-22)
(0.678749 0.341208 0)
(0.660264 0.268049 -1.04185e-22)
(0.676969 0.110054 2.91249e-22)
(0.736581 -0.0731098 0)
(0.0222744 -0.176875 7.55586e-20)
(0.00561121 -0.174324 -1.42149e-19)
(-0.00525817 -0.165834 6.60528e-20)
(-0.0153359 -0.150109 5.53481e-20)
(-0.023902 -0.12677 -1.03756e-19)
(-0.0303294 -0.0955652 4.09254e-21)
(-0.0341887 -0.0565975 4.35455e-20)
(-0.0330873 -0.0100535 3.54968e-20)
(-0.0265324 0.0423253 -3.47945e-20)
(-0.0167889 0.0994654 0)
(-6.97106e-05 0.159133 -2.88987e-20)
(0.0259192 0.217543 5.58493e-20)
(0.0606703 0.272714 -2.70753e-20)
(0.105985 0.319354 0)
(0.162188 0.351745 0)
(0.229094 0.364009 5.20966e-22)
(0.305556 0.351163 -3.91592e-20)
(0.389226 0.31019 3.8037e-20)
(0.476245 0.24128 0)
(0.561842 0.147076 5.28126e-20)
(0.643111 0.0291926 -1.0211e-19)
(0.719897 -0.10948 1.01221e-19)
(0.788617 -0.255416 -9.58207e-20)
(0.838702 -0.381714 6.10877e-21)
(0.861299 -0.46498 6.7646e-20)
(0.857999 -0.500218 -2.96838e-20)
(0.836713 -0.499545 -5.80032e-22)
(0.804086 -0.47909 -5.51279e-21)
(0.767905 -0.447315 1.31324e-21)
(0.73033 -0.413403 4.32687e-21)
(0.678154 -0.394305 2.15799e-22)
(0.60431 -0.388368 -3.18763e-21)
(0.532778 -0.355456 6.69691e-21)
(0.500202 -0.252404 -3.90812e-21)
(0.515921 -0.0862025 0)
(0.563964 0.0950316 -4.44129e-21)
(0.626539 0.244329 4.26857e-21)
(0.689482 0.343199 -3.01184e-21)
(0.733168 0.410318 3.73824e-21)
(0.739855 0.477654 -4.3606e-22)
(0.714175 0.535782 0)
(0.689582 0.52288 -6.29698e-22)
(0.694755 0.389461 2.31406e-21)
(0.734303 0.159748 0)
(0.780442 -0.0830388 7.62587e-21)
(0.816455 -0.267824 -3.17103e-21)
(0.834615 -0.355163 9.32188e-22)
(0.842574 -0.376655 6.47183e-22)
(0.806468 -0.379226 0)
(0.753111 -0.37708 0)
(0.702208 -0.322213 -7.4869e-22)
(0.688225 -0.187878 1.08888e-21)
(0.700716 -0.0291505 -6.07603e-22)
(0.729383 0.148703 1.78317e-22)
(0.731884 0.258417 4.41494e-22)
(0.702524 0.368936 2.39874e-22)
(0.676542 0.345879 -4.93055e-22)
(0.662004 0.268405 0)
(0.683299 0.103448 -4.25884e-22)
(0.744193 -0.0788134 -1.31198e-22)
(0.17109 -0.163808 7.37791e-20)
(0.149296 -0.162803 -7.31451e-20)
(0.131209 -0.15793 4.92472e-22)
(0.115284 -0.146432 -4.05927e-22)
(0.100657 -0.127667 3.87724e-22)
(0.0883878 -0.10136 -3.42349e-22)
(0.0792892 -0.0674954 5.18654e-22)
(0.0746395 -0.0261547 0)
(0.0760735 0.0200863 -3.84989e-22)
(0.0835247 0.0708473 3.54141e-22)
(0.0980854 0.125328 3.30717e-22)
(0.121884 0.179349 -3.96993e-22)
(0.155558 0.230117 0)
(0.2001 0.272891 0)
(0.255863 0.302474 4.02628e-22)
(0.322343 0.313522 0)
(0.397958 0.301469 -5.39762e-22)
(0.48003 0.263549 0)
(0.564667 0.199968 -4.68703e-20)
(0.647434 0.112825 9.6829e-20)
(0.726745 0.00240191 -1.01061e-19)
(0.802828 -0.129601 5.11082e-20)
(0.869556 -0.268678 4.57614e-20)
(0.913539 -0.386802 -4.44322e-20)
(0.926157 -0.461957 -3.11249e-20)
(0.911366 -0.491371 3.00002e-20)
(0.880155 -0.487219 0)
(0.84022 -0.46541 4.15223e-22)
(0.797445 -0.434293 0)
(0.756713 -0.39801 0)
(0.708506 -0.370343 4.80282e-21)
(0.638744 -0.359209 -4.96672e-21)
(0.560491 -0.337137 2.55179e-22)
(0.511819 -0.257435 4.15788e-22)
(0.513333 -0.111198 -3.30147e-22)
(0.554161 0.0613629 -3.11396e-21)
(0.615839 0.211416 3.0238e-21)
(0.680854 0.317976 -3.44701e-21)
(0.726982 0.397308 2.96377e-21)
(0.736588 0.476962 8.59585e-22)
(0.716191 0.542561 -4.68596e-21)
(0.699152 0.530276 -1.98994e-21)
(0.711832 0.392611 4.13024e-21)
(0.757617 0.158419 0)
(0.807857 -0.0861216 -3.40748e-21)
(0.842137 -0.270902 3.42563e-21)
(0.853776 -0.357663 -4.63766e-21)
(0.858218 -0.373321 -6.51271e-22)
(0.82114 -0.368239 0)
(0.7665 -0.364873 2.26372e-22)