# Force and moment coefficients
# dragDir     : (1.000000e+00 0.000000e+00 0.000000e+00)
# sideDir     : (0.000000e+00 0.000000e+00 -1.000000e+00)
# liftDir     : (0.000000e+00 1.000000e+00 0.000000e+00)
# rollAxis    : (1.000000e+00 0.000000e+00 0.000000e+00)
# pitchAxis   : (0.000000e+00 0.000000e+00 -1.000000e+00)
# yawAxis     : (0.000000e+00 1.000000e+00 0.000000e+00)
# magUInf     : 1.000000e+00
# lRef        : 2.000000e+00
# Aref        : 2.000000e+00
# CofR        : (0.000000e+00 0.000000e+00 0.000000e+00)
#
# Time        	Cd            	Cd(f)         	Cd(r)         	Cl            	Cl(f)         	Cl(r)         	CmPitch       	CmRoll        	CmYaw         	Cs            	Cs(f)         	Cs(r)         
0.25          	2.503939e+00	1.251969e+00	1.251969e+00	-1.012715e-01	-5.649111e-02	-4.478040e-02	-5.855355e-03	-7.035651e-21	-1.699479e-20	-5.780563e-20	-4.589760e-20	-1.190803e-20
0.5           	1.810705e+00	9.053525e-01	9.053525e-01	-1.699563e-02	-1.022267e-02	-6.772958e-03	-1.724855e-03	-7.829621e-21	-1.271155e-20	-5.863637e-20	-4.202973e-20	-1.660664e-20
0.75          	1.606863e+00	8.034313e-01	8.034313e-01	6.524918e-03	2.364289e-03	4.160629e-03	-8.981702e-04	-9.953684e-21	-1.170268e-20	-5.808275e-20	-4.074405e-20	-1.733870e-20
1             	1.532133e+00	7.660665e-01	7.660665e-01	1.568539e-02	7.266536e-03	8.418856e-03	-5.761599e-04	-1.240172e-20	-1.155314e-20	-5.734023e-20	-4.022326e-20	-1.711697e-20
1.25          	1.509329e+00	7.546647e-01	7.546647e-01	1.964174e-02	9.401835e-03	1.023990e-02	-4.190332e-04	-1.490787e-20	-1.170785e-20	-5.653081e-20	-3.997325e-20	-1.655756e-20
1.5           	1.509260e+00	7.546302e-01	7.546302e-01	2.158700e-02	1.045806e-02	1.112893e-02	-3.354358e-04	-1.730363e-20	-1.195928e-20	-5.563188e-20	-3.977522e-20	-1.585666e-20
1.75          	1.518561e+00	7.592804e-01	7.592804e-01	2.208247e-02	1.075174e-02	1.133073e-02	-2.894945e-04	-1.948252e-20	-1.221705e-20	-5.468224e-20	-3.955817e-20	-1.512407e-20
2             	1.530275e+00	7.651374e-01	7.651374e-01	2.174955e-02	1.061113e-02	1.113842e-02	-2.636412e-04	-2.137671e-20	-1.243521e-20	-5.370002e-20	-3.928522e-20	-1.441480e-20
2.25          	1.540931e+00	7.704656e-01	7.704656e-01	2.094398e-02	1.022266e-02	1.072132e-02	-2.493285e-04	-2.295109e-20	-1.260431e-20	-5.269064e-20	-3.894963e-20	-1.374101e-20
2.5           	1.548778e+00	7.743892e-01	7.743892e-01	1.991756e-02	9.717080e-03	1.020049e-02	-2.417029e-04	-2.421969e-20	-1.272060e-20	-5.166028e-20	-3.855074e-20	-1.310954e-20
2.75          	1.553223e+00	7.766117e-01	7.766117e-01	1.870096e-02	9.113328e-03	9.587629e-03	-2.371505e-04	-2.520724e-20	-1.278852e-20	-5.063341e-20	-3.810523e-20	-1.252818e-20
3             	1.554252e+00	7.771258e-01	7.771258e-01	1.750266e-02	8.518203e-03	8.984456e-03	-2.331263e-04	-2.594880e-20	-1.281433e-20	-4.961826e-20	-3.762346e-20	-1.199481e-20
3.25          	1.552275e+00	7.761377e-01	7.761377e-01	1.624217e-02	7.892668e-03	8.349498e-03	-2.284146e-04	-2.648760e-20	-1.280831e-20	-4.863143e-20	-3.712402e-20	-1.150741e-20
3.5           	1.547598e+00	7.737992e-01	7.737992e-01	1.497586e-02	7.265279e-03	7.710581e-03	-2.226511e-04	-2.686337e-20	-1.277528e-20	-4.768417e-20	-3.661737e-20	-1.106681e-20
3.75          	1.540875e+00	7.704375e-01	7.704375e-01	1.372523e-02	6.646825e-03	7.078401e-03	-2.157879e-04	-2.710595e-20	-1.272311e-20	-4.678193e-20	-3.611408e-20	-1.066785e-20
4             	1.532622e+00	7.663110e-01	7.663110e-01	1.253933e-02	6.061673e-03	6.477654e-03	-2.079906e-04	-2.725153e-20	-1.265722e-20	-4.592780e-20	-3.562112e-20	-1.030668e-20
4.25          	1.523248e+00	7.616238e-01	7.616238e-01	1.157542e-02	5.588384e-03	5.987036e-03	-1.993258e-04	-2.732013e-20	-1.257808e-20	-4.510775e-20	-3.513196e-20	-9.975795e-21
4.5           	1.513186e+00	7.565930e-01	7.565930e-01	1.067025e-02	5.145469e-03	5.524783e-03	-1.896572e-04	-2.733374e-20	-1.249373e-20	-4.433655e-20	-3.466200e-20	-9.674550e-21
4.75          	1.502814e+00	7.514068e-01	7.514068e-01	9.872283e-03	4.757281e-03	5.115002e-03	-1.788603e-04	-2.731052e-20	-1.240735e-20	-4.360952e-20	-3.421211e-20	-9.397407e-21
5             	1.492197e+00	7.460983e-01	7.460983e-01	9.144344e-03	4.405340e-03	4.739004e-03	-1.668322e-04	-2.725849e-20	-1.231851e-20	-4.291723e-20	-3.377712e-20	-9.140106e-21
5.25          	1.481585e+00	7.407924e-01	7.407924e-01	8.658500e-03	4.175692e-03	4.482808e-03	-1.535583e-04	-2.718807e-20	-1.222962e-20	-4.225702e-20	-3.335813e-20	-8.898888e-21
5.5           	1.471354e+00	7.356769e-01	7.356769e-01	8.312360e-03	4.017074e-03	4.295286e-03	-1.391061e-04	-2.710756e-20	-1.214383e-20	-4.164599e-20	-3.296682e-20	-8.679163e-21
5.75          	1.461358e+00	7.306789e-01	7.306789e-01	8.211118e-03	3.981887e-03	4.229231e-03	-1.236720e-04	-2.701760e-20	-1.205966e-20	-4.105645e-20	-3.258789e-20	-8.468561e-21
6             	1.451546e+00	7.257729e-01	7.257729e-01	8.196926e-03	3.991049e-03	4.205877e-03	-1.074137e-04	-2.692390e-20	-1.197736e-20	-4.048688e-20	-3.222080e-20	-8.266087e-21
6.25          	1.442222e+00	7.211108e-01	7.211108e-01	8.366286e-03	4.092627e-03	4.273660e-03	-9.051637e-05	-2.682905e-20	-1.189840e-20	-3.994953e-20	-3.187317e-20	-8.076363e-21
6.5           	1.433174e+00	7.165871e-01	7.165871e-01	8.589842e-03	4.221730e-03	4.368112e-03	-7.319079e-05	-2.673487e-20	-1.182168e-20	-3.942810e-20	-3.153573e-20	-7.892367e-21
6.75          	1.424678e+00	7.123388e-01	7.123388e-01	8.977772e-03	4.433198e-03	4.544574e-03	-5.568785e-05	-2.664148e-20	-1.174995e-20	-3.894283e-20	-3.122136e-20	-7.721467e-21
7             	1.416336e+00	7.081679e-01	7.081679e-01	9.538849e-03	4.731125e-03	4.807724e-03	-3.829944e-05	-2.654793e-20	-1.167806e-20	-3.845445e-20	-3.090529e-20	-7.549163e-21
7.25          	1.408518e+00	7.042590e-01	7.042590e-01	1.012803e-02	5.042727e-03	5.085307e-03	-2.129044e-05	-2.645733e-20	-1.161107e-20	-3.799812e-20	-3.061013e-20	-7.387992e-21
7.5           	1.400896e+00	7.004478e-01	7.004478e-01	1.088550e-02	5.437872e-03	5.447629e-03	-4.878138e-06	-2.636679e-20	-1.154456e-20	-3.754172e-20	-3.031542e-20	-7.226299e-21
7.75          	1.393776e+00	6.968881e-01	6.968881e-01	1.166936e-02	5.845437e-03	5.823919e-03	1.075904e-05	-2.627922e-20	-1.148231e-20	-3.711872e-20	-3.004167e-20	-7.077054e-21
8             	1.387014e+00	6.935071e-01	6.935071e-01	1.250758e-02	6.279230e-03	6.228348e-03	2.544087e-05	-2.619351e-20	-1.142340e-20	-3.671356e-20	-2.978018e-20	-6.933380e-21
8.25          	1.380438e+00	6.902189e-01	6.902189e-01	1.343793e-02	6.757938e-03	6.679990e-03	3.897381e-05	-2.610825e-20	-1.136500e-20	-3.631036e-20	-2.952018e-20	-6.790182e-21
8.5           	1.374057e+00	6.870286e-01	6.870286e-01	1.434972e-02	7.226066e-03	7.123656e-03	5.120532e-05	-2.602532e-20	-1.130765e-20	-3.591431e-20	-2.926480e-20	-6.649507e-21
8.75          	1.368126e+00	6.840632e-01	6.840632e-01	1.536744e-02	7.745720e-03	7.621720e-03	6.200031e-05	-2.594395e-20	-1.125427e-20	-3.554640e-20	-2.902746e-20	-6.518931e-21
9             	1.362562e+00	6.812809e-01	6.812809e-01	1.632734e-02	8.234879e-03	8.092458e-03	7.121060e-05	-2.586549e-20	-1.120472e-20	-3.520763e-20	-2.880853e-20	-6.399095e-21
9.25          	1.356860e+00	6.784301e-01	6.784301e-01	1.729132e-02	8.724375e-03	8.566941e-03	7.871668e-05	-2.578767e-20	-1.115266e-20	-3.483939e-20	-2.857235e-20	-6.267040e-21
9.5           	1.351578e+00	6.757889e-01	6.757889e-01	1.821861e-02	9.193713e-03	9.024899e-03	8.440685e-05	-2.571233e-20	-1.110450e-20	-3.450492e-20	-2.835696e-20	-6.147958e-21
9.75          	1.346415e+00	6.732077e-01	6.732077e-01	1.913492e-02	9.655690e-03	9.479225e-03	8.823248e-05	-2.563865e-20	-1.105684e-20	-3.417100e-20	-2.814234e-20	-6.028654e-21
10            	1.341573e+00	6.707863e-01	6.707863e-01	1.996301e-02	1.007164e-02	9.891369e-03	9.013502e-05	-2.556773e-20	-1.101307e-20	-3.386185e-20	-2.794399e-20	-5.917853e-21
10.25         	1.336937e+00	6.684685e-01	6.684685e-01	2.078872e-02	1.048445e-02	1.030427e-02	9.009122e-05	-2.549846e-20	-1.097070e-20	-3.356851e-20	-2.775495e-20	-5.813552e-21
10.5          	1.332291e+00	6.661454e-01	6.661454e-01	2.147012e-02	1.082315e-02	1.064697e-02	8.809060e-05	-2.543177e-20	-1.092809e-20	-3.326021e-20	-2.755819e-20	-5.702013e-21
10.75         	1.327923e+00	6.639617e-01	6.639617e-01	2.209049e-02	1.112939e-02	1.096110e-02	8.414756e-05	-2.536755e-20	-1.088844e-20	-3.297750e-20	-2.737719e-20	-5.600312e-21
11            	1.323779e+00	6.618893e-01	6.618893e-01	2.266564e-02	1.141113e-02	1.125451e-02	7.830819e-05	-2.530543e-20	-1.085084e-20	-3.271399e-20	-2.720784e-20	-5.506151e-21
11.25         	1.319637e+00	6.598187e-01	6.598187e-01	2.306980e-02	1.160554e-02	1.146426e-02	7.064175e-05	-2.524627e-20	-1.081347e-20	-3.244034e-20	-2.703364e-20	-5.406698e-21
11.5          	1.315782e+00	6.578910e-01	6.578910e-01	2.337232e-02	1.174741e-02	1.162491e-02	6.124667e-05	-2.519035e-20	-1.077959e-20	-3.219126e-20	-2.687522e-20	-5.316036e-21
11.75         	1.311981e+00	6.559904e-01	6.559904e-01	2.360252e-02	1.185152e-02	1.175101e-02	5.025358e-05	-2.513612e-20	-1.074651e-20	-3.194690e-20	-2.671996e-20	-5.226936e-21
12            	1.308225e+00	6.541127e-01	6.541127e-01	2.366232e-02	1.186895e-02	1.179337e-02	3.779026e-05	-2.508520e-20	-1.071386e-20	-3.169878e-20	-2.656325e-20	-5.135530e-21
12.25         	1.304738e+00	6.523690e-01	6.523690e-01	2.355890e-02	1.180347e-02	1.175543e-02	2.401817e-05	-2.503772e-20	-1.068464e-20	-3.147548e-20	-2.642238e-20	-5.053101e-21
12.5          	1.301337e+00	6.506684e-01	6.506684e-01	2.339989e-02	1.170908e-02	1.169080e-02	9.138959e-06	-2.499211e-20	-1.065639e-20	-3.125929e-20	-2.628603e-20	-4.973259e-21
12.75         	1.297996e+00	6.489981e-01	6.489981e-01	2.303876e-02	1.151271e-02	1.152604e-02	-6.662664e-06	-2.494988e-20	-1.062936e-20	-3.104241e-20	-2.615056e-20	-4.891846e-21
13            	1.294770e+00	6.473848e-01	6.473848e-01	2.258630e-02	1.126997e-02	1.131633e-02	-2.317991e-05	-2.490985e-20	-1.060365e-20	-3.083583e-20	-2.602157e-20	-4.814263e-21
13.25         	1.291729e+00	6.458646e-01	6.458646e-01	2.194587e-02	1.093277e-02	1.101311e-02	-4.016834e-05	-2.487370e-20	-1.058076e-20	-3.064242e-20	-2.590197e-20	-4.740445e-21
13.5          	1.288710e+00	6.443552e-01	6.443552e-01	2.122507e-02	1.055515e-02	1.066992e-02	-5.738614e-05	-2.483900e-20	-1.055850e-20	-3.045163e-20	-2.578431e-20	-4.667318e-21
13.75         	1.285805e+00	6.429026e-01	6.429026e-01	2.040227e-02	1.012653e-02	1.027573e-02	-7.460046e-05	-2.480688e-20	-1.053808e-20	-3.026901e-20	-2.567258e-20	-4.596425e-21
14            	1.283051e+00	6.415253e-01	6.415253e-01	1.941516e-02	9.615987e-03	9.799170e-03	-9.159161e-05	-2.477802e-20	-1.051997e-20	-3.010433e-20	-2.557214e-20	-4.532194e-21
14.25         	1.280304e+00	6.401522e-01	6.401522e-01	1.832286e-02	9.053315e-03	9.269543e-03	-1.081140e-04	-2.475110e-20	-1.050280e-20	-2.992970e-20	-2.546765e-20	-4.462046e-21
14.5          	1.277679e+00	6.388395e-01	6.388395e-01	1.717355e-02	8.462822e-03	8.710733e-03	-1.239555e-04	-2.472584e-20	-1.048731e-20	-2.977113e-20	-2.537288e-20	-4.398252e-21
14.75         	1.275134e+00	6.375672e-01	6.375672e-01	1.590870e-02	7.815429e-03	8.093269e-03	-1.389197e-04	-2.470309e-20	-1.047351e-20	-2.961586e-20	-2.528144e-20	-4.334416e-21
15            	1.272650e+00	6.363252e-01	6.363252e-01	1.447420e-02	7.084289e-03	7.389908e-03	-1.528094e-04	-2.468343e-20	-1.046112e-20	-2.946218e-20	-2.519221e-20	-4.269973e-21
15.25         	1.270265e+00	6.351325e-01	6.351325e-01	1.304177e-02	6.355461e-03	6.686308e-03	-1.654237e-04	-2.466447e-20	-1.045067e-20	-2.932269e-20	-2.511202e-20	-4.210671e-21
15.5          	1.267951e+00	6.339754e-01	6.339754e-01	1.153038e-02	5.588600e-03	5.941783e-03	-1.765916e-04	-2.464753e-20	-1.044185e-20	-2.918543e-20	-2.503457e-20	-4.150864e-21
15.75         	1.265723e+00	6.328615e-01	6.328615e-01	9.930860e-03	4.779268e-03	5.151592e-03	-1.861623e-04	-2.463262e-20	-1.043479e-20	-2.905306e-20	-2.496131e-20	-4.091741e-21
16            	1.263519e+00	6.317597e-01	6.317597e-01	8.293008e-03	3.952511e-03	4.340497e-03	-1.939934e-04	-2.461901e-20	-1.042891e-20	-2.891805e-20	-2.488793e-20	-4.030117e-21
16.25         	1.261438e+00	6.307188e-01	6.307188e-01	6.625093e-03	3.112585e-03	3.512508e-03	-1.999616e-04	-2.460680e-20	-1.042544e-20	-2.879695e-20	-2.482392e-20	-3.973033e-21
16.5          	1.259398e+00	6.296988e-01	6.296988e-01	4.941730e-03	2.266884e-03	2.674847e-03	-2.039814e-04	-2.459560e-20	-1.042321e-20	-2.867527e-20	-2.476084e-20	-3.914429e-21
16.75         	1.257456e+00	6.287281e-01	6.287281e-01	3.176563e-03	1.382298e-03	1.794265e-03	-2.059839e-04	-2.458647e-20	-1.042317e-20	-2.855866e-20	-2.470250e-20	-3.856164e-21
17            	1.255493e+00	6.277464e-01	6.277464e-01	1.489221e-03	5.386994e-04	9.505220e-04	-2.059113e-04	-2.457683e-20	-1.042367e-20	-2.843934e-20	-2.464334e-20	-3.795999e-21
17.25         	1.253638e+00	6.268191e-01	6.268191e-01	-2.553839e-04	-3.314338e-04	7.604994e-05	-2.037419e-04	-2.456896e-20	-1.042641e-20	-2.832535e-20	-2.458909e-20	-3.736262e-21
17.5          	1.251809e+00	6.259043e-01	6.259043e-01	-1.927559e-03	-1.163248e-03	-7.643109e-04	-1.994686e-04	-2.456087e-20	-1.043027e-20	-2.821513e-20	-2.453783e-20	-3.677298e-21
17.75         	1.250053e+00	6.250267e-01	6.250267e-01	-3.598850e-03	-1.992539e-03	-1.606310e-03	-1.931144e-04	-2.455363e-20	-1.043586e-20	-2.810531e-20	-2.448851e-20	-3.616799e-21
18            	1.248339e+00	6.241697e-01	6.241697e-01	-5.241600e-03	-2.805517e-03	-2.436084e-03	-1.847163e-04	-2.454675e-20	-1.044273e-20	-2.799583e-20	-2.444064e-20	-3.555191e-21
18.25         	1.246665e+00	6.233326e-01	6.233326e-01	-6.827742e-03	-3.588201e-03	-3.239541e-03	-1.743296e-04	-2.453984e-20	-1.045083e-20	-2.788953e-20	-2.439559e-20	-3.493940e-21
18.5          	1.245086e+00	6.225430e-01	6.225430e-01	-8.313626e-03	-4.318844e-03	-3.994782e-03	-1.620313e-04	-2.453250e-20	-1.046070e-20	-2.779194e-20	-2.435666e-20	-3.435273e-21
18.75         	1.243433e+00	6.217163e-01	6.217163e-01	-9.730979e-03	-5.013411e-03	-4.717569e-03	-1.479209e-04	-2.452468e-20	-1.047012e-20	-2.767605e-20	-2.430815e-20	-3.367904e-21
19            	1.241892e+00	6.209458e-01	6.209458e-01	-1.106947e-02	-5.666845e-03	-5.402628e-03	-1.321088e-04	-2.451668e-20	-1.048123e-20	-2.757281e-20	-2.426763e-20	-3.305176e-21
19.25         	1.240391e+00	6.201953e-01	6.201953e-01	-1.227286e-02	-6.251138e-03	-6.021720e-03	-1.147091e-04	-2.450764e-20	-1.049297e-20	-2.747118e-20	-2.422856e-20	-3.242614e-21
19.5          	1.238886e+00	6.194430e-01	6.194430e-01	-1.337668e-02	-6.784191e-03	-6.592485e-03	-9.585293e-05	-2.449771e-20	-1.050481e-20	-2.736620e-20	-2.418790e-20	-3.178292e-21
19.75         	1.237435e+00	6.187173e-01	6.187173e-01	-1.432299e-02	-7.237170e-03	-7.085824e-03	-7.567313e-05	-2.448652e-20	-1.051688e-20	-2.726429e-20	-2.414902e-20	-3.115265e-21
20            	1.235993e+00	6.179963e-01	6.179963e-01	-1.511650e-02	-7.612565e-03	-7.503936e-03	-5.431438e-05	-2.447388e-20	-1.052867e-20	-2.716290e-20	-2.411012e-20	-3.052782e-21
20.25         	1.234589e+00	6.172943e-01	6.172943e-01	-1.573736e-02	-7.900603e-03	-7.836753e-03	-3.192496e-05	-2.445965e-20	-1.054018e-20	-2.705868e-20	-2.406952e-20	-2.989155e-21
20.5          	1.233215e+00	6.166075e-01	6.166075e-01	-1.615866e-02	-8.087987e-03	-8.070669e-03	-8.658933e-06	-2.444373e-20	-1.055094e-20	-2.696125e-20	-2.403156e-20	-2.929686e-21
20.75         	1.231863e+00	6.159316e-01	6.159316e-01	-1.638558e-02	-8.177468e-03	-8.208112e-03	1.532209e-05	-2.442601e-20	-1.056064e-20	-2.686578e-20	-2.399353e-20	-2.872251e-21
21            	1.230515e+00	6.152577e-01	6.152577e-01	-1.640209e-02	-8.161196e-03	-8.240896e-03	3.985016e-05	-2.440600e-20	-1.056904e-20	-2.676452e-20	-2.395130e-20	-2.813213e-21
21.25         	1.229208e+00	6.146040e-01	6.146040e-01	-1.618024e-02	-8.025371e-03	-8.154868e-03	6.474830e-05	-2.438368e-20	-1.057622e-20	-2.666721e-20	-2.390982e-20	-2.757390e-21
21.5          	1.227887e+00	6.139437e-01	6.139437e-01	-1.569511e-02	-7.757723e-03	-7.937387e-03	8.983213e-05	-2.435847e-20	-1.058120e-20	-2.656804e-20	-2.386522e-20	-2.702819e-21
21.75         	1.226635e+00	6.133177e-01	6.133177e-01	-1.501155e-02	-7.390871e-03	-7.620679e-03	1.149036e-04	-2.433154e-20	-1.058488e-20	-2.647430e-20	-2.382203e-20	-2.652267e-21
22            	1.225370e+00	6.126849e-01	6.126849e-01	-1.408181e-02	-6.901148e-03	-7.180659e-03	1.397554e-04	-2.430207e-20	-1.058607e-20	-2.637757e-20	-2.377486e-20	-2.602714e-21
22.25         	1.224160e+00	6.120802e-01	6.120802e-01	-1.285736e-02	-6.264514e-03	-6.592846e-03	1.641660e-04	-2.426941e-20	-1.058548e-20	-2.629048e-20	-2.373072e-20	-2.559760e-21
22.5          	1.222917e+00	6.114583e-01	6.114583e-01	-1.141550e-02	-5.519863e-03	-5.895633e-03	1.878849e-04	-2.423465e-20	-1.058178e-20	-2.618493e-20	-2.367425e-20	-2.510689e-21
22.75         	1.221734e+00	6.108669e-01	6.108669e-01	-9.740876e-03	-4.659778e-03	-5.081098e-03	2.106600e-04	-2.419774e-20	-1.057626e-20	-2.609359e-20	-2.362305e-20	-2.470539e-21
23            	1.220560e+00	6.102801e-01	6.102801e-01	-7.847284e-03	-3.691428e-03	-4.155856e-03	2.322140e-04	-2.415879e-20	-1.056818e-20	-2.599907e-20	-2.356772e-20	-2.431352e-21
23.25         	1.219413e+00	6.097066e-01	6.097066e-01	-5.754263e-03	-2.624881e-03	-3.129382e-03	2.522504e-04	-2.411794e-20	-1.055770e-20	-2.590614e-20	-2.351077e-20	-2.395368e-21
23.5          	1.218297e+00	6.091483e-01	6.091483e-01	-3.472023e-03	-1.465554e-03	-2.006469e-03	2.704577e-04	-2.407553e-20	-1.054489e-20	-2.581409e-20	-2.345193e-20	-2.362153e-21
23.75         	1.217165e+00	6.085823e-01	6.085823e-01	-1.113185e-03	-2.700767e-04	-8.431088e-04	2.865161e-04	-2.403286e-20	-1.052977e-20	-2.571444e-20	-2.338699e-20	-2.327447e-21
24            	1.216099e+00	6.080495e-01	6.080495e-01	1.452951e-03	1.026584e-03	4.263670e-04	3.001085e-04	-2.398842e-20	-1.051297e-20	-2.562132e-20	-2.332363e-20	-2.297686e-21
24.25         	1.215044e+00	6.075222e-01	6.075222e-01	4.019807e-03	2.320792e-03	1.699015e-03	3.108884e-04	-2.394466e-20	-1.049444e-20	-2.552768e-20	-2.325828e-20	-2.269403e-21
24.5          	1.214006e+00	6.070031e-01	6.070031e-01	6.661298e-03	3.649188e-03	3.012110e-03	3.185389e-04	-2.390064e-20	-1.047421e-20	-2.543101e-20	-2.318971e-20	-2.241292e-21
24.75         	1.213004e+00	6.065019e-01	6.065019e-01	9.344592e-03	4.995039e-03	4.349553e-03	3.227432e-04	-2.385664e-20	-1.045268e-20	-2.533866e-20	-2.312201e-20	-2.216650e-21
25            	1.212032e+00	6.060160e-01	6.060160e-01	1.192952e-02	6.287976e-03	5.641548e-03	3.232144e-04	-2.381454e-20	-1.043039e-20	-2.524243e-20	-2.305161e-20	-2.190824e-21
25.25         	1.211068e+00	6.055342e-01	6.055342e-01	1.446347e-02	7.551438e-03	6.912032e-03	3.197030e-04	-2.377351e-20	-1.040724e-20	-2.514606e-20	-2.298028e-20	-2.165786e-21
25.5          	1.210126e+00	6.050629e-01	6.050629e-01	1.675297e-02	8.688488e-03	8.064486e-03	3.120013e-04	-2.373597e-20	-1.038398e-20	-2.504673e-20	-2.290734e-20	-2.139384e-21
25.75         	1.209212e+00	6.046060e-01	6.046060e-01	1.894597e-02	9.772969e-03	9.172997e-03	2.999858e-04	-2.369994e-20	-1.036065e-20	-2.495172e-20	-2.283651e-20	-2.115209e-21
26            	1.208338e+00	6.041689e-01	6.041689e-01	2.092634e-02	1.074675e-02	1.017959e-02	2.835821e-04	-2.366695e-20	-1.033792e-20	-2.485591e-20	-2.276588e-20	-2.090036e-21
26.25         	1.207491e+00	6.037456e-01	6.037456e-01	2.264000e-02	1.158278e-02	1.105722e-02	2.627832e-04	-2.363747e-20	-1.031574e-20	-2.476312e-20	-2.269729e-20	-2.065820e-21
26.5          	1.206659e+00	6.033294e-01	6.033294e-01	2.407236e-02	1.227384e-02	1.179851e-02	2.376653e-04	-2.361147e-20	-1.029439e-20	-2.467108e-20	-2.262992e-20	-2.041153e-21
26.75         	1.205831e+00	6.029154e-01	6.029154e-01	2.515333e-02	1.278505e-02	1.236828e-02	2.083864e-04	-2.358976e-20	-1.027398e-20	-2.458202e-20	-2.256499e-20	-2.017027e-21
27            	1.205054e+00	6.025270e-01	6.025270e-01	2.598144e-02	1.316591e-02	1.281553e-02	1.751906e-04	-2.357117e-20	-1.025525e-20	-2.449833e-20	-2.250442e-20	-1.993917e-21
27.25         	1.204271e+00	6.021356e-01	6.021356e-01	2.645075e-02	1.336378e-02	1.308698e-02	1.383977e-04	-2.355680e-20	-1.023769e-20	-2.441292e-20	-2.244415e-20	-1.968771e-21
27.5          	1.203512e+00	6.017560e-01	6.017560e-01	2.654098e-02	1.336890e-02	1.317209e-02	9.840455e-05	-2.354686e-20	-1.022185e-20	-2.433657e-20	-2.239013e-20	-1.946441e-21
27.75         	1.202781e+00	6.013907e-01	6.013907e-01	2.632837e-02	1.321988e-02	1.310849e-02	5.569203e-05	-2.354041e-20	-1.020791e-20	-2.426416e-20	-2.233999e-20	-1.924171e-21
28            	1.202058e+00	6.010290e-01	6.010290e-01	2.573056e-02	1.287608e-02	1.285448e-02	1.079789e-05	-2.353834e-20	-1.019560e-20	-2.419615e-20	-2.229367e-20	-1.902475e-21
28.25         	1.201334e+00	6.006672e-01	6.006672e-01	2.478841e-02	1.235853e-02	1.242988e-02	-3.567644e-05	-2.354012e-20	-1.018497e-20	-2.413274e-20	-2.225135e-20	-1.881399e-21
28.5          	1.200649e+00	6.003247e-01	6.003247e-01	2.354552e-02	1.168967e-02	1.185585e-02	-8.309065e-05	-2.354521e-20	-1.017656e-20	-2.407983e-20	-2.221647e-20	-1.863356e-21
28.75         	1.199949e+00	5.999745e-01	5.999745e-01	2.200313e-02	1.087080e-02	1.113233e-02	-1.307667e-04	-2.355350e-20	-1.016959e-20	-2.402896e-20	-2.218407e-20	-1.844891e-21
29            	1.199282e+00	5.996408e-01	5.996408e-01	2.013776e-02	9.890861e-03	1.024690e-02	-1.780202e-04	-2.356543e-20	-1.016478e-20	-2.398902e-20	-2.215929e-20	-1.829727e-21
29.25         	1.198591e+00	5.992955e-01	5.992955e-01	1.803812e-02	8.794907e-03	9.243210e-03	-2.241513e-04	-2.357972e-20	-1.016127e-20	-2.394865e-20	-2.213560e-20	-1.813052e-21
29.5          	1.197942e+00	5.989709e-01	5.989709e-01	1.567015e-02	7.566595e-03	8.103551e-03	-2.684780e-04	-2.359698e-20	-1.015993e-20	-2.392250e-20	-2.212118e-20	-1.801325e-21
29.75         	1.197295e+00	5.986475e-01	5.986475e-01	1.313239e-02	6.255867e-03	6.876528e-03	-3.103304e-04	-2.361598e-20	-1.016017e-20	-2.390003e-20	-2.211019e-20	-1.789849e-21
30            	1.196662e+00	5.983308e-01	5.983308e-01	1.040357e-02	4.852702e-03	5.550869e-03	-3.490836e-04	-2.363701e-20	-1.016208e-20	-2.388620e-20	-2.210518e-20	-1.781017e-21
30.25         	1.196033e+00	5.980164e-01	5.980164e-01	7.529021e-03	3.380359e-03	4.148662e-03	-3.841514e-04	-2.365952e-20	-1.016543e-20	-2.387775e-20	-2.210431e-20	-1.773444e-21
30.5          	1.195431e+00	5.977155e-01	5.977155e-01	4.534457e-03	1.852223e-03	2.682234e-03	-4.150058e-04	-2.368341e-20	-1.017033e-20	-2.387732e-20	-2.210899e-20	-1.768334e-21
30.75         	1.194807e+00	5.974034e-01	5.974034e-01	1.456287e-03	2.869647e-04	1.169323e-03	-4.411790e-04	-2.370799e-20	-1.017627e-20	-2.387473e-20	-2.211364e-20	-1.761097e-21
31            	1.194215e+00	5.971074e-01	5.971074e-01	-1.668180e-03	-1.296353e-03	-3.718265e-04	-4.622634e-04	-2.373310e-20	-1.018361e-20	-2.388380e-20	-2.212551e-20	-1.758289e-21
31.25         	1.193650e+00	5.968249e-01	5.968249e-01	-4.817436e-03	-2.886650e-03	-1.930786e-03	-4.779323e-04	-2.375862e-20	-1.019222e-20	-2.389637e-20	-2.214040e-20	-1.755969e-21
31.5          	1.193116e+00	5.965580e-01	5.965580e-01	-7.902887e-03	-4.439365e-03	-3.463522e-03	-4.879215e-04	-2.378334e-20	-1.020209e-20	-2.391568e-20	-2.215994e-20	-1.755748e-21
31.75         	1.192583e+00	5.962913e-01	5.962913e-01	-1.098962e-02	-5.986877e-03	-5.002744e-03	-4.920666e-04	-2.380804e-20	-1.021274e-20	-2.393581e-20	-2.218064e-20	-1.755169e-21
32            	1.192041e+00	5.960207e-01	5.960207e-01	-1.389203e-02	-7.436283e-03	-6.455745e-03	-4.902693e-04	-2.383069e-20	-1.022362e-20	-2.395338e-20	-2.220031e-20	-1.753075e-21
32.25         	1.191509e+00	5.957545e-01	5.957545e-01	-1.680980e-02	-8.887420e-03	-7.922379e-03	-4.825204e-04	-2.385359e-20	-1.023520e-20	-2.397579e-20	-2.222310e-20	-1.752694e-21
32.5          	1.191038e+00	5.955189e-01	5.955189e-01	-1.945975e-02	-1.019874e-02	-9.261009e-03	-4.688635e-04	-2.387366e-20	-1.024760e-20	-2.399669e-20	-2.224595e-20	-1.750744e-21
32.75         	1.190571e+00	5.952857e-01	5.952857e-01	-2.197008e-02	-1.143448e-02	-1.053560e-02	-4.494364e-04	-2.389221e-20	-1.026009e-20	-2.401709e-20	-2.226863e-20	-1.748457e-21
33            	1.190146e+00	5.950728e-01	5.950728e-01	-2.427268e-02	-1.256075e-02	-1.171193e-02	-4.244116e-04	-2.390847e-20	-1.027305e-20	-2.404284e-20	-2.229447e-20	-1.748369e-21
33.25         	1.189720e+00	5.948600e-01	5.948600e-01	-2.634949e-02	-1.356878e-02	-1.278071e-02	-3.940391e-04	-2.392232e-20	-1.028568e-20	-2.406580e-20	-2.231858e-20	-1.747221e-21
33.5          	1.189362e+00	5.946811e-01	5.946811e-01	-2.815501e-02	-1.443613e-02	-1.371889e-02	-3.586181e-04	-2.393331e-20	-1.029867e-20	-2.409496e-20	-2.234615e-20	-1.748804e-21
33.75         	1.188937e+00	5.944686e-01	5.944686e-01	-2.975734e-02	-1.519717e-02	-1.456017e-02	-3.185011e-04	-2.394198e-20	-1.031046e-20	-2.410482e-20	-2.236287e-20	-1.741956e-21
34            	1.188565e+00	5.942824e-01	5.942824e-01	-3.097908e-02	-1.576363e-02	-1.521545e-02	-2.740915e-04	-2.394649e-20	-1.032162e-20	-2.411812e-20	-2.238068e-20	-1.737441e-21
34.25         	1.188248e+00	5.941239e-01	5.941239e-01	-3.184940e-02	-1.615054e-02	-1.569886e-02	-2.258380e-04	-2.394734e-20	-1.033256e-20	-2.413354e-20	-2.239933e-20	-1.734214e-21
34.5          	1.187920e+00	5.939599e-01	5.939599e-01	-3.248819e-02	-1.641832e-02	-1.606987e-02	-1.742278e-04	-2.394568e-20	-1.034227e-20	-2.414154e-20	-2.241304e-20	-1.728500e-21
34.75         	1.187567e+00	5.937836e-01	5.937836e-01	-3.275267e-02	-1.649609e-02	-1.625658e-02	-1.197581e-04	-2.393982e-20	-1.035028e-20	-2.414569e-20	-2.242313e-20	-1.722561e-21
35            	1.187252e+00	5.936260e-01	5.936260e-01	-3.268089e-02	-1.640341e-02	-1.627748e-02	-6.296716e-05	-2.393046e-20	-1.035734e-20	-2.414405e-20	-2.242936e-20	-1.714686e-21
35.25         	1.187005e+00	5.935023e-01	5.935023e-01	-3.220077e-02	-1.610480e-02	-1.609597e-02	-4.412181e-06	-2.391682e-20	-1.036352e-20	-2.415204e-20	-2.243954e-20	-1.712499e-21
35.5          	1.186685e+00	5.933427e-01	5.933427e-01	-3.144549e-02	-1.566743e-02	-1.577806e-02	5.531362e-05	-2.390004e-20	-1.036722e-20	-2.413519e-20	-2.243482e-20	-1.700378e-21
35.75         	1.186406e+00	5.932029e-01	5.932029e-01	-3.030739e-02	-1.503808e-02	-1.526931e-02	1.156173e-04	-2.387927e-20	-1.036949e-20	-2.412571e-20	-2.243235e-20	-1.693363e-21
36            	1.186134e+00	5.930669e-01	5.930669e-01	-2.878692e-02	-1.421757e-02	-1.456934e-02	1.758849e-04	-2.385454e-20	-1.036992e-20	-2.410139e-20	-2.242061e-20	-1.680777e-21
36.25         	1.185879e+00	5.929394e-01	5.929394e-01	-2.684200e-02	-1.318552e-02	-1.365648e-02	2.354835e-04	-2.382531e-20	-1.036838e-20	-2.407762e-20	-2.240719e-20	-1.670429e-21
36.5          	1.185627e+00	5.928137e-01	5.928137e-01	-2.464102e-02	-1.202674e-02	-1.261428e-02	2.937664e-04	-2.379355e-20	-1.036491e-20	-2.404810e-20	-2.238896e-20	-1.659142e-21
36.75         	1.185391e+00	5.926954e-01	5.926954e-01	-2.204396e-02	-1.067188e-02	-1.137207e-02	3.500937e-04	-2.375768e-20	-1.035939e-20	-2.401544e-20	-2.236711e-20	-1.648326e-21
37            	1.185158e+00	5.925788e-01	5.925788e-01	-1.918710e-02	-9.189720e-03	-9.997375e-03	4.038276e-04	-2.371932e-20	-1.035175e-20	-2.397783e-20	-2.234067e-20	-1.637164e-21
37.25         	1.184919e+00	5.924597e-01	5.924597e-01	-1.603305e-02	-7.562190e-03	-8.470863e-03	4.543370e-04	-2.367807e-20	-1.034207e-20	-2.393075e-20	-2.230745e-20	-1.623302e-21
37.5          	1.184736e+00	5.923682e-01	5.923682e-01	-1.258373e-02	-5.790871e-03	-6.792864e-03	5.009967e-04	-2.363410e-20	-1.033081e-20	-2.388456e-20	-2.227310e-20	-1.611469e-21
37.75         	1.184574e+00	5.922870e-01	5.922870e-01	-8.939453e-03	-3.926535e-03	-5.012918e-03	5.431913e-04	-2.358873e-20	-1.031774e-20	-2.383221e-20	-2.223384e-20	-1.598369e-21
38            	1.184395e+00	5.921973e-01	5.921973e-01	-5.122526e-03	-1.980914e-03	-3.141611e-03	5.803485e-04	-2.354184e-20	-1.030247e-20	-2.377101e-20	-2.218797e-20	-1.583035e-21
38.25         	1.184221e+00	5.921107e-01	5.921107e-01	-1.111662e-03	5.610558e-05	-1.167767e-03	6.119365e-04	-2.349337e-20	-1.028554e-20	-2.370814e-20	-2.213961e-20	-1.568536e-21
38.5          	1.184121e+00	5.920603e-01	5.920603e-01	2.953968e-03	2.114457e-03	8.395105e-04	6.374734e-04	-2.344510e-20	-1.026774e-20	-2.364543e-20	-2.209046e-20	-1.554973e-21
38.75         	1.183987e+00	5.919936e-01	5.919936e-01	7.164377e-03	4.238720e-03	2.925657e-03	6.565315e-04	-2.339555e-20	-1.024798e-20	-2.357779e-20	-2.203688e-20	-1.540911e-21
39            	1.183903e+00	5.919517e-01	5.919517e-01	1.143748e-02	6.387458e-03	5.050017e-03	6.687207e-04	-2.334609e-20	-1.022720e-20	-2.350940e-20	-2.198190e-20	-1.527504e-21
39.25         	1.183858e+00	5.919288e-01	5.919288e-01	1.560415e-02	8.475798e-03	7.128355e-03	6.737216e-04	-2.329866e-20	-1.020602e-20	-2.343399e-20	-2.192302e-20	-1.510972e-21
39.5          	1.183813e+00	5.919064e-01	5.919064e-01	1.979150e-02	1.056705e-02	9.224450e-03	6.713012e-04	-2.325153e-20	-1.018359e-20	-2.335661e-20	-2.186190e-20	-1.494714e-21
39.75         	1.183778e+00	5.918889e-01	5.918889e-01	2.385379e-02	1.258817e-02	1.126562e-02	6.612752e-04	-2.320616e-20	-1.016057e-20	-2.328908e-20	-2.180510e-20	-1.483973e-21
40            	1.183865e+00	5.919323e-01	5.919323e-01	2.767243e-02	1.447976e-02	1.319267e-02	6.435442e-04	-2.316459e-20	-1.013819e-20	-2.321203e-20	-2.174421e-20	-1.467819e-21
40.25         	1.183918e+00	5.919589e-01	5.919589e-01	3.130582e-02	1.627103e-02	1.503479e-02	6.181183e-04	-2.312541e-20	-1.011558e-20	-2.314803e-20	-2.168959e-20	-1.458434e-21
40.5          	1.183983e+00	5.919915e-01	5.919915e-01	3.473842e-02	1.795428e-02	1.678414e-02	5.850668e-04	-2.308884e-20	-1.009278e-20	-2.307831e-20	-2.163194e-20	-1.446370e-21
40.75         	1.184138e+00	5.920689e-01	5.920689e-01	3.778661e-02	1.943786e-02	1.834876e-02	5.445491e-04	-2.305737e-20	-1.007127e-20	-2.301573e-20	-2.157914e-20	-1.436592e-21
41            	1.184275e+00	5.921373e-01	5.921373e-01	4.055337e-02	2.077352e-02	1.977986e-02	4.968311e-04	-2.302917e-20	-1.005009e-20	-2.295713e-20	-2.152865e-20	-1.428478e-21