/*--------------------------------*- C++ -*----------------------------------*\
| =========                 |                                                 |
| \\      /  F ield         | OpenFOAM: The Open Source CFD Toolbox           |
|  \\    /   O peration     | Version:  2512                                  |
|   \\  /    A nd           | Website:  www.openfoam.com                      |
|    \\/     M anipulation  |                                                 |
\*---------------------------------------------------------------------------*/
FoamFile
{
    version     2.0;
    format      ascii;
    arch        "LSB;label=32;scalar=64";
    class       volVectorField;
    location    "41";
    object      U;
}
// * * * * * * * * * * * * * * * * * * * * * * * * * * * * * * * * * * * * * //

dimensions      [0 1 -1 0 0 0 0];

internalField   nonuniform List<vector> 
13248
(
(-0.0127066 0.0118957 6.18371e-20)
(-0.0244751 0.0258191 0)
(-0.0232592 0.0337306 -1.16813e-19)
(-0.00999413 0.0374359 1.10039e-19)
(0.0146567 0.0384514 1.03081e-19)
(0.0502103 0.0380164 0)
(0.0962574 0.0370925 0)
(0.152355 0.0364117 2.49456e-19)
(0.217896 0.0365132 -9.20973e-22)
(0.291981 0.0377603 -2.18487e-19)
(0.373324 0.0403482 2.03384e-19)
(0.460218 0.0443107 -1.27218e-19)
(0.55057 0.049531 0)
(0.642004 0.0557609 -2.2008e-19)
(0.732011 0.0626496 4.1135e-19)
(0.818119 0.0697805 -9.74972e-20)
(0.898071 0.0767165 -1.75834e-19)
(0.969977 0.0830225 1.65063e-19)
(1.03245 0.088391 0)
(1.08457 0.0923223 0)
(1.12638 0.095309 0)
(1.1571 0.0951964 0)
(1.18043 0.0971621 5.15232e-20)
(1.19107 0.088364 1.88744e-19)
(-0.0124043 0.0103037 -1.86815e-19)
(-0.0204093 0.020896 1.27324e-19)
(-0.0124076 0.0262417 -1.14019e-21)
(0.0103296 0.0282909 -1.68234e-19)
(0.0469361 0.0286542 -1.02971e-19)
(0.0967056 0.0286283 -9.74218e-20)
(0.158863 0.0291783 -1.79204e-19)
(0.232384 0.0309878 1.69398e-19)
(0.315822 0.0344832 0)
(0.4072 0.0398426 6.28378e-22)
(0.504001 0.0470028 1.27755e-21)
(0.603273 0.0556806 1.27067e-19)
(0.701826 0.0654129 0)
(0.796482 0.075614 0)
(0.884339 0.085646 1.50859e-19)
(0.962996 0.0948912 -2.83355e-19)
(1.03073 0.102818 1.71015e-19)
(1.08658 0.109031 -1.6055e-19)
(1.13035 0.113304 -7.15456e-20)
(1.16266 0.115553 -1.31451e-19)
(1.18447 0.115993 -5.59157e-20)
(1.19774 0.114378 -1.05303e-19)
(1.20359 0.112862 1.52952e-19)
(1.20409 0.106396 4.46224e-20)
(-0.0112787 0.00844489 0)
(-0.0133235 0.0154707 0)
(0.00414438 0.0184896 5.95122e-20)
(0.0393493 0.0194992 5.48107e-20)
(0.0910271 0.0201514 -1.32785e-21)
(0.15796 0.0217566 -1.00519e-19)
(0.238592 0.0252073 0)
(0.330794 0.0310073 -8.42714e-20)
(0.431736 0.0392938 7.92607e-20)
(0.53792 0.0498538 5.04247e-22)
(0.645379 0.0621671 -1.36043e-19)
(0.750017 0.0754825 -1.25312e-19)
(0.847995 0.0889244 1.7705e-21)
(0.93609 0.10161 -1.05131e-19)
(1.01197 0.112761 2.51111e-19)
(1.07433 0.12179 0)
(1.12294 0.128352 -1.65851e-19)
(1.1585 0.132354 8.01868e-20)
(1.18249 0.133951 7.14784e-20)
(1.19684 0.133407 0)
(1.20379 0.131323 5.94662e-20)
(1.20537 0.127669 -2.07807e-19)
(1.2033 0.124432 1.95075e-19)
(1.20028 0.117753 1.26164e-19)
(-0.00897038 0.00629906 -6.61779e-20)
(-0.00229991 0.00968711 -6.84202e-20)
(0.027724 0.0109375 6.17975e-20)
(0.078598 0.0119164 0)
(0.148334 0.014198 0)
(0.23473 0.0189849 -2.12962e-21)
(0.334859 0.026918 0)
(0.444888 0.0380901 -2.57365e-19)
(0.560164 0.0520946 2.39363e-19)
(0.675548 0.0681058 -2.96006e-19)
(0.785937 0.0850146 6.80479e-20)
(0.886827 0.101605 0)
(0.974777 0.116737 1.1455e-19)
(1.0477 0.1295 -2.12698e-19)
(1.10493 0.139312 5.05181e-20)
(1.14711 0.145952 1.31935e-19)
(1.1759 0.149535 -4.7346e-21)
(1.1936 0.150431 -1.47977e-19)
(1.20279 0.149166 0)
(1.20594 0.146307 0)
(1.20519 0.142474 -5.44214e-20)
(1.20212 0.137831 4.93033e-20)
(1.198 0.133833 1.79657e-19)
(1.1935 0.127288 -1.68642e-19)
(-0.00507972 0.00390955 -6.98669e-20)
(0.0135909 0.0038444 -6.9501e-20)
(0.0595084 0.00424741 1.95474e-19)
(0.12914 0.00659451 -1.18439e-19)
(0.219286 0.0121737 1.11486e-19)
(0.326121 0.0218467 2.02484e-19)
(0.444689 0.0357113 -1.43159e-19)
(0.569006 0.0531395 -1.74605e-19)
(0.692561 0.072931 3.09545e-21)
(0.809088 0.0935384 2.23903e-19)
(0.913341 0.113343 0)
(1.00169 0.130922 6.2336e-20)
(1.07239 0.14525 0)
(1.1255 0.155795 -1.03014e-19)
(1.1626 0.162513 1.44921e-19)
(1.18624 0.165751 1.27452e-21)
(1.19941 0.166113 -3.86921e-20)
(1.20508 0.164301 7.28066e-20)
(1.20582 0.160995 6.34767e-20)
(1.2036 0.156764 -5.74445e-20)
(1.1998 0.152068 5.44084e-20)
(1.1953 0.147058 -4.92912e-20)
(1.19049 0.142583 0)
(1.18604 0.136275 -3.83935e-20)
(0.000791705 0.00141359 6.98569e-20)
(0.0351753 -0.00154061 7.33779e-20)
(0.100332 -0.00065696 -6.55047e-20)
(0.191295 0.00480463 1.21969e-19)
(0.303015 0.0155203 -1.14803e-19)
(0.429341 0.0316498 1.03825e-19)
(0.562807 0.0523702 -4.98637e-20)
(0.695291 0.07604 1.31089e-19)
(0.819101 0.100569 -8.2555e-20)
(0.928057 0.123842 1.47254e-19)
(1.01824 0.144094 -3.40707e-19)
(1.08821 0.160171 1.25618e-19)
(1.13878 0.171608 -1.11014e-19)
(1.17243 0.17856 1.04272e-19)
(1.19249 0.181622 9.11906e-20)
(1.20256 0.181621 8.08855e-20)
(1.20584 0.179414 -2.25413e-19)
(1.20493 0.175756 1.4019e-19)
(1.20169 0.171234 -6.34787e-20)
(1.19729 0.166257 1.67702e-19)
(1.19245 0.161094 -5.401e-20)
(1.18752 0.155845 -1.3464e-19)
(1.1827 0.150974 1.24761e-19)
(1.17821 0.144861 3.83798e-20)
(0.00899854 -0.000946629 0)
(0.0630515 -0.00572202 6.47471e-22)
(0.150488 -0.00261258 1.3722e-19)
(0.264398 0.00794193 -1.28672e-19)
(0.397181 0.0255487 -1.15939e-19)
(0.539819 0.0492067 2.15551e-19)
(0.682338 0.0768163 -1.00134e-19)
(0.815247 0.105617 1.33895e-19)
(0.931057 0.132841 -2.62274e-21)
(1.02528 0.156265 -7.62223e-20)
(1.09663 0.174536 1.67578e-19)
(1.14658 0.187236 -2.48018e-19)
(1.17843 0.194718 0)
(1.1963 0.197834 -4.93407e-20)
(1.20428 0.197631 -1.32752e-19)
(1.20586 0.195122 4.16856e-20)
(1.20368 0.191143 1.40715e-21)
(1.19954 0.186308 -9.41755e-20)
(1.19454 0.181024 4.88635e-21)
(1.18929 0.175544 1.09399e-19)
(1.1841 0.170014 -4.95109e-20)
(1.17911 0.164517 -1.94968e-20)
(1.17432 0.159248 5.88185e-20)
(1.16986 0.153238 0)
(0.0198062 -0.00282973 0)
(0.0974618 -0.00776361 3.72464e-20)
(0.209547 -0.000317801 -1.79436e-19)
(0.346649 0.0173405 6.51738e-20)
(0.498039 0.0431882 -6.13402e-20)
(0.651745 0.074614 -5.61648e-20)
(0.796051 0.108087 -9.94055e-20)
(0.921591 0.139966 4.94912e-20)
(1.0228 0.167347 4.31298e-20)
(1.09822 0.188531 0)
(1.14978 0.203068 9.97696e-20)
(1.18157 0.211494 -1.49283e-19)
(1.19848 0.21492 1.11201e-19)
(1.20518 0.214646 4.93654e-20)
(1.20553 0.211865 -4.09896e-20)
(1.2023 0.207527 -3.47313e-20)
(1.19733 0.202299 -3.26822e-20)
(1.1917 0.196614 9.67905e-20)
(1.18598 0.190728 0)
(1.18044 0.184791 4.97991e-20)
(1.17519 0.178887 4.27811e-20)
(1.17024 0.173074 -1.05203e-19)
(1.16554 0.167384 -7.36083e-20)
(1.16111 0.161411 6.7942e-20)
(0.0333429 -0.00381647 -4.04799e-20)
(0.138179 -0.00662345 -1.63186e-21)
(0.276245 0.00750384 3.65574e-20)
(0.435147 0.0340421 1.02253e-19)
(0.600831 0.0687681 2.98054e-20)
(0.759017 0.107199 -5.76133e-20)
(0.897765 0.144585 5.25626e-20)
(1.00967 0.177006 -4.61844e-20)
(1.0925 0.202136 8.32154e-20)
(1.14837 0.219338 3.56659e-20)
(1.18206 0.229274 -1.01281e-19)
(1.1993 0.233339 2.99714e-20)
(1.20549 0.233129 5.15615e-20)
(1.20499 0.230082 -2.53141e-20)
(1.20086 0.225312 0)
(1.19507 0.219581 3.83559e-20)
(1.18875 0.21337 6.54979e-20)
(1.18246 0.206958 1.16504e-20)
(1.17647 0.200498 -5.50023e-20)
(1.17086 0.194079 2.32582e-20)
(1.16564 0.18775 0)
(1.16076 0.181538 -1.86242e-20)
(1.15614 0.175414 -1.79039e-20)
(1.15174 0.169372 0)
(0.0495497 -0.003443 0)
(0.184424 -0.00126773 2.12424e-20)
(0.348478 0.0219189 3.92615e-20)
(0.526129 0.0585993 -1.04498e-19)
(0.700449 0.101936 3.38265e-20)
(0.85627 0.145685 0)
(0.98335 0.184498 5.10362e-20)
(1.07781 0.214984 -7.1326e-20)
(1.14139 0.236021 -4.16323e-20)
(1.17942 0.248282 1.88349e-20)
(1.19856 0.253451 -3.04793e-20)
(1.20513 0.253499 7.38323e-20)
(1.2042 0.250197 3.72515e-20)
(1.19932 0.244898 -2.57588e-20)
(1.19273 0.238518 -2.27118e-21)
(1.18565 0.231619 -7.16797e-20)
(1.1787 0.224517 3.27294e-20)
(1.17216 0.217384 -8.80522e-22)
(1.16611 0.21031 0)
(1.16055 0.203347 -2.32825e-20)
(1.15542 0.196526 0)
(1.15064 0.189843 5.37641e-20)
(1.14613 0.183279 -6.43904e-20)
(1.14177 0.177059 2.94995e-20)
(0.0681384 -0.00124094 -1.11577e-20)
(0.234835 0.00921291 -5.35921e-20)
(0.423415 0.0436294 6.10474e-20)
(0.615387 0.0909737 3.58338e-20)
(0.79215 0.141734 -1.70717e-20)
(0.939584 0.188477 2.88454e-20)
(1.05092 0.226162 -1.39678e-20)
(1.12666 0.25269 2.3358e-20)
(1.17229 0.268489 0)
(1.19543 0.275496 5.32941e-20)
(1.20359 0.276139 -2.12548e-21)
(1.20283 0.272646 -4.31622e-20)
(1.19743 0.266725 1.85529e-20)
(1.19006 0.259526 -2.10411e-20)
(1.18218 0.25174 -8.08404e-21)
(1.1745 0.243752 9.28557e-21)
(1.16733 0.235758 -7.20809e-21)
(1.16075 0.227861 -3.95336e-20)
(1.15476 0.220115 2.42348e-20)
(1.14931 0.212549 5.00067e-21)
(1.14433 0.205176 4.43896e-21)
(1.1397 0.197972 3.94547e-21)
(1.13532 0.190978 0)
(1.13104 0.184452 0)
(0.0886392 0.0032295 1.11654e-20)
(0.287646 0.0255126 -1.11425e-20)
(0.497901 0.0728691 -2.03575e-20)
(0.698912 0.130536 0)
(0.872222 0.186783 -8.49637e-21)
(1.00675 0.233958 -7.69408e-21)
(1.1004 0.268273 -1.31806e-20)
(1.15808 0.289436 0)
(1.18823 0.299472 0)
(1.19974 0.301327 0)
(1.20007 0.297843 0)
(1.19455 0.291247 0)
(1.18652 0.283044 -1.16528e-20)
(1.17783 0.27414 5.3083e-21)
(1.16937 0.265024 9.28021e-21)
(1.1615 0.255942 4.35475e-21)
(1.15434 0.247011 1.08105e-20)
(1.14788 0.238289 0)
(1.14207 0.229807 -2.62663e-21)
(1.13684 0.221579 -2.5426e-21)
(1.13208 0.213598 -4.44603e-21)
(1.12768 0.205842 -3.95178e-21)
(1.12351 0.198426 0)
(1.11941 0.191468 2.89635e-21)
(-0.00128939 0.00499641 6.41662e-21)
(-0.00597128 0.01072 -6.66359e-21)
(-0.0142808 0.013453 -1.26237e-20)
(-0.0244462 0.0141088 0)
(-0.0354806 0.0133726 -1.68883e-20)
(-0.0468735 0.0117378 5.28921e-21)
(-0.0582682 0.00953785 -1.0032e-20)
(-0.069416 0.00697375 0)
(-0.080158 0.00414598 0)
(-0.0903975 0.00108577 0)
(-0.100076 -0.00221709 0)
(-0.109157 -0.00579228 0)
(-0.117618 -0.00967348 -3.44575e-23)
(-0.12544 -0.0138883 -6.55395e-21)
(-0.132605 -0.0184521 1.2402e-20)
(-0.139094 -0.0233636 1.74431e-20)
(-0.144892 -0.0286014 5.50517e-21)
(-0.149986 -0.0341216 0)
(-0.154383 -0.039857 4.77802e-21)
(-0.158113 -0.0457149 -1.3503e-20)
(-0.161236 -0.0515853 -8.44048e-21)
(-0.163845 -0.0573419 -7.8935e-21)
(-0.166124 -0.0628404 0)
(-0.168463 -0.0679485 0)
(-0.00188801 0.00835209 -1.93379e-20)
(-0.00719535 0.0187012 3.33386e-20)
(-0.0156546 0.0245244 -1.26521e-20)
(-0.0256805 0.0271708 -2.39717e-20)
(-0.0363942 0.0276226 3.38319e-20)
(-0.0473468 0.0265911 -2.13625e-20)
(-0.058221 0.0245771 3.01223e-20)
(-0.0687931 0.0219082 1.9076e-20)
(-0.0789189 0.0187766 0)
(-0.0885101 0.0152771 -1.68098e-20)
(-0.0975135 0.011441 -7.26162e-23)
(-0.105897 0.00726304 1.48392e-20)
(-0.113641 0.00272106 2.11724e-20)
(-0.120727 -0.00220947 2.65184e-20)
(-0.127139 -0.00754518 -1.23624e-20)
(-0.132855 -0.0132862 -3.50524e-20)
(-0.13785 -0.0194095 1.10606e-20)
(-0.142103 -0.0258619 -4.14305e-20)
(-0.145598 -0.0325457 0)
(-0.148346 -0.0393098 9.00604e-21)
(-0.150381 -0.0459783 8.42965e-21)
(-0.151737 -0.0523215 7.88326e-21)
(-0.152543 -0.0580562 0)
(-0.153433 -0.0629144 0)
(-0.00282348 0.0113652 0)
(-0.00910011 0.0259625 6.76632e-20)
(-0.0177149 0.0347049 -2.55075e-20)
(-0.0273876 0.0392866 2.40852e-20)
(-0.0374117 0.0409362 -6.84955e-20)
(-0.0474338 0.0405536 0)
(-0.0571993 0.0387911 -4.06746e-20)
(-0.0665242 0.0360948 1.91989e-20)
(-0.0752877 0.0327462 -3.63285e-20)
(-0.083414 0.0289045 1.73147e-20)
(-0.0908563 0.0246444 9.65667e-20)
(-0.0975853 0.0199868 -4.53677e-20)
(-0.103581 0.0149221 -7.11805e-20)
(-0.108828 0.00942775 -2.70928e-20)
(-0.113306 0.00348181 -7.33559e-23)
(-0.116993 -0.00292662 9.48506e-20)
(-0.119861 -0.00978596 -4.45494e-20)
(-0.121871 -0.0170481 -2.9669e-22)
(-0.122964 -0.0246066 0)
(-0.123134 -0.0323015 -3.69446e-20)
(-0.12239 -0.0398705 0)
(-0.120656 -0.0469576 -3.15764e-20)
(-0.117882 -0.0530841 1.19206e-19)
(-0.11504 -0.057728 -3.8325e-22)
(-0.00401178 0.0138482 0)
(-0.0115273 0.0320796 3.53961e-22)
(-0.0202973 0.0434293 2.60153e-20)
(-0.029424 0.049809 -2.46152e-20)
(-0.0384163 0.0526207 2.2808e-20)
(-0.0470414 0.0529113 1.30757e-19)
(-0.0551251 0.0514588 -4.09836e-20)
(-0.0625351 0.0488133 -3.89259e-20)
(-0.0691805 0.0453392 7.30135e-20)
(-0.0750002 0.0412587 -1.03177e-19)
(-0.0799518 0.0366918 3.25384e-20)
(-0.0840055 0.0316888 3.07663e-20)
(-0.0871374 0.0262563 0)
(-0.0893255 0.0203768 2.6966e-20)
(-0.0905461 0.0140231 0)
(-0.0907714 0.00717126 4.83675e-20)
(-0.089966 -0.00018698 -9.02995e-20)
(-0.0880829 -0.00802673 2.11173e-20)
(-0.0850781 -0.0162786 7.95185e-20)
(-0.0808953 -0.0247992 3.69098e-20)
(-0.0755032 -0.0332955 0)
(-0.0688016 -0.0413073 -9.64628e-20)
(-0.0603879 -0.0480978 3.02287e-20)
(-0.0510916 -0.052677 0)
(-0.0053466 0.0156751 0)
(-0.0142744 0.0367413 -8.29509e-20)
(-0.0231939 0.0502518 -2.64298e-20)
(-0.0316119 0.0581948 -4.94655e-20)
(-0.0392705 0.0620651 4.65777e-20)
(-0.0460692 0.0630068 -4.37333e-20)
(-0.0519252 0.0618917 8.30783e-20)
(-0.0567661 0.0593541 3.91281e-20)
(-0.0605346 0.0558301 -1.10373e-19)
(-0.0631837 0.0516006 6.96986e-20)
(-0.0646721 0.0468308 -9.82475e-20)
(-0.0649616 0.0416041 2.17081e-19)
(-0.0640149 0.0359493 -1.16401e-19)
(-0.0617941 0.0298612 5.52066e-20)
(-0.0582598 0.0233165 1.55491e-19)
(-0.0533711 0.0162866 -4.81945e-20)
(-0.0470835 0.00874671 -4.5931e-20)
(-0.0393512 0.000692897 -4.26964e-20)
(-0.0301274 -0.00785077 0)
(-0.0193635 -0.0167827 -7.49887e-20)
(-0.00704563 -0.0258988 -6.93274e-20)
(0.00682673 -0.0347671 9.83816e-20)
(0.022849 -0.042385 1.19752e-19)
(0.0418271 -0.046749 -1.13068e-19)
(-0.00671869 0.0167967 0)
(-0.0171243 0.0397812 -1.12765e-19)
(-0.0261723 0.0548851 -4.74532e-22)
(-0.0337422 0.0640476 9.99815e-20)
(-0.0397985 0.0687814 0)
(-0.044373 0.0702801 0)
(-0.047477 0.0694742 0)
(-0.0491005 0.0670583 -3.94469e-20)
(-0.0492202 0.0635252 -2.14187e-22)
(-0.0478008 0.0592058 7.01747e-20)
(-0.0447958 0.0543076 -9.91666e-20)
(-0.0401496 0.0489481 -1.4496e-22)
(-0.0338 0.0431831 0)
(-0.0256803 0.0370282 -5.5182e-20)
(-0.0157213 0.0304765 5.26068e-20)
(-0.0038587 0.0235092 -1.47509e-19)
(0.00996931 0.0161087 1.84652e-19)
(0.0258097 0.00826373 4.33913e-20)
(0.043692 -1.37197e-05 -5.11203e-22)
(0.0636335 -0.00867154 -1.5216e-19)
(0.0855787 -0.0176104 -7.09013e-20)
(0.109435 -0.0265629 2.28978e-19)
(0.13569 -0.0344831 -1.52925e-19)
(0.16799 -0.0385295 0)
(-0.0080355 0.0172417 5.56469e-20)
(-0.0198737 0.0411866 5.65586e-20)
(-0.0289912 0.0572198 -5.4095e-20)
(-0.0355651 0.0671473 -1.01337e-19)
(-0.0397506 0.0724455 9.54176e-20)
(-0.0416996 0.0743175 -8.99774e-20)
(-0.0415115 0.0737206 1.27202e-19)
(-0.039235 0.0713847 -3.94779e-20)
(-0.0348766 0.0678415 7.51272e-20)
(-0.0284067 0.0634605 0)
(-0.0197663 0.0584847 6.72833e-20)
(-0.00887419 0.053064 -1.2615e-19)
(0.00436503 0.0472834 1.18819e-19)
(0.0200535 0.0411848 -1.116e-19)
(0.0382916 0.0347858 0)
(0.0591671 0.0280917 9.88677e-20)
(0.0827427 0.0211088 1.86126e-19)
(0.109052 0.0138519 -1.74529e-19)
(0.138083 0.00635891 -8.16999e-20)
(0.169765 -0.00131131 -7.56935e-20)
(0.203904 -0.00908222 2.13486e-19)
(0.240498 -0.0167851 6.49074e-20)
(0.277751 -0.024066 -6.18865e-20)
(0.328694 -0.0267276 5.54618e-20)
(-0.00923548 0.0171046 -5.56545e-20)
(-0.0223509 0.0410815 1.73774e-19)
(-0.0314001 0.0573198 -5.48276e-20)
(-0.0367637 0.0674646 1.02536e-19)
(-0.0387425 0.0729316 -9.6546e-20)
(-0.0375866 0.0749072 4.03646e-22)
(-0.0334703 0.0743507 4.2923e-20)
(-0.0264886 0.0720062 1.61662e-19)
(-0.0166672 0.0684273 2.48717e-22)
(-0.00397304 0.0640098 -7.10577e-20)
(0.0116721 0.0590253 0)
(0.0303783 0.0536525 -6.36264e-20)
(0.0522695 0.0480064 1.19073e-19)
(0.0774684 0.0421589 1.12342e-19)
(0.106079 0.0361566 -5.26963e-20)
(0.138166 0.0300359 5.41769e-23)
(0.173738 0.0238348 -4.65421e-20)
(0.212729 0.0176039 8.7209e-20)
(0.25498 0.0114087 8.16797e-20)
(0.300266 0.00535363 -7.6236e-20)
(0.347907 -0.000527282 7.06046e-20)
(0.399062 -0.0056673 -6.52862e-20)
(0.445738 -0.0114812 0)
(0.517773 -0.0108082 -5.53783e-20)
(-0.0102914 0.0165184 5.69601e-20)
(-0.0244137 0.0396865 -5.82236e-20)
(-0.0331176 0.0553934 5.55561e-20)
(-0.0369012 0.0651553 0)
(-0.036166 0.0703333 0)
(-0.0312331 0.0720893 9.24828e-20)
(-0.0223276 0.0713716 -8.62396e-20)
(-0.00957174 0.0689238 8.13369e-20)
(0.00700504 0.0653086 -3.81295e-19)
(0.0274475 0.0609391 -4.48419e-24)
(0.0518504 0.0561102 6.75244e-20)
(0.0803344 0.0510299 0)
(0.113016 0.0458422 -1.1955e-19)
(0.149974 0.0406484 2.24695e-19)
(0.191223 0.0355241 -1.58369e-19)
(0.236685 0.0305331 -2.47857e-19)
(0.286166 0.0257359 3.60605e-22)
(0.339337 0.0211993 1.73868e-19)
(0.395698 0.0169886 0)
(0.454806 0.0132796 0)
(0.514908 0.00978852 -7.0596e-20)
(0.57945 0.00813293 6.52768e-20)
(0.632085 0.00420121 -2.36494e-19)
(0.720552 0.0092024 2.21919e-19)
(-0.0111976 0.015623 0)
(-0.0259186 0.0372618 0)
(-0.0337834 0.0517422 -1.67318e-19)
(-0.0353525 0.0605309 5.31941e-20)
(-0.0310914 0.0649664 3.05325e-22)
(-0.0213646 0.066196 9.34887e-20)
(-0.00642119 0.0651551 0)
(0.0136105 0.0625814 -8.17509e-20)
(0.0387055 0.0590419 7.64164e-20)
(0.0689096 0.0549641 -1.44071e-19)
(0.104298 0.0506646 3.60757e-23)
(0.144927 0.0463748 1.27115e-19)
(0.190787 0.0422609 4.18742e-23)
(0.241761 0.0384441 1.1216e-19)
(0.297581 0.0350116 -1.58155e-19)
(0.357804 0.0320249 0)
(0.421797 0.0295273 1.84447e-19)
(0.488746 0.0275527 -2.59857e-19)
(0.557617 0.0260926 7.98632e-20)
(0.627601 0.0253538 0)
(0.696008 0.0246223 6.86387e-20)
(0.767379 0.0263311 2.54107e-19)
(0.821595 0.0243404 -2.38475e-19)
(0.912199 0.0327899 -2.69083e-19)
(-0.0119462 0.0145277 1.75804e-19)
(-0.02667 0.0340428 -2.41755e-19)
(-0.0328913 0.0467039 4.83849e-22)
(-0.031228 0.0540254 5.37941e-20)
(-0.0221899 0.057369 -1.00293e-19)
(-0.00616185 0.0578884 -9.30166e-20)
(0.0166009 0.0565157 1.74733e-19)
(0.0459653 0.0539873 -9.51229e-22)
(0.0818826 0.0508757 -1.54013e-19)
(0.124328 0.0476183 2.88434e-19)
(0.17323 0.0445422 -1.99409e-22)
(0.228402 0.0418839 -1.27102e-19)
(0.289478 0.0398058 0)
(0.355867 0.0384056 0)
(0.42673 0.0377241 -5.25151e-20)
(0.500983 0.0377513 -9.74127e-20)
(0.577327 0.038435 -1.82342e-19)
(0.654304 0.0396864 1.71161e-19)
(0.730349 0.0413787 -7.98938e-20)
(0.804077 0.0434966 1.45868e-19)
(0.873173 0.0454231 -7.09301e-20)
(0.940068 0.0488333 1.21992e-19)
(0.990504 0.0485141 -2.89781e-19)
(1.06459 0.0572784 5.33815e-20)
(-0.0124864 0.0132845 5.93908e-20)
(-0.0263493 0.0301973 0)
(-0.0297165 0.0406079 1.14964e-19)
(-0.0233134 0.0461605 -1.083e-19)
(-0.00769979 0.0482819 1.00385e-19)
(0.0167209 0.0481565 0)
(0.0496702 0.0467269 0)
(0.0909528 0.0447313 -8.24175e-20)
(0.140377 0.0427396 6.37504e-22)
(0.197657 0.0411786 7.26928e-20)
(0.262314 0.0403506 -6.75715e-20)
(0.333598 0.0404443 1.27119e-19)
(0.410441 0.0415428 0)
(0.491453 0.0436315 2.21854e-19)
(0.574957 0.0466077 -4.15458e-19)
(0.659072 0.0502931 2.91957e-19)
(0.741816 0.054456 1.79488e-19)
(0.821218 0.0588105 -1.68486e-19)
(0.895492 0.0631247 0)
(0.962971 0.0669742 0)
(1.02266 0.0704429 0)
(1.0739 0.0728777 0)
(1.11376 0.0739962 5.67471e-20)
(1.15783 0.0777512 -2.03998e-19)
(-0.171719 -0.0735284 -4.81898e-21)
(-0.176327 -0.0801988 4.84376e-21)
(-0.180438 -0.0859977 -1.45578e-22)
(-0.184365 -0.0904258 0)
(-0.188167 -0.093076 -4.35677e-21)
(-0.191858 -0.0934838 8.45004e-21)
(-0.195467 -0.0911519 -2.05522e-23)
(-0.199004 -0.085594 -3.96316e-21)
(-0.202453 -0.0763431 0)
(-0.205762 -0.0629903 0)
(-0.208829 -0.0452234 -2.1608e-22)
(-0.211501 -0.0228604 -2.08088e-22)
(-0.213702 0.00411911 -3.52858e-21)
(-0.215395 0.0352791 3.23499e-21)
(-0.216419 0.0698124 0)
(-0.216554 0.1066 0)
(-0.215628 0.144113 2.76561e-21)
(-0.213415 0.180385 -7.91988e-23)
(-0.209532 0.213067 -2.38279e-21)
(-0.203297 0.239485 -1.44678e-22)
(-0.19359 0.256603 0)
(-0.178814 0.261198 0)
(-0.157043 0.250243 0)
(-0.126728 0.222092 0)
(-0.0870432 0.176051 0)
(-0.0385414 0.114328 0)
(0.0172149 0.0415053 5.77495e-22)
(0.0774386 -0.0360804 -9.72659e-22)
(0.138363 -0.109743 0)
(0.195325 -0.171174 0)
(0.243666 -0.214263 -3.12733e-22)
(0.279276 -0.23814 3.03931e-22)
(0.299664 -0.245168 7.26817e-23)
(0.305855 -0.238161 0)
(0.305371 -0.218437 0)
(0.310225 -0.185051 -3.73101e-23)
(0.331109 -0.138964 3.62667e-23)
(0.370963 -0.0846541 0)
(0.424109 -0.0303919 -6.87655e-23)
(0.481905 0.0169863 1.0587e-22)
(0.535814 0.052147 -3.97104e-23)
(0.581539 0.0747418 0)
(0.616569 0.0854418 7.60721e-23)
(0.642598 0.0872205 -7.39706e-23)
(0.661529 0.0813948 0)
(0.678351 0.0704711 0)
(0.694983 0.0550664 2.62223e-23)
(0.715217 0.0378686 -7.24346e-23)
(0.736095 0.0200178 0)
(0.759858 0.00439031 0)
(0.779513 -0.00830423 1.46695e-23)
(0.800674 -0.0166434 -3.78514e-25)
(0.814223 -0.0209752 1.52493e-24)
(0.831911 -0.0213654 -9.01258e-24)
(0.841199 -0.0183648 0)
(0.859111 -0.0130033 0)
(0.867244 -0.00612707 0)
(0.887278 0.00132367 0)
(0.893214 0.00704112 0)
(0.91529 0.0144952 0)
(-0.155798 -0.067829 -4.71271e-22)
(-0.161318 -0.0749472 -1.92637e-20)
(-0.165997 -0.0812832 3.58229e-22)
(-0.170531 -0.0861328 1.7737e-20)
(-0.175064 -0.0891445 2.66261e-22)
(-0.179583 -0.0898754 0)
(-0.184126 -0.0878263 -1.5457e-20)
(-0.188719 -0.0825413 3.03136e-20)
(-0.193346 -0.0735787 -1.48518e-20)
(-0.197939 -0.0605608 1.38376e-20)
(-0.202348 -0.043209 -1.3234e-20)
(-0.206319 -0.0213825 1.25504e-20)
(-0.209696 0.00490454 -1.21684e-20)
(-0.212305 0.0352645 -3.5182e-22)
(-0.213715 0.0688712 -1.1231e-20)
(-0.213393 0.104608 1.09148e-20)
(-0.210807 0.140946 -1.02981e-20)
(-0.205349 0.175849 9.70735e-21)
(-0.196255 0.206836 -9.62811e-21)
(-0.182614 0.231062 1.85076e-20)
(-0.163338 0.245315 -8.89581e-21)
(-0.13724 0.246329 -5.51289e-22)
(-0.103016 0.231018 -8.64173e-21)
(-0.06045 0.198576 1.69131e-20)
(-0.00987216 0.14876 -8.27488e-21)
(0.0476906 0.0840392 5.2447e-22)
(0.109599 0.0094519 7.41135e-21)
(0.173497 -0.0688111 -5.28007e-22)
(0.236322 -0.141228 -1.12062e-20)
(0.293688 -0.199084 8.87075e-21)
(0.34147 -0.236566 -3.78345e-21)
(0.376114 -0.25308 2.70846e-22)
(0.395317 -0.252205 -7.28209e-23)
(0.398073 -0.238877 5.46278e-23)
(0.388154 -0.216846 0)
(0.374949 -0.186243 0)
(0.371293 -0.146423 3.10171e-22)
(0.385478 -0.0985696 -2.1001e-22)
(0.417394 -0.0482727 -2.52526e-22)
(0.460416 -0.00166178 -4.74996e-23)
(0.506069 0.0354873 3.75538e-22)
(0.548511 0.0612522 -8.56186e-23)
(0.584257 0.0752042 0)
(0.613926 0.0795324 0)
(0.639155 0.075085 0)
(0.663919 0.0645198 0)
(0.689221 0.0487902 -1.02551e-22)
(0.717308 0.0313062 4.69767e-23)
(0.744338 0.013429 0)
(0.772007 -0.00161138 0)
(0.793392 -0.0134982 0)
(0.814557 -0.0207927 2.29435e-23)
(0.826561 -0.0243781 -3.24713e-24)
(0.841951 -0.0241551 1.94877e-23)
(0.847994 -0.0209674 0)
(0.862965 -0.0154969 0)
(0.867863 -0.00870234 -8.48481e-24)
(0.885892 -0.00113884 -2.02321e-23)
(0.88997 0.00454388 0)
(0.911364 0.0123875 0)
(-0.114995 -0.0616742 -1.16996e-22)
(-0.121346 -0.0692773 -3.93226e-20)
(-0.126325 -0.076293 3.76195e-20)
(-0.131037 -0.0817019 -3.51819e-20)
(-0.135859 -0.085209 -2.68083e-22)
(-0.140697 -0.0864284 0)
(-0.145563 -0.0848283 -3.06383e-20)
(-0.150487 -0.0799743 2.99952e-20)
(-0.155447 -0.0714461 2.22416e-22)
(-0.160378 -0.0589031 3.98658e-22)
(-0.165116 -0.0421112 3.76816e-22)
(-0.169318 -0.0209987 3.86849e-22)
(-0.172721 0.00428144 -2.24066e-20)
(-0.175105 0.0335743 2.21301e-20)
(-0.175875 0.0659167 0)
(-0.174136 0.100136 5.96673e-22)
(-0.169087 0.134731 -1.92357e-20)
(-0.159874 0.167629 1.89938e-20)
(-0.145518 0.196262 0)
(-0.125084 0.217704 0)
(-0.097737 0.228654 -1.87749e-20)
(-0.0629783 0.22606 3.71594e-20)
(-0.0199012 0.207392 -3.62856e-20)
(0.0309338 0.171597 6.78831e-23)
(0.0878648 0.119552 3.549e-20)
(0.149688 0.0535434 -3.5456e-20)
(0.213649 -0.0220309 3.15795e-20)
(0.278004 -0.100031 -2.60798e-21)
(0.339968 -0.170845 -1.33355e-20)
(0.395133 -0.225253 0)
(0.439804 -0.25761 0)
(0.471455 -0.26764 1.18894e-21)
(0.489174 -0.259499 -1.69838e-21)
(0.491909 -0.239181 -1.90592e-24)
(0.480454 -0.212386 -3.34728e-22)
(0.459351 -0.181324 3.25307e-22)
(0.439286 -0.145577 0)
(0.431104 -0.10408 -9.18539e-23)
(0.44056 -0.0593984 -9.21023e-22)
(0.465328 -0.0158276 1.80756e-21)
(0.498986 0.0211569 -7.69478e-22)
(0.535179 0.0484191 -9.72712e-23)
(0.569956 0.0643674 8.02424e-22)
(0.60254 0.0703267 -6.18136e-22)
(0.633761 0.0666755 -1.31044e-22)
(0.665896 0.0562781 -1.13378e-22)
(0.698684 0.0404185 1.02811e-22)
(0.73279 0.0231277 0)
(0.763879 0.00581322 0)
(0.793388 -0.0080553 2.52703e-22)
(0.814901 -0.018705 -1.21353e-22)
(0.834855 -0.0246372 1.00915e-22)
(0.84474 -0.0272678 -1.3343e-22)
(0.857391 -0.0262957 -1.49319e-22)
(0.860155 -0.0228728 3.52587e-23)
(0.871816 -0.0173157 -5.24026e-23)
(0.873361 -0.0106973 4.02282e-23)
(0.888681 -0.00317609 -1.76578e-23)
(0.890674 0.00234961 0)
(0.910427 0.0103881 0)
(-0.0477657 -0.0552303 -8.19575e-20)
(-0.0551201 -0.0631794 2.16558e-21)
(-0.0606027 -0.0709124 7.5617e-20)
(-0.0655008 -0.0769985 -5.61592e-22)
(-0.0706561 -0.0811102 0)
(-0.0758958 -0.0829893 0)
(-0.08109 -0.0820922 -5.97989e-20)
(-0.0862367 -0.0779368 1.4664e-21)
(-0.0912764 -0.07011 8.07963e-20)
(-0.0961255 -0.0583036 -1.2449e-21)
(-0.100625 -0.0423229 -2.43013e-20)
(-0.104477 -0.0221734 -2.11922e-20)
(-0.10719 0.00185139 2.12456e-20)
(-0.108475 0.0297555 0)
(-0.107919 0.0605569 -1.90392e-20)
(-0.104323 0.0929085 1.73421e-20)
(-0.0966672 0.125295 0)
(-0.083998 0.155715 0)
(-0.0652717 0.181615 1.79668e-20)
(-0.0396815 0.200069 7.4009e-22)
(-0.00663729 0.207977 -1.7112e-20)
(0.0340232 0.202437 -1.96495e-20)
(0.0823491 0.181653 1.97374e-20)
(0.137305 0.144011 -2.02865e-20)
(0.197002 0.0909111 2.56106e-22)
(0.259832 0.0246594 1.89098e-20)
(0.323573 -0.051191 2.21336e-21)
(0.386705 -0.128469 -5.5473e-23)
(0.446102 -0.197484 0)
(0.497127 -0.248523 8.98988e-21)
(0.536419 -0.276182 -9.20694e-21)
(0.562593 -0.280765 2.88875e-22)
(0.576494 -0.266858 0)
(0.578591 -0.240618 -5.33511e-23)
(0.56909 -0.208452 -7.81329e-22)
(0.548497 -0.174393 2.04499e-21)
(0.522634 -0.139628 5.98659e-22)
(0.500686 -0.102639 1.70182e-22)
(0.491818 -0.0636593 -1.60269e-21)
(0.498571 -0.0245895 -2.13817e-22)
(0.518447 0.010062 1.61326e-21)
(0.546167 0.0369251 -1.38356e-21)
(0.578008 0.0533688 3.65186e-24)
(0.611837 0.0599204 -5.66905e-22)
(0.647312 0.0565242 6.82619e-22)
(0.684688 0.0462408 7.48345e-22)
(0.722362 0.0305774 -2.22237e-22)
(0.759659 0.0139939 -3.09029e-22)
(0.792152 -0.00217224 5.71087e-22)
(0.821258 -0.0144576 -3.91453e-22)
(0.84134 -0.0235925 1.04704e-22)
(0.859062 -0.0279972 -1.18934e-22)
(0.866509 -0.0295728 -9.65386e-23)
(0.876303 -0.027785 2.26072e-22)
(0.876127 -0.0240918 -5.28501e-24)
(0.884517 -0.0184588 5.34406e-23)
(0.882994 -0.0120747 0)
(0.895252 -0.0047208 1.74669e-23)
(0.89518 0.00054502 -2.25447e-23)
(0.912551 0.00857658 0)
(0.0484208 -0.0486564 8.36182e-20)
(0.0398203 -0.0559756 -1.6129e-19)
(0.0332048 -0.0640817 7.68976e-20)
(0.0276707 -0.0709314 7.12055e-20)
(0.0217469 -0.0759279 -1.36708e-19)
(0.01539 -0.078764 2.86879e-21)
(0.00906885 -0.0788929 6.1434e-20)
(0.00293772 -0.0757955 5.45239e-20)
(-0.00289658 -0.0690586 -5.34077e-20)
(-0.0082697 -0.058372 0)
(-0.0129786 -0.0435676 -4.40624e-20)
(-0.0167567 -0.024675 8.40894e-20)
(-0.0188604 -0.00188416 -4.01436e-20)
(-0.0189529 0.0240617 0)
(-0.0169736 0.0525677 0)
(-0.0118114 0.0825147 5.62992e-22)
(-0.00210292 0.112468 -3.45176e-20)
(0.0131484 0.140369 3.35327e-20)
(0.034898 0.163699 0)
(0.0638725 0.179542 3.75256e-20)
(0.100302 0.18504 -7.32539e-20)
(0.143992 0.177526 7.61712e-20)
(0.194593 0.155252 -8.01858e-20)
(0.250819 0.117007 -1.87056e-21)
(0.310981 0.0638968 8.25923e-20)
(0.373046 -0.00213805 -4.1172e-20)
(0.435482 -0.0772408 -1.15072e-21)
(0.496643 -0.153439 -1.46299e-20)
(0.552347 -0.220386 2.51633e-21)
(0.597634 -0.267968 1.23233e-20)
(0.629674 -0.291227 4.78435e-22)
(0.648422 -0.291268 -3.9567e-21)
(0.656297 -0.273173 5.72847e-21)
(0.655474 -0.242919 -1.96391e-21)
(0.647246 -0.206572 0)
(0.630663 -0.168829 1.64969e-21)
(0.607153 -0.132581 -1.66993e-21)
(0.58153 -0.0973999 1.798e-21)
(0.562481 -0.0626829 -2.23669e-21)
(0.555648 -0.0283785 2.47864e-22)
(0.562876 0.00257463 0)
(0.581374 0.0273824 2.00818e-22)
(0.608545 0.0428711 -5.20043e-22)
(0.6414 0.0490225 0)
(0.678412 0.0454301 -1.19435e-21)
(0.717924 0.0352858 4.92657e-22)
(0.757161 0.0201575 -1.84484e-22)
(0.794518 0.00470817 -1.50214e-22)
(0.825769 -0.00986668 0)
(0.852459 -0.0203573 0)
(0.869855 -0.0278774 3.18616e-22)
(0.884629 -0.0307488 -4.86566e-22)
(0.889564 -0.0312807 2.67762e-22)
(0.896644 -0.0286855 -8.59521e-23)
(0.894122 -0.0247074 -1.3911e-22)
(0.899608 -0.019001 -5.34911e-23)
(0.895623 -0.0128695 8.18392e-23)
(0.904826 -0.00577254 0)
(0.902949 -0.000831216 3.70192e-23)
(0.917499 0.00700871 1.11858e-23)
(0.175677 -0.040732 8.55482e-20)
(0.167078 -0.0472961 -8.48803e-20)
(0.157955 -0.0555742 6.09624e-22)
(0.150617 -0.0629939 -5.74093e-22)
(0.143139 -0.0687943 5.40743e-22)
(0.134964 -0.07262 -5.06159e-22)
(0.126529 -0.0739516 9.31095e-22)
(0.118154 -0.0722719 0)
(0.110102 -0.0671206 -7.9191e-22)
(0.10268 -0.0581434 7.28183e-22)
(0.0962407 -0.0451409 6.7025e-22)
(0.0911708 -0.0280895 -6.49666e-22)
(0.0879604 -0.00720006 0)
(0.0872954 0.0164262 0)
(0.0897267 0.0423996 5.17631e-22)
(0.0957904 0.0698517 0)
(0.106694 0.0973851 -4.99509e-22)
(0.123331 0.122898 0)
(0.146578 0.143937 -3.39241e-20)
(0.177028 0.157648 6.93879e-20)
(0.21475 0.161251 -7.27661e-20)
(0.259314 0.152447 3.73148e-20)
(0.310138 0.129516 4.20027e-20)
(0.36592 0.0915242 -4.07843e-20)
(0.425079 0.0391305 -4.40866e-20)
(0.485872 -0.026099 4.28158e-20)
(0.546822 -0.0997697 0)
(0.605328 -0.174443 1.10705e-21)
(0.656251 -0.238885 0)
(0.694292 -0.282836 0)
(0.717532 -0.302034 1.28471e-20)
(0.727549 -0.298441 -1.35e-20)
(0.728159 -0.277551 3.96464e-22)
(0.722698 -0.245114 1.3436e-22)
(0.713633 -0.206491 1.0968e-23)
(0.700478 -0.166026 1.45974e-21)
(0.682583 -0.127467 -1.41743e-21)
(0.660574 -0.0918837 2.35853e-21)
(0.639978 -0.059263 -2.04409e-21)
(0.626565 -0.0287041 -5.04542e-22)
(0.625063 -0.00180166 1.76941e-21)
(0.635562 0.0200607 3.1902e-23)