/*--------------------------------*- C++ -*----------------------------------*\
| =========                 |                                                 |
| \\      /  F ield         | OpenFOAM: The Open Source CFD Toolbox           |
|  \\    /   O peration     | Version:  2512                                  |
|   \\  /    A nd           | Website:  www.openfoam.com                      |
|    \\/     M anipulation  |                                                 |
\*---------------------------------------------------------------------------*/
FoamFile
{
    version     2.0;
    format      ascii;
    arch        "LSB;label=32;scalar=64";
    class       surfaceScalarField;
    location    "35.25";
    object      phi;
}
// * * * * * * * * * * * * * * * * * * * * * * * * * * * * * * * * * * * * * //

dimensions      [0 3 -1 0 0 0 0];

oriented        oriented;

internalField   nonuniform List<scalar> 
26232
(
3.11689e-05
0.000950026
-0.000981194
0.00027923
0.00188167
-0.00212973
0.000885136
0.00199978
-0.00260569
0.00198447
0.00136266
-0.00246199
0.0037123
6.27688e-06
-0.00173411
0.00620788
-0.0020535
-0.000442087
0.00960591
-0.00480343
0.0014054
0.0140327
-0.00823489
0.00380809
0.0195939
-0.0123285
0.0067673
0.0263616
-0.0170471
0.0102794
0.0343618
-0.0223299
0.0143297
0.0435644
-0.0280911
0.0188885
0.0538785
-0.0342217
0.0239076
0.0651535
-0.040596
0.029321
0.0771865
-0.0470798
0.0350468
0.0897349
-0.0535395
0.0409911
0.102534
-0.0598522
0.0470535
0.115314
-0.0659142
0.053134
0.127822
-0.0716438
0.059136
0.13984
-0.0770005
0.0649821
0.151185
-0.0819392
0.0705946
0.161751
-0.0865417
0.0759754
0.171435
-0.0906715
0.0809878
-0.0947542
0.0863211
0.179868
7.50036e-05
0.000875022
0.000480283
0.00147639
0.00138316
0.0010969
0.00294433
-0.000198512
0.0053235
-0.00237289
0.00867152
-0.00540152
0.0131257
-0.00925765
0.0187912
-0.0139004
0.0257248
-0.0192621
0.03392
-0.0252422
0.0432963
-0.0317062
0.0536984
-0.0384932
0.0649038
-0.0454271
0.0766393
-0.0523315
0.088604
-0.0590445
0.100495
-0.0654308
0.112035
-0.0713921
0.122992
-0.0768712
0.133202
-0.0818534
0.142568
-0.0863662
0.151083
-0.090455
0.158785
-0.0942436
0.165795
-0.0976809
-0.101252
0.172293
0.000134484
0.000740538
0.000740542
0.000870329
0.0020108
-0.000173359
0.00412827
-0.00231598
0.00726528
-0.0055099
0.0115708
-0.00970699
0.0171516
-0.0148385
0.0240506
-0.0207993
0.0322274
-0.0274389
0.0415497
-0.0345645
0.0517969
-0.0419534
0.0626775
-0.0493738
0.073858
-0.0566076
0.084997
-0.0634705
0.0957807
-0.0698281
0.105953
-0.0756034
0.115339
-0.0807776
0.123853
-0.085385
0.1315
-0.0895005
0.138361
-0.0932275
0.14458
-0.0966741
0.150306
-0.0999695
0.155754
-0.103129
-0.106508
0.161009
0.000211923
0.000528615
0.00106564
1.66164e-05
0.00277353
-0.00188126
0.00553051
-0.00507296
0.00950294
-0.00948233
0.014805
-0.0150091
0.0214709
-0.0215044
0.029432
-0.0287604
0.0385082
-0.0365151
0.0484181
-0.0444744
0.058809
-0.0523443
0.0692991
-0.0598639
0.0795243
-0.0668328
0.0891808
-0.0731271
0.0980559
-0.0787032
0.106043
-0.0835904
0.11314
-0.0878747
0.119433
-0.0916781
0.125069
-0.0951362
0.130222
-0.0983806
0.135068
-0.10152
0.139751
-0.104653
0.144411
-0.107789
-0.111157
0.14906
0.000308216
0.000220398
0.00145479
-0.00112995
0.00366049
-0.00408696
0.00711298
-0.00852545
0.0119417
-0.014311
0.018183
-0.0212503
0.0257505
-0.029072
0.0344256
-0.0374355
0.043874
-0.0459635
0.0536888
-0.0542893
0.0634491
-0.0621045
0.0727784
-0.0691932
0.0813927
-0.0754471
0.0891272
-0.0808616
0.0959404
-0.0855164
0.101897
-0.089547
0.107136
-0.093114
0.111834
-0.0963762
0.11617
-0.0994717
0.120297
-0.102508
0.124336
-0.105559
0.128362
-0.108679
0.132438
-0.111864
-0.115266
0.136547
0.000422714
-0.000202315
0.00190034
-0.00260758
0.00464321
-0.00682983
0.00880265
-0.0126849
0.0144301
-0.0199385
0.0214376
-0.0282578
0.0295818
-0.0372163
0.0384857
-0.0463393
0.0476942
-0.055172
0.0567502
-0.0633453
0.0652662
-0.0706205
0.0729757
-0.0769027
0.0797546
-0.082226
0.0856121
-0.0867191
0.0906588
-0.0905631
0.0950636
-0.0939518
0.0990113
-0.0970616
0.10267
-0.100035
0.106173
-0.102975
0.109616
-0.10595
0.113058
-0.109001
0.116532
-0.112152
0.120069
-0.115402
-0.118832
0.123635
0.00055298
-0.000755295
0.00238684
-0.00444144
0.00567454
-0.0101175
0.0104933
-0.0175037
0.0167721
-0.0262173
0.0242625
-0.0357482
0.0325575
-0.0455114
0.041159
-0.0549408
0.0495705
-0.0635835
0.0573853
-0.0711601
0.0643428
-0.077578
0.0703444
-0.0829043
0.0754323
-0.0873139
0.0797452
-0.0910319
0.0834665
-0.0942845
0.0867811
-0.0972664
0.0898461
-0.100127
0.0927795
-0.102968
0.0956607
-0.105856
0.0985391
-0.108829
0.101443
-0.111905
0.104386
-0.115096
0.107383
-0.118398
-0.121852
0.110403
0.000694531
-0.00144983
0.00289069
-0.0066376
0.00669023
-0.0139171
0.0120546
-0.0228681
0.0187535
-0.0329161
0.0263684
-0.0433631
0.0343634
-0.0535064
0.0421965
-0.0627739
0.0494261
-0.0708131
0.0557782
-0.0775123
0.0611602
-0.08296
0.06563
-0.0873741
0.0693413
-0.0910252
0.0724853
-0.094176
0.0752459
-0.0970451
0.0777732
-0.0997937
0.0801759
-0.102529
0.0825251
-0.105317
0.0848636
-0.108195
0.0872158
-0.111181
0.0895943
-0.114284
0.0920044
-0.117506
0.094451
-0.120845
-0.124312
0.0969107
0.000840531
-0.00229036
0.00338097
-0.00917805
0.00761424
-0.0181503
0.0133489
-0.0286027
0.0201792
-0.0397464
0.0275432
-0.0507271
0.0348463
-0.0608095
0.0415926
-0.0695202
0.04747
-0.0766906
0.0523689
-0.0824111
0.056346
-0.0869371
0.0595603
-0.0905884
0.0622082
-0.0936731
0.0644748
-0.0964426
0.0665083
-0.0990785
0.0684132
-0.101699
0.0702565
-0.104373
0.0720776
-0.107139
0.0738983
-0.110016
0.07573
-0.113013
0.0775781
-0.116132
0.0794446
-0.119372
0.08133
-0.12273
-0.1262
0.0832183
0.000981983
-0.00327234
0.00382188
-0.0120179
0.0083681
-0.0226966
0.0142533
-0.0344879
0.02091
-0.0464032
0.0276914
-0.0575084
0.0340274
-0.0671454
0.039539
-0.0750318
0.0440728
-0.0812244
0.0476655
-0.0860038
0.050472
-0.0897436
0.052692
-0.0928084
0.054515
-0.0954961
0.0560919
-0.0980195
0.0575282
-0.100515
0.05889
-0.10306
0.0602156
-0.105698
0.0615257
-0.108449
0.0628314
-0.111321
0.0641383
-0.11432
0.0654488
-0.117442
0.0667632
-0.120687
0.0680793
-0.124047
-0.127509
0.0693879
0.00110898
-0.00438132
0.00417807
-0.015087
0.00888353
-0.027402
0.0146809
-0.0402853
0.0208843
-0.0526066
0.0268365
-0.0634606
0.0320618
-0.0723707
0.0363312
-0.0793012
0.0396374
-0.0845306
0.0421185
-0.0884849
0.043974
-0.0915991
0.0454003
-0.0942347
0.0465559
-0.0966516
0.0475514
-0.0990151
0.0484559
-0.101419
0.0493087
-0.103913
0.0501306
-0.10652
0.0509328
-0.109251
0.0517213
-0.11211
0.0524989
-0.115097
0.0532668
-0.11821
0.054024
-0.121444
0.0547669
-0.124789
-0.128232
0.0554903
0.00121451
-0.00559584
0.00442248
-0.018295
0.00911433
-0.0320939
0.0145935
-0.0457644
0.0201192
-0.0581323
0.0250944
-0.0684358
0.0291783
-0.0764546
0.0322878
-0.0824107
0.0345245
-0.0867672
0.0360799
-0.0900403
0.0371576
-0.0926768
0.0379275
-0.0950047
0.0385103
-0.0972345
0.0389817
-0.0994864
0.0393844
-0.101822
0.0397407
-0.104269
0.0400621
-0.106842
0.0403549
-0.109544
0.0406225
-0.112377
0.040867
-0.115342
0.0410888
-0.118432
0.0412871
-0.121642
0.041458
-0.12496
0.0416001
-0.128374
-0.000207141
-6.92725e-05
0.000276414
-0.000723103
-0.000144878
0.00066084
-0.00148155
-0.000167972
0.000926418
-0.00243181
-0.000147863
0.00109812
-0.0035344
-9.52339e-05
0.00119782
-0.00475889
-1.99081e-05
0.0012444
-0.00608223
7.03621e-05
0.00125297
-0.00748699
0.00017028
0.00123448
-0.00896004
0.000277393
0.00119566
-0.0104912
0.000391738
0.00113946
-0.0120723
0.000515354
0.00106572
-0.0136959
0.000651671
0.000971958
-0.015355
0.000804958
0.000854123
-0.0170422
0.000979909
0.00070724
-0.0187495
0.00118144
0.000525918
-0.0204687
0.00141468
0.000304486
-0.022189
0.00168503
3.53271e-05
-0.0239082
0.0019976
-0.000278442
-0.0256189
0.00236032
-0.000649658
-0.0273219
0.00278153
-0.00107845
-0.0290258
0.00327122
-0.00156732
-0.0307493
0.00384153
-0.00211807
-0.0325271
0.00451133
-0.00273349
0.00530552
-0.0344164
-0.00341628
-0.000202633
0.000133361
-0.000706893
0.000359382
-0.00144625
0.000571387
-0.00236921
0.000775096
-0.00343536
0.000970918
-0.00461333
0.00115806
-0.00587891
0.00133594
-0.00721347
0.00150485
-0.00860245
0.00166636
-0.010034
0.00182324
-0.0114977
0.00197911
-0.0129841
0.00213804
-0.0144833
0.00230418
-0.015985
0.00248158
-0.0174777
0.00267414
-0.0189488
0.00288582
-0.0203848
0.00312106
-0.0217727
0.0033855
-0.0230996
0.00368722
-0.0243561
0.00403797
-0.025539
0.0044541
-0.0266548
0.00495734
-0.027725
0.00558154
0.00638449
-0.028804
-0.00018795
0.000321311
-0.000656381
0.000827814
-0.00134172
0.00125672
-0.00219327
0.00162665
-0.00317036
0.00194801
-0.00424062
0.00222832
-0.00537829
0.00247361
-0.00656273
0.00268929
-0.0077769
0.00288053
-0.00900609
0.00305244
-0.0102368
0.00320984
-0.0114559
0.00335711
-0.0126497
0.00349796
-0.0138034
0.00363533
-0.0149008
0.00377151
-0.0159234
0.00390846
-0.0168507
0.00404829
-0.0176594
0.00419418
-0.018324
0.00435185
-0.0188179
0.00453187
-0.0191166
0.00475282
-0.0192034
0.0050441
-0.0190746
0.0054528
0.00607127
-0.0187614
-0.000165659
0.00048697
-0.000579579
0.00124173
-0.00118305
0.00186019
-0.00192715
0.00237075
-0.00277125
0.00279212
-0.00368183
0.00313889
-0.00463109
0.00342287
-0.00559561
0.00365381
-0.00655499
0.00383991
-0.00749063
0.00398807
-0.00838469
0.0041039
-0.00921925
0.00419168
-0.00997559
0.0042543
-0.0106335
0.00429329
-0.011171
0.00430895
-0.0115631
0.0043006
-0.0117819
0.00426702
-0.0117948
0.00420715
-0.0115643
0.00412133
-0.0110462
0.00401382
-0.010191
0.00389753
-0.00894849
0.00380164
-0.0072812
0.00378551
0.00400183
-0.00521176
-0.000139096
0.000626066
-0.000486748
0.00158939
-0.000989451
0.00236289
-0.00160012
0.00298141
-0.00227799
0.00346999
-0.00298799
0.00384889
-0.00369969
0.00413456
-0.00438605
0.00434018
-0.0050223
0.00447616
-0.00558472
0.00455049
-0.00604976
0.00456894
-0.0063932
0.00453511
-0.00658952
0.00445062
-0.00661138
0.00431516
-0.00642915
0.00412672
-0.00601034
0.00388179
-0.00531895
0.00357564
-0.00431445
0.00320264
-0.00295003
0.00275691
-0.00117071
0.0022345
0.00109117
0.00163565
0.00391591
0.000976896
0.00739281
0.000308614
-0.000197812
0.0115924
-0.000111717
0.000737783
-0.000388486
0.00186615
-0.000780651
0.00275506
-0.00124203
0.00344279
-0.00173096
0.00395893
-0.00221003
0.00432796
-0.00264521
0.00456974
-0.00300478
0.00469975
-0.00325817
0.00472955
-0.00337492
0.00466724
-0.00332371
0.00451773
-0.00307166
0.00428306
-0.00258371
0.00396266
-0.00182221
0.00355366
-0.000746618
0.00305113
0.000686738
0.00244844
0.00252485
0.00173753
0.00481824
0.000909245
0.00762381
-4.86615e-05
0.0109992
-0.00114086
0.0150173
-0.00238251
0.0197668
-0.00377259
0.0253395
-0.00526407
-0.00689231
0.032034
-8.64357e-05
0.000824219
-0.000293603
0.00207332
-0.00057281
0.00303426
-0.000876882
0.00374686
-0.00116176
0.0042438
-0.00138625
0.00455246
-0.00151124
0.00469472
-0.00149848
0.00468699
-0.00130953
0.0045406
-0.000904569
0.00426228
-0.000241553
0.00385472
0.000724531
0.00331698
0.00204213
0.00264507
0.00376336
0.00183242
0.00594402
0.000870469
0.00864335
-0.000250895
0.0119234
-0.00154253
0.0158485
-0.00301588
0.0204821
-0.0046822
0.0258925
-0.00655129
0.0321406
-0.00863059
0.0393171
-0.0109492
0.0474093
-0.0133563
-0.016458
0.0569751
-6.50051e-05
0.000889224
-0.000207128
0.00221545
-0.000374592
0.00320173
-0.000516426
0.0038887
-0.00058383
0.00431121
-0.00052953
0.00449816
-0.00030679
0.00447198
0.000131995
0.00424821
0.000836507
0.00383608
0.0018596
0.00323919
0.00325807
0.00245624
0.00509314
0.00148191
0.00743047
0.000307737
0.0103398
-0.00107688
0.0138939
-0.0026837
0.0181677
-0.00452463
0.0232358
-0.00661062
0.0291706
-0.00895072
0.0360394
-0.011551
0.0439035
-0.0144154
0.052799
-0.0175261
0.062816
-0.0209661
0.0737704
-0.0243107
-0.0290755
0.0863879
-4.75629e-05
0.000936787
-0.000128814
0.0022967
-0.000184194
0.00325711
-0.000155189
0.00385969
1.49036e-05
0.00414111
0.000382783
0.00413028
0.00100669
0.00384808
0.00194768
0.00330722
0.00327098
0.00251279
0.00504674
0.00146343
0.00735023
0.000152757
0.0102613
-0.00142914
0.0138631
-0.00329404
0.01824
-0.00545385
0.0234753
-0.00791894
0.0296472
-0.0106965
0.0368258
-0.0137892
0.0450689
-0.0171939
0.0544181
-0.0209001
0.0648982
-0.0248955
0.0764938
-0.0291217
0.0892429
-0.0337153
0.10287
-0.0379375
-0.0441524
0.117946
-3.24721e-05
0.000969259
-5.25182e-05
0.00231674
1.2308e-05
0.00319228
0.000231343
0.00364066
0.000674284
0.00369817
0.0014118
0.00339276
0.00251797
0.0027419
0.0040719
0.00175329
0.00615824
0.000426444
0.00886678
-0.0012451
0.0122908
-0.00327129
0.0165245
-0.00566279
0.0216587
-0.00842829
0.0277768
-0.0115719
0.0349488
-0.015091
0.0432268
-0.0189746
0.0526401
-0.0232025
0.0631914
-0.0277452
0.0748547
-0.0325634
0.0875733
-0.0376141
0.101262
-0.0428102
0.115813
-0.0482663
0.131046
-0.0531711
-0.0600525
0.146947
-1.6595e-05
0.000985854
3.27922e-05
0.00226736
0.000237603
0.00298747
0.000684157
0.0031941
0.00145847
0.00292386
0.00265
0.00220123
0.00435318
0.00103872
0.00666786
-0.000561377
0.00969811
-0.00260381
0.0135489
-0.00509586
0.0183211
-0.00804351
0.0241053
-0.011447
0.0309746
-0.0152976
0.0389771
-0.0195743
0.0481298
-0.0242437
0.0584142
-0.029259
0.0697736
-0.0345619
0.0821137
-0.0400852
0.0953059
-0.0457556
0.109191
-0.0514996
0.12361
-0.0572292
0.138314
-0.0629699
0.153332
-0.068189
-0.0745924
0.167872
4.6596e-06
0.000142288
0.00052407
0.00125618
0.00244594
0.00420508
0.0066492
0.00989592
0.0140594
0.0192429
0.0255291
0.0329706
0.0415806
0.0513273
0.0621304
0.0738624
0.086354
0.0994028
0.112783
0.126266
0.139631
0.152637
0.165436
0.177164
-0.0354491
0.00680353
-0.00577085
-0.0364825
0.00829287
-0.00725945
-0.0374936
0.00990609
-0.00889496
-0.0384888
0.01164
-0.0106448
-0.039469
0.0134492
-0.012469
-0.0404318
0.0152733
-0.0143105
-0.0413706
0.0170321
-0.0160933
-0.0422735
0.0186234
-0.0177205
-0.0431228
0.0199232
-0.0190738
-0.0438943
0.0207845
-0.0200131
-0.0445562
0.0210407
-0.0203787
-0.0450706
0.020511
-0.0199966
-0.0453946
0.0190105
-0.0186866
-0.0454831
0.0163642
-0.0162756
-0.0452893
0.0124197
-0.0126136
-0.0447627
0.0070653
-0.00759186
-0.0438853
0.000254188
-0.00113156
-0.0426323
-0.00761887
0.0063658
-0.0410161
-0.0166446
0.0150284
-0.0390381
-0.0263229
0.0243449
-0.0366656
-0.0361586
0.0337861
-0.0339219
-0.045365
0.0426213
-0.0307561
-0.0532029
0.0500371
-0.0270223
-0.0588899
0.0551561
-0.0224629
-0.0616624
0.057103
-0.0167306
-0.0608613
0.055129
-0.00951146
-0.0560998
0.0488806
-0.000662176
-0.0472923
0.0384431
0.0098157
-0.0351475
0.0246696
0.0214531
-0.0207034
0.00906603
0.0336313
-0.00561748
-0.00656073
0.0456964
0.00852887
-0.0205939
0.057017
0.0202607
-0.0315813
0.0672303
0.0287193
-0.0389327
0.0762563
0.0334375
-0.0424634
0.0842598
0.0346767
-0.0426802
0.0915426
0.0326304
-0.0399132
0.0984085
0.0281142
-0.03498
0.105064
0.0215147
-0.0281703
0.111553
0.0139932
-0.0204825
0.117792
0.00596697
-0.0122053
0.12362
-0.00129277
-0.00453519
0.128894
-0.00774673
0.0024726
0.133532
-0.0123339
0.00769592
0.137547
-0.0156246
0.011609
0.141026
-0.016697
0.0132181
0.144113
-0.0166371
0.0135504
0.146943
-0.0144398
0.0116097
0.149643
-0.0116315
0.00893138
0.152237
-0.00706264
0.00446883
0.15475
-0.0027438
0.000230953
0.157076
0.00261672
-0.00494248
0.159248
0.00667195
-0.00884414
0.161116
0.0111034
-0.0129712
0.16282
0.0137081
-0.0154128
0.164167
0.0164755
-0.0178225
0.165445
0.0175215
-0.0187995
0.166436
0.018821
-0.019812
0.167489
0.0190786
-0.0201312
0.0197985
-0.0207088
-0.0294401
0.00743965
-0.0300753
0.00892805
-0.0306612
0.0104921
-0.0312016
0.0121804
-0.0316947
0.0139422
-0.0321349
0.0157135
-0.0325131
0.0174103
-0.0328139
0.0189242
-0.0330198
0.0201291
-0.0331087
0.0208734
-0.0330547
0.0209868
-0.0328295
0.0202857
-0.0324037
0.0185848
-0.0317508
0.0157113
-0.0308475
0.0115164
-0.0296612
0.00587903
-0.0282486
-0.00115843
-0.0265188
-0.00934865
-0.0245586
-0.0186048
-0.022431
-0.0284505
-0.0200869
-0.0385027
-0.0176846
-0.0477673
-0.0152487
-0.0556388
-0.0127418
-0.0613968
-0.00998576
-0.0644184
-0.00663004
-0.064217
-0.00224628
-0.0604836
0.00368616
-0.0532248
0.011331
-0.0427923
0.0204895
-0.0298619
0.0307405
-0.0158685
0.0415531
-0.00228371
0.0522987
0.00951502
0.0625927
0.0184253
0.0722653
0.0237649
0.0813564
0.0255855
0.0899979
0.0239889
0.0982998
0.0198122
0.106285
0.0135298
0.113852
0.00642548
0.12084
-0.00102079
0.127074
-0.00752676
0.132442
-0.013115
0.136918
-0.0168093
0.140572
-0.0192789
0.143545
-0.0196701
0.146033
-0.0191253
0.148225
-0.016631
0.150302
-0.013709
0.152341
-0.00910119
0.154408
-0.00481137
0.156414
0.000611251
0.158398
0.00468763
0.160185
0.00931687
0.1619
0.0119926
0.163305
0.0150704
0.164684
0.0161424
0.165779
0.0177258
0.166954
0.0179042
0.018775
-0.0188829
0.00756116
-0.0189962
0.00904137
-0.0190366
0.0105324
-0.018999
0.0121428
-0.0188802
0.0138234
-0.0186756
0.0155089
-0.0183774
0.0171121
-0.0179655
0.0185123
-0.0174292
0.0195928
-0.0167541
0.0201983
-0.0159244
0.020157
-0.014924
0.0192853
-0.0137377
0.0173985
-0.0123515
0.0143251
-0.0107588
0.00992371
-0.0089694
0.00408964
-0.00700587
-0.00312196
-0.00481354
-0.011541
-0.00245083
-0.0209675
8.18647e-05
-0.0309831
0.00238858
-0.0408095
0.00465521
-0.0500339
0.00678954
-0.0577731
0.00872726
-0.0633345
0.010492
-0.0661832
0.012312
-0.066037
0.0146181
-0.0627896
0.0179094
-0.056516
0.0226011
-0.047484
0.0289183
-0.0361792
0.0367222
-0.0236724
0.045626
-0.0111875
0.0552456
-0.00010458
0.065073
0.00859791
0.0748697
0.0139682
0.0845151
0.0159401
0.0939302
0.0145738
0.103019
0.0107233
0.111641
0.00490789
0.119608
-0.00154146
0.126715
-0.0081283
0.132824
-0.0136352
0.137875
-0.0181659
0.141899
-0.0208334
0.14501
-0.0223903
0.147377
-0.0220364
0.149212
-0.0209609
0.150726
-0.0181444
0.152131
-0.015114
0.153541
-0.0105112
0.155065
-0.00633615
0.156637
-0.000960757
0.158315
0.00301035
0.159909
0.00772209
0.161535
0.0103672
0.162918
0.0136867
0.164328
0.0147326
0.165478
0.0165758
0.166726
0.0166569
0.0176712
-0.0047494
0.0070988
-0.0043556
0.00864757
-0.00386403
0.0100409
-0.00323532
0.0115141
-0.00248632
0.0130744
-0.00161841
0.014641
-0.000619973
0.0161137
0.000495526
0.0173968
0.00173646
0.0183518
0.00310901
0.0188258
0.00461597
0.0186501
0.00625861
0.0176427
0.00803725
0.0156198
0.00995179
0.0124106
0.0120008
0.00787469
0.0141773
0.00191311
0.016461
-0.00540558
0.0188807
-0.0139608
0.0214041
-0.0234908
0.0239687
-0.0335478
0.0266162
-0.0434569
0.0291586
-0.0525764
0.031481
-0.0600955
0.0334433
-0.0652968
0.0349868
-0.0677266
0.0362066
-0.0672568
0.0373862
-0.0639693
0.0389664
-0.0580963
0.0414599
-0.0499774
0.0453128
-0.0400321
0.0507002
-0.0290598
0.0575157
-0.018003
0.0654853
-0.00807416
0.0743262
-0.000243051
0.0835769
0.0047175
0.0930229
0.00649414
0.102393
0.00520331
0.111428
0.00168848
0.119895
-0.00355883
0.127529
-0.00917545
0.134154
-0.0147533
0.139677
-0.019158
0.144095
-0.0225839
0.147484
-0.0242224
0.149979
-0.0248856
0.151749
-0.0238064
0.152995
-0.0222071
0.153914
-0.019063
0.15472
-0.0159199
0.155545
-0.0113367
0.156529
-0.00732035
0.157641
-0.00207234
0.15895
0.00170123
0.160282
0.00638987
0.161739
0.00891034
0.163034
0.012392
0.164408
0.0133589
0.165563
0.0154205
0.166831
0.0153884
0.0165235
0.0123644
0.00632685
0.0131028
0.00790919
0.0139493
0.00919437
0.0149809
0.0104825
0.0161766
0.0118788
0.017516
0.0133016
0.018997
0.0146326
0.020628
0.0157657
0.0224032
0.0165766
0.0243111
0.0169178
0.0263409
0.0166203
0.0284805
0.0155031
0.0307164
0.0133839
0.033036
0.010091
0.0354273
0.0054834
0.0378909
-0.000550471
0.040407
-0.00792172
0.0429838
-0.0165376
0.0456105
-0.0261175
0.0482605
-0.0361978
0.0509223
-0.0461187
0.0534864
-0.0551406
0.0558374
-0.0624465
0.0578519
-0.0673113
0.0594454
-0.0693201
0.0606219
-0.0684332
0.0615226
-0.06487
0.0624364
-0.0590101
0.0637899
-0.0513309
0.0660614
-0.0423037
0.0696067
-0.0326051
0.0745751
-0.0229714
0.0808802
-0.0143792
0.0882608
-0.00762374
0.0964256
-0.00344725
0.104964
-0.00204414
0.113524
-0.00335701
0.121773
-0.00656006
0.129376
-0.0111616
0.136104
-0.0159036
0.141807
-0.0204565
0.146443
-0.0237946
0.150054
-0.0261947
0.152741
-0.0269092
0.154641
-0.0267859
0.155905
-0.0250699
0.1567
-0.0230022
0.157187
-0.0195496
0.157555
-0.0162884
0.157934
-0.0117153
0.158475
-0.00786199
0.159179
-0.00277635
0.160133
0.000747906
0.161186
0.00533604
0.162436
0.0076603
0.163602
0.011227
0.164891
0.0120698
0.166013
0.0142981
0.167259
0.0141423
0.0153641
0.0326418
0.00571903
0.0333081
0.00724296
0.0341492
0.00835323
0.0352538
0.00937788
0.0365903
0.0105423
0.0381283
0.0117636
0.0398601
0.0129008
0.0417798
0.013846
0.0438697
0.0144867
0.0461073
0.0146802
0.0484687
0.0142589
0.0509274
0.0130444
0.0534552
0.010856
0.0560307
0.00751554
0.0585984
0.00291565
0.0612176
-0.00316967
0.0638083
-0.0105124
0.0663786
-0.0191079
0.0689189
-0.0286578
0.071412
-0.0386908
0.0738361
-0.0485428
0.076128
-0.0574325
0.0782165
-0.064535
0.080031
-0.0691258
0.0815206
-0.0708097
0.0826886
-0.0696012
0.0836138
-0.0657952
0.0844618
-0.0598581
0.0855079
-0.0523769
0.0871134
-0.0439093
0.0896262
-0.0351178
0.0932834
-0.0266286
0.0981408
-0.0192365
0.104068
-0.0135513
0.110817
-0.0101955
0.118007
-0.00923433
0.125253
-0.0106036
0.132196
-0.0135024
0.138515
-0.0174809
0.144009
-0.021398
0.148574
-0.0250208
0.152208
-0.0274285
0.154978
-0.0289656
0.156996
-0.0289266
0.158386
-0.028176
0.15927
-0.0259543
0.159777
-0.0235085
0.160019
-0.0197914
0.160146
-0.0164154
0.160263
-0.0118331
0.160521
-0.00811932
0.160935
-0.00319081
0.161609
7.43656e-05
0.162424
0.00452072
0.163475
0.00660895
0.164506
0.0101963
0.16569
0.0108854
0.166763
0.0132259
0.167961
0.0129439
0.0142125
0.0568446
0.00584948
0.05692
0.00716751
0.0572654
0.0080079
0.0579753
0.00866796
0.0589945
0.00952302
0.0602978
0.0104604
0.0618793
0.0113193
0.0637209
0.0120044
0.0657921
0.0124155
0.0680593
0.012413
0.070485
0.0118333
0.0730259
0.0105035
0.0756316
0.00825035
0.078271
0.0048761
0.0808637
0.000322946
0.0834527
-0.00575866
0.0859374
-0.0129971
0.0883066
-0.0214771
0.090543
-0.0308942
0.0926278
-0.0407756
0.0945415
-0.0504565
0.096256
-0.0591469
0.0977524
-0.0660315
0.0990316
-0.070405
0.100115
-0.0718927
0.101056
-0.070543
0.101938
-0.0666765
0.102859
-0.0607796
0.103966
-0.0534838
0.105459
-0.0454019
0.107563
-0.0372223
0.110475
-0.0295401
0.11429
-0.0230523
0.118965
-0.0182261
0.124318
-0.0155478
0.130038
-0.0149548
0.135785
-0.0163511
0.141241
-0.0189581
0.14614
-0.0223797
0.150329
-0.0255866
0.153747
-0.0284389
0.156422
-0.0301043
0.158434
-0.0309773
0.159885
-0.0303776
0.160883
-0.0291738
0.16152
-0.0265913
0.161886
-0.023875
0.162051
-0.0199563
0.16212
-0.0164835
0.162164
-0.0118773
0.162312
-0.00826799
0.162588
-0.00346654
0.1631
-0.000437302
0.16376
0.00386079
0.164663
0.00570586
0.165591
0.00926852
0.166682
0.00979375
0.167712
0.0121964
0.168861
0.0117947
0.0130713
0.0851119
0.00712551
0.0841807
0.00809875
0.0836261
0.00856251
0.0834962
0.00879781
0.083735
0.00928426
0.0843447
0.00985059
0.0853238
0.0103402
0.0866446
0.0106837
0.0882722
0.0107879
0.0901678
0.0105174
0.0922828
0.00971829
0.0945573
0.00822893
0.0969225
0.00588519
0.0992666
0.00253203
0.101758
-0.0021682
0.104008
-0.00800871
0.106142
-0.0151312
0.108082
-0.0234167
0.109786
-0.0325991
0.111224
-0.0422136
0.112376
-0.0516085
0.113242
-0.0600128
0.113858
-0.0666476
0.11431
-0.070857
0.114712
-0.0722941
0.115179
-0.0710105
0.115816
-0.0673127
0.116697
-0.0616608
0.117887
-0.054674
0.119456
-0.0469708
0.121488
-0.0392543
0.124069
-0.032121
0.127248
-0.0262319
0.130996
-0.0219737
0.135182
-0.0197333
0.139578
-0.0193515
0.143927
-0.0206997
0.147988
-0.0230192
0.151573
-0.0259647
0.154586
-0.0285995
0.157006
-0.0308595
0.15888
-0.0319781
0.160286
-0.0323828
0.161312
-0.0314036
0.162046
-0.0299076
0.162554
-0.0271
0.162899
-0.02422
0.163114
-0.0201714
0.163265
-0.016634
0.163389
-0.0120019
0.163587
-0.00846592
0.163873
-0.00375272
0.164356
-0.000920424
0.164967
0.00325047
0.165801
0.00487131
0.166686
0.00838389
0.167726
0.00875362
0.168744
0.0111781
0.169867
0.0106719
0.0119239
0.115531
0.00954131
0.113542
0.0100877
0.111986
0.0101179
0.110805
0.00997906
0.11002
0.0100694
0.109666
0.0102049
0.109731
0.0102744
0.110189
0.0102266
0.111012
0.00996481
0.112165
0.00936394
0.113596
0.00828713
0.11524
0.00658515
0.117028
0.00409686
0.118835
0.000725548
0.120687
-0.00402017
0.122391
-0.0097125
0.123902
-0.0166427
0.125146
-0.024661
0.126061
-0.0335139
0.126601
-0.0427539
0.126752
-0.0517597
0.126546
-0.0598065
0.126076
-0.0661776
0.125507
-0.0702879
0.125049
-0.0718362
0.124879
-0.0708399
0.125115
-0.0675494
0.125819
-0.062365
0.127004
-0.055859
0.12865
-0.0486166
0.130727
-0.0413307
0.133204
-0.0345982
0.136047
-0.0290754
0.139193
-0.0251193
0.142529
-0.0230699
0.145898
-0.0227199
0.149124
-0.0239257
0.152056
-0.0259512
0.154586
-0.0284953
0.156675
-0.0306878
0.158334
-0.0325186
0.159618
-0.0332624
0.160601
-0.0333654
0.161354
-0.0321571
0.161948
-0.0305011
0.162428
-0.0275806
0.162838
-0.0246302
0.163189
-0.0205217
0.163515
-0.0169605
0.163828
-0.0123145
0.164195
-0.00883303
0.164618
-0.00417608
0.165192
-0.00149441
0.165863
0.00257946
0.166722
0.00401286
0.167639
0.00746628
0.16869
0.00770343
0.169747
0.0101211
0.170887
0.00953189
0.0107364
0.143849
0.0126388
0.141194
0.0127429
0.138868
0.0124433
0.136807
0.0120406
0.135134
0.0117427
0.133883
0.0114554
0.133033
0.0111248
0.132568
0.0106911
0.132478
0.0100551
0.132731
0.00911117
0.133278
0.00774007
0.134052
0.0058104
0.134992
0.00315749
0.136078
-0.000360546
0.137017
-0.00495886
0.137867
-0.0105631
0.138488
-0.0172633
0.138783
-0.0249564
0.138671
-0.0334011
0.1381
-0.0421831
0.137073
-0.0507328
0.135663
-0.058397
0.134029
-0.064543
0.132403
-0.0686622
0.13107
-0.0705027
0.130242
-0.0700118
0.130043
-0.0673509
0.130514
-0.0628358
0.131629
-0.0569739
0.133309
-0.0502972
0.135447
-0.0434687
0.137924
-0.0370744
0.140623
-0.0317747
0.14343
-0.0279268
0.14623
-0.0258699
0.148906
-0.0253951
0.151351
-0.0263711
0.153489
-0.0280896
0.155284
-0.03029
0.156741
-0.0321448
0.157899
-0.0336761
0.158814
-0.0341782
0.159555
-0.0341065
0.16018
-0.0327815
0.160743
-0.0310641
0.161278
-0.0281154
0.161816
-0.0251681
0.162354
-0.0210601
0.162911
-0.0175172
0.163476
-0.0128794
0.16409
-0.00944765
0.164742
-0.00482799
0.165503
-0.00225482
0.166331
0.00175102
0.167303
0.00304047
0.168334
0.00643596
0.169466
0.00657159
0.170622
0.00896466
0.171837
0.00831688
0.00946166
0.164879
0.0156312
0.162201
0.0154208
0.159647
0.0149982
0.157276
0.0144111
0.155212
0.0138069
0.153474
0.013193
0.152056
0.0125435
0.15096
0.0117868
0.15018
0.010835
0.149692
0.00959969
0.149454
0.00797795
0.149414
0.00585036
0.14949
0.00308077
0.149577
-0.000447226
0.149666
-0.00504792
0.149542
-0.0104389
0.149133
-0.0168544
0.148331
-0.0241548
0.147061
-0.0321302
0.145288
-0.0404104
0.143052
-0.0484974
0.140479
-0.0558239
0.137782
-0.0618452
0.135231
-0.066112
0.13314
-0.0684109
0.131744
-0.068616
0.131156
-0.0667635
0.131396
-0.0630754
0.132412
-0.0579896
0.13409
-0.051975
0.136275
-0.0456543
0.138791
-0.0395907
0.141463
-0.0344461
0.144128
-0.0305919
0.146654
-0.0283963
0.148943
-0.0276835
0.150934
-0.0283623
0.152605
-0.0297605
0.15397
-0.0316552
0.15507
-0.0332451
0.155963
-0.0345685
0.156706
-0.0349218
0.157364
-0.0347638
0.157982
-0.0333996
0.158606
-0.0316885
0.159261
-0.0287704
0.159972
-0.0258793
0.160732
-0.0218194
0.161547
-0.0183325
0.162397
-0.0137295
0.163303
-0.0103534
0.164241
-0.00576599
0.165255
-0.00326931
0.166316
0.00069017
0.16748
0.00187658
0.168696
0.00521968
0.169982
0.00528623
0.171301
0.00764519
0.172656
0.00696241
0.00804488
0.175214
0.0175813
0.173182
0.017453
0.171201
0.0169794
0.16926
0.0163516
0.167426
0.0156413
0.165753
0.0148656
0.164273
0.0140236
0.162995
0.0130656
0.161911
0.0119186
0.161008
0.0105023
0.160247
0.0087397
0.159572
0.0065251
0.158945
0.00370707
0.158407
9.14601e-05
0.15755
-0.00419098
0.156503
-0.00939184
0.15511
-0.0154617
0.153296
-0.0223402
0.151009
-0.0298438
0.148263
-0.0376639
0.145148
-0.0453827
0.141836
-0.0525119
0.13856
-0.0585695
0.135571
-0.0631224
0.133073
-0.065913
0.131242
-0.0667852
0.130237
-0.0657591
0.130144
-0.0629819
0.130914
-0.0587598
0.132426
-0.0534869
0.134511
-0.0477398
0.136967
-0.0420465
0.139584
-0.0370631
0.142166
-0.0331732
0.144558
-0.0307889
0.146661
-0.0297866
0.148436
-0.0301375
0.149889
-0.0312136
0.151065
-0.0328311
0.152024
-0.0342038
0.152835
-0.0353797
0.153558
-0.0356447
0.154253
-0.035458
0.154958
-0.0341046
0.155713
-0.0324444
0.156538
-0.0295952
0.157456
-0.0267966
0.158456
-0.0228195
0.159542
-0.0194193
0.16069
-0.0148773
0.161906
-0.0115695
0.16316
-0.00701999
0.164472
-0.00458101
0.165818
-0.000655554
0.167234
0.000460813
0.168697
0.0037567
0.170201
0.003782
0.171743
0.00610271
0.173302
0.00540389
0.00642915
0.191214
0.0190751
-0.192708
0.190129
0.0185377
0.189024
0.0180851
0.187926
0.0174496
0.186903
0.0166637
0.185986
0.015783
0.185203
0.0148061
0.184584
0.0136852
0.184148
0.0123542
0.183909
0.010741
0.183882
0.00876713
0.184078
0.00632877
0.184441
0.00334425
0.184836
-0.000303982
0.185329
-0.00468399
0.185735
-0.00979739
0.185938
-0.0156647
0.185797
-0.0221994
0.185176
-0.0292224
0.183971
-0.0364592
0.18214
-0.0435516
0.179712
-0.0500841
0.176793
-0.0556501
0.173549
-0.0598788
0.170173
-0.0625371
0.16687
-0.0634816
0.163835
-0.0627244
0.161236
-0.0603829
0.159206
-0.0567296
0.157818
-0.0520991
0.157083
-0.047005
0.156945
-0.0419082
0.157288
-0.0374064
0.157955
-0.0338395
0.158768
-0.0316021
0.159562
-0.0305803
0.160204
-0.0307804
0.160612
-0.0316213
0.16075
-0.0329695
0.160629
-0.0340825
0.16029
-0.0350403
0.159789
-0.0351445
0.159194
-0.0348625
0.158564
-0.033475
0.157957
-0.0318369
0.157414
-0.0290524
0.156972
-0.0263549
0.156645
-0.0224924
0.156443
-0.0192167
0.156353
-0.0147876
0.156372
-0.0115889
0.156475
-0.00712308
0.15665
-0.00475572
0.156879
-0.000884448
0.15715
0.000189667
0.157455
0.00345218
0.157764
0.00347293
0.158076
0.00579012
0.15836
0.00512051
0.00615076
0.204805
0.0193389
-0.205069
0.204555
0.0187876
0.20435
0.0182903
0.2041
0.0177
0.20381
0.0169535
0.203525
0.0160676
0.203285
0.015047
0.203111
0.0138591
0.203019
0.0124461
0.203017
0.0107427
0.203112