/*--------------------------------*- C++ -*----------------------------------*\
| =========                 |                                                 |
| \\      /  F ield         | OpenFOAM: The Open Source CFD Toolbox           |
|  \\    /   O peration     | Version:  2512                                  |
|   \\  /    A nd           | Website:  www.openfoam.com                      |
|    \\/     M anipulation  |                                                 |
\*---------------------------------------------------------------------------*/
FoamFile
{
    version     2.0;
    format      ascii;
    arch        "LSB;label=32;scalar=64";
    class       volVectorField;
    location    "83.25";
    object      U;
}
// * * * * * * * * * * * * * * * * * * * * * * * * * * * * * * * * * * * * * //

dimensions      [0 1 -1 0 0 0 0];

internalField   nonuniform List<vector> 
13248
(
(-0.0136709 0.0124686 8.29101e-20)
(-0.0252083 0.0267282 0)
(-0.0207834 0.0348034 -1.56485e-19)
(-0.000882063 0.0385813 1.47407e-19)
(0.0341223 0.0395147 1.37732e-19)
(0.0838774 0.0387333 0)
(0.147904 0.0370982 0)
(0.225433 0.03526 3.32866e-19)
(0.315206 0.0336798 -6.56843e-22)
(0.415305 0.0326251 -2.92528e-19)
(0.523076 0.0321642 2.74533e-19)
(0.635176 0.0321741 -1.7189e-19)
(0.747762 0.0323694 0)
(0.856783 0.0323522 -3.03537e-19)
(0.958329 0.0316774 5.69037e-19)
(1.04898 0.0299243 -1.35896e-19)
(1.12613 0.0267655 -2.45782e-19)
(1.18815 0.0219982 2.30747e-19)
(1.2346 0.0156479 0)
(1.26602 0.0075968 0)
(1.28412 -0.00110435 0)
(1.29038 -0.0131739 0)
(1.28834 -0.0199538 6.88917e-20)
(1.27713 -0.0459892 2.46103e-19)
(-0.0134052 0.0108948 -2.5026e-19)
(-0.0197665 0.0208848 1.70481e-19)
(-0.00619076 0.0250571 -1.61871e-21)
(0.0262234 0.0257658 -2.25091e-19)
(0.0767354 0.024766 -1.37583e-19)
(0.144561 0.0233764 -1.30212e-19)
(0.228503 0.0225201 -2.39337e-19)
(0.32667 0.0227884 2.26493e-19)
(0.436268 0.0244646 0)
(0.553563 0.0275277 4.75094e-22)
(0.674052 0.0316719 9.59216e-22)
(0.792824 0.0363598 1.71506e-19)
(0.905033 0.040911 0)
(1.00639 0.044612 0)
(1.09359 0.0468276 2.07024e-19)
(1.16458 0.0470949 -3.89171e-19)
(1.21869 0.0451807 2.34407e-19)
(1.25657 0.0410988 -2.20084e-19)
(1.27994 0.0350733 -9.68555e-20)
(1.29128 0.0274999 -1.78059e-19)
(1.29325 0.018873 -7.33258e-20)
(1.28859 0.00948482 -1.38131e-19)
(1.27927 0.00154794 2.02674e-19)
(1.26739 -0.0107876 5.7416e-20)
(-0.012026 0.00894292 0)
(-0.0104412 0.0146577 0)
(0.0156863 0.0156978 7.96321e-20)
(0.0643722 0.0145852 7.33225e-20)
(0.134126 0.0132265 -1.7646e-21)
(0.223177 0.0130268 -1.34698e-19)
(0.328884 0.0148375 0)
(0.447446 0.0190029 -1.12728e-19)
(0.573894 0.0253986 1.0636e-19)
(0.702409 0.033482 7.19041e-22)
(0.826909 0.0423943 -1.83075e-19)
(0.941751 0.0511141 -1.69161e-19)
(1.04238 0.0586331 2.17302e-21)
(1.1258 0.0641188 -1.42336e-19)
(1.19074 0.0670311 3.40146e-19)
(1.23763 0.0671728 0)
(1.26828 0.0646746 -2.23668e-19)
(1.2854 0.0599155 1.08947e-19)
(1.29212 0.0534549 9.6781e-20)
(1.2914 0.0458066 0)
(1.28584 0.0377891 7.95149e-20)
(1.27713 0.029091 -2.70893e-19)
(1.26675 0.0225803 2.54304e-19)
(1.25539 0.0111182 1.58254e-19)
(-0.00903167 0.00651562 -8.83588e-20)
(0.00389777 0.00796558 -9.13674e-20)
(0.0462328 0.00681789 8.26485e-20)
(0.11479 0.00540698 0)
(0.206784 0.00556059 0)
(0.318704 0.00855691 -3.02912e-21)
(0.44563 0.0149099 0)
(0.581203 0.0244119 -3.45436e-19)
(0.718102 0.0362477 3.21413e-19)
(0.848908 0.0491764 -3.97483e-19)
(0.967102 0.0617803 9.15208e-20)
(1.06788 0.0727323 0)
(1.14863 0.0810182 1.53779e-19)
(1.20896 0.0860675 -2.85397e-19)
(1.2504 0.0877755 6.80542e-20)
(1.2758 0.0864313 1.7642e-19)
(1.28864 0.0825848 -6.98802e-21)
(1.29242 0.0769031 -1.95983e-19)
(1.29015 0.0700325 0)
(1.28412 0.0625455 0)
(1.27588 0.0549006 -7.07504e-20)
(1.26636 0.0472187 6.35263e-20)
(1.2562 0.0409216 2.28473e-19)
(1.24562 0.0312833 -2.1452e-19)
(-0.00396301 0.00368703 -9.30552e-20)
(0.0242378 0.00110911 -9.28252e-20)
(0.0864858 -0.00100775 2.61056e-19)
(0.177989 -0.000907081 -1.5859e-19)
(0.293947 0.00283526 1.49271e-19)
(0.428244 0.0110232 2.71567e-19)
(0.572991 0.0234436 -1.9207e-19)
(0.719122 0.038987 -2.34296e-19)
(0.857601 0.0559565 4.26942e-21)
(0.980787 0.0724589 3.00406e-19)
(1.08348 0.0867963 0)
(1.16339 0.0977616 8.31594e-20)
(1.22096 0.104774 0)
(1.25873 0.107853 -1.37117e-19)
(1.28047 0.107471 1.93097e-19)
(1.29028 0.10435 2.12266e-21)
(1.29193 0.0992722 -5.09951e-20)
(1.28841 0.0929432 9.63554e-20)
(1.28184 0.0859277 8.29487e-20)
(1.27359 0.0786296 -7.46308e-20)
(1.26446 0.0713611 7.07346e-20)
(1.25487 0.0641811 -6.35111e-20)
(1.24508 0.0579292 0)
(1.23526 0.0493731 -4.80718e-20)
(0.00357443 0.00068752 9.30418e-20)
(0.0513287 -0.00522926 9.7678e-20)
(0.136972 -0.00670746 -8.7489e-20)
(0.253555 -0.00301549 1.63245e-19)
(0.393426 0.0064181 -1.53644e-19)
(0.547108 0.0214415 1.39242e-19)
(0.703555 0.0406791 -6.6839e-20)
(0.851709 0.0618888 1.75842e-19)
(0.98237 0.0825724 -1.10613e-19)
(1.08959 0.100554 1.96624e-19)
(1.17115 0.114374 -4.5426e-19)
(1.22819 0.123426 1.66987e-19)
(1.26419 0.127865 -1.47242e-19)
(1.28375 0.128363 1.38308e-19)
(1.29157 0.125831 1.20353e-19)
(1.2917 0.121183 1.06341e-19)
(1.28718 0.115191 -2.95677e-19)
(1.2801 0.108442 1.83835e-19)
(1.27171 0.101339 -8.2953e-20)
(1.26273 0.0941557 2.16942e-19)
(1.25352 0.0870678 -7.00397e-20)
(1.24424 0.0801771 -1.71136e-19)
(1.23498 0.0738878 1.58101e-19)
(1.22575 0.0661514 4.80576e-20)
(0.0138902 -0.00212439 0)
(0.0855831 -0.010064 8.66243e-22)
(0.197525 -0.00886456 1.83056e-19)
(0.339945 0.000646361 -1.7165e-19)
(0.501555 0.0176055 -1.55149e-19)
(0.669212 0.0403679 2.88482e-19)
(0.82939 0.0660935 -1.34034e-19)
(0.97068 0.0914942 1.78966e-19)
(1.08576 0.113716 -3.73391e-21)
(1.17207 0.130906 -1.0159e-19)
(1.23117 0.142364 2.22636e-19)
(1.26736 0.148366 -3.28834e-19)
(1.28612 0.149803 0)
(1.29278 0.147806 -6.49834e-20)
(1.29178 0.143455 -1.7447e-19)
(1.28637 0.137629 5.47463e-20)
(1.27867 0.130963 2.06576e-21)
(1.26992 0.123883 -1.22189e-19)
(1.2608 0.116661 7.1154e-21)
(1.25162 0.109467 1.41587e-19)
(1.24251 0.102416 -6.35773e-20)
(1.23352 0.0955957 -2.42622e-20)
(1.22461 0.0891273 7.45912e-20)
(1.2158 0.0819236 0)
(0.0271743 -0.00430298 0)
(0.126961 -0.0122374 4.96139e-20)
(0.267124 -0.00595282 -2.38459e-19)
(0.434408 0.0115192 8.68978e-20)
(0.613449 0.0372269 -8.17827e-20)
(0.787936 0.0676128 -7.47985e-20)
(0.943486 0.0984135 -1.32453e-19)
(1.0705 0.125788 6.59763e-20)
(1.16534 0.147218 5.75535e-20)
(1.22958 0.161753 0)
(1.26821 0.169739 1.31951e-19)
(1.28762 0.172301 -1.96766e-19)
(1.29395 0.170842 1.46644e-19)
(1.29222 0.166672 6.50186e-20)
(1.28602 0.160828 -5.36006e-20)
(1.27763 0.154039 -4.52118e-20)
(1.26837 0.146777 -4.24404e-20)
(1.25891 0.139331 1.2615e-19)
(1.24956 0.131874 0)
(1.24042 0.124517 6.40177e-20)
(1.23153 0.117338 5.42376e-20)
(1.22284 0.110402 -1.34248e-19)
(1.21431 0.1037 -9.24048e-20)
(1.20589 0.0968425 8.53716e-20)
(0.0434576 -0.0053461 -5.33196e-20)
(0.17488 -0.0105468 -1.95236e-21)
(0.343845 0.00342184 4.85233e-20)
(0.533166 0.0306097 1.35735e-19)
(0.723641 0.0654019 3.95565e-20)
(0.897238 0.102243 -7.63739e-20)
(1.04094 0.135937 6.98147e-20)
(1.14895 0.16287 -6.13381e-20)
(1.22216 0.181534 1.10043e-19)
(1.26602 0.192216 4.70857e-20)
(1.28786 0.19628 -1.33494e-19)
(1.29486 0.195469 3.95045e-20)
(1.29286 0.191413 6.77526e-20)
(1.286 0.185386 -3.32805e-20)
(1.27688 0.178267 0)
(1.26697 0.170608 5.02197e-20)
(1.25698 0.162735 8.54181e-20)
(1.24725 0.154835 1.49344e-20)
(1.23788 0.147018 -7.14912e-20)
(1.22887 0.13936 3.00942e-20)
(1.22019 0.131916 0)
(1.21179 0.124716 -2.38275e-20)
(1.20359 0.117717 -2.26297e-20)
(1.1955 0.110976 0)
(0.0625565 -0.00473164 0)
(0.228155 -0.00387959 2.79195e-20)
(0.424936 0.0203127 5.17423e-20)
(0.631819 0.0583027 -1.38305e-19)
(0.826885 0.101528 4.4632e-20)
(0.992554 0.142831 0)
(1.11938 0.176935 6.73407e-20)
(1.2065 0.201269 -9.40221e-20)
(1.25926 0.215778 -5.49334e-20)
(1.28595 0.222011 2.48875e-20)
(1.295 0.22213 -4.00031e-20)
(1.2934 0.2182 9.70483e-20)
(1.28612 0.211844 4.89264e-20)
(1.27627 0.204175 -3.38624e-20)
(1.2656 0.195876 -3.02873e-21)
(1.25495 0.187338 -9.39679e-20)
(1.24468 0.178774 4.28758e-20)
(1.23491 0.170303 -1.07608e-21)
(1.22564 0.161997 0)
(1.21684 0.153909 -3.01256e-20)
(1.20843 0.146072 0)
(1.20033 0.138489 6.8771e-20)
(1.19247 0.131156 -8.20594e-20)
(1.18472 0.124348 3.74716e-20)
(0.0840363 -0.00196004 -1.45165e-20)
(0.285015 0.00866818 -7.03868e-20)
(0.507041 0.0452931 8.00574e-20)
(0.725879 0.0943178 4.7156e-20)
(0.918825 0.144436 -2.25252e-20)
(1.07114 0.187756 3.79152e-20)
(1.1785 0.219909 -1.84111e-20)
(1.24519 0.23999 3.07284e-20)
(1.28016 0.249534 0)
(1.29331 0.251162 6.99821e-20)
(1.29316 0.247527 -2.76386e-21)
(1.2859 0.24076 -5.67078e-20)
(1.27543 0.232328 2.4403e-20)
(1.26395 0.223128 -2.76902e-20)
(1.25252 0.213658 -1.06692e-20)
(1.24158 0.204179 1.21892e-20)
(1.23127 0.194826 -9.50953e-21)
(1.22161 0.185674 -5.18122e-20)
(1.21255 0.176768 3.17804e-20)
(1.20401 0.168145 6.56286e-21)
(1.1959 0.159816 5.8058e-21)
(1.18814 0.151769 5.13778e-21)
(1.18062 0.144072 0)
(1.1732 0.136993 0)
(0.10728 0.00341211 1.45266e-20)
(0.343343 0.0277098 -1.45599e-20)
(0.586683 0.0783916 -2.66795e-20)
(0.811401 0.137783 0)
(0.996424 0.192629 -1.11836e-20)
(1.13187 0.235464 -1.00676e-20)
(1.21926 0.263709 -1.72757e-20)
(1.26744 0.278441 0)
(1.28781 0.282671 0)
(1.29083 0.279792 0)
(1.28439 0.272659 0)
(1.27359 0.263284 0)
(1.26134 0.252903 -1.5363e-20)
(1.24906 0.242197 7.00652e-21)
(1.23737 0.231508 1.22442e-20)
(1.22644 0.221 5.73039e-21)
(1.21629 0.210754 1.42794e-20)
(1.20687 0.200814 0)
(1.19812 0.19121 -3.46956e-21)
(1.18994 0.181959 -3.31587e-21)
(1.18223 0.173056 -5.81503e-21)
(1.17488 0.164494 -5.14597e-21)
(1.16778 0.156408 0)
(1.16078 0.148903 3.74441e-21)
(-0.00202535 0.0370308 8.78383e-21)
(-0.00729483 0.0891817 -9.08489e-21)
(-0.0156077 0.125142 -1.71666e-20)
(-0.0257921 0.148444 0)
(-0.0370525 0.162235 -2.28817e-20)
(-0.0488825 0.169287 7.13881e-21)
(-0.0608696 0.17186 -1.36572e-20)
(-0.0726914 0.171615 0)
(-0.0841184 0.169624 0)
(-0.0949939 0.166449 0)
(-0.105211 0.162255 0)
(-0.114691 0.156933 0)
(-0.123371 0.150211 -1.33551e-22)
(-0.131185 0.141735 -9.19408e-21)
(-0.138063 0.131122 1.79458e-20)
(-0.14392 0.118001 2.54381e-20)
(-0.148657 0.102036 8.39423e-21)
(-0.152164 0.0829507 0)
(-0.154325 0.0605557 7.11393e-21)
(-0.155025 0.0347807 -2.06048e-20)
(-0.154173 0.00569823 -1.31831e-20)
(-0.151671 -0.026524 -1.24396e-20)
(-0.147544 -0.0614002 0)
(-0.142072 -0.0981952 0)
(-0.00416117 0.0389086 -2.65615e-20)
(-0.0114711 0.0944619 4.55933e-20)
(-0.0195608 0.1334 -1.74712e-20)
(-0.0282227 0.159128 -3.27415e-20)
(-0.0372092 0.174728 4.6113e-20)
(-0.046306 0.182981 -2.92319e-20)
(-0.0552766 0.186211 4.11466e-20)
(-0.0638903 0.186176 2.63633e-20)
(-0.071946 0.18405 0)
(-0.0792768 0.180485 -2.34407e-20)
(-0.0857469 0.175718 -4.99492e-22)
(-0.0912446 0.169686 2.06466e-20)
(-0.0956748 0.162139 3.03936e-20)
(-0.0989505 0.152727 3.87329e-20)
(-0.100986 0.141058 -1.73564e-20)
(-0.101695 0.126739 -5.17433e-20)
(-0.100982 0.10941 1.73991e-20)
(-0.0987484 0.0887659 -6.41872e-20)
(-0.0948848 0.0645962 0)
(-0.089303 0.0368462 1.39048e-20)
(-0.081937 0.00558659 1.31624e-20)
(-0.072707 -0.0288765 1.24197e-20)
(-0.0613599 -0.0657887 0)
(-0.0478296 -0.103764 0)
(-0.0063099 0.0392028 0)
(-0.0157642 0.0963121 9.37386e-20)
(-0.0236465 0.137302 -3.5289e-20)
(-0.0306372 0.165103 3.30898e-20)
(-0.0370058 0.182494 -9.44344e-20)
(-0.0428285 0.192099 0)
(-0.0480595 0.196195 -5.63527e-20)
(-0.0525795 0.196564 2.66662e-20)
(-0.0562339 0.194452 -5.0896e-20)
(-0.0588584 0.190598 2.46762e-20)
(-0.0602944 0.185324 1.3804e-19)
(-0.0603967 0.178636 -6.4938e-20)
(-0.0590361 0.170336 -1.04263e-19)
(-0.0560972 0.160102 -4.16267e-20)
(-0.0514762 0.147557 -1.45165e-21)
(-0.0450785 0.132312 1.45535e-19)
(-0.0368183 0.114001 -6.90002e-20)
(-0.0266167 0.0923061 -1.36867e-21)
(-0.0143621 0.0669992 0)
(-4.50854e-05 0.0379579 -6.2177e-20)
(0.0162219 0.00521814 0)
(0.0345596 -0.0308667 -5.43264e-20)
(0.0554615 -0.0694274 2.07902e-19)
(0.0797412 -0.108731 -3.719e-23)
(-0.00824619 0.0379737 0)
(-0.0197643 0.0947022 6.46614e-22)
(-0.0275068 0.136616 3.61495e-20)
(-0.0328433 0.165902 -3.41507e-20)
(-0.0364678 0.184856 3.14866e-20)
(-0.038715 0.195803 1.81168e-19)
(-0.0397304 0.20086 -5.6836e-20)
(-0.0395237 0.201759 -5.43087e-20)
(-0.038011 0.199772 1.02412e-19)
(-0.035054 0.195706 -1.46554e-19)
(-0.0304901 0.189966 4.62496e-20)
(-0.0241537 0.182646 4.46401e-20)
(-0.0158882 0.173615 0)
(-0.0055528 0.162609 4.01524e-20)
(0.00697575 0.149288 0)
(0.0218026 0.133291 7.5409e-20)
(0.0390133 0.114266 -1.45235e-19)
(0.0586685 0.091907 3.0915e-20)
(0.0808098 0.0659726 1.30806e-19)
(0.105428 0.0363131 6.21003e-20)
(0.132438 0.00297353 0)
(0.161771 -0.0337449 -1.71151e-19)
(0.193415 -0.0730719 5.33281e-20)
(0.231155 -0.113096 0)
(-0.00979913 0.0354568 0)
(-0.0231401 0.0899607 -1.15691e-19)
(-0.030854 0.131525 -3.64964e-20)
(-0.0347117 0.161465 -6.85614e-20)
(-0.0356889 0.181494 6.45542e-20)
(-0.0343196 0.193547 -6.05828e-20)
(-0.0309239 0.199492 1.15639e-19)
(-0.0256502 0.200939 5.51895e-20)
(-0.0185094 0.199125 -1.54641e-19)
(-0.00941804 0.194896 9.92656e-20)
(0.0017633 0.188725 -1.4093e-19)
(0.0151997 0.180788 3.15516e-19)
(0.031061 0.171038 -1.70187e-19)
(0.0495081 0.159279 8.25153e-20)
(0.070686 0.145232 2.39088e-19)
(0.094719 0.128577 -7.183e-20)
(0.121708 0.109 -6.97415e-20)
(0.151709 0.0862197 -6.83647e-20)
(0.184753 0.0600423 0)
(0.220819 0.0303645 -1.29779e-19)
(0.259717 -0.00275999 -1.25131e-19)
(0.301563 -0.0390703 1.73566e-19)
(0.344055 -0.0780464 2.19004e-19)
(0.398592 -0.117082 -2.05921e-19)
(-0.010886 0.0320231 0)
(-0.0256991 0.0827288 -1.57002e-19)
(-0.0335087 0.122616 -2.01775e-22)
(-0.0361649 0.152165 1.38617e-19)
(-0.0347585 0.172512 0)
(-0.0299471 0.185172 0)
(-0.0221911 0.191716 0)
(-0.0117719 0.193569 -5.53206e-20)
(0.00119188 0.191885 -1.04708e-21)
(0.0167078 0.187498 9.84381e-20)
(0.0348707 0.180925 -1.43011e-19)
(0.0558285 0.172407 -1.17657e-21)
(0.079756 0.161973 0)
(0.106836 0.149502 -8.24697e-20)
(0.137244 0.134778 8.12743e-20)
(0.171134 0.11754 -2.26615e-19)
(0.208638 0.0975298 2.94107e-19)
(0.249845 0.0745261 7.49582e-20)
(0.294748 0.048377 5.31922e-21)
(0.343274 0.0190456 -2.55344e-19)
(0.394804 -0.0133963 -1.21792e-19)
(0.450557 -0.0483013 4.05957e-19)
(0.502975 -0.0861464 -2.71776e-19)
(0.576053 -0.122433 0)
(-0.011533 0.0281258 7.75761e-20)
(-0.0274227 0.0738713 7.87568e-20)
(-0.0354126 0.110821 -7.45985e-20)
(-0.0371404 0.138804 -1.39503e-19)
(-0.0336569 0.158486 1.31344e-19)
(-0.0256639 0.171001 -1.23623e-19)
(-0.0137135 0.177619 1.74535e-19)
(0.00180659 0.179549 -5.54104e-20)
(0.0206814 0.177822 1.03794e-19)
(0.0428456 0.173219 0)
(0.0683508 0.166258 9.54956e-20)
(0.0973327 0.157222 -1.77789e-19)
(0.129981 0.146198 1.73436e-19)
(0.166508 0.133132 -1.62887e-19)
(0.207131 0.117879 0)
(0.252044 0.100252 1.51176e-19)
(0.301377 0.0800587 2.92963e-19)
(0.355137 0.057144 -2.75759e-19)
(0.41314 0.0314215 -1.32044e-19)
(0.475227 0.00304843 -1.30176e-19)
(0.539697 -0.0280601 3.61894e-19)
(0.609568 -0.0602339 1.12833e-19)
(0.670122 -0.0959685 -1.05723e-19)
(0.759057 -0.127347 9.64991e-20)
(-0.0118683 0.0242259 -7.75868e-20)
(-0.0284497 0.0643365 2.39408e-19)
(-0.0365872 0.097271 -7.55222e-20)
(-0.0375044 0.122515 1.40288e-19)
(-0.0320981 0.140437 -1.32082e-19)
(-0.0210446 0.151888 9.17154e-23)
(-0.00492811 0.157874 5.82804e-20)
(0.0158093 0.159397 2.20146e-19)
(0.0409001 0.157341 1.43401e-21)
(0.0702444 0.152404 -9.79464e-20)
(0.103884 0.145077 0)
(0.141966 0.135654 -9.02301e-20)
(0.184706 0.124264 1.68806e-19)
(0.232343 0.110913 1.64418e-19)
(0.285084 0.0955248 -7.70142e-20)
(0.343028 0.0779819 -1.15392e-21)
(0.406115 0.058175 -7.21245e-20)
(0.474054 0.0360685 1.35325e-19)
(0.546132 0.0116765 1.32014e-19)
(0.621777 -0.0145582 -1.25686e-19)
(0.697875 -0.0430918 1.15211e-19)
(0.778471 -0.0708598 -1.07793e-19)
(0.843791 -0.103126 0)
(0.939033 -0.127113 -9.64473e-20)
(-0.0120836 0.0207115 7.8487e-20)
(-0.0289947 0.0549907 -8.01428e-20)
(-0.0370203 0.0831223 7.56619e-20)
(-0.0368982 0.104608 0)
(-0.0293147 0.119737 0)
(-0.0148663 0.1292 1.24206e-19)
(0.00589841 0.133816 -1.16636e-19)
(0.0325574 0.134412 1.0984e-19)
(0.0648622 0.131736 -5.17118e-19)
(0.102737 0.126392 -6.57303e-22)
(0.146248 0.118829 9.23973e-20)
(0.195551 0.109336 0)
(0.250825 0.0980689 -1.69619e-19)
(0.312178 0.0850762 3.21359e-19)
(0.379562 0.0703433 -2.29563e-19)
(0.452677 0.0538394 -3.70242e-19)
(0.530877 0.0355589 -4.60509e-21)
(0.613126 0.0155781 2.61678e-19)
(0.697827 -0.00601839 0)
(0.783487 -0.0285908 0)
(0.86618 -0.0528727 -1.1521e-19)
(0.948744 -0.0749519 1.07794e-19)
(1.01257 -0.102371 -3.85921e-19)
(1.0981 -0.11778 3.61559e-19)
(-0.0123656 0.0178253 0)
(-0.0292065 0.0464616 0)
(-0.036491 0.0693558 -2.27139e-19)
(-0.0345413 0.0863744 7.22673e-20)
(-0.0238345 0.097934 8.27532e-22)
(-0.00484869 0.104698 1.25138e-19)
(0.0219699 0.10739 0)
(0.0562932 0.106719 -1.09428e-19)
(0.0979466 0.103325 1.03237e-19)
(0.14689 0.0977389 -1.94674e-19)
(0.203154 0.0903618 -8.05681e-22)
(0.26674 0.081467 1.75849e-19)
(0.33751 0.0712166 2.25428e-21)
(0.415066 0.0596906 1.61889e-19)
(0.498645 0.0469198 -2.24831e-19)
(0.58704 0.0329175 0)
(0.678574 0.0177165 2.7501e-19)
(0.771126 0.00140064 -3.89877e-19)
(0.862182 -0.0159095 1.19901e-19)
(0.949232 -0.0337501 0)
(1.02874 -0.0526094 1.04431e-19)
(1.10107 -0.0692826 3.95476e-19)
(1.15445 -0.0911324 -3.71181e-19)
(1.21475 -0.0997234 -4.08435e-19)
(-0.0128077 0.0156151 2.38535e-19)
(-0.0290025 0.0390261 -3.27204e-19)
(-0.0343972 0.056622 1.07945e-21)
(-0.0290903 0.0688929 7.24458e-20)
(-0.0134 0.0765444 -1.34347e-19)
(0.0123277 0.0803309 -1.24742e-19)
(0.047779 0.0809682 2.33317e-19)
(0.0927261 0.0791132 -6.6612e-22)
(0.147014 0.0753411 -2.05803e-19)
(0.210475 0.0701204 3.88295e-19)
(0.282814 0.0638014 1.64592e-21)
(0.363465 0.0566191 -1.72658e-19)
(0.451463 0.048703 0)
(0.545357 0.0400962 0)
(0.643178 0.0307803 -7.48225e-20)
(0.742478 0.0207023 -1.38699e-19)
(0.840452 0.00981699 -2.66205e-19)
(0.934094 -0.00192513 2.49882e-19)
(1.02049 -0.0144186 -1.19967e-19)
(1.09692 -0.0276948 2.1739e-19)
(1.16129 -0.0414315 -1.07651e-19)
(1.21285 -0.0548085 1.80879e-19)
(1.2478 -0.0713034 -4.28941e-19)
(1.27768 -0.0776432 8.07701e-20)
(-0.0133314 0.0139261 8.03112e-20)
(-0.0279405 0.0325815 0)
(-0.0296648 0.0451614 1.54376e-19)
(-0.0186476 0.0528892 -1.45423e-19)
(0.0048527 0.0568452 1.34473e-19)
(0.040577 0.0579546 0)
(0.0882698 0.0569912 0)
(0.147643 0.0546037 -1.09888e-19)
(0.21827 0.0513199 2.41249e-22)
(0.299434 0.0475384 9.68832e-20)
(0.389968 0.04352 -9.16678e-20)
(0.488145 0.0393861 1.72036e-19)
(0.591637 0.0351282 0)
(0.697573 0.0306291 3.08949e-19)
(0.80269 0.0256962 -5.81389e-19)
(0.903552 0.0201001 4.12298e-19)
(0.996827 0.0136316 2.56417e-19)
(1.07955 0.00609032 -2.40712e-19)
(1.14946 -0.00248485 0)
(1.20499 -0.0124512 0)
(1.246 -0.0227239 0)
(1.27264 -0.0352973 0)
(1.28691 -0.0465882 8.22646e-20)
(1.29319 -0.0575525 -2.81952e-19)
(-0.134739 -0.142294 -7.20896e-21)
(-0.130176 -0.199862 7.26197e-21)
(-0.123461 -0.260347 -2.22204e-22)
(-0.115652 -0.321148 0)
(-0.1071 -0.379598 -5.60885e-21)
(-0.0980393 -0.432771 1.05434e-20)
(-0.0883223 -0.477515 -3.44755e-22)
(-0.0769814 -0.510403 -4.47577e-21)
(-0.0619359 -0.52755 0)
(-0.0402327 -0.524411 0)
(-0.00866434 -0.496632 -2.08694e-22)
(0.0346238 -0.440479 -2.01872e-22)
(0.0888422 -0.354073 -3.72117e-21)
(0.150975 -0.24058 3.42228e-21)
(0.218475 -0.108084 0)
(0.288388 0.0373873 0)
(0.358209 0.185481 2.88314e-21)
(0.425702 0.321354 -3.47274e-22)
(0.486788 0.429319 -2.25721e-21)
(0.536614 0.499941 -1.03545e-22)
(0.57249 0.533424 0)
(0.594147 0.538679 0)
(0.598729 0.533366 0)
(0.581137 0.535986 0)
(0.545368 0.545521 0)
(0.511744 0.530103 0)
(0.505792 0.447855 5.4571e-22)
(0.536711 0.285729 -8.99866e-22)
(0.594085 0.0730008 0)
(0.660941 -0.136754 0)
(0.72225 -0.300003 -5.5993e-22)
(0.766969 -0.400751 5.44171e-22)
(0.792216 -0.446703 1.88437e-22)
(0.803874 -0.452357 0)
(0.802455 -0.445431 0)
(0.777409 -0.45194 2.3122e-22)
(0.727757 -0.465921 -2.24766e-22)
(0.677842 -0.433372 0)
(0.656445 -0.312573 3.28364e-22)
(0.672882 -0.118587 -4.76554e-22)
(0.71179 0.0835422 1.47191e-22)
(0.758495 0.235115 0)
(0.802628 0.326444 -1.88838e-22)
(0.82704 0.369662 1.83623e-22)
(0.815283 0.412257 0)
(0.772334 0.422589 0)
(0.724847 0.388212 -8.2631e-23)
(0.713412 0.243164 2.62131e-22)
(0.734015 0.0608033 0)
(0.779232 -0.113089 0)
(0.821018 -0.240346 -5.4674e-23)
(0.81695 -0.301837 -6.20139e-25)
(0.792967 -0.3907 -6.1709e-24)
(0.756257 -0.330096 2.86284e-23)
(0.75524 -0.283255 0)
(0.774687 -0.0836707 0)
(0.791033 0.0906464 0)
(0.77398 0.190062 0)
(0.768345 0.404763 0)
(0.747168 0.214058 0)
(-0.032746 -0.147571 -7.87817e-22)
(-0.0260545 -0.205872 -3.1277e-20)
(-0.0178841 -0.267403 1.44796e-21)
(-0.0102799 -0.328646 2.79456e-20)
(-0.00429118 -0.386876 4.05783e-22)
(-0.000844294 -0.439506 0)
(-0.000587938 -0.483973 -1.8861e-20)
(-0.0032832 -0.517703 3.55308e-20)
(-0.00716713 -0.537871 -1.66537e-20)
(-0.00905126 -0.540567 1.34921e-20)
(-0.00402045 -0.521761 -1.29055e-20)
(0.0136131 -0.476073 1.1921e-20)
(0.0460772 -0.400953 -1.15252e-20)
(0.0901439 -0.293549 -3.25217e-22)
(0.145536 -0.16486 -1.14688e-20)
(0.210103 -0.0206398 1.11453e-20)
(0.278992 0.127937 -9.81093e-21)
(0.349037 0.267368 9.27779e-21)
(0.416175 0.38268 -7.16181e-21)
(0.475373 0.463884 1.27103e-20)
(0.52275 0.509395 -5.60864e-21)
(0.555032 0.5277 -2.64633e-22)
(0.566867 0.536521 -4.12468e-21)
(0.55533 0.550942 8.27342e-21)
(0.529971 0.563515 -4.14482e-21)
(0.514004 0.539376 3.22514e-22)
(0.528543 0.441608 6.57576e-21)
(0.575523 0.265267 8.7498e-22)
(0.642135 0.0444538 -1.34433e-20)
(0.711154 -0.167222 1.25116e-20)
(0.768497 -0.325492 -5.7898e-21)
(0.805779 -0.417094 5.26411e-22)
(0.821526 -0.454513 -1.88804e-22)
(0.823074 -0.453826 2.94177e-22)
(0.814974 -0.439305 0)
(0.787296 -0.436431 0)
(0.735337 -0.445425 -8.9053e-22)
(0.678617 -0.4182 6.50736e-22)
(0.647822 -0.310399 8.95945e-22)
(0.656741 -0.128938 1.99454e-22)
(0.693367 0.0664976 -1.27218e-21)
(0.743076 0.21737 2.18259e-22)
(0.791929 0.313744 0)
(0.820514 0.366835 0)
(0.810131 0.419975 0)
(0.771036 0.435399 0)
(0.727652 0.397202 3.52263e-22)
(0.721686 0.243173 -1.81945e-22)
(0.743195 0.0525093 0)
(0.78769 -0.123828 0)
(0.829445 -0.245533 0)
(0.824253 -0.298308 -8.09925e-23)
(0.800961 -0.383702 2.22874e-23)
(0.761161 -0.325845 -6.47323e-23)
(0.760052 -0.285214 0)
(0.775072 -0.0871692 0)
(0.788557 0.0902967 3.79146e-23)
(0.770915 0.192509 8.69829e-23)
(0.764519 0.407229 0)
(0.745135 0.215593 0)
(0.101213 -0.152705 -2.62725e-22)
(0.111667 -0.209762 -6.93807e-20)
(0.122091 -0.270659 6.37198e-20)
(0.131077 -0.330762 -5.95763e-20)
(0.136516 -0.386975 -4.08462e-22)
(0.137003 -0.436913 0)
(0.131344 -0.478293 -3.95947e-20)
(0.118829 -0.50952 3.87367e-20)
(0.100106 -0.529388 2.41519e-22)
(0.0769609 -0.536178 3.88751e-22)
(0.0547817 -0.526046 3.29882e-22)
(0.0410228 -0.493181 3.48077e-22)
(0.0444219 -0.432479 -1.89793e-20)
(0.0638682 -0.339858 1.87724e-20)
(0.0990717 -0.220425 0)
(0.15184 -0.0808841 4.71195e-22)
(0.215297 0.0658448 -1.58279e-20)
(0.284789 0.207426 1.56376e-20)
(0.355167 0.328954 0)
(0.421099 0.420206 0)
(0.477156 0.478549 -8.99277e-21)
(0.517418 0.511726 1.71076e-20)
(0.535755 0.535555 -1.5998e-20)
(0.532364 0.560434 -5.86655e-22)
(0.520881 0.57381 1.81944e-20)
(0.524572 0.540747 -2.19344e-20)
(0.558933 0.430431 2.45541e-20)
(0.620656 0.244458 4.39056e-22)
(0.694984 0.0196436 -1.43699e-20)
(0.764615 -0.191832 0)
(0.816806 -0.344663 0)
(0.845794 -0.427834 2.72944e-21)
(0.85216 -0.457737 -3.69835e-21)
(0.843845 -0.452294 -4.80453e-25)
(0.828957 -0.432034 1.73801e-21)
(0.799102 -0.4206 -1.68911e-21)
(0.746117 -0.42421 0)
(0.683874 -0.401855 2.15793e-22)
(0.643904 -0.307525 2.21456e-21)
(0.644766 -0.139843 -4.36554e-21)
(0.678581 0.047614 1.9398e-21)
(0.730664 0.197308 1.62421e-22)
(0.783406 0.299157 -1.64819e-21)
(0.81569 0.362719 1.28444e-21)
(0.806867 0.426655 2.90222e-22)
(0.772238 0.447239 3.1512e-22)
(0.73356 0.405715 -3.53173e-22)
(0.733053 0.243743 0)
(0.755273 0.0455367 0)
(0.79831 -0.133487 -1.38071e-21)
(0.839515 -0.250251 6.1968e-22)
(0.833076 -0.294369 -4.13951e-22)
(0.810202 -0.376428 4.4931e-22)
(0.767029 -0.321471 4.21344e-22)
(0.765832 -0.287028 -1.17625e-22)
(0.77658 -0.0904709 1.52619e-22)
(0.78749 0.0901758 -1.27692e-22)
(0.769009 0.194845 2.88629e-23)
(0.761633 0.40959 0)
(0.744048 0.217137 0)
(0.255772 -0.157659 -1.49324e-19)
(0.270883 -0.214285 5.44689e-21)
(0.283396 -0.273721 1.36734e-19)
(0.294054 -0.331505 -9.53311e-22)
(0.299925 -0.384508 0)
(0.299308 -0.430109 0)
(0.290948 -0.465906 -7.97145e-20)
(0.273438 -0.490914 1.03041e-20)
(0.2459 -0.505565 9.17363e-20)
(0.208692 -0.510868 -4.51264e-21)
(0.165467 -0.504976 -2.19721e-20)
(0.123288 -0.484004 -1.53133e-20)
(0.0925926 -0.440121 1.5335e-20)
(0.079487 -0.369889 0)
(0.0873018 -0.26725 -1.30532e-20)
(0.119303 -0.139146 1.1887e-20)
(0.170417 0.00256389 0)
(0.234608 0.143478 0)
(0.304403 0.2697 9.31727e-21)
(0.373574 0.370415 -8.5666e-22)
(0.434872 0.442027 -7.70038e-21)
(0.4807 0.490635 -7.58068e-21)
(0.505589 0.528792 7.55461e-21)
(0.512705 0.56204 -8.85618e-21)
(0.517804 0.574687 -1.55993e-21)
(0.541913 0.533962 9.91333e-21)
(0.594877 0.415404 1.65882e-21)
(0.669546 0.224431 -2.9685e-23)
(0.750221 -0.00203361 0)
(0.819888 -0.210868 1.33107e-20)
(0.866403 -0.358168 -1.36757e-20)
(0.886529 -0.433815 5.51688e-22)
(0.883747 -0.457019 0)
(0.866043 -0.447999 -2.97169e-22)
(0.844172 -0.423946 3.29988e-21)
(0.812247 -0.40512 -5.65192e-21)
(0.759502 -0.402657 -2.69769e-22)
(0.693515 -0.383937 -3.25723e-22)
(0.645115 -0.303267 2.49992e-21)
(0.637477 -0.150812 4.65095e-22)
(0.667708 0.0272941 -3.09177e-21)
(0.721295 0.175247 2.62114e-21)
(0.776981 0.282809 3.72875e-23)
(0.812493 0.357166 1.17332e-21)
(0.805445 0.431997 -1.43198e-21)
(0.775771 0.457821 -2.42022e-21)
(0.7423 0.413761 6.0259e-22)
(0.747216 0.245041 1.85525e-21)
(0.770057 0.0400272 -3.50891e-21)
(0.810963 -0.141939 2.40371e-21)
(0.851084 -0.254549 -4.20596e-22)
(0.843291 -0.29013 6.67337e-22)
(0.820565 -0.368834 4.04787e-22)
(0.773689 -0.316866 -5.87798e-22)
(0.772381 -0.288659 6.57272e-24)
(0.779104 -0.0936349 -9.11581e-23)
(0.787782 0.0902583 0)
(0.768225 0.197103 -6.04973e-23)
(0.759689 0.411867 6.18354e-23)
(0.74393 0.218695 0)
(0.422613 -0.16102 1.53274e-19)
(0.440558 -0.217812 -2.95574e-19)
(0.455114 -0.275552 1.40433e-19)
(0.466625 -0.330196 1.22193e-19)
(0.472279 -0.379553 -2.27991e-19)
(0.470492 -0.420829 1.24877e-20)
(0.460237 -0.451236 9.16327e-20)
(0.44025 -0.469531 6.44067e-20)
(0.409332 -0.47645 -6.30577e-20)
(0.36659 -0.474411 0)
(0.312709 -0.465501 -3.10802e-20)
(0.251529 -0.449663 5.44146e-20)
(0.19176 -0.420975 -2.36199e-20)
(0.14469 -0.372812 0)
(0.118645 -0.294593 0)
(0.120674 -0.186849 3.25365e-22)
(0.149446 -0.05727 -1.53556e-20)
(0.200105 0.0785889 1.49181e-20)
(0.263952 0.207049 0)
(0.331919 0.315954 1.25653e-20)
(0.394976 0.400174 -2.38795e-20)
(0.444751 0.463397 2.4094e-20)
(0.476989 0.514245 -2.63676e-20)
(0.496833 0.553929 -2.84951e-21)
(0.520198 0.565465 3.64273e-20)
(0.564397 0.519764 -2.0182e-20)
(0.633866 0.39762 -8.48609e-22)
(0.719312 0.205985 -1.53247e-20)
(0.805863 -0.019343 -4.39852e-23)
(0.875769 -0.223953 1.54141e-20)
(0.916266 -0.365561 7.53302e-22)
(0.927159 -0.434717 -7.99247e-21)
(0.915533 -0.452365 1.35074e-20)
(0.88927 -0.440893 -6.16459e-21)
(0.860512 -0.414961 0)
(0.826489 -0.390388 -2.87311e-21)
(0.775001 -0.381599 2.75485e-21)
(0.707179 -0.364995 -2.15767e-21)
(0.651562 -0.29748 2.6931e-21)
(0.635249 -0.161301 -3.09115e-22)
(0.66097 0.00605535 0)
(0.714937 0.151494 -2.73349e-22)
(0.772504 0.264728 8.03584e-22)
(0.810776 0.349933 0)
(0.805732 0.435668 3.06187e-21)
(0.781372 0.466915 -1.10865e-21)
(0.753467 0.421288 8.13111e-22)
(0.763705 0.247221 1.01605e-21)
(0.787261 0.0363372 0)
(0.825515 -0.148988 0)
(0.863984 -0.258358 -1.62019e-21)
(0.854757 -0.285583 2.15471e-21)
(0.831961 -0.360833 -9.80985e-22)
(0.781008 -0.311959 2.26395e-22)
(0.7795 -0.290106 3.03246e-22)
(0.782508 -0.0967269 9.12443e-23)
(0.789361 0.0905141 -8.27998e-23)
(0.768523 0.199312 0)
(0.758686 0.414073 -1.01781e-22)
(0.744799 0.220265 -1.89776e-23)
(0.596664 -0.164598 1.54009e-19)
(0.61439 -0.219753 -1.53279e-19)
(0.629975 -0.274257 1.09608e-21)
(0.641013 -0.324711 -9.81828e-22)
(0.644542 -0.369908 9.0039e-22)
(0.639803 -0.407094 -7.8634e-22)
(0.626281 -0.43325 1.30202e-21)
(0.603201 -0.44678 0)
(0.570078 -0.447753 -8.45669e-22)
(0.526345 -0.438126 6.4188e-22)
(0.471222 -0.421553 4.64265e-22)
(0.404732 -0.401993 -3.82969e-22)
(0.330402 -0.378769 0)
(0.257721 -0.346494 0)
(0.198275 -0.293702 7.70683e-23)
(0.164403 -0.21312 0)
(0.161338 -0.105304 -5.1766e-23)
(0.188286 0.0189837 0)
(0.237547 0.144718 -7.21597e-21)
(0.29805 0.258512 1.4401e-20)
(0.359016 0.353098 -1.54689e-20)
(0.411471 0.429016 8.03212e-21)
(0.451787 0.490538 1.15789e-20)
(0.485698 0.535271 -1.12442e-20)
(0.527654 0.54632 -1.95839e-20)
(0.5904 0.499002 1.91797e-20)
(0.673785 0.377973 0)
(0.768248 0.189829 9.69888e-22)
(0.860199 -0.0315432 0)
(0.930569 -0.231166 0)
(0.965349 -0.366972 2.04197e-20)
(0.967009 -0.430793 -2.13152e-20)
(0.946913 -0.444219 8.24783e-22)
(0.913129 -0.43122 5.92388e-22)
(0.877786 -0.405042 -4.10645e-22)
(0.841465 -0.376604 -2.27503e-21)
(0.791955 -0.361597 2.20912e-21)
(0.72421 -0.345506 -2.19453e-21)
(0.663014 -0.28996 1.8834e-21)
(0.63823 -0.17076 5.54332e-22)
(0.658391 -0.0154976 -2.12131e-21)
(0.711425 0.126367 -8.29814e-23)
(0.769765 0.244913 1.40255e-21)
(0.810347 0.340762 0)
(0.807511 0.43734 -1.10457e-21)
(0.788679 0.474368 2.46879e-21)
(0.766552 0.428217 -3.04948e-21)
(0.782062 0.250322 -1.02253e-21)
(0.806536 0.0342905 0)
(0.841724 -0.154488 6.2256e-22)
(0.878015 -0.261615 -1.47379e-21)
(0.867297 -0.280764 1.74366e-24)
(0.844288 -0.35235 -2.6091e-22)
(0.788887 -0.30665 2.25681e-22)
(0.787001 -0.291356 -2.57405e-22)
(0.786635 -0.099826 0)
(0.792133 0.0908977 8.28383e-23)
(0.769858 0.2015 0)
(0.758618 0.416211 0)
(0.746667 0.221837 2.54216e-23)