/*--------------------------------*- C++ -*----------------------------------*\
| =========                 |                                                 |
| \\      /  F ield         | OpenFOAM: The Open Source CFD Toolbox           |
|  \\    /   O peration     | Version:  2512                                  |
|   \\  /    A nd           | Website:  www.openfoam.com                      |
|    \\/     M anipulation  |                                                 |
\*---------------------------------------------------------------------------*/
FoamFile
{
    version     2.0;
    format      ascii;
    arch        "LSB;label=32;scalar=64";
    class       volVectorField;
    location    "133";
    object      U;
}
// * * * * * * * * * * * * * * * * * * * * * * * * * * * * * * * * * * * * * //

dimensions      [0 1 -1 0 0 0 0];

internalField   nonuniform List<vector> 
13248
(
(-0.0142367 0.0123606 7.6059e-20)
(-0.0273389 0.0257255 0)
(-0.0256178 0.0324061 -1.43499e-19)
(-0.00902543 0.0350839 1.35177e-19)
(0.0225131 0.0355321 1.26098e-19)
(0.0690167 0.0349486 0)
(0.130331 0.0341632 0)
(0.205935 0.0337514 2.99717e-19)
(0.294736 0.0340793 -1.74124e-21)
(0.394903 0.0353169 -2.61327e-19)
(0.503803 0.0374334 2.43135e-19)
(0.618059 0.0402003 -1.51903e-19)
(0.733749 0.0432149 0)
(0.846699 0.0459486 -2.67132e-19)
(0.952833 0.0478153 5.01428e-19)
(1.04853 0.04825 -1.19183e-19)
(1.13093 0.0467897 -2.19161e-19)
(1.19818 0.0431153 2.0575e-19)
(1.24957 0.0371759 0)
(1.28549 0.0287912 0)
(1.30749 0.0190856 0)
(1.31736 0.00517012 0)
(1.31785 -0.00368771 6.4469e-20)
(1.31069 -0.0329325 2.35362e-19)
(-0.014746 0.0116077 -2.29791e-19)
(-0.0234191 0.0219558 1.56727e-19)
(-0.0125255 0.0256883 -1.56519e-21)
(0.0171018 0.0258665 -2.06883e-19)
(0.0650123 0.0245933 -1.25959e-19)
(0.130686 0.0233245 -1.19212e-19)
(0.21316 0.023024 -2.17394e-19)
(0.31071 0.024269 2.06254e-19)
(0.420629 0.0272971 0)
(0.53918 0.0320224 7.88407e-22)
(0.661785 0.0380579 2.17456e-21)
(0.783397 0.0447693 1.52955e-19)
(0.898993 0.0513646 0)
(1.00409 0.0570088 0)
(1.09517 0.0609441 1.84199e-19)
(1.17001 0.0625944 -3.46228e-19)
(1.22776 0.0616331 2.10408e-19)
(1.26898 0.0580089 -1.9755e-19)
(1.29536 0.0519102 -8.78126e-20)
(1.30939 0.043734 -1.62865e-19)
(1.31384 0.0339587 -6.83933e-20)
(1.31151 0.0229897 -1.29339e-19)
(1.30422 0.0128214 1.87699e-19)
(1.29523 -0.00152613 5.37715e-20)
(-0.0139109 0.0100883 0)
(-0.0152198 0.0169749 0)
(0.00826586 0.018312 7.32085e-20)
(0.0546528 0.0171802 6.72412e-20)
(0.122611 0.0158046 -1.8826e-21)
(0.210534 0.0157535 -1.24085e-19)
(0.315918 0.0179604 0)
(0.435029 0.0227988 -1.02412e-19)
(0.562874 0.0301346 9.67832e-20)
(0.693518 0.0393849 1.27951e-21)
(0.820691 0.0496247 -1.64864e-19)
(0.938532 0.0597452 -1.51849e-19)
(1.04227 0.0686383 2.09858e-21)
(1.1287 0.0753699 -1.27649e-19)
(1.19645 0.079308 3.04779e-19)
(1.24586 0.0801826 0)
(1.27876 0.0780766 -2.01862e-19)
(1.29791 0.0733439 9.79977e-20)
(1.30653 0.0665437 8.77467e-20)
(1.30766 0.0581824 0)
(1.30391 0.0491344 7.29631e-20)
(1.29701 0.0390084 -2.50453e-19)
(1.28826 0.0309251 2.35116e-19)
(1.27882 0.0176723 1.48234e-19)
(-0.0112839 0.0078118 -8.17618e-20)
(-0.00168279 0.0108374 -8.46616e-20)
(0.0380377 0.0104407 7.62839e-20)
(0.104701 0.00936571 0)
(0.195596 0.0097101 0)
(0.307287 0.0129177 -3.22374e-21)
(0.434888 0.0196042 0)
(0.571981 0.0296122 -3.16158e-19)
(0.711079 0.0421317 2.93637e-19)
(0.844522 0.0558889 -3.61917e-19)
(0.965516 0.069404 8.274e-20)
(1.06902 0.0812724 0)
(1.15223 0.0904004 1.38968e-19)
(1.2147 0.0961486 -2.5786e-19)
(1.25794 0.0983613 6.1315e-20)
(1.28489 0.0972969 1.59526e-19)
(1.29915 0.0934904 -5.96525e-21)
(1.30431 0.0876047 -1.77921e-19)
(1.30343 0.0802824 0)
(1.29883 0.0721014 0)
(1.29201 0.0635062 -6.47839e-20)
(1.28385 0.0546536 5.83527e-20)
(1.27488 0.0469484 2.11349e-19)
(1.26573 0.0358779 -1.98431e-19)
(-0.00647466 0.00496613 -8.66224e-20)
(0.0180918 0.0040614 -8.62218e-20)
(0.0777717 0.0028959 2.42297e-19)
(0.167751 0.00352788 -1.46794e-19)
(0.283245 0.00760736 1.38168e-19)
(0.418123 0.0160926 2.50458e-19)
(0.564397 0.0288688 -1.77286e-19)
(0.712781 0.0448699 -2.1577e-19)
(0.85393 0.0623933 4.38974e-21)
(0.979867 0.0795039 2.74947e-19)
(1.08511 0.0944454 0)
(1.16719 0.105952 7.5997e-20)
(1.22651 0.113398 0)
(1.26567 0.116776 -1.24592e-19)
(1.28854 0.116543 1.75277e-19)
(1.29938 0.113418 1.70553e-21)
(1.30203 0.108181 -4.64185e-20)
(1.29955 0.101531 8.7555e-20)
(1.29408 0.0940254 7.56392e-20)
(1.28694 0.0860575 -6.8154e-20)
(1.2789 0.0779446 6.47703e-20)
(1.27034 0.0697395 -5.83396e-20)
(1.26147 0.0623237 0)
(1.25263 0.0525769 -4.42606e-20)
(0.00085973 0.00186706 8.661e-20)
(0.0447986 -0.00246895 9.11824e-20)
(0.127994 -0.00296946 -8.12704e-20)
(0.243458 0.00134028 1.51637e-19)
(0.383491 0.011223 -1.42718e-19)
(0.53848 0.0266556 1.28996e-19)
(0.697113 0.0463307 -6.20908e-20)
(0.84795 0.0680162 1.62011e-19)
(0.981377 0.0891823 -1.02117e-19)
(1.09111 0.107605 1.80757e-19)
(1.17474 0.121782 -4.17347e-19)
(1.23335 0.131085 1.53558e-19)
(1.27052 0.135662 -1.34585e-19)
(1.29098 0.136193 1.2642e-19)
(1.29958 0.133595 1.09772e-19)
(1.30046 0.128784 9.689e-20)
(1.29674 0.122529 -2.69693e-19)
(1.29049 0.115403 1.67608e-19)
(1.28298 0.107799 -7.56441e-20)
(1.27488 0.0999851 1.98199e-19)
(1.26652 0.0921317 -6.39958e-20)
(1.25802 0.0843501 -1.56735e-19)
(1.24946 0.0770534 1.44853e-19)
(1.24092 0.0682808 4.42482e-20)
(0.0110094 -0.00108463 0)
(0.0788329 -0.00763488 9.28919e-22)
(0.188558 -0.00551861 1.71021e-19)
(0.330333 0.00464887 -1.60247e-19)
(0.492721 0.0221619 -1.44517e-19)
(0.662279 0.0454599 2.68549e-19)
(0.82504 0.0717184 -1.24694e-19)
(0.969101 0.0976154 1.65896e-19)
(1.08673 0.120247 -3.66161e-21)
(1.1751 0.137724 -9.40248e-20)
(1.23574 0.149338 2.0493e-19)
(1.27302 0.15538 -3.02804e-19)
(1.29257 0.156765 0)
(1.29986 0.154644 -5.96661e-20)
(1.29947 0.150108 -1.59725e-19)
(1.29468 0.144035 5.01908e-20)
(1.28763 0.137051 1.88931e-21)
(1.27958 0.12957 -1.11562e-19)
(1.27116 0.121855 6.50287e-21)
(1.26267 0.114069 1.29277e-19)
(1.25422 0.106328 -5.81044e-20)
(1.24582 0.0987224 -2.21782e-20)
(1.23744 0.0913827 6.80855e-20)
(1.22912 0.0832885 0)
(0.0241715 -0.00342539 0)
(0.120163 -0.0102009 4.64281e-20)
(0.258455 -0.0030852 -2.23642e-19)
(0.425618 0.015077 8.13727e-20)
(0.605987 0.0414452 -7.65823e-20)
(0.782771 0.072483 -7.00781e-20)
(0.941012 0.103882 -1.23568e-19)
(1.0706 0.131736 6.18135e-20)
(1.16757 0.153483 5.3556e-20)
(1.23339 0.168165 0)
(1.27313 0.176156 1.22009e-19)
(1.29329 0.178624 -1.81876e-19)
(1.3002 0.177004 1.35306e-19)
(1.29898 0.172628 5.96989e-20)
(1.29329 0.16654 -4.91821e-20)
(1.28544 0.159464 -4.13129e-20)
(1.27674 0.151861 -3.86936e-20)
(1.26786 0.144009 1.15326e-19)
(1.25907 0.136077 0)
(1.25048 0.12817 5.84129e-20)
(1.24209 0.120367 4.94549e-20)
(1.23387 0.112736 -1.22478e-19)
(1.22574 0.105277 -8.43345e-20)
(1.21768 0.0976382 7.78561e-20)
(0.0403897 -0.00464593 -5.03674e-20)
(0.168215 -0.00892321 -2.05479e-21)
(0.335741 0.00580285 4.561e-20)
(0.525463 0.0337287 1.27769e-19)
(0.717688 0.0692828 3.71805e-20)
(0.893746 0.106858 -7.18449e-20)
(1.04 0.141164 6.54989e-20)
(1.15021 0.168518 -5.72856e-20)
(1.2251 0.187395 1.02729e-19)
(1.27013 0.198111 4.36758e-20)
(1.29276 0.202082 -1.24167e-19)
(1.30032 0.201103 3.6543e-20)
(1.29879 0.196834 6.25258e-20)
(1.29237 0.190565 -3.07276e-20)
(1.28371 0.183178 0)
(1.27427 0.175217 4.60465e-20)
(1.26477 0.166998 7.81649e-20)
(1.25551 0.158702 1.35388e-20)
(1.2466 0.150436 -6.53176e-20)
(1.23802 0.142271 2.74205e-20)
(1.22974 0.134265 0)
(1.22169 0.12645 -2.16538e-20)
(1.2138 0.118791 -2.06078e-20)
(1.20597 0.111365 0)
(0.0594918 -0.00421823 0)
(0.221801 -0.00266219 2.64236e-20)
(0.417619 0.0222424 4.89773e-20)
(0.625362 0.0610323 -1.30555e-19)
(0.82243 0.1051 4.2258e-20)
(0.990512 0.14717 0)
(1.11959 0.18185 6.33021e-20)
(1.20849 0.206522 -8.83934e-20)
(1.26252 0.221149 -5.13695e-20)
(1.29006 0.227337 2.31537e-20)
(1.2997 0.227308 -3.71969e-20)
(1.29856 0.223176 9.02383e-20)
(1.29168 0.216591 4.52034e-20)
(1.28224 0.208671 -3.13909e-20)
(1.27198 0.2001 -2.91777e-21)
(1.26175 0.19126 -8.63017e-20)
(1.25189 0.182359 3.93276e-20)
(1.24251 0.173511 -9.9345e-22)
(1.23362 0.164786 0)
(1.22517 0.156234 -2.74492e-20)
(1.21707 0.147893 0)
(1.20925 0.139765 6.24125e-20)
(1.20163 0.131856 -7.43675e-20)
(1.19408 0.124444 3.39342e-20)
(0.0810478 -0.00163429 -1.38529e-20)
(0.279132 0.0095092 -6.68261e-20)
(0.500668 0.0468329 7.61243e-20)
(0.720714 0.0967225 4.47167e-20)
(0.915739 0.147731 -2.13362e-20)
(1.07026 0.1918 3.58364e-20)
(1.1795 0.224459 -1.73963e-20)
(1.24758 0.244789 2.88958e-20)
(1.28349 0.254375 0)
(1.29728 0.255908 6.54231e-20)
(1.2976 0.252102 -2.70673e-21)
(1.29072 0.245128 -5.27893e-20)
(1.28063 0.236468 2.2614e-20)
(1.26952 0.227023 -2.55491e-20)
(1.25846 0.217289 -9.75436e-21)
(1.24788 0.207519 1.12318e-20)
(1.23793 0.197846 -8.70227e-21)
(1.2286 0.18834 -4.7284e-20)
(1.21985 0.179048 2.89855e-20)
(1.21159 0.170004 5.95347e-21)
(1.20374 0.161223 5.25273e-21)
(1.19619 0.152696 4.63659e-21)
(1.18887 0.144496 0)
(1.18159 0.136884 0)
(0.104438 0.00355945 1.38625e-20)
(0.338057 0.0282248 -1.38735e-20)
(0.581337 0.0796178 -2.53913e-20)
(0.807482 0.139928 0)
(0.994515 0.19567 -1.06085e-20)
(1.13189 0.239198 -9.56565e-21)
(1.22078 0.26786 -1.63337e-20)
(1.27001 0.282759 0)
(1.29109 0.286976 0)
(1.2946 0.283976 0)
(1.28854 0.27667 0)
(1.2781 0.267096 0)
(1.26619 0.2565 -1.42363e-20)
(1.25426 0.245563 6.48795e-21)
(1.2429 0.234623 1.12771e-20)
(1.23229 0.223842 5.27009e-21)
(1.22244 0.213296 1.30721e-20)
(1.21331 0.20303 0)
(1.20481 0.193073 -3.14732e-21)
(1.19686 0.183442 -3.00807e-21)
(1.18935 0.174136 -5.26111e-21)
(1.18218 0.16515 -4.644e-21)
(1.17523 0.156624 0)
(1.16836 0.148645 3.34855e-21)
(-0.00185873 0.0274288 9.01261e-21)
(-0.0073393 0.0743884 -9.32018e-21)
(-0.0162355 0.114262 -1.76024e-20)
(-0.0271817 0.146962 0)
(-0.0393152 0.172987 -2.34904e-20)
(-0.0520617 0.193455 7.37957e-21)
(-0.0648935 0.209784 -1.39228e-20)
(-0.0773382 0.223362 0)
(-0.0890049 0.235309 0)
(-0.0995835 0.246353 0)
(-0.108832 0.256823 0)
(-0.116558 0.266707 0)
(-0.122595 0.275736 3.45404e-23)
(-0.12679 0.283463 -9.46033e-21)
(-0.128986 0.289317 1.82187e-20)
(-0.129021 0.29265 2.61069e-20)
(-0.126732 0.292764 8.49272e-21)
(-0.121959 0.288938 0)
(-0.114562 0.280469 7.61149e-21)
(-0.104455 0.266728 -2.18919e-20)
(-0.0915704 0.24715 -1.41769e-20)
(-0.075851 0.221423 -1.36212e-20)
(-0.0572598 0.189459 0)
(-0.0360929 0.151808 0)
(-0.00326803 0.0294986 -2.70768e-20)
(-0.00994643 0.0798086 4.65705e-20)
(-0.0178791 0.122528 -1.75732e-20)
(-0.0266007 0.157581 -3.31657e-20)
(-0.0357372 0.185399 4.68643e-20)
(-0.0449699 0.207023 -2.94824e-20)
(-0.0539416 0.223831 4.16467e-20)
(-0.0622744 0.23723 2.61762e-20)
(-0.0696039 0.248403 0)
(-0.0755986 0.258165 -2.36931e-20)
(-0.0799677 0.266932 -4.22004e-22)
(-0.0824551 0.274759 2.09025e-20)
(-0.0828435 0.281436 3.01146e-20)
(-0.080939 0.286531 3.8627e-20)
(-0.0765632 0.289489 -1.75153e-20)
(-0.0695572 0.289676 -5.20792e-20)
(-0.0597857 0.286412 1.74078e-20)
(-0.0471378 0.279011 -6.45829e-20)
(-0.0315163 0.266816 0)
(-0.0129962 0.249226 1.4721e-20)
(0.00835473 0.22576 1.41518e-20)
(0.0325198 0.19614 1.35966e-20)
(0.0595764 0.160424 0)
(0.0899043 0.119513 0)
(-0.00471348 0.0297105 0)
(-0.0127685 0.0810359 9.33413e-20)
(-0.0199214 0.125234 -3.5182e-20)
(-0.0264625 0.161918 3.31175e-20)
(-0.0324353 0.191243 -9.34692e-20)
(-0.0377594 0.214007 0)
(-0.0422673 0.231418 -5.54123e-20)
(-0.0457086 0.244792 2.5969e-20)
(-0.0477868 0.255304 -4.91881e-20)
(-0.0481888 0.263826 2.31662e-20)
(-0.0466163 0.270858 1.33299e-19)
(-0.0427672 0.276558 -6.26731e-20)
(-0.0363904 0.280788 -1.01037e-19)
(-0.0272895 0.283195 -3.97038e-20)
(-0.0152769 0.283287 -1.57815e-21)
(-0.000217224 0.280488 1.41327e-19)
(0.017976 0.274185 -6.71513e-20)
(0.039336 0.263767 -3.11127e-22)
(0.0638384 0.248652 0)
(0.0913714 0.228296 -6.17059e-20)
(0.121754 0.20232 0)
(0.154774 0.170415 -5.89415e-20)
(0.190316 0.132612 2.22169e-19)
(0.23071 0.089499 2.58367e-21)
(-0.00596814 0.028296 0)
(-0.0154129 0.0783864 3.79313e-23)
(-0.0220975 0.12253 3.51365e-20)
(-0.0267805 0.159835 -3.29801e-20)
(-0.0297892 0.19007 3.11765e-20)
(-0.0312243 0.213697 1.75228e-19)
(-0.0310875 0.23165 -5.50052e-20)
(-0.0292804 0.245064 -5.1667e-20)
(-0.0256179 0.255027 9.79101e-20)
(-0.0198565 0.262411 -1.39676e-19)
(-0.0117271 0.267785 4.34212e-20)
(-0.000958774 0.271406 4.15828e-20)
(0.0126945 0.273234 0)
(0.0294314 0.273032 3.82375e-20)
(0.0494073 0.270412 0)
(0.0727191 0.264895 7.00681e-20)
(0.0994001 0.255964 -1.38022e-19)
(0.129418 0.243105 2.87838e-20)
(0.162677 0.225832 1.25443e-19)
(0.199016 0.203706 6.16275e-20)
(0.2382 0.176376 0)
(0.280179 0.143524 -1.75632e-19)
(0.323461 0.105213 5.47747e-20)
(0.375686 0.0614029 0)
(-0.00689478 0.0256938 0)
(-0.0176128 0.0726394 -1.12002e-19)
(-0.0242182 0.115153 -3.4934e-20)
(-0.0275872 0.151823 -6.58335e-20)
(-0.028145 0.182034 6.19844e-20)
(-0.0260899 0.205904 -5.82682e-20)
(-0.0215567 0.224055 1.09313e-19)
(-0.014597 0.237377 5.18447e-20)
(-0.00516518 0.246808 -1.45587e-19)
(0.00686518 0.253163 9.20881e-20)
(0.0216724 0.257029 -1.30833e-19)
(0.0394558 0.258734 2.8893e-19)
(0.0604062 0.258354 -1.56347e-19)
(0.0846824 0.25577 7.46446e-20)
(0.112398 0.250716 2.18021e-19)
(0.14361 0.242831 -6.63211e-20)
(0.178325 0.231707 -6.26125e-20)
(0.216489 0.216931 -6.3713e-20)
(0.258011 0.198093 0)
(0.302795 0.174829 -1.24307e-19)
(0.350453 0.146833 -1.24201e-19)
(0.402099 0.113876 1.6936e-19)
(0.45272 0.0759144 2.25108e-19)
(0.519419 0.0322807 -2.09939e-19)
(-0.00748328 0.0224571 0)
(-0.0193066 0.0648828 -1.49148e-19)
(-0.0262328 0.104308 5.30538e-22)
(-0.0289214 0.138948 1.31729e-19)
(-0.0277207 0.167919 0)
(-0.0228387 0.191067 0)
(-0.014492 0.208728 0)
(-0.00285808 0.221541 -5.12351e-20)
(0.0119657 0.230255 -2.41094e-22)
(0.0299651 0.235578 9.01896e-20)
(0.0511928 0.238068 -1.30283e-19)
(0.0757438 0.238087 -7.24662e-22)
(0.10373 0.235796 0)
(0.135256 0.231179 -7.4606e-20)
(0.170408 0.224086 7.1912e-20)
(0.209244 0.214269 -2.02085e-19)
(0.251814 0.201408 2.65085e-19)
(0.29813 0.185183 6.89278e-20)
(0.34818 0.165258 7.86009e-21)
(0.402169 0.141358 -2.35288e-19)
(0.459236 0.113082 -1.14064e-19)
(0.522664 0.0805193 3.93616e-19)
(0.581209 0.0431538 -2.64253e-19)
(0.665604 0.000380965 0)
(-0.00785469 0.0191633 7.26913e-20)
(-0.0206481 0.0563351 7.46257e-20)
(-0.028227 0.0914828 -6.98413e-20)
(-0.030791 0.122728 -1.30573e-19)
(-0.0284894 0.149113 1.22935e-19)
(-0.0214756 0.170337 -1.14339e-19)
(-0.00999549 0.186535 1.60952e-19)
(0.00568969 0.198133 -5.11002e-20)
(0.0253682 0.205697 9.44503e-20)
(0.0489035 0.209805 0)
(0.0762369 0.21095 8.3815e-20)
(0.107377 0.209486 -1.56655e-19)
(0.142385 0.205615 1.52448e-19)
(0.181361 0.199392 -1.43173e-19)
(0.224432 0.190747 0)
(0.271713 0.17951 1.32971e-19)
(0.32337 0.165469 2.58457e-19)
(0.379596 0.148376 -2.44225e-19)
(0.440414 0.127904 -1.18115e-19)
(0.506261 0.103929 -1.21417e-19)
(0.575189 0.0757475 3.35116e-19)
(0.652947 0.0444364 1.08868e-19)
(0.720635 0.00811793 -9.94448e-20)
(0.823093 -0.0315345 9.58588e-20)
(-0.00822834 0.0163165 -7.27015e-20)
(-0.0219372 0.0481317 2.22935e-19)
(-0.0303267 0.0782024 -7.01107e-20)
(-0.033039 0.104912 1.30082e-19)
(-0.0299787 0.127453 -1.22472e-19)
(-0.021214 0.145533 1.21393e-22)
(-0.00697315 0.159202 5.33177e-20)
(0.0124586 0.168744 1.97239e-19)
(0.0368231 0.174583 -4.56241e-22)
(0.0659353 0.177175 -8.80825e-20)
(0.0997036 0.176933 0)
(0.138134 0.174175 -7.78249e-20)
(0.18132 0.169106 1.47001e-19)
(0.229423 0.161807 1.42237e-19)
(0.282657 0.15226 -6.68811e-20)
(0.341258 0.140366 -1.63373e-21)
(0.405382 0.125955 -6.32457e-20)
(0.475069 0.108812 1.18713e-19)
(0.550037 0.0886443 1.18102e-19)
(0.630446 0.0656499 -1.14146e-19)
(0.713009 0.038736 1.05959e-19)
(0.803961 0.0105607 -1.01259e-19)
(0.879574 -0.0234903 0)
(0.991329 -0.0561972 -9.58458e-20)
(-0.00884946 0.0142566 7.25407e-20)
(-0.0234641 0.0411206 -7.44589e-20)
(-0.0325004 0.0657632 6.98033e-20)
(-0.0351129 0.0871909 0)
(-0.0309905 0.104961 0)
(-0.0201098 0.118942 1.12344e-19)
(-0.00263235 0.12921 -1.06084e-19)
(0.021215 0.136003 9.73158e-20)
(0.0512323 0.139657 -4.59636e-19)
(0.0872992 0.140542 5.36745e-23)
(0.129398 0.138995 8.05317e-20)
(0.17761 0.135291 0)
(0.232085 0.129611 -1.45906e-19)
(0.292992 0.122037 2.76211e-19)
(0.360431 0.112562 -1.97388e-19)
(0.434358 0.101103 -3.19946e-19)
(0.514479 0.0875106 -5.95897e-21)
(0.600153 0.0716766 2.27799e-19)
(0.690149 0.0533881 0)
(0.783384 0.0330668 0)
(0.875799 0.00942337 -1.05963e-19)
(0.970877 -0.0137539 1.01264e-19)
(1.04765 -0.0437866 -3.74391e-19)
(1.14924 -0.0669039 3.50562e-19)
(-0.00988562 0.013088 0)
(-0.0253017 0.0357029 0)
(-0.0343198 0.0550052 -2.0905e-19)
(-0.0358262 0.0709135 6.66725e-20)
(-0.0293749 0.0835141 1.35233e-21)
(-0.0148503 0.0929524 1.13815e-19)
(0.00770527 0.0994355 0)
(0.0382077 0.103235 -9.78957e-20)
(0.0766017 0.104667 9.16383e-20)
(0.122889 0.104049 -1.70141e-19)
(0.177115 0.10167 -2.09064e-22)
(0.239314 0.0977516 1.51634e-19)
(0.309429 0.0924326 1.42587e-21)
(0.387206 0.0857631 1.38877e-19)
(0.472088 0.0777105 -1.9281e-19)
(0.563112 0.0681812 0)
(0.658854 0.057045 2.39996e-19)
(0.757398 0.044178 -3.4071e-19)
(0.856324 0.0294504 1.068e-19)
(0.953053 0.0130914 0)
(1.0438 -0.00569745 9.59666e-20)
(1.12822 -0.0238176 3.73873e-19)
(1.1942 -0.0485125 -3.50895e-19)
(1.26563 -0.0633487 -4.00208e-19)
(-0.0113241 0.0126516 2.18577e-19)
(-0.0271287 0.0317599 -3.00046e-19)
(-0.0348118 0.0461708 1.10683e-21)
(-0.0332999 0.0568521 6.63919e-20)
(-0.022122 0.0644993 -1.22635e-19)
(-0.00108142 0.0696099 -1.13348e-19)
(0.0299163 0.0725905 2.09598e-19)
(0.0709313 0.0738073 -2.37354e-21)
(0.121994 0.0736009 -1.83349e-19)
(0.183057 0.072272 3.40977e-19)
(0.253916 0.0700596 -2.63336e-23)
(0.334092 0.0671186 -1.50212e-19)
(0.422719 0.0635066 0)
(0.518462 0.0591816 0)
(0.619464 0.0540127 -6.4439e-20)
(0.723367 0.0478002 -1.20847e-19)
(0.827396 0.0403225 -2.33687e-19)
(0.928471 0.0313194 2.19351e-19)
(1.02347 0.0207185 -1.06857e-19)
(1.10933 0.00823589 1.98293e-19)
(1.18345 -0.00581089 -9.59752e-20)
(1.24429 -0.0209455 1.73356e-19)
(1.28828 -0.0400593 -4.04613e-19)
(1.32355 -0.051562 7.84022e-20)
(-0.0129189 0.0125649 7.35038e-20)
(-0.0281754 0.0287105 0)
(-0.0325014 0.0389046 1.41429e-19)
(-0.0251916 0.0450996 -1.3323e-19)
(-0.00588229 0.0485837 1.2275e-19)
(0.0256371 0.0502245 0)
(0.0694957 0.050649 0)
(0.125699 0.0503397 -9.802e-20)
(0.194027 0.049672 1.58782e-21)
(0.273898 0.0489153 8.6512e-20)
(0.364233 0.0482217 -8.03418e-20)
(0.463358 0.0476123 1.50684e-19)
(0.568975 0.0469732 0)
(0.678211 0.046066 2.69046e-19)
(0.787765 0.0445563 -5.07033e-19)
(0.894106 0.0420536 3.59795e-19)
(0.99373 0.0381802 2.26842e-19)
(1.08342 0.0325591 -2.12942e-19)
(1.16057 0.0251111 0)
(1.22326 0.0152926 0)
(1.27087 0.00433118 0)
(1.30343 -0.0102059 0)
(1.32255 -0.0237393 7.79768e-20)
(1.33169 -0.0391964 -2.71984e-19)
(-0.0102189 0.103313 -8.7096e-21)
(0.020195 0.0349154 8.77603e-21)
(0.0529808 -0.045068 -2.78949e-22)
(0.0883486 -0.133188 0)
(0.125282 -0.226052 -7.49041e-21)
(0.162735 -0.318973 1.40756e-20)
(0.199448 -0.406413 -5.96279e-22)
(0.233466 -0.482258 -5.84066e-21)
(0.262299 -0.541575 0)
(0.283005 -0.582562 0)
(0.292525 -0.607398 -2.07569e-22)
(0.288997 -0.62067 -1.73231e-22)
(0.274849 -0.624508 -2.55081e-21)
(0.259396 -0.612766 2.33439e-21)
(0.256702 -0.570793 0)
(0.278171 -0.484046 0)
(0.325342 -0.349097 2.59525e-21)
(0.390768 -0.176245 1.05654e-22)
(0.464731 0.0152874 -2.40495e-21)
(0.539093 0.200762 -1.36873e-22)
(0.606838 0.353244 0)
(0.662004 0.455964 0)
(0.700707 0.509525 0)
(0.723261 0.525515 0)
(0.733862 0.518931 0)
(0.732787 0.509171 0)
(0.714326 0.514984 3.24923e-22)
(0.678702 0.530165 -5.28771e-22)
(0.642362 0.513722 0)
(0.628963 0.417522 0)
(0.64799 0.235334 -6.94312e-22)
(0.691043 0.0122358 6.74767e-22)
(0.742785 -0.190478 3.20367e-22)
(0.787431 -0.331559 0)
(0.819183 -0.406702 0)
(0.837581 -0.428454 2.79262e-22)
(0.842008 -0.434883 -2.71459e-22)
(0.821288 -0.445643 0)
(0.776843 -0.458076 2.35402e-22)
(0.728596 -0.417257 -3.44662e-22)
(0.703239 -0.297728 1.32475e-22)
(0.710682 -0.114331 0)
(0.743963 0.0789607 -2.52934e-22)
(0.786198 0.21747 2.45947e-22)
(0.825278 0.31637 0)
(0.831667 0.359193 0)
(0.805206 0.409727 -6.99034e-23)
(0.762952 0.385346 2.10663e-22)
(0.739734 0.3022 0)
(0.751071 0.142469 0)
(0.791675 -0.0462369 -6.52413e-23)
(0.818217 -0.150945 -5.2206e-24)
(0.826914 -0.30486 -8.20722e-24)
(0.797874 -0.318692 3.67204e-23)
(0.788828 -0.358938 0)
(0.788473 -0.254984 0)
(0.803353 -0.059661 0)
(0.79694 0.0218139 0)
(0.803551 0.314204 0)
(0.784078 0.251732 0)
(0.123923 0.0692269 -9.05846e-22)
(0.158206 -0.000650251 -3.82219e-20)
(0.193271 -0.0819218 5.50445e-22)
(0.22987 -0.171247 3.53167e-20)
(0.266552 -0.264682 5.33595e-22)
(0.302119 -0.357351 0)
(0.335261 -0.443079 -2.53053e-20)
(0.36404 -0.515101 4.70315e-20)
(0.386126 -0.567909 -2.17093e-20)
(0.399174 -0.599131 1.50958e-20)
(0.400755 -0.610997 -1.44659e-20)
(0.388154 -0.610392 1.01172e-20)
(0.360358 -0.604804 -9.84317e-21)
(0.322737 -0.594234 -2.41283e-22)
(0.289005 -0.56604 -7.97846e-21)
(0.275757 -0.500553 7.7541e-21)
(0.292519 -0.385442 -8.68329e-21)
(0.337051 -0.225509 8.19339e-21)
(0.400366 -0.0397104 -8.69719e-21)
(0.47246 0.145904 1.61153e-20)
(0.544111 0.304832 -7.45443e-21)
(0.607555 0.418796 -3.31793e-22)
(0.657042 0.485153 -4.26646e-21)
(0.691516 0.512105 7.77753e-21)
(0.713057 0.5145 -3.52906e-21)
(0.719802 0.51404 1.99037e-22)
(0.706821 0.528955 3.69603e-21)
(0.678289 0.548099 7.61554e-22)
(0.653102 0.52653 -8.9582e-21)
(0.652507 0.418576 1.05096e-20)
(0.681563 0.223854 -5.55244e-21)
(0.7298 -0.0075528 7.71523e-22)
(0.781617 -0.211677 -3.20997e-22)
(0.821694 -0.348355 5.48266e-22)
(0.845631 -0.417098 0)
(0.854773 -0.432504 0)
(0.852654 -0.431071 -9.34053e-22)
(0.828049 -0.432871 7.00744e-22)
(0.780738 -0.440306 6.60566e-22)
(0.726541 -0.40297 2.34633e-22)
(0.694594 -0.294017 -1.05474e-21)
(0.697539 -0.121926 2.44575e-22)
(0.730642 0.0645474 0)
(0.776371 0.202779 0)
(0.817814 0.308367 0)
(0.827088 0.361366 0)
(0.801527 0.41905 2.80773e-22)
(0.763599 0.394672 -1.42818e-22)
(0.742732 0.304359 0)
(0.756308 0.136825 0)
(0.798165 -0.054876 0)
(0.824972 -0.155061 -1.13204e-22)
(0.835697 -0.302457 1.66981e-23)
(0.80354 -0.314542 -8.17313e-23)
(0.794762 -0.357721 0)
(0.790809 -0.256322 0)
(0.802478 -0.0607444 4.78714e-23)
(0.794538 0.0220471 1.20759e-22)
(0.798747 0.315561 0)
(0.781758 0.252831 0)
(0.267782 0.0382248 2.59715e-21)
(0.304889 -0.0320712 -7.96867e-20)
(0.341607 -0.112919 7.89329e-20)
(0.378983 -0.201361 -7.38044e-20)
(0.415296 -0.293551 -5.37114e-22)
(0.448866 -0.384593 0)
(0.478063 -0.467863 -5.4217e-20)
(0.500664 -0.536101 5.30519e-20)
(0.51438 -0.583503 3.16134e-22)
(0.51776 -0.607378 5.19402e-22)
(0.510047 -0.609294 4.12312e-22)
(0.489915 -0.595901 3.3908e-22)
(0.454868 -0.577574 -1.61159e-20)
(0.404892 -0.561357 1.59066e-20)
(0.34875 -0.541237 0)
(0.304027 -0.497125 3.5288e-22)
(0.287663 -0.408071 -1.37854e-20)
(0.305663 -0.269093 1.36425e-20)
(0.352236 -0.095258 0)
(0.417093 0.0865689 0)
(0.489153 0.249663 -1.12691e-20)
(0.55818 0.373886 2.03102e-20)
(0.616851 0.453063 -1.638e-20)
(0.662414 0.491993 8.76045e-22)
(0.69427 0.505096 1.27019e-20)
(0.708718 0.515209 -1.30657e-20)
(0.702129 0.53917 1.34274e-20)
(0.682087 0.561692 1.04411e-21)
(0.668723 0.535704 -8.46575e-21)
(0.680548 0.418407 0)
(0.719123 0.214261 0)
(0.771887 -0.0229621 4.51728e-21)
(0.822867 -0.227615 -5.93456e-21)
(0.857738 -0.360039 2.2379e-23)
(0.873756 -0.423137 2.99999e-21)
(0.873655 -0.433529 -2.91549e-21)
(0.864949 -0.425702 0)
(0.836958 -0.419341 2.08043e-22)
(0.787827 -0.421877 1.72526e-21)
(0.728608 -0.388186 -3.51076e-21)
(0.690326 -0.290484 1.61549e-21)
(0.68842 -0.130753 1.76482e-22)
(0.720762 0.0482523 -1.9977e-21)
(0.769184 0.186257 1.55849e-21)
(0.812365 0.299092 3.02545e-22)
(0.824467 0.362565 2.79693e-22)
(0.800244 0.42756 -2.81499e-22)
(0.767068 0.403689 0)
(0.748831 0.306805 0)
(0.764322 0.131988 -1.48391e-21)
(0.806786 -0.0630147 6.9067e-22)
(0.833436 -0.158872 -5.68081e-22)
(0.846007 -0.299605 6.60114e-22)
(0.810382 -0.310014 6.21732e-22)
(0.801446 -0.356172 -1.51158e-22)
(0.794051 -0.257481 2.03e-22)
(0.802851 -0.0615186 -1.69235e-22)
(0.793367 0.0224086 4.80021e-23)
(0.794991 0.3168 0)
(0.780398 0.253838 0)
(0.413241 0.0107027 -1.66695e-19)
(0.452636 -0.0592179 -3.50685e-22)
(0.491352 -0.139089 1.59106e-19)
(0.53008 -0.225449 -1.19303e-21)
(0.566518 -0.315129 0)
(0.598421 -0.403372 0)
(0.623699 -0.483073 -1.1083e-19)
(0.63975 -0.546656 1.31819e-20)
(0.644333 -0.588405 1.28992e-19)
(0.636681 -0.606042 -7.15364e-21)
(0.617597 -0.601145 -2.99228e-20)
(0.588374 -0.578889 -1.78941e-20)
(0.548379 -0.548596 1.80012e-20)
(0.494582 -0.521411 0)
(0.427891 -0.500478 -1.05112e-20)
(0.360492 -0.472029 9.58787e-21)
(0.312648 -0.411183 0)
(0.299918 -0.300984 0)
(0.323934 -0.14725 1.06491e-20)
(0.376187 0.0258423 -3.83201e-22)
(0.444043 0.189694 -9.3493e-21)
(0.515209 0.322294 -7.74865e-21)
(0.580867 0.413675 7.62967e-21)
(0.63603 0.465196 -6.12882e-21)
(0.677127 0.49027 -7.6069e-24)
(0.699034 0.511614 5.78573e-21)
(0.699552 0.544166 8.2972e-22)
(0.688933 0.569827 5.61766e-24)
(0.687567 0.540901 0)
(0.711283 0.417511 1.27684e-20)
(0.758883 0.207567 -1.32441e-20)
(0.815825 -0.0336429 8.21441e-22)
(0.865664 -0.238567 0)
(0.895076 -0.367282 -5.77284e-22)
(0.903293 -0.42538 6.13736e-21)
(0.894136 -0.43185 -9.88296e-21)
(0.878719 -0.419183 4.27231e-22)
(0.847595 -0.405636 5.0153e-22)
(0.797675 -0.403046 2.52296e-21)
(0.734733 -0.372569 3.62275e-22)
(0.690599 -0.286506 -3.09274e-21)
(0.683485 -0.140335 2.58155e-21)
(0.714288 0.0304552 5.89609e-23)
(0.764513 0.168115 1.23957e-21)
(0.808837 0.288518 -1.50873e-21)
(0.823751 0.362574 -1.944e-21)
(0.80134 0.435022 5.34378e-22)
(0.773292 0.412297 1.44034e-21)
(0.758003 0.309687 -2.99281e-21)
(0.775084 0.128203 2.3243e-21)
(0.817491 -0.070462 -5.7945e-22)
(0.843489 -0.162405 7.95919e-22)
(0.857717 -0.296353 5.77461e-22)
(0.818342 -0.305038 -9.38127e-22)
(0.808779 -0.35422 2.89465e-23)
(0.79807 -0.258477 -1.54456e-22)
(0.804393 -0.0620232 0)
(0.793371 0.0229049 -8.36164e-23)
(0.792253 0.317939 1.0424e-22)
(0.780005 0.254764 0)
(0.556785 -0.0159751 1.66288e-19)
(0.597615 -0.0842818 -3.28088e-19)
(0.638937 -0.161642 1.59213e-19)
(0.679646 -0.244188 1.51678e-19)
(0.716049 -0.329595 -2.89023e-19)
(0.745661 -0.413124 1.11562e-20)
(0.766137 -0.487392 1.23779e-19)
(0.774631 -0.545006 9.30494e-20)
(0.769281 -0.58075 -9.10937e-20)
(0.750281 -0.59296 0)
(0.719561 -0.583748 -4.66535e-20)
(0.680054 -0.557606 8.08217e-20)
(0.634021 -0.520908 -3.45044e-20)
(0.579889 -0.483427 0)
(0.513395 -0.454465 0)
(0.436884 -0.431109 2.74173e-22)
(0.365956 -0.393035 -1.43386e-20)
(0.322283 -0.315275 1.39312e-20)
(0.318407 -0.189716 0)
(0.351904 -0.0325917 1.49692e-20)
(0.410463 0.127051 -2.73017e-20)
(0.480011 0.265153 2.42427e-20)
(0.549734 0.36738 -2.186e-20)
(0.61221 0.431547 -4.15926e-25)
(0.661006 0.469357 2.06639e-20)
(0.689941 0.502194 -1.06622e-20)
(0.698064 0.54292 -4.11389e-22)
(0.69741 0.571947 -8.38387e-21)
(0.707882 0.542233 -2.41297e-21)
(0.742828 0.416451 1.07158e-20)
(0.798848 0.203713 8.5017e-22)
(0.860055 -0.0395891 -1.32057e-20)
(0.909013 -0.244315 2.39204e-20)
(0.932971 -0.369837 -1.19876e-20)
(0.933638 -0.423705 0)
(0.915864 -0.427362 -5.18938e-21)
(0.893796 -0.411487 4.89585e-21)
(0.859744 -0.392076 -2.36281e-21)
(0.809897 -0.384394 2.96064e-21)
(0.744673 -0.356452 -2.68939e-22)
(0.695387 -0.281881 0)
(0.682725 -0.150202 -2.99216e-22)
(0.71107 0.0115494 9.08666e-22)
(0.762152 0.14851 0)
(0.807065 0.276521 2.6028e-21)
(0.824804 0.361108 -1.01692e-21)
(0.804689 0.441183 5.68666e-22)
(0.782081 0.420403 6.96363e-22)
(0.770091 0.313092 0)
(0.788473 0.125584 0)
(0.830187 -0.0770626 -2.13609e-21)
(0.854987 -0.165623 3.08044e-21)
(0.870675 -0.292656 -1.53394e-21)
(0.82737 -0.299516 3.9959e-22)
(0.816676 -0.351809 5.47972e-22)
(0.80273 -0.259353 1.54601e-22)
(0.80701 -0.0623068 -1.87843e-22)
(0.794481 0.0235439 0)
(0.790497 0.318995 -1.66759e-22)
(0.780586 0.255615 -1.9229e-23)
(0.701686 -0.044739 1.63503e-19)
(0.742337 -0.109643 -1.62974e-19)
(0.785389 -0.181899 1.25703e-21)
(0.826614 -0.258318 -1.15403e-21)
(0.860983 -0.337285 1.13318e-21)
(0.886089 -0.413856 -1.03467e-21)
(0.899602 -0.480758 1.75985e-21)
(0.898817 -0.531385 0)
(0.882654 -0.561321 -1.26292e-21)
(0.852515 -0.569301 1.01956e-21)
(0.81144 -0.557566 7.98464e-22)
(0.762965 -0.530576 -6.2386e-22)
(0.710505 -0.492992 0)
(0.655365 -0.450619 0)
(0.593748 -0.412471 2.26985e-22)
(0.520552 -0.384465 0)
(0.440522 -0.357619 -1.1869e-22)
(0.372622 -0.308334 0)
(0.338404 -0.216453 -9.06353e-21)
(0.346516 -0.0840826 1.78432e-20)
(0.38985 0.0647172 -1.74042e-20)
(0.453467 0.204096 8.39766e-21)
(0.523722 0.314912 7.52421e-21)
(0.590634 0.391207 -7.3067e-21)
(0.645254 0.442036 -9.29994e-21)
(0.680576 0.486333 9.07861e-21)
(0.696532 0.534927 0)
(0.706022 0.567872 4.3798e-22)
(0.727881 0.539852 0)
(0.772955 0.415287 0)
(0.836972 0.202755 2.64939e-20)
(0.903203 -0.0407671 -2.73615e-20)
(0.951982 -0.244912 1.5475e-21)
(0.970757 -0.367876 1.22647e-21)
(0.964261 -0.418394 -8.99234e-22)
(0.938493 -0.420226 -4.51481e-21)
(0.909933 -0.40269 4.38396e-21)
(0.873069 -0.378887 -2.88543e-21)
(0.823951 -0.366302 2.45382e-21)
(0.757901 -0.340029 5.0183e-22)
(0.704409 -0.276408 -2.17472e-21)
(0.685993 -0.159824 -2.39893e-22)
(0.710854 -0.00801039 1.52547e-21)
(0.761819 0.127568 0)
(0.806823 0.262938 -9.28266e-22)
(0.827409 0.357874 1.61582e-21)
(0.810066 0.445783 -2.05825e-21)
(0.79313 0.427884 -7.00825e-22)
(0.784745 0.317023 0)
(0.804249 0.124413 8.12176e-22)
(0.844756 -0.0825856 -1.71479e-21)
(0.867771 -0.168464 2.22194e-23)
(0.884693 -0.288509 -4.84634e-22)
(0.837412 -0.293367 5.37777e-22)
(0.825076 -0.348853 -5.32333e-22)
(0.807897 -0.26014 0)
(0.81059 -0.06243 1.8793e-22)
(0.796617 0.0243292 0)
(0.78968 0.319975 0)
(0.782139 0.25639 2.94875e-23)
(0.8547 -0.0734675 -1.58707e-19)
(0.891331 -0.13324 1.57101e-19)
(0.931881 -0.197984 -1.14988e-21)
(0.969179 -0.266021 1.18143e-21)
(0.997309 -0.336487 0)