/*--------------------------------*- C++ -*----------------------------------*\
| =========                 |                                                 |
| \\      /  F ield         | OpenFOAM: The Open Source CFD Toolbox           |
|  \\    /   O peration     | Version:  2512                                  |
|   \\  /    A nd           | Website:  www.openfoam.com                      |
|    \\/     M anipulation  |                                                 |
\*---------------------------------------------------------------------------*/
FoamFile
{
    version     2.0;
    format      ascii;
    arch        "LSB;label=32;scalar=64";
    class       surfaceScalarField;
    location    "133.75";
    object      phi;
}
// * * * * * * * * * * * * * * * * * * * * * * * * * * * * * * * * * * * * * //

dimensions      [0 3 -1 0 0 0 0];

oriented        oriented;

internalField   nonuniform List<scalar> 
26232
(
-4.61456e-05
0.00105215
-0.00100601
0.000116797
0.00201712
-0.00218006
0.000731787
0.00203226
-0.00264725
0.00201526
0.00114704
-0.00243051
0.0041717
-0.000629968
-0.00152647
0.00739472
-0.00330983
8.68102e-05
0.0118642
-0.00690614
0.00243667
0.0177271
-0.0114191
0.00555617
0.0250815
-0.0168184
0.00946406
0.0339536
-0.0230324
0.0141603
0.0442805
-0.0299438
0.0196169
0.0559001
-0.0373931
0.0257735
0.0685531
-0.0451892
0.0325362
0.0818969
-0.0531241
0.0397803
0.0955305
-0.0609904
0.0473568
0.109028
-0.0685985
0.0551012
0.121976
-0.0757919
0.0628435
0.134014
-0.0824597
0.0704224
0.144868
-0.0885414
0.0776869
0.154365
-0.0940437
0.0845465
0.162474
-0.0989745
0.0908661
0.169176
-0.103542
0.0968402
0.174434
-0.107367
0.102109
-0.111734
0.108002
0.178166
3.05862e-05
0.00102157
0.000419217
0.00162849
0.00142866
0.00102282
0.00330057
-0.000724879
0.00626092
-0.00359032
0.0105109
-0.00755983
0.0162084
-0.0126037
0.023442
-0.0186527
0.0322055
-0.0255819
0.0423805
-0.0332074
0.0537321
-0.0412954
0.0659224
-0.0495834
0.07854
-0.0578068
0.0911411
-0.0657253
0.103297
-0.0731458
0.114637
-0.0799388
0.12489
-0.0860451
0.133905
-0.0914748
0.14166
-0.0962968
0.148238
-0.100621
0.153833
-0.10457
0.158582
-0.108291
0.16296
-0.111746
-0.115565
0.166791
0.000130202
0.000891366
0.000809819
0.000948875
0.00231383
-0.000481192
0.00489731
-0.00330835
0.00878597
-0.00747898
0.0141522
-0.012926
0.0210826
-0.0195341
0.0295468
-0.0271169
0.0393787
-0.0354138
0.0502788
-0.0441075
0.0618415
-0.0528581
0.0736023
-0.0613442
0.0850955
-0.0693001
0.0959123
-0.0765421
0.105747
-0.0829809
0.114428
-0.0886196
0.121921
-0.0935375
0.128312
-0.0978666
0.133776
-0.101761
0.138527
-0.105372
0.142773
-0.108816
0.146692
-0.112209
0.150433
-0.115487
-0.119093
0.153961
0.000246226
0.00064514
0.00126403
-6.89315e-05
0.00333252
-0.00254968
0.00670119
-0.00667702
0.0115627
-0.0123405
0.0180125
-0.0193759
0.0260094
-0.027531
0.0353526
-0.0364601
0.04569
-0.0457512
0.0565597
-0.0549772
0.0674561
-0.0637545
0.0779045
-0.0717926
0.0875263
-0.0789219
0.0960826
-0.0850984
0.103489
-0.0903868
0.109798
-0.0949288
0.115165
-0.0989048
0.119796
-0.102497
0.123901
-0.105866
0.127657
-0.109128
0.131205
-0.112363
0.134618
-0.115623
0.138005
-0.118874
-0.122397
0.141309
0.00037501
0.00027013
0.00176465
-0.00145857
0.00443859
-0.00522363
0.00861305
-0.0108515
0.0144042
-0.0181316
0.0217766
-0.0267484
0.0305125
-0.0362668
0.0402205
-0.0461681
0.0503909
-0.0559216
0.0604814
-0.0650678
0.0700086
-0.0732817
0.0786194
-0.0804033
0.0861282
-0.0864307
0.092515
-0.0914852
0.097891
-0.0957628
0.102446
-0.0994834
0.106392
-0.102851
0.109925
-0.10603
0.113195
-0.109136
0.116311
-0.112244
0.11934
-0.115392
0.12232
-0.118602
0.125302
-0.121856
-0.125308
0.128212
0.000515732
-0.000245602
0.00229975
-0.00324258
0.0055898
-0.00851368
0.0105313
-0.015793
0.0171138
-0.0247141
0.0251239
-0.0347584
0.0341477
-0.0452907
0.0436352
-0.0556556
0.0530053
-0.0652917
0.061756
-0.0738185
0.0695444
-0.0810701
0.0762179
-0.0870769
0.081798
-0.0920108
0.0864303
-0.0961175
0.0903215
-0.099654
0.0936841
-0.102846
0.0966993
-0.105866
0.099502
-0.108833
0.102182
-0.111817
0.104796
-0.114857
0.107376
-0.117972
0.109942
-0.121168
0.112519
-0.124434
-0.127849
0.11506
0.000667328
-0.000912929
0.00285432
-0.00542958
0.00673451
-0.0123939
0.0123375
-0.021396
0.0194798
-0.0318563
0.0277478
-0.0430264
0.0365606
-0.0541035
0.0452929
-0.0643878
0.0534074
-0.0734062
0.0605481
-0.0809592
0.0665709
-0.087093
0.0715169
-0.0920228
0.0755493
-0.0960433
0.0788842
-0.0994523
0.0817328
-0.102503
0.0842686
-0.105382
0.0866165
-0.108214
0.0888574
-0.111074
0.0910397
-0.113999
0.0931912
-0.117009
0.0953275
-0.120109
0.0974572
-0.123297
0.0995939
-0.12657
-0.129956
0.101701
0.000826051
-0.00173898
0.00340464
-0.00800816
0.00780507
-0.0167943
0.0138964
-0.0274874
0.0212946
-0.0392545
0.029405
-0.0511369
0.0375546
-0.0622531
0.0451502
-0.0719834
0.0517942
-0.0800502
0.0573236
-0.0864885
0.0617771
-0.0915465
0.065324
-0.0955697
0.0681853
-0.0989046
0.0705741
-0.101841
0.0726621
-0.104591
0.0745702
-0.10729
0.0763754
-0.110019
0.0781225
-0.112821
0.0798362
-0.115713
0.0815306
-0.118703
0.083214
-0.121792
0.0848921
-0.124976
0.0865722
-0.12825
-0.131617
0.0882337
0.000984615
-0.0027236
0.00391771
-0.0109413
0.00872251
-0.0215991
0.0150744
-0.0338392
0.0223937
-0.0465738
0.0299651
-0.0587083
0.0371209
-0.0694089
0.0433904
-0.0782529
0.0485597
-0.0852195
0.0526425
-0.0905713
0.0558014
-0.0947054
0.0582602
-0.0980285
0.060237
-0.100881
0.0619068
-0.103511
0.0633926
-0.106076
0.0647709
-0.108668
0.0660858
-0.111334
0.0673612
-0.114096
0.0686102
-0.116962
0.0698405
-0.119933
0.0710572
-0.123009
0.0722645
-0.126183
0.0734656
-0.129452
-0.132802
0.07465
0.00113293
-0.00385653
0.00435549
-0.0141638
0.00940919
-0.0266528
0.0157651
-0.0401952
0.0226884
-0.0534971
0.0294277
-0.0654477
0.0354078
-0.075389
0.0403277
-0.0831727
0.0441476
-0.0890394
0.047008
-0.0934317
0.0491307
-0.0968281
0.0507407
-0.0996386
0.0520222
-0.102163
0.0531043
-0.104593
0.054068
-0.10704
0.0549588
-0.109559
0.0558012
-0.112177
0.0566082
-0.114903
0.0573873
-0.117741
0.0581436
-0.12069
0.0588806
-0.123746
0.0596017
-0.126904
0.0603084
-0.130158
-0.133492
0.0609986
0.00126019
-0.00511672
0.00468229
-0.0175859
0.009804
-0.0317745
0.0159095
-0.0463007
0.0221758
-0.0597633
0.0278996
-0.0711715
0.0326531
-0.0801425
0.0363068
-0.0868265
0.0389556
-0.0916882
0.0408095
-0.0952856
0.0421006
-0.0981192
0.0430258
-0.100564
0.0437263
-0.102863
0.044291
-0.105158
0.0447699
-0.107519
0.0451895
-0.109979
0.0455635
-0.112551
0.0458996
-0.115239
0.0462028
-0.118044
0.0464768
-0.120964
0.0467244
-0.123993
0.0469475
-0.127127
0.0471462
-0.130357
-0.133667
0.0473217
0.00135932
-0.00647604
0.00487371
-0.0211003
0.009874
-0.0367748
0.0155026
-0.0519293
0.0209265
-0.0651873
0.0255547
-0.0757997
0.0291232
-0.083711
0.0316464
-0.0893497
0.0333041
-0.0933458
0.0343296
-0.0963111
0.0349352
-0.0987249
0.0352792
-0.100908
0.0354629
-0.103047
0.0355445
-0.105239
0.0355542
-0.107528
0.035507
-0.109932
0.0354111
-0.112455
0.0352716
-0.1151
0.0350925
-0.117865
0.0348769
-0.120748
0.0346276
-0.123744
0.0343459
-0.126845
0.034031
-0.130042
0.0336868
-0.133323
-0.000253418
0.000677734
-0.000424315
-0.000871273
0.00230657
-0.00168872
-0.00177674
0.00411795
-0.00321249
-0.00291782
0.00598269
-0.00484161
-0.00425371
0.0078108
-0.00647491
-0.00574768
0.00956455
-0.00807058
-0.00736325
0.0112502
-0.00963463
-0.00906292
0.0129022
-0.0112025
-0.0108083
0.0145658
-0.0128205
-0.0125603
0.0162826
-0.0145306
-0.0142792
0.0180804
-0.0163615
-0.0159231
0.0199689
-0.018325
-0.0174468
0.0219393
-0.0204156
-0.0188
0.0239645
-0.0226113
-0.0199256
0.0260004
-0.0248747
-0.0207597
0.0279865
-0.0271525
-0.0212312
0.0298462
-0.0293746
-0.0212637
0.0314862
-0.0314537
-0.0207772
0.0327986
-0.0332851
-0.0196913
0.0336643
-0.0347502
-0.0179307
0.0339602
-0.0357208
-0.0154265
0.0335592
-0.0360634
-0.0121372
0.0323542
-0.0356435
0.0303266
-0.0080871
-0.0343767
-0.000170499
0.000848233
-0.000591508
0.00272758
-0.00121326
0.0047397
-0.00200105
0.00677048
-0.00292547
0.00873522
-0.00395562
0.0105947
-0.00505538
0.01235
-0.00618252
0.0140293
-0.00728958
0.0156729
-0.00832548
0.0173185
-0.00923678
0.0189917
-0.00996793
0.0207001
-0.0104608
0.0224322
-0.0106541
0.0241577
-0.0104819
0.0258282
-0.00987534
0.0273799
-0.00876223
0.028733
-0.0070698
0.0297938
-0.00472758
0.0304564
-0.00166917
0.0306059
0.00216929
0.0301218
0.00683427
0.0288942
0.0123635
0.026825
0.0238938
0.0187963
-8.49772e-05
0.00093321
-0.00029885
0.00294145
-0.00061515
0.00505601
-0.00101323
0.00716856
-0.00147287
0.00919486
-0.00196863
0.0110905
-0.00246589
0.0128472
-0.00291982
0.0144833
-0.00327658
0.0160297
-0.00347563
0.0175176
-0.00345216
0.0189682
-0.00313885
0.0203868
-0.00246683
0.0217602
-0.00136619
0.023057
0.000233165
0.0242289
0.00240175
0.0252114
0.00520792
0.0259269
0.0087154
0.0262863
0.0129807
0.0261911
0.0180501
0.0255365
0.0239567
0.0242152
0.0307271
0.0221239
0.0383641
0.0191879
0.0152614
0.0469965
-1.05995e-05
0.00094381
-3.66747e-05
0.00296753
-6.61768e-05
0.00508551
-8.59506e-05
0.00718834
-8.11709e-05
0.00919008
-2.98238e-05
0.0110391
0.000100627
0.0127168
0.000354891
0.014229
0.000789002
0.0155955
0.00146804
0.0168385
0.00246307
0.0179732
0.00384828
0.0190016
0.00569867
0.0199098
0.00808829
0.0206674
0.0110889
0.0212283
0.0147679
0.0215324
0.0191864
0.0215083
0.0243977
0.021075
0.0304441
0.0201447
0.0373555
0.0186251
0.0451468
0.0164239
0.0538381
0.0134326
0.0633751
0.00965089
0.00462986
0.0740067
4.22909e-05
0.000901519
0.000158542
0.00285128
0.000359107
0.00488494
0.000658239
0.00688921
0.00107183
0.00877649
0.00162115
0.0104898
0.00233699
0.0120009
0.00326185
0.0133041
0.00444996
0.0144074
0.00596542
0.0153231
0.00787924
0.0160593
0.0102661
0.0166148
0.013201
0.0169749
0.0167572
0.0171112
0.0210034
0.0169821
0.0260021
0.0165337
0.0318082
0.0157022
0.0384676
0.0144156
0.0460158
0.0125965
0.0544806
0.0101603
0.0638751
0.00702943
0.074241
0.00306662
0.0854754
-0.00158344
-0.00794902
0.0980542
6.64769e-05
0.000835042
0.000262814
0.00265494
0.000610249
0.00453751
0.00113266
0.00636679
0.00185267
0.00805648
0.002795
0.00954747
0.00399066
0.0108053
0.00547977
0.011815
0.00731252
0.0125747
0.00954825
0.0130873
0.0122532
0.0133544
0.0154977
0.0133703
0.019353
0.0131196
0.023889
0.0125752
0.0291724
0.0116987
0.0352647
0.0104413
0.0422222
0.00874466
0.0500999
0.00653795
0.0589431
0.0037533
0.0687844
0.000319003
0.0796831
-0.00386933
0.0917409
-0.00899114
0.104745
-0.0145879
-0.0225362
0.119333
6.04912e-05
0.00077455
0.000269224
0.00244621
0.000669767
0.00413696
0.00130265
0.0057339
0.00220241
0.00715673
0.00340121
0.00834868
0.00493333
0.00927314
0.00683871
0.00990964
0.00916489
0.0102485
0.0119674
0.0102849
0.0153086
0.0100131
0.0192565
0.00942243
0.0238823
0.00849371
0.0292596
0.00719796
0.0354634
0.00549495
0.0425693
0.00333538
0.050644
0.000669993
0.0597794
-0.00259743
0.0700417
-0.00650899
0.0815197
-0.011159
0.0942233
-0.0165729
0.108271
-0.0230393
0.123425
-0.029741
-0.0393018
0.14019
2.86105e-05
0.00074594
0.000191548
0.00228327
0.000563218
0.00376529
0.00120574
0.00509138
0.00216967
0.00619279
0.00349893
0.00701942
0.00523607
0.007536
0.00742673
0.00771897
0.0101229
0.00755237
0.0133845
0.00702325
0.0172803
0.0061173
0.0218876
0.00481515
0.0272914
0.00308991
0.0335822
0.000907165
0.0408585
-0.00178144
0.0492183
-0.00502435
0.0587672
-0.00887896
0.0695772
-0.0134074
0.0817271
-0.018659
0.0952504
-0.0246823
0.110134
-0.0314563
0.126293
-0.0391989
0.143536
-0.0469831
-0.0574707
0.161704
-1.84909e-05
0.000764431
6.54744e-05
0.0021993
0.000362022
0.00346875
0.00095826
0.00449514
0.00192506
0.00522599
0.00332415
0.00562033
0.0052147
0.00564545
0.00765899
0.00527469
0.0107266
0.00448475
0.0144972
0.00325269
0.0190613
0.0015532
0.0245198
-0.000643344
0.0309813
-0.00337157
0.0385582
-0.00666973
0.0473555
-0.0105788
0.0574676
-0.0151365
0.0689623
-0.0203736
0.0818635
-0.0263086
0.0961437
-0.0329392
0.111697
-0.0402352
0.128358
-0.0481173
0.145757
-0.0565986
0.163777
-0.0650027
-0.0751173
0.181423
-6.45213e-05
0.000828952
-5.51902e-05
0.00218997
0.000175044
0.00323851
0.000741537
0.00392865
0.00174119
0.00422634
0.00326216
0.00409936
0.0053916
0.00351601
0.0082217
0.00244458
0.0118533
0.000853182
0.0163965
-0.00129051
0.0219684
-0.00401873
0.0286872
-0.00736221
0.0366631
-0.0113474
0.0459861
-0.0159927
0.0567118
-0.0213045
0.0688476
-0.0272722
0.0823381
-0.0338642
0.0970549
-0.0410253
0.112786
-0.0486701
0.129242
-0.0566914
0.146058
-0.0649334
0.162727
-0.0732675
0.179047
-0.0813227
-0.0897468
0.193677
-9.1564e-05
0.000920516
-0.000111379
0.00220979
0.000122913
0.00300422
0.000757469
0.0032941
0.00192188
0.00306193
0.00373943
0.00228181
0.00633386
0.000921577
0.00983362
-0.00105517
0.0143704
-0.00368363
0.0200737
-0.00699381
0.0270605
-0.0110055
0.0354218
-0.0157234
0.0452065
-0.0211322
0.0564068
-0.027193
0.0689441
-0.0338419
0.0826613
-0.0409895
0.0973194
-0.0485223
0.112604
-0.0563098
0.128133
-0.0641991
0.143501
-0.0720593
0.158263
-0.0796952
0.172077
-0.0870819
0.184631
-0.0938764
-0.100279
0.195163
-8.54924e-05
-5.57687e-05
0.000301196
0.00116478
0.00270024
0.00506886
0.00842711
0.0129281
0.0187085
0.025875
0.0344863
0.0445365
0.0559405
0.0685279
0.0820428
0.0961545
0.110476
0.124588
0.138076
0.150563
0.161734
0.171493
0.179725
0.187448
-0.00174271
0.0366276
-0.042972
0.00523039
0.0290729
-0.036046
0.012803
0.01851
-0.0260826
0.020803
0.00500813
-0.0130082
0.0290837
-0.011269
0.00298831
0.0375336
-0.030095
0.0216452
0.0459564
-0.0508914
0.0424685
0.0541859
-0.0725601
0.0643306
0.0619496
-0.0935286
0.0857649
0.0688535
-0.111973
0.105069
0.0743469
-0.126339
0.120845
0.0777591
-0.135905
0.132493
0.0783688
-0.141207
0.140597
0.0758413
-0.144144
0.146671
0.071105
-0.146824
0.151561
0.0667513
-0.148871
0.153224
0.0660057
-0.145582
0.146327
0.0707301
-0.12984
0.125115
0.0804121
-0.0971133
0.0874313
0.0932431
-0.0488102
0.0359792
0.107234
0.00839267
-0.0223833
0.120618
0.065328
-0.0787118
0.131831
0.112708
-0.123922
0.139792
0.145824
-0.153785
0.144448
0.165176
-0.169833
0.146484
0.173874
-0.17591
0.146041
0.177416
-0.176973
0.142456
0.183659
-0.180074
0.13598
0.196423
-0.189947
0.129179
0.205566
-0.198765
0.125623
0.189664
-0.186108
0.127216
0.134386
-0.135979
0.133345
0.0466421
-0.0527707
0.141483
-0.0473575
0.0392196
0.149093
-0.125625
0.118014
0.154759
-0.174622
0.168957
0.157806
-0.199
0.195953
0.157118
-0.208357
0.209045
0.151762
-0.220109
0.225465
0.143172
-0.231542
0.240133
0.135428
-0.223394
0.231138
0.132439
-0.174806
0.177795
0.135245
-0.0790323
0.0762269
0.142199
0.0235566
-0.0305111
0.149669
0.122675
-0.130145
0.153477
0.180624
-0.184432
0.15121
0.236286
-0.234019
0.144578
0.266063
-0.259431
0.138689
0.264254
-0.258365
0.137853
0.209769
-0.208933
0.142215
0.0744497
-0.078811
0.147448
-0.0181695
0.0129358
0.148526
-0.159888
0.158811
0.14577
-0.216529
0.219285
0.142908
-0.289059
0.291921
0.14225
-0.296668
0.297325
0.142697
-0.145129
0.144682
0.142509
-0.100367
0.100556
0.140718
0.184881
-0.18309
0.240362
-0.238543
0.0254597
0.0299642
0.0324
0.0221326
0.0394874
0.0114226
0.0466176
-0.00212207
0.0536593
-0.0183106
0.060525
-0.0369608
0.0671337
-0.0575
0.0733534
-0.0787798
0.0789357
-0.0991109
0.083525
-0.116562
0.0867174
-0.129531
0.0881046
-0.137292
0.0871688
-0.140271
0.083277
-0.140252
0.0764404
-0.139988
0.0684654
-0.140896
0.062903
-0.140019
0.0631086
-0.130045
0.0700499
-0.104055
0.0822121
-0.0609724
0.097266
-0.0066612
0.112596
0.0499981
0.126185
0.0991189
0.136578
0.135431
0.143509
0.158246
0.147423
0.169959
0.148345
0.176494
0.145896
0.186107
0.140763
0.201557
0.135435
0.210894
0.132809
0.19229
0.134268
0.132927
0.139239
0.0416709
0.145733
-0.0538508
0.151503
-0.131395
0.155359
-0.178479
0.156944
-0.200586
0.155366
-0.206779
0.149488
-0.21423
0.140423
-0.222478
0.132235
-0.215207
0.129281
-0.171852
0.132799
-0.0825501
0.140946
0.0154094
0.149468
0.114154
0.153972
0.17612
0.152213
0.238045
0.145906
0.27237
0.140132
0.270028
0.138955
0.210946
0.142948
0.0704566
0.148034
-0.0232556
0.148987
-0.160842
0.146062
-0.213603
0.14296
-0.285957
0.142256
-0.295964
0.142471
-0.145344
0.142083
-0.0999792
0.14024
0.186724
0.242204
0.0533973
0.0235635
0.0599235
0.0156064
0.0663158
0.0050302
0.0725154
-0.00832167
0.0782994
-0.0240946
0.0836538
-0.0423151
0.0885212
-0.0623675
0.0927622
-0.0830208
0.096135
-0.102484
0.0983276
-0.118754
0.0990504
-0.130254
0.0981623
-0.136404
0.0955757
-0.137685
0.0908198
-0.135496
0.0832007
-0.132369
0.0732404
-0.130935
0.0638463
-0.130625
0.0592894
-0.125488
0.0623802
-0.107145
0.0727294
-0.0713216
0.0878366
-0.0217684
0.104602
0.0332323
0.120269
0.0834519
0.133025
0.122676
0.142286
0.148985
0.14818
0.164065
0.150662
0.174011
0.149672
0.187098
0.146177
0.205052
0.142391
0.21468
0.140557
0.194124
0.141563
0.131921
0.145163
0.0380709
0.149811
-0.0584992
0.153692
-0.135276
0.155775
-0.180561
0.155958
-0.20077
0.153627
-0.204448
0.147462
-0.208065
0.138149
-0.213165
0.129582
-0.20664
0.126553
-0.168823
0.130589
-0.0865868
0.139746
0.00625281
0.149237
0.104662
0.154494
0.170863
0.153381
0.239158
0.14752
0.278231
0.141889
0.275659
0.140311
0.212524
0.143825
0.0669422
0.148725
-0.028155
0.149566
-0.161683
0.146445
-0.210483
0.143052
-0.282563
0.142313
-0.295226
0.142364
-0.145395
0.141816
-0.0994314
0.139928
0.188612
0.244059
0.0800519
0.0175183
0.0860094
0.00964879
0.0918829
-0.000843231
0.0972059
-0.0136447
0.101915
-0.0288034
0.105971
-0.046372
0.109262
-0.0656581
0.111591
-0.0853501
0.112723
-0.103615
0.112444
-0.118476
0.110664
-0.128473
0.107474
-0.133214
0.10312
-0.133331
0.0975976
-0.129974
0.0901336
-0.124905
0.079991
-0.120793
0.0685203
-0.119155
0.0597917
-0.11676
0.058235
-0.105589
0.065437
-0.0785235
0.0793694
-0.0357008
0.0967803
0.0158214
0.114078
0.0661541
0.129037
0.107717
0.14062
0.137401
0.148574
0.156111
0.152814
0.169772
0.153558
0.186353
0.151917
0.206693
0.149712
0.216884
0.148515
0.195322
0.148906
0.13153
0.150915
0.036062
0.153636
-0.0612207
0.155638
-0.137278
0.156016
-0.180938
0.154856
-0.19961
0.151857
-0.201449
0.145603
-0.201811
0.136288
-0.20385
0.127455
-0.197807
0.124226
-0.165593
0.128567
-0.090928
0.138541
-0.00372145
0.14893
0.0942737
0.155011
0.164782
0.15469
0.239479
0.149408
0.283513
0.143967
0.2811
0.141943
0.214548
0.144843
0.0640416
0.149503
-0.032815
0.150243
-0.162422
0.146912
-0.207152
0.143176
-0.278826
0.142405
-0.294456
0.142364
-0.145354
0.141697
-0.0987646
0.139777
0.190532
0.245917
0.103998
0.0115742
0.109606
0.00404129
0.115065
-0.00630289
0.119726
-0.0183053
0.123601
-0.0326785
0.12655
-0.0493204
0.128352
-0.0674604
0.128758
-0.0857558
0.127585
-0.102443
0.124814
-0.115705
0.120628
-0.124287
0.115352
-0.127938
0.109378
-0.127358
0.10303
-0.123625
0.0959633
-0.117838
0.0869575
-0.111787
0.0755789
-0.107776
0.0643603
-0.105541
0.0582504
-0.0994789
0.0610283
-0.0813015
0.0724212
-0.0470936
0.0893826
-0.00114012
0.107664
0.0478725
0.1245
0.0908818
0.138268
0.123633
0.148294
0.146084
0.154444
0.163622
0.157151
0.183646
0.157544
0.2063
0.156963
0.217465
0.156304
0.195981
0.155982
0.131851
0.156342
0.0357027
0.157114
-0.0619925
0.157275
-0.13744
0.15604
-0.179703
0.153615
-0.197185
0.150023
-0.197856
0.143844
-0.195632
0.134767
-0.194773
0.125811
-0.18885
0.122287
-0.162069
0.126706
-0.0953472
0.137246
-0.0142618
0.148482
0.0830381
0.155468
0.157795
0.156095
0.238853
0.151534
0.288074
0.146344
0.28629
0.143836
0.217056
0.146005
0.0618719
0.15035
-0.0371593
0.150997
-0.163069
0.147455
-0.20361
0.143325
-0.274697
0.142515
-0.293645
0.142455
-0.145294
0.141712
-0.0980208
0.139777
0.192467
0.247759
0.125091
0.00581594
0.130762
-0.00163
0.135731
-0.0112715
0.139823
-0.0223975
0.142879
-0.035735
0.144681
-0.0511219
0.14492
-0.0676999
0.143345
-0.08418
0.139886
-0.0989846
0.134739
-0.110557
0.128356
-0.117905
0.121309
-0.12089
0.114084
-0.120133
0.107052
-0.116593
0.100254
-0.11104
0.0927739
-0.104307
0.0831632
-0.0981653
0.0717875
-0.0941653
0.0624446
-0.090136
0.0603072
-0.0791641
0.0677062
-0.0544927
0.0827033
-0.0161372
0.101126
0.0294494
0.119308
0.0727002
0.134974
0.107967
0.146997
0.134062
0.15514
0.155479
0.159964
0.178823
0.162506
0.203758
0.163603
0.216368
0.163547
0.196037
0.162525
0.132872
0.161235
0.0369934
0.160139
-0.0608968
0.158532
-0.135833
0.155802
-0.176973
0.152209
-0.193591
0.148076
-0.193724
0.14209
-0.189646
0.133469
-0.186153
0.124563
-0.179944
0.120682
-0.158188
0.124923
-0.0995882
0.135821
-0.0251603
0.147818
0.0710408
0.155792
0.149822
0.157522
0.237122
0.153828
0.291768
0.148966
0.291152
0.145964
0.220059
0.147295
0.0605403
0.151238
-0.0411017
0.151798
-0.16363
0.148062
-0.199874
0.143495
-0.270131
0.142628
-0.292777
0.142622
-0.145289
0.141845
-0.0972436
0.139921
0.19439
0.249564
0.145364
0.000641787
0.150467
-0.00673292
0.154667
-0.0154714
0.15781
-0.0255402
0.159671
-0.0375963
0.159963
-0.0514139
0.158348
-0.0660847
0.154652
-0.0804844
0.148974
-0.0933064
0.141715
-0.103298
0.133521
-0.10971
0.125109
-0.112479
0.117041
-0.112066
0.109629
-0.109181
0.103003
-0.104413
0.0967708
-0.0980744
0.0895407
-0.0909352
0.0800781
-0.0847027
0.0698727
-0.0799306
0.0636508
-0.0729422
0.0659807
-0.0568226
0.0773626
-0.0275191
0.0946415
0.0121706
0.113378
0.0539637
0.130523
0.0908221
0.144379
0.120206
0.154525
0.145333
0.161539
0.17181
0.16629
0.199007
0.169097
0.213561
0.169694
0.19544
0.168143
0.134423
0.165491
0.0396451
0.162615
-0.0580205
0.159335
-0.132553
0.155247
-0.172886
0.150602
-0.188946
0.145971
-0.189092
0.140248
-0.183923
0.13226
-0.178165
0.123591
-0.171275
0.11934
-0.153937
0.123169
-0.103417
0.134183
-0.0361743
0.146855
0.0583686
0.15589
0.140787
0.158877
0.234135
0.156201
0.294444
0.151761
0.295593
0.148263
0.223556
0.148701
0.0601026
0.152138
-0.0445388
0.152617
-0.164109
0.148718
-0.195975
0.143681
-0.265093
0.142729
-0.291825
0.142846
-0.145406
0.142079
-0.0964771
0.140199
0.19627
0.251303
0.165699
-0.00335259
0.169145
-0.0101789
0.171783
-0.0181092
0.173219
-0.0269769
0.173249
-0.0376266
0.171535
-0.0496994
0.167789
-0.0623383
0.161974
-0.0746699
0.154349
-0.0856811
0.14546
-0.0944099
0.136041
-0.100291
0.126819
-0.103256
0.118342
-0.103589
0.110875
-0.101714
0.104476
-0.0980143
0.0990393
-0.0926377
0.0937946
-0.0856905
0.0871665
-0.0780746
0.0785246
-0.0712888
0.0704471
-0.0648646
0.0679458
-0.0543213
0.0742977
-0.033871
0.0886903
-0.00222198
0.106756
0.0358983
0.124742
0.0728355
0.140177
0.104771
0.152276
0.133233
0.161487
0.162599
0.168455
0.192039
0.172994
0.209021
0.174323
0.194111
0.172519
0.136227
0.16877
0.0433947
0.164404
-0.053655
0.159599
-0.127748
0.154309
-0.167596
0.148749
-0.183386
0.143656
-0.183999
0.138222
-0.17849
0.131
-0.170943
0.122747
-0.163022
0.118164
-0.149354
0.12139
-0.106644
0.132263
-0.0470468
0.145509
0.0451225
0.155663
0.130633
0.160045
0.229753
0.158539
0.29595
0.154624
0.299507
0.150687
0.227493
0.150174
0.0606158
0.153021
-0.047386
0.153416
-0.164504
0.149407
-0.191966
0.143872
-0.259558
0.142805
-0.290758
0.14311
-0.145711
0.142399
-0.0957658
0.140602
0.198067
0.25294
0.183231
-0.00516014
0.184621
-0.0115693
0.184992
-0.0184798
0.184175
-0.02616
0.181998
-0.0354492
0.178117
-0.0458185
0.172359
-0.0565802
0.164819
-0.0671302
0.155849
-0.0767114
0.146038
-0.0845984
0.136091
-0.0903432
0.126654
-0.0938201
0.118194
-0.0951286
0.11093
-0.0944502
0.104874
-0.0919586
0.0999656
-0.0877294
0.0959438
-0.0816686
0.0917984
-0.0739292
0.08606
-0.0655503
0.078854
-0.0576587
0.0735148
-0.0489821
0.0746913
-0.0350475
0.0842293
-0.01176
0.0999482
0.0201794
0.117684
0.0551001
0.134205
0.0882502
0.148111
0.119326
0.159524
0.151186
0.168769
0.182794
0.175077
0.202714
0.177235
0.191953
0.175381
0.138081
0.170957
0.0478188
0.165389
-0.0480873
0.15923
-0.121589
0.152886
-0.161253
0.146568
-0.177068
0.141056
-0.178487
0.135909
-0.173342
0.129546
-0.164579
0.121869
-0.155346
0.117031
-0.144516
0.119525
-0.109138
0.13001
-0.0575313
0.143705
0.0314275
0.155004
0.119334
0.160912
0.223845
0.16072
0.296142
0.157444
0.302783
0.153137
0.231801
0.151686
0.0620673
0.153851
-0.0495517
0.154158
-0.164811
0.150102
-0.18791
0.144062
-0.253519
0.142843
-0.289539
0.143399
-0.146267
0.142786
-0.095153
0.141118
0.199736
0.254437
0.193741
-0.00522468
0.193067
-0.0108954
0.191236
-0.0166489
0.188393
-0.0233167
0.184338
-0.0313945
0.178781
-0.0402612
0.171677
-0.0494761
0.163194
-0.0586474
0.153697
-0.0672146
0.143729
-0.0746303
0.133896
-0.0805098
0.124728
-0.0846522
0.116594
-0.0869952
0.109684
-0.08754
0.104026
-0.0863007
0.0995668
-0.0832699
0.0962349
-0.0783367
0.0936663
-0.0713606
0.0907363
-0.0626203
0.0862442
-0.0531666
0.0809964
-0.0437343
0.0786182
-0.0326693
0.0828543
-0.0159961
0.0942831
0.00875059
0.110054
0.0393294
0.126661
0.0716431
0.141959
0.104028
0.155411
0.137734
0.166836
0.171369
0.174992
0.194558
0.178223
0.188722
0.176627
0.139677
0.172021
0.0524251
0.165546
-0.0416119
0.158174
-0.114217
0.150897
-0.153976
0.14399
-0.170161
0.138122
-0.172619
0.133227
-0.168448
0.127784
-0.159136
0.120833
-0.148395
0.115825
-0.139508
0.117503
-0.110815
0.127379
-0.0674079
0.141382
0.017425
0.153819
0.106897
0.161334
0.216331
0.162586
0.29489
0.160082
0.305286
0.155533
0.23635
0.153186
0.0644149
0.154599
-0.0509651
0.154808
-0.16502
0.150777
-0.183878
0.14425
-0.246992
0.142841
-0.288131
0.1437
-0.147125
0.143223
-0.0946765
0.141738
0.201221
0.255747
0.194342
-0.00440355
0.192366
-0.00891928
0.189281
-0.0135646
0.185354
-0.0193893
0.180333
-0.0263733
0.174061
-0.0339896
0.166583
-0.0419982
0.158069
-0.0501334
0.148847
-0.0579918
0.139373
-0.0651566
0.130135
-0.0712724
0.121554
-0.0760708
0.113925
-0.0793662
0.107416
-0.0810307
0.102089
-0.0809739
0.0979404
-0.0791213
0.0949586
-0.075355
0.0931222
-0.0695242
0.0919965
-0.0614946
0.0904112
-0.0515813
0.0874896
-0.0408127
0.0845367
-0.0297163
0.0850083
-0.0164677
0.0914045
0.00235432
0.103399
0.0273345
0.118463
0.0565793
0.134207
0.0882837
0.149423
0.122518
0.163184
0.157609
0.173302
0.18444
0.177525
0.184499
0.17652
0.140682
0.172072
0.0568737
0.165107
-0.0346478
0.156684
-0.105794
0.148568
-0.145859
0.141219
-0.162812
0.135041
-0.166441
0.13029
-0.163696
0.125733
-0.154579
0.11962
-0.142282
0.114515
-0.134404
0.115294
-0.111594
0.124354
-0.0764678
0.138468
0.00331101
0.152017
0.093347
0.161266
0.207082
0.164073
0.292083
0.162427
0.306932
0.157789
0.240989
0.154665
0.0675384
0.155254
-0.0515543
0.155359
-0.165125
0.151413
-0.179932
0.144442
-0.24002
0.142816
-0.286505
0.144012
-0.148322
0.143695
-0.0943591
0.142456
0.20246
0.256824
0.186294
-0.00324903
0.183806
-0.00643143
0.180657
-0.0104159
0.176732
-0.0154641
0.171783
-0.0214245
0.165835
-0.0280419
0.158959
-0.0351215
0.151289
-0.042464
0.143093
-0.0497956
0.134727
-0.0567905
0.126566
-0.0631115
0.118939
-0.0684438
0.112089
-0.0725165
0.106168
-0.0751089
0.101246
-0.0760518
0.0973522
-0.075228
0.0945035
-0.0725062
0.0927484
-0.0677692
0.0921067
-0.0608528
0.0921034
-0.051578
0.0916258
-0.0403351
0.0901943
-0.0282848
0.0893375
-0.0156109
0.0918788
-0.000186933
0.0994795
0.0197338
0.111239
0.0448201
0.125519
0.0740032
0.141008
0.10703
0.156233
0.142383
0.168146
0.172527
0.174172
0.178472
0.174887
0.139967
0.171603
0.0601583
0.1642
-0.0272451
0.154845
-0.0964395
0.146096
-0.13711
0.138501
-0.155217
0.132069
-0.160008
0.127296
-0.158924
0.12348
-0.150763
0.11826
-0.137061
0.113132
-0.129275
0.112988
-0.11145
0.121093
-0.0845725
0.135093
-0.0106886
0.149496
0.0789435
0.160395
0.196183
0.164891
0.287588
0.164313
0.307509
0.159792
0.24551
0.156089
0.071241
0.155785
-0.0512502
0.155796
-0.165136
0.151991
-0.176128
0.14464
-0.232669
0.142779
-0.284645
0.144335
-0.149878
0.144195
-0.0942189
0.143264
0.203391
0.257617
0.21023
-0.00235541
-0.211124
0.210001
-0.00620234
0.209621
-0.010036
0.20882
-0.0146625
0.207439
-0.0200438
0.205379
-0.025982
0.202573
-0.0323156
0.198966
-0.0388572
0.194555
-0.0453846
0.189403
-0.0516385
0.183623
-0.0573306
0.17735
-0.0621712
0.170732
-0.0658987
0.163915
-0.068292
0.157035
-0.0691719
0.150218
-0.0684108
0.143573
-0.065861
0.137194
-0.0613906
0.131233
-0.0548915
0.125759
-0.0461036
0.120309
-0.0348854
0.114084
-0.0220596
0.107252
-0.00877939
0.101331
0.00573391
0.0982592
0.022806
0.0990692
0.0440101
0.103425
0.0696478
0.110516
0.099938
0.119553
0.133347
0.130417
0.161664
0.144901
0.163988
0.162733
0.122136
0.177762
0.0451293
0.185191
-0.0346737
0.184649
-0.0958979
0.179089
-0.13155
0.171097
-0.147225
0.162335
-0.151247
0.15425
-0.150839
0.147002
-0.143515
0.138799
-0.128858
0.130026
-0.120502
0.124571
-0.105996
0.125076
-0.085078
0.130177
-0.0157888
0.135348
0.0737724
0.139028
0.192502
0.141503
0.285113
0.144687
0.304325
0.148691
0.241506
0.152298
0.0676342
0.155522
-0.0544737
0.156001
-0.165615
0.151406
-0.171533
0.143246
-0.224509
0.137926
-0.279325
0.135901
-0.147853
0.132496
-0.090814
0.130221
0.205666
0.258033
0.219759
-0.001738
-0.220377
0.219108
-0.00555096
0.218539
-0.00946752
0.217616
-0.0137388
0.216121
-0.0185489
0.213988
-0.023849
0.211162
-0.02949
0.207603
-0.0352981
0.203303
-0.0410851
0.198303
-0.0466385
0.19269
-0.0517175
0.186589
-0.0560699
0.180147
-0.0594564
0.17352
-0.0616653
0.166859
-0.0625111
0.160301
-0.0618524
0.153968
-0.0595283
0.147954
-0.0553764
0.142353
-0.0492903
0.137316
-0.0410673
0.132777
-0.0303466
0.12811
-0.0173924
0.122586
-0.00325534
0.116827
0.0114931
0.112373
0.0272599
0.111032
0.0453512
0.113727
0.0669526
0.120278
0.0933867
0.129942
0.123683
0.142939
0.148667
0.160398
0.146529
0.179649
0.102884
0.194342
0.0304369
0.20017
-0.0405021
0.197933
-0.0936601
0.190922
-0.124539
0.182003
-0.138306
0.172631
-0.141875
0.164022
-0.142231
0.156635
-0.136128
0.148629
-0.120851
0.139735
-0.111609
0.133514
-0.0997748
0.133375
-0.0849388
0.13829
-0.0207038
0.143956
0.0681061
0.148469
0.18799
0.152028
0.281554
0.156384
0.299969
0.161134
0.236756
0.164795
0.0639733
0.167462
-0.0571409
0.167382
-0.165535
0.162256
-0.166406
0.152997
-0.21525
0.147001
-0.27333
0.144785
-0.145636
0.141096
-0.0871252
0.138731
0.208031
0.258328
0.228733
-0.00142435
-0.229047
0.228159
-0.00497715
0.227427
-0.00873465
0.226378
-0.0126907
0.224837
-0.017007
0.222702
-0.0217142
0.219927
-0.0267151
0.216486
-0.0318577
0.212376
-0.0369746