/*--------------------------------*- C++ -*----------------------------------*\
| =========                 |                                                 |
| \\      /  F ield         | OpenFOAM: The Open Source CFD Toolbox           |
|  \\    /   O peration     | Version:  2512                                  |
|   \\  /    A nd           | Website:  www.openfoam.com                      |
|    \\/     M anipulation  |                                                 |
\*---------------------------------------------------------------------------*/
FoamFile
{
    version     2.0;
    format      ascii;
    arch        "LSB;label=32;scalar=64";
    class       volVectorField;
    location    "92";
    object      U;
}
// * * * * * * * * * * * * * * * * * * * * * * * * * * * * * * * * * * * * * //

dimensions      [0 1 -1 0 0 0 0];

internalField   nonuniform List<vector> 
13248
(
(-0.0123192 0.0123917 9.0873e-20)
(-0.0188898 0.0250455 0)
(-0.00768845 0.0304779 -1.72105e-19)
(0.0193995 0.0302899 1.62118e-19)
(0.0611031 0.0261385 1.52337e-19)
(0.116495 0.0195306 0)
(0.18466 0.0116659 0)
(0.264449 0.00346835 3.7362e-19)
(0.354247 -0.00437043 -1.03626e-21)
(0.451802 -0.0113647 -3.27686e-19)
(0.554197 -0.017215 3.036e-19)
(0.657979 -0.0217898 -1.90011e-19)
(0.759421 -0.0251019 0)
(0.854872 -0.0272771 -3.16558e-19)
(0.941104 -0.0285139 5.85417e-19)
(1.01562 -0.0290403 -1.39785e-19)
(1.07687 -0.0290722 -2.3407e-19)
(1.12427 -0.0287917 2.19756e-19)
(1.15823 -0.0282841 0)
(1.17991 -0.0277353 0)
(1.19122 -0.0267028 0)
(1.19353 -0.0267635 0)
(1.19059 -0.0236247 5.53624e-20)
(1.17947 -0.0297699 1.83786e-19)
(-0.0105745 0.00952575 -2.7424e-19)
(-0.0108244 0.0171311 1.86814e-19)
(0.00966735 0.0190531 -1.39002e-21)
(0.0488759 0.0168905 -2.47168e-19)
(0.105346 0.0122478 -1.52173e-19)
(0.17775 0.00657415 -1.44001e-19)
(0.264427 0.000984762 -2.66741e-19)
(0.363092 -0.00372601 2.5145e-19)
(0.470647 -0.00706386 0)
(0.583187 -0.00882405 1.29758e-21)
(0.696225 -0.00906661 2.07924e-21)
(0.805101 -0.00806566 1.87839e-19)
(0.905473 -0.0062349 0)
(0.993775 -0.00404002 0)
(1.06756 -0.00191367 2.09123e-19)
(1.12567 -0.000188162 -3.92774e-19)
(1.16822 0.000944256 2.25313e-19)
(1.1964 0.00144009 -2.11547e-19)
(1.21221 0.00138899 -8.99135e-20)
(1.21809 0.000959329 -1.57146e-19)
(1.21655 0.000477943 -6.07174e-20)
(1.20997 -0.000198017 -1.11949e-19)
(1.20036 0.000902304 1.71494e-19)
(1.18783 -0.00228544 4.70979e-20)
(-0.00789076 0.00665379 0)
(0.000787199 0.00922935 0)
(0.0336845 0.00799162 8.74623e-20)
(0.0883369 0.00452686 8.09527e-20)
(0.162757 0.000391003 -1.4622e-21)
(0.254725 -0.0030523 -1.47358e-19)
(0.361208 -0.00487851 0)
(0.478118 -0.00461005 -1.25225e-19)
(0.600375 -0.0021934 1.1684e-19)
(0.722267 0.00204534 -3.49753e-22)
(0.838064 0.00749423 -1.99607e-19)
(0.942698 0.0133923 -1.81055e-19)
(1.03234 0.018981 4.96182e-21)
(1.10477 0.0236366 -1.44435e-19)
(1.15943 0.0269582 3.51248e-19)
(1.19727 0.0288004 0)
(1.22039 0.0292527 -2.16964e-19)
(1.23156 0.0285792 1.06348e-19)
(1.23374 0.0271545 8.98384e-20)
(1.22972 0.0253393 0)
(1.22188 0.0236118 7.00879e-20)
(1.21186 0.0218408 -2.34587e-19)
(1.20106 0.0215551 2.20215e-19)
(1.18963 0.0178177 1.3149e-19)
(-0.00386208 0.00373493 -9.60542e-20)
(0.0169213 0.00156524 -9.90817e-20)
(0.0657152 -0.00199466 9.0161e-20)
(0.139208 -0.00553444 0)
(0.234327 -0.00766044 0)
(0.347257 -0.00724212 -2.27207e-21)
(0.472848 -0.0037763 0)
(0.604687 0.00261008 -3.77608e-19)
(0.735638 0.0112573 3.50444e-19)
(0.858724 0.0211373 -4.32844e-19)
(0.968051 0.0310781 9.92687e-20)
(1.05953 0.0399986 0)
(1.13124 0.0470937 1.61045e-19)
(1.18332 0.0519335 -2.9664e-19)
(1.21763 0.0544688 7.0766e-20)
(1.23709 0.0549599 1.75193e-19)
(1.24514 0.0538629 -1.08619e-20)
(1.24507 0.0517102 -1.92667e-19)
(1.23975 0.0490096 0)
(1.23136 0.0461796 0)
(1.22145 0.0435694 -6.53399e-20)
(1.21095 0.0411502 5.76964e-20)
(1.20058 0.0399598 2.00093e-19)
(1.18996 0.0359821 -1.87887e-19)
(0.00197233 0.000779754 -1.00264e-19)
(0.038538 -0.00554366 -1.00264e-19)
(0.106813 -0.0101272 2.82311e-19)
(0.202123 -0.0120394 -1.72115e-19)
(0.319571 -0.0103028 1.62003e-19)
(0.452934 -0.00431236 2.9576e-19)
(0.594357 0.0056685 -2.08507e-19)
(0.735051 0.0185976 -2.52785e-19)
(0.866513 0.0329401 5.58458e-21)
(0.981796 0.047024 3.24542e-19)
(1.07642 0.0593866 0)
(1.14871 0.0690227 8.78095e-20)
(1.1995 0.0754862 0)
(1.23153 0.078848 -1.41095e-19)
(1.24851 0.0795564 1.98268e-19)
(1.25442 0.0782578 2.00321e-21)
(1.25284 0.0756341 -5.07358e-20)
(1.24663 0.0722877 9.37343e-20)
(1.23786 0.0686857 8.02087e-20)
(1.2279 0.0651497 -7.11297e-20)
(1.21757 0.0618879 6.5323e-20)
(1.20733 0.0589079 -5.76808e-20)
(1.19742 0.05675 0)
(1.18774 0.0526 -4.33373e-20)
(0.0100503 -0.00208631 1.00249e-19)
(0.0664105 -0.0115632 1.04696e-19)
(0.157502 -0.0154334 -9.44657e-20)
(0.276671 -0.0136734 1.76026e-19)
(0.41637 -0.00613117 -1.65675e-19)
(0.567288 0.00684345 1.50162e-19)
(0.718773 0.023842 -7.18227e-20)
(0.860412 0.0427247 1.89815e-19)
(0.983797 0.061186 -1.18806e-19)
(1.08374 0.0772713 2.09169e-19)
(1.15863 0.0897119 -4.81296e-19)
(1.20991 0.0980248 1.7589e-19)
(1.24113 0.102406 -1.52851e-19)
(1.25679 0.103504 1.43578e-19)
(1.26141 0.102161 1.22264e-19)
(1.25884 0.0992135 1.06026e-19)
(1.25202 0.0953594 -2.9461e-19)
(1.24297 0.0911169 1.82245e-19)
(1.23295 0.0868324 -8.02104e-20)
(1.2227 0.0827173 2.06815e-19)
(1.21262 0.0788885 -6.68166e-20)
(1.20287 0.0753723 -1.5973e-19)
(1.19357 0.0724348 1.46984e-19)
(1.18457 0.0681839 4.33234e-20)
(0.0207215 -0.00460402 0)
(0.100973 -0.0157085 6.61854e-22)
(0.217595 -0.0167356 1.95635e-19)
(0.36128 -0.00911398 -1.83711e-19)
(0.5211 0.00593343 -1.66126e-19)
(0.68444 0.0266227 3.08759e-19)
(0.838562 0.0501561 -1.43392e-19)
(0.972987 0.0734132 1.90965e-19)
(1.08126 0.0937543 -4.40885e-21)
(1.16145 0.109511 -1.07787e-19)
(1.2154 0.120095 2.34356e-19)
(1.24745 0.12581 -3.4473e-19)
(1.2629 0.127516 0)
(1.26688 0.126276 -6.69149e-20)
(1.26364 0.123101 -1.77677e-19)
(1.25628 0.11881 5.59995e-20)
(1.24686 0.11399 2.51451e-21)
(1.23664 0.109024 -1.19872e-19)
(1.2263 0.104144 8.62786e-21)
(1.2162 0.0994812 1.38089e-19)
(1.20648 0.0950995 -6.05778e-20)
(1.19719 0.0910345 -2.274e-20)
(1.18833 0.0873396 7.10805e-20)
(1.17981 0.0829268 0)
(0.0341953 -0.00639606 0)
(0.142196 -0.0169947 5.29156e-20)
(0.286064 -0.0127523 -2.53475e-19)
(0.453226 0.00280634 9.23819e-20)
(0.629019 0.0264728 -8.69456e-20)
(0.798071 0.0546669 -7.914e-20)
(0.947105 0.0832756 -1.40321e-19)
(1.06756 0.10868 6.99079e-20)
(1.15653 0.128558 6.11022e-20)
(1.21593 0.142068 0)
(1.25078 0.149574 1.38058e-19)
(1.26727 0.152158 -2.04457e-19)
(1.2713 0.151148 1.52325e-19)
(1.26767 0.147782 6.69497e-20)
(1.25982 0.143042 -5.43292e-20)
(1.24998 0.137617 -4.50244e-20)
(1.23943 0.131946 -4.17878e-20)
(1.22886 0.126293 1.25966e-19)
(1.21861 0.120802 0)
(1.2088 0.115553 6.23499e-20)
(1.19948 0.110588 5.17823e-20)
(1.19062 0.105929 -1.29237e-19)
(1.18217 0.101529 -8.72262e-20)
(1.17405 0.0969282 8.08411e-20)
(0.0505002 -0.00700437 -5.61137e-20)
(0.189501 -0.0143497 -1.66395e-21)
(0.361021 -0.00228412 5.13767e-20)
(0.548858 0.0228838 1.43061e-19)
(0.734919 0.0554387 4.15074e-20)
(0.90248 0.0899568 -8.01862e-20)
(1.0398 0.12149 7.35368e-20)
(1.14198 0.146658 -6.46726e-20)
(1.21043 0.164086 1.15363e-19)
(1.25064 0.174078 4.91846e-20)
(1.26977 0.177944 -1.39128e-19)
(1.27471 0.17734 4.10689e-20)
(1.27107 0.173813 6.98019e-20)
(1.26282 0.168574 -3.43907e-20)
(1.25246 0.162463 0)
(1.24144 0.156006 5.09352e-20)
(1.23048 0.149508 8.58151e-20)
(1.21992 0.143138 1.44021e-20)
(1.20989 0.136985 -7.1293e-20)
(1.20042 0.131097 2.97471e-20)
(1.19147 0.125503 0)
(1.18298 0.120202 -2.32006e-20)
(1.17489 0.115125 -2.16406e-20)
(1.1671 0.110239 0)
(0.0694438 -0.00593954 0)
(0.24172 -0.00675807 2.92927e-20)
(0.439805 0.0155852 5.41808e-20)
(0.643981 0.0513742 -1.45055e-19)
(0.833852 0.0921512 4.65986e-20)
(0.993387 0.131047 0)
(1.11437 0.163085 7.03302e-20)
(1.19662 0.185887 -9.80785e-20)
(1.24569 0.199442 -5.74061e-20)
(1.2697 0.205243 2.6067e-20)
(1.27682 0.205347 -4.12683e-20)
(1.27375 0.20172 1.00453e-19)
(1.26527 0.195911 5.03001e-20)
(1.25438 0.188981 -3.50339e-20)
(1.24277 0.18159 -3.35639e-21)
(1.23128 0.174108 -9.55024e-20)
(1.22028 0.166737 4.3456e-20)
(1.2099 0.15958 -1.01754e-21)
(1.20017 0.152692 0)
(1.19105 0.146103 -2.97777e-20)
(1.18247 0.139825 0)
(1.17436 0.133839 6.70032e-20)
(1.16662 0.128116 -7.97003e-20)
(1.15915 0.122846 3.62627e-20)
(0.0905888 -0.00273102 -1.50153e-20)
(0.297129 0.00660791 -7.33335e-20)
(0.519198 0.041338 8.31533e-20)
(0.734343 0.087934 4.90381e-20)
(0.921721 0.135426 -2.35077e-20)
(1.0682 0.176329 3.93818e-20)
(1.17048 0.20657 -1.91838e-20)
(1.23328 0.225356 3.19739e-20)
(1.26547 0.234186 0)
(1.2767 0.235565 7.24484e-20)
(1.27518 0.232026 -2.93836e-21)
(1.26686 0.225603 -5.85377e-20)
(1.25551 0.217699 2.5103e-20)
(1.24324 0.209178 -2.83354e-20)
(1.23109 0.200519 -1.07975e-20)
(1.21953 0.191971 1.2445e-20)
(1.20869 0.183657 -9.63724e-21)
(1.1986 0.175639 -5.2094e-20)
(1.18922 0.16795 3.1943e-20)
(1.18048 0.160605 6.55513e-21)
(1.1723 0.153601 5.76732e-21)
(1.16456 0.146907 5.07468e-21)
(1.15719 0.140563 0)
(1.15003 0.134782 0)
(0.113324 0.00303634 1.50257e-20)
(0.353678 0.0262999 -1.50814e-20)
(0.59588 0.0749469 -2.76528e-20)
(0.81621 0.131673 0)
(0.995648 0.183778 -1.16268e-20)
(1.12582 0.224265 -1.03946e-20)
(1.20898 0.250788 -1.78836e-20)
(1.25414 0.264451 0)
(1.27249 0.268158 0)
(1.27415 0.265158 0)
(1.26673 0.258183 0)
(1.25517 0.249159 0)
(1.24227 0.239275 -1.57669e-20)
(1.22941 0.229185 7.18315e-21)
(1.21718 0.21922 1.25046e-20)
(1.2058 0.209534 5.83774e-21)
(1.19527 0.200199 1.44843e-20)
(1.18557 0.191246 0)
(1.17662 0.182692 -3.48197e-21)
(1.16834 0.174541 -3.29644e-21)
(1.1606 0.166774 -5.77645e-21)
(1.15332 0.159364 -5.08274e-21)
(1.14637 0.152419 0)
(1.13962 0.146019 3.65892e-21)
(-0.00171466 0.000957884 8.64255e-21)
(-0.00790405 -0.00717716 -8.98192e-21)
(-0.019016 -0.0211461 -1.7021e-20)
(-0.0326181 -0.0377414 0)
(-0.0474272 -0.0549088 -2.2732e-20)
(-0.0628036 -0.0716283 7.08807e-21)
(-0.0782672 -0.0876465 -1.35469e-20)
(-0.093441 -0.10318 0)
(-0.108044 -0.118648 0)
(-0.121867 -0.134465 0)
(-0.134754 -0.150934 0)
(-0.146581 -0.168193 0)
(-0.157244 -0.18622 -1.25106e-22)
(-0.166642 -0.204858 -8.80434e-21)
(-0.174669 -0.223825 1.67832e-20)
(-0.181213 -0.242735 2.35411e-20)
(-0.186156 -0.261095 7.45478e-21)
(-0.189376 -0.278312 0)
(-0.190769 -0.293699 6.45508e-21)
(-0.190266 -0.306499 -1.81574e-20)
(-0.187804 -0.315922 -1.13012e-20)
(-0.183238 -0.321155 -1.05495e-20)
(-0.176579 -0.321325 0)
(-0.168852 -0.315767 0)
(-0.00242929 0.00621446 -2.61404e-20)
(-0.00931861 0.00494626 4.5025e-20)
(-0.0209802 -0.00463142 -1.72417e-20)
(-0.0350255 -0.0184713 -3.25376e-20)
(-0.0502048 -0.0340118 4.5829e-20)
(-0.0659025 -0.0499115 -2.90486e-20)
(-0.0816448 -0.0656982 4.08676e-20)
(-0.0970571 -0.0814351 2.62023e-20)
(-0.111868 -0.0974327 0)
(-0.125888 -0.114035 -2.27475e-20)
(-0.138985 -0.131496 -1.2125e-22)
(-0.151066 -0.149933 2.00751e-20)
(-0.162061 -0.169324 2.90242e-20)
(-0.171902 -0.18952 3.61633e-20)
(-0.180526 -0.210259 -1.68064e-20)
(-0.187864 -0.231171 -4.75949e-20)
(-0.193843 -0.251776 1.49494e-20)
(-0.198395 -0.271482 -5.59322e-20)
(-0.201476 -0.289583 0)
(-0.203096 -0.305279 1.20847e-20)
(-0.203243 -0.31771 1.12892e-20)
(-0.2017 -0.325958 1.05382e-20)
(-0.198492 -0.329034 0)
(-0.195791 -0.326232 0)
(-0.00369854 0.0115618 0)
(-0.0116852 0.0174267 9.28811e-20)
(-0.023588 0.0124992 -3.49836e-20)
(-0.0373684 0.0016149 3.29317e-20)
(-0.0519566 -0.0121637 -9.44643e-20)
(-0.0668292 -0.0271503 0)
(-0.0815539 -0.0426154 -5.62722e-20)
(-0.0957747 -0.0584347 2.6751e-20)
(-0.109231 -0.0747879 -5.08705e-20)
(-0.121744 -0.0919339 2.47291e-20)
(-0.133197 -0.110082 1.34849e-19)
(-0.143514 -0.129333 -6.33427e-20)
(-0.152645 -0.149668 -9.87876e-20)
(-0.160556 -0.170957 -3.77609e-20)
(-0.167218 -0.192964 2.18936e-22)
(-0.172607 -0.215348 1.30448e-19)
(-0.176704 -0.237655 -6.10642e-20)
(-0.179496 -0.259311 -5.12334e-22)
(-0.180994 -0.279613 0)
(-0.181275 -0.297726 -4.82408e-20)
(-0.18038 -0.312698 0)
(-0.178002 -0.32347 -3.94555e-20)
(-0.173957 -0.328967 1.46388e-19)
(-0.171582 -0.32855 -1.94939e-21)
(-0.00543195 0.0164662 0)
(-0.0148273 0.0291606 9.48189e-22)
(-0.0266044 0.0288896 3.638e-20)
(-0.0393611 0.0210719 -3.45782e-20)
(-0.0523509 0.00918211 3.14502e-20)
(-0.0651995 -0.00476687 1.83515e-19)
(-0.0775466 -0.0197805 -5.74637e-20)
(-0.0890673 -0.0355318 -5.52896e-20)
(-0.0995097 -0.052052 1.03151e-19)
(-0.108697 -0.0694992 -1.45752e-19)
(-0.116507 -0.0880336 4.65101e-20)
(-0.122865 -0.107733 4.40862e-20)
(-0.127728 -0.128578 0)
(-0.13108 -0.150448 3.77927e-20)
(-0.132927 -0.173125 0)
(-0.133296 -0.196294 6.79802e-20)
(-0.132238 -0.219534 -1.23623e-19)
(-0.129823 -0.242309 3.06375e-20)
(-0.126149 -0.263959 1.06959e-19)
(-0.121378 -0.283675 4.81949e-20)
(-0.115672 -0.300465 0)
(-0.108766 -0.313122 -1.16431e-19)
(-0.0998932 -0.320357 3.75464e-20)
(-0.0922737 -0.321451 0)
(-0.00744807 0.0204442 0)
(-0.0184241 0.0391194 -1.1631e-19)
(-0.029703 0.0432474 -3.74896e-20)
(-0.0407116 0.0384989 -6.98915e-20)
(-0.0511269 0.028603 6.5814e-20)
(-0.0607732 0.0158333 -6.16781e-20)
(-0.0693945 0.00142571 1.18721e-19)
(-0.0767063 -0.0140868 5.60076e-20)
(-0.082451 -0.0305759 -1.57992e-19)
(-0.086441 -0.0481043 1.00605e-19)
(-0.0885457 -0.0667573 -1.41499e-19)
(-0.0886641 -0.0865771 3.14997e-19)
(-0.0867474 -0.107527 -1.68254e-19)
(-0.0827874 -0.129482 8.011e-20)
(-0.0768199 -0.152218 2.22159e-19)
(-0.0689311 -0.175419 -6.94447e-20)
(-0.0592622 -0.198671 -6.65594e-20)
(-0.0480075 -0.221469 -5.94033e-20)
(-0.0354111 -0.24321 0)
(-0.0217792 -0.263184 -9.49496e-20)
(-0.00750456 -0.280509 -8.02806e-20)
(0.00726692 -0.294016 1.20668e-19)
(0.0236534 -0.302052 1.30814e-19)
(0.0421174 -0.302915 -1.22449e-19)
(-0.00950824 0.0231465 0)
(-0.0220581 0.0464914 -1.60722e-19)
(-0.0324912 0.0544832 -1.42068e-21)
(-0.0411224 0.052657 1.42567e-19)
(-0.0480946 0.044791 0)
(-0.0534556 0.033314 0)
(-0.0570694 0.0196552 0)
(-0.0587054 0.00453539 -5.72188e-20)
(-0.0581259 -0.0117677 -7.56503e-22)
(-0.0551079 -0.0291988 1.02663e-19)
(-0.0494787 -0.0477604 -1.44711e-19)
(-0.0411269 -0.0674471 -1.73762e-22)
(-0.0299968 -0.0881812 0)
(-0.0160851 -0.109818 -8.00641e-20)
(0.000533108 -0.132096 7.59463e-20)
(0.0196968 -0.15466 -2.12573e-19)
(0.0411523 -0.177065 2.58389e-19)
(0.0645502 -0.198778 5.48925e-20)
(0.0894536 -0.219203 -8.06617e-21)
(0.115363 -0.237691 -1.99236e-19)
(0.141657 -0.253552 -8.63991e-20)
(0.167747 -0.265926 2.60083e-19)
(0.193721 -0.273216 -1.69015e-19)
(0.226487 -0.271801 0)
(-0.0113664 0.0244109 8.02167e-20)
(-0.0252843 0.0507883 8.07873e-20)
(-0.0345557 0.0618294 -7.82009e-20)
(-0.0402975 0.0625744 -1.466e-19)
(-0.0430954 0.05664 1.3804e-19)
(-0.0432209 0.0464885 -1.3144e-19)
(-0.0406702 0.0336692 1.86301e-19)
(-0.0352779 0.0190495 -5.74407e-20)
(-0.0268178 0.00305148 1.10907e-19)
(-0.0150631 -0.0141437 0)
(0.00018056 -0.03246 1.00999e-19)
(0.0190497 -0.0518179 -1.89128e-19)
(0.0415702 -0.0721022 1.7638e-19)
(0.0676874 -0.0931075 -1.6566e-19)
(0.0972541 -0.114521 0)
(0.129964 -0.135943 1.4274e-19)
(0.165383 -0.156876 2.60478e-19)
(0.202947 -0.176742 -2.43994e-19)
(0.241978 -0.19491 -1.08614e-19)
(0.281735 -0.210727 -9.21915e-20)
(0.321326 -0.223603 2.63896e-19)
(0.360496 -0.232803 6.82548e-20)
(0.395838 -0.238118 -6.98978e-20)
(0.445918 -0.23281 5.35633e-20)
(-0.0128213 0.0242786 -8.02275e-20)
(-0.0277014 0.0518954 2.52323e-19)
(-0.0354977 0.0649231 -7.98119e-20)
(-0.0379241 0.0676498 1.49685e-19)
(-0.0359273 0.0633618 -1.40941e-19)
(-0.0299767 0.0544385 6.83783e-22)
(-0.0201996 0.0424674 6.34318e-20)
(-0.00650621 0.0284158 2.42127e-19)
(0.0112979 0.0128257 1.43107e-21)
(0.0334268 -0.00401009 -1.05875e-19)
(0.0600562 -0.0219148 0)
(0.091272 -0.0407334 -9.60222e-20)
(0.127034 -0.0602809 1.79045e-19)
(0.167141 -0.0802755 1.66695e-19)
(0.211223 -0.100362 -7.85805e-20)
(0.258713 -0.12009 2.02371e-22)
(0.308859 -0.138928 -6.59665e-20)
(0.360751 -0.156285 1.19771e-19)
(0.413357 -0.171553 1.08565e-19)
(0.465674 -0.184097 -9.69417e-20)
(0.51624 -0.193545 8.42863e-20)
(0.566198 -0.198627 -7.31291e-20)
(0.606179 -0.201885 0)
(0.669244 -0.192501 -5.34657e-20)
(-0.0137557 0.0229652 8.31731e-20)
(-0.0290029 0.05006 -8.46968e-20)
(-0.0349381 0.0638341 8.14202e-20)
(-0.0336132 0.0677258 0)
(-0.0262118 0.0645968 0)
(-0.0133553 0.056654 1.38077e-19)
(0.00471429 0.0454506 -1.28065e-19)
(0.0280042 0.0320031 1.22874e-19)
(0.0566484 0.016945 -5.74149e-19)
(0.0907996 0.00067238 -2.46298e-22)
(0.13054 -0.0165367 1.02401e-19)
(0.175807 -0.0344341 0)
(0.226335 -0.0527439 -1.79607e-19)
(0.281615 -0.0711268 3.35825e-19)
(0.340875 -0.0891742 -2.34899e-19)
(0.403087 -0.106411 -3.55919e-19)
(0.467003 -0.122316 7.95183e-21)
(0.531232 -0.13635 2.41245e-19)
(0.594296 -0.148008 0)
(0.654953 -0.156728 0)
(0.711129 -0.162592 -8.42689e-20)
(0.765268 -0.163636 7.31148e-20)
(0.80447 -0.164858 -2.36394e-19)
(0.867806 -0.152414 2.21793e-19)
(-0.0141415 0.0208007 0)
(-0.0289807 0.0458061 0)
(-0.0324868 0.0590241 -2.45817e-19)
(-0.0268021 0.063115 7.79061e-20)
(-0.0132194 0.0605054 -2.29837e-22)
(0.0075489 0.0531854 1.3904e-19)
(0.0351677 0.0426252 0)
(0.0695498 0.0298516 -1.22977e-19)
(0.110718 0.0155612 1.15251e-19)
(0.158665 0.000240718 -2.18721e-19)
(0.213233 -0.0157325 9.73074e-23)
(0.274014 -0.032018 1.92199e-19)
(0.340281 -0.048266 -1.24754e-21)
(0.410954 -0.0640951 1.64303e-19)
(0.484613 -0.0790914 -2.35403e-19)
(0.559565 -0.0928221 0)
(0.633945 -0.104859 2.54714e-19)
(0.705853 -0.114806 -3.5733e-19)
(0.773477 -0.12235 1.03542e-19)
(0.835414 -0.127127 0)
(0.889794 -0.1295 8.0569e-20)
(0.938716 -0.12759 2.72656e-19)
(0.97177 -0.12695 -2.55905e-19)
(1.02127 -0.113385 -2.51042e-19)
(-0.0140174 0.0181401 2.58834e-19)
(-0.0274724 0.0397997 -3.55888e-19)
(-0.0276593 0.0512546 4.29889e-22)
(-0.016639 0.0545803 7.92992e-20)
(0.00429041 0.0518343 -1.48644e-19)
(0.034376 0.044796 -1.38413e-19)
(0.0731985 0.0348375 2.6227e-19)
(0.120528 0.0229672 -2.24863e-22)
(0.176154 0.00992064 -2.32253e-19)
(0.239717 -0.00374507 4.36998e-19)
(0.310552 -0.0175814 -2.42598e-22)
(0.387588 -0.0311964 -1.92416e-19)
(0.469302 -0.0442259 0)
(0.553749 -0.0563247 0)
(0.638668 -0.0671716 -7.69868e-20)
(0.721637 -0.0764836 -1.38284e-19)
(0.800272 -0.0840288 -2.49077e-19)
(0.872416 -0.0896498 2.33816e-19)
(0.936346 -0.0932425 -1.03589e-19)
(0.990851 -0.0947988 1.75315e-19)
(1.03525 -0.09451 -9.17639e-20)
(1.07052 -0.0916039 1.22717e-19)
(1.09259 -0.0898352 -3.09511e-19)
(1.12001 -0.0779564 5.17424e-20)
(-0.0134207 0.0152767 8.75131e-20)
(-0.0242497 0.0327038 0)
(-0.0197516 0.0414483 1.69579e-19)
(-0.00185589 0.0432445 -1.59744e-19)
(0.0281829 0.0398903 1.48777e-19)
(0.0695811 0.0329974 0)
(0.121775 0.0238404 0)
(0.184242 0.0133928 -1.24197e-19)
(0.256289 0.00240066 3.33443e-22)
(0.336853 -0.00856285 1.0944e-19)
(0.424359 -0.0190531 -1.01326e-19)
(0.516676 -0.0287259 1.91441e-19)
(0.611181 -0.0373229 0)
(0.704931 -0.0446655 3.2341e-19)
(0.794894 -0.0506502 -5.99465e-19)
(0.878226 -0.0552435 4.161e-19)
(0.952519 -0.0584679 2.42122e-19)
(1.016 -0.0604067 -2.27301e-19)
(1.06768 -0.0611183 0)
(1.10725 -0.0608666 0)
(1.1355 -0.0594317 0)
(1.15315 -0.0575836 0)
(1.16197 -0.0551334 5.92374e-20)
(1.16843 -0.0483132 -1.95648e-19)
(-0.160198 -0.30315 -6.82903e-21)
(-0.143007 -0.277709 6.85265e-21)
(-0.121216 -0.238278 -2.00997e-22)
(-0.094415 -0.184484 0)
(-0.0624516 -0.116633 -6.6063e-21)
(-0.0254899 -0.0358201 1.27992e-20)
(0.0149884 0.0557321 -1.47487e-22)
(0.0583089 0.153685 -5.88292e-21)
(0.103756 0.2547 0)
(0.148908 0.350174 0)
(0.192221 0.433447 -2.41566e-22)
(0.231027 0.499895 -2.0758e-22)
(0.261617 0.547853 -2.96338e-21)
(0.280234 0.579835 2.70827e-21)
(0.285498 0.600145 0)
(0.281988 0.608633 0)
(0.281646 0.59542 2.02819e-21)
(0.299098 0.543708 1.9353e-22)
(0.342058 0.441418 -1.95734e-21)
(0.406296 0.290478 -1.58709e-22)
(0.481453 0.105382 0)
(0.558432 -0.0908098 0)
(0.629501 -0.26822 0)
(0.687595 -0.39993 0)
(0.728125 -0.476535 0)
(0.749795 -0.507206 0)
(0.75665 -0.506676 2.90645e-22)
(0.75404 -0.491087 -4.75399e-22)
(0.737905 -0.481855 0)
(0.700768 -0.491091 0)
(0.650165 -0.493675 -4.09162e-22)
(0.612014 -0.438198 3.97676e-22)
(0.60912 -0.293078 2.35541e-22)
(0.640409 -0.0875005 0)
(0.690528 0.119443 0)
(0.740406 0.277172 3.73502e-22)
(0.782063 0.369106 -3.63055e-22)
(0.812425 0.40651 0)
(0.82375 0.423495 2.13258e-22)
(0.803781 0.449723 -3.09356e-22)
(0.759769 0.458967 1.06623e-22)
(0.715756 0.412164 0)
(0.704677 0.264783 -2.80367e-22)
(0.719302 0.0751648 2.72622e-22)
(0.760559 -0.120334 0)
(0.800853 -0.244692 0)
(0.832482 -0.318778 -7.24033e-23)
(0.825369 -0.365413 1.98022e-22)
(0.787222 -0.376654 0)
(0.742644 -0.368161 0)
(0.734903 -0.221501 -5.35978e-23)
(0.754769 -0.0958617 5.52122e-24)
(0.801953 0.0966588 -4.58111e-24)
(0.812157 0.211375 3.35423e-23)
(0.803538 0.298019 0)
(0.775667 0.392678 0)
(0.78166 0.246009 0)
(0.781601 0.230934 0)
(0.801272 -0.0330367 0)
(0.780218 -0.203606 0)
(-0.19693 -0.317005 -5.96877e-22)
(-0.190795 -0.29733 -2.49469e-20)
(-0.179665 -0.263607 2.4975e-22)
(-0.163469 -0.215764 2.32102e-20)
(-0.141132 -0.153373 3.25501e-22)
(-0.112482 -0.0773626 0)
(-0.077997 0.00978826 -2.02943e-20)
(-0.0371483 0.10567 3.91817e-20)
(0.00689769 0.204721 -1.88851e-20)
(0.0509858 0.303195 1.56112e-20)
(0.0958219 0.390595 -1.49316e-20)
(0.138463 0.464504 1.16574e-20)
(0.175101 0.522704 -1.12981e-20)
(0.203261 0.565685 -2.76507e-22)
(0.223878 0.593789 -8.39106e-21)
(0.243379 0.602658 8.15464e-21)
(0.272653 0.581195 -8.67603e-21)
(0.321261 0.516405 8.14691e-21)
(0.389998 0.402746 -1.05439e-20)
(0.470863 0.245972 2.12714e-20)
(0.554458 0.0596111 -1.06973e-20)
(0.633911 -0.134827 -6.79485e-22)
(0.701869 -0.306828 -8.58752e-21)
(0.751544 -0.429363 1.51805e-20)
(0.780603 -0.494513 -6.64282e-21)
(0.790356 -0.51454 2.81835e-22)
(0.785624 -0.50667 3.29507e-21)
(0.773504 -0.48508 -2.93241e-22)
(0.7523 -0.467532 -5.15713e-21)
(0.712851 -0.468382 5.0132e-21)
(0.657219 -0.470371 -2.49382e-21)
(0.608741 -0.426078 3.49241e-22)
(0.593624 -0.297958 -2.36012e-22)
(0.616238 -0.106092 4.32404e-22)
(0.662647 0.0954337 0)
(0.7144 0.254837 0)
(0.762234 0.351982 -1.10209e-21)
(0.799963 0.397004 8.34341e-22)
(0.81647 0.424287 6.45465e-22)
(0.799588 0.46046 1.34563e-22)
(0.760568 0.473649 -9.49984e-22)
(0.723188 0.422319 2.69953e-22)
(0.719538 0.265873 0)
(0.736904 0.0677948 0)
(0.777559 -0.132059 0)
(0.813344 -0.255388 0)
(0.842225 -0.322193 3.37393e-22)
(0.833848 -0.359456 -1.27721e-22)
(0.794249 -0.365685 0)
(0.748824 -0.361084 0)
(0.73712 -0.223178 0)
(0.756264 -0.104225 -7.75886e-23)
(0.799468 0.0898061 1.68952e-23)
(0.808696 0.210821 -7.63405e-23)
(0.799213 0.30173 0)
(0.770995 0.395296 0)
(0.779979 0.244749 4.92973e-23)
(0.78125 0.228915 1.54058e-22)
(0.806187 -0.032553 0)
(0.784569 -0.201969 0)
(-0.17896 -0.322267 -1.22608e-21)
(-0.185324 -0.308755 -4.55412e-20)
(-0.185853 -0.281285 4.23231e-20)
(-0.182403 -0.240358 -3.96514e-20)
(-0.172801 -0.185029 -3.27766e-22)
(-0.156314 -0.115721 0)
(-0.132174 -0.034148 -3.35597e-20)
(-0.100199 0.0569791 3.27656e-20)
(-0.060542 0.152825 2.56489e-22)
(-0.0194598 0.252002 3.60941e-22)
(0.0225839 0.342591 3.24883e-22)
(0.0675941 0.42268 3.60396e-22)
(0.11072 0.488874 -1.78759e-20)
(0.150852 0.539362 1.76504e-20)
(0.190029 0.571246 0)
(0.234255 0.57789 4.75645e-22)
(0.291301 0.548996 -1.79878e-20)
(0.365431 0.475827 1.77629e-20)
(0.452871 0.357603 0)
(0.544546 0.201308 0)
(0.632759 0.0185324 -2.40312e-20)
(0.712393 -0.170737 4.54002e-20)
(0.775938 -0.335407 -3.8872e-20)
(0.816294 -0.448659 3.77322e-21)
(0.833289 -0.503937 2.43897e-20)
(0.831329 -0.515423 -1.90316e-20)
(0.815936 -0.502213 1.3871e-20)
(0.794797 -0.47689 -1.29401e-21)
(0.768772 -0.452766 -5.06725e-21)
(0.728283 -0.445248 0)
(0.669731 -0.445417 0)
(0.612394 -0.411745 2.16833e-21)
(0.584747 -0.301725 -2.73286e-21)
(0.597407 -0.125331 -6.82341e-23)
(0.638972 0.0692762 2.88717e-21)
(0.691838 0.229288 -2.80589e-21)
(0.745141 0.331508 0)
(0.789467 0.384913 2.37897e-22)
(0.810852 0.423209 1.92768e-21)
(0.797496 0.469538 -3.88927e-21)
(0.76416 0.486772 1.75112e-21)
(0.733621 0.431647 3.06621e-22)
(0.737178 0.267423 -3.36793e-21)
(0.757365 0.0624167 2.61657e-21)
(0.797168 -0.141288 6.11704e-22)
(0.82804 -0.264239 4.72201e-22)
(0.853667 -0.324666 -3.38236e-22)
(0.843946 -0.353183 0)
(0.803102 -0.354512 0)
(0.757045 -0.354054 -6.92297e-22)
(0.741455 -0.224995 3.40211e-22)
(0.759627 -0.11265 -2.84156e-22)
(0.79863 0.0828922 4.13088e-22)
(0.806833 0.210284 5.03341e-22)
(0.796253 0.305262 -1.36901e-22)
(0.767297 0.397848 2.33742e-22)
(0.779277 0.243182 -2.19759e-22)
(0.782013 0.226327 1.26084e-22)
(0.812312 -0.0322825 0)
(0.789948 -0.200282 0)
(-0.102535 -0.316816 -8.53179e-20)
(-0.121267 -0.309034 5.96868e-21)
(-0.133069 -0.288031 7.49673e-20)
(-0.142432 -0.254378 -5.7678e-22)
(-0.146516 -0.207009 0)
(-0.144167 -0.145685 0)
(-0.134141 -0.0717232 -5.07674e-20)
(-0.114761 0.0125049 2.45121e-21)
(-0.0844639 0.104389 6.62395e-20)
(-0.0500521 0.199622 -1.65331e-21)
(-0.0125388 0.29015 -1.90253e-20)
(0.032483 0.373474 -1.53984e-20)
(0.0811727 0.444414 1.5383e-20)
(0.132885 0.499002 0)
(0.189434 0.532117 -1.46382e-20)
(0.255005 0.536238 1.32998e-20)
(0.33378 0.502736 0)
(0.425788 0.426623 0)
(0.524687 0.310108 2.29771e-20)
(0.621899 0.159433 2.0675e-21)
(0.712077 -0.0166662 -2.29377e-20)
(0.790934 -0.198853 -2.28504e-20)
(0.84968 -0.355409 2.27741e-20)
(0.880627 -0.459586 -1.52413e-20)
(0.88553 -0.506335 3.58545e-21)
(0.872157 -0.511004 1.07998e-20)
(0.847124 -0.49386 8.7161e-22)
(0.817635 -0.466729 1.18273e-23)
(0.786692 -0.438256 0)
(0.745977 -0.422689 3.96628e-21)
(0.686976 -0.419021 -4.07611e-21)
(0.623051 -0.394135 2.95105e-22)
(0.58311 -0.303018 0)
(0.584551 -0.144075 -3.68845e-22)
(0.619964 0.0416068 4.95482e-21)
(0.672978 0.200936 -8.55305e-21)
(0.730801 0.307972 2.54577e-23)
(0.780816 0.37026 1.87653e-22)
(0.806795 0.419928 2.88625e-21)
(0.797353 0.476447 4.24889e-22)
(0.77015 0.498008 -4.3929e-21)
(0.746443 0.440168 3.68823e-21)
(0.756949 0.26977 -3.86248e-23)
(0.780091 0.0589697 2.74916e-21)
(0.818989 -0.147978 -3.2862e-21)
(0.844769 -0.271263 -3.17865e-21)
(0.866657 -0.326357 9.41025e-22)
(0.855449 -0.346772 9.17204e-22)
(0.813481 -0.343183 -1.62092e-21)
(0.766934 -0.346912 1.05252e-21)
(0.747556 -0.226787 -2.89121e-22)
(0.764614 -0.121058 3.17137e-22)
(0.79934 0.0758937 2.31499e-22)
(0.806533 0.209748 -6.98366e-22)
(0.794688 0.308653 -8.43844e-24)
(0.764684 0.400394 -2.44794e-22)
(0.779636 0.241331 0)
(0.78393 0.223162 -1.10336e-22)
(0.819637 -0.0322156 3.33539e-22)
(0.796347 -0.198527 0)
(0.0306305 -0.300303 7.89487e-20)
(0.000608564 -0.296884 -1.46355e-19)
(-0.0220452 -0.282404 6.69347e-20)
(-0.0432834 -0.255994 5.29707e-20)
(-0.060394 -0.216825 -9.82248e-20)
(-0.0720649 -0.1638 4.51225e-21)
(-0.0769474 -0.0984552 4.00853e-20)
(-0.0721467 -0.0219884 3.24837e-20)
(-0.0540734 0.0621734 -3.18615e-20)
(-0.0299109 0.148566 0)
(6.68858e-05 0.235397 -2.41824e-20)
(0.0428236 0.318318 4.62166e-20)
(0.0938787 0.390477 -2.22188e-20)
(0.153321 0.446366 0)
(0.222086 0.47951 0)
(0.302156 0.482264 4.48292e-22)
(0.394588 0.447684 -3.54661e-20)
(0.49645 0.373555 3.44482e-20)
(0.600197 0.263541 0)
(0.698808 0.12206 5.08007e-20)
(0.789538 -0.0452167 -9.68926e-20)
(0.867482 -0.219053 9.24584e-20)
(0.921213 -0.366558 -8.27939e-20)
(0.942734 -0.461611 6.94156e-21)
(0.93591 -0.501251 5.23157e-20)
(0.911736 -0.501305 -2.24406e-20)
(0.878327 -0.481863 -4.38721e-22)
(0.841706 -0.454518 -4.45618e-21)
(0.805932 -0.424137 7.47273e-22)
(0.765265 -0.401899 3.79544e-21)
(0.707924 -0.392787 2.24892e-22)
(0.640294 -0.373924 -3.75862e-21)
(0.589127 -0.301015 7.86163e-21)
(0.578377 -0.161391 -4.5728e-21)
(0.606175 0.0131185 0)
(0.658051 0.170183 -4.18058e-21)
(0.719145 0.281547 3.99762e-21)
(0.773799 0.352891 -2.77852e-21)
(0.804094 0.413999 3.45076e-21)
(0.798896 0.480719 -4.1568e-22)
(0.778083 0.507167 0)
(0.761059 0.448002 -6.31808e-22)
(0.778096 0.273029 2.22852e-21)
(0.804434 0.0574109 0)
(0.842659 -0.152049 6.16385e-21)
(0.863297 -0.276291 -2.61915e-21)
(0.880991 -0.327184 7.24764e-22)
(0.868178 -0.340245 5.06996e-22)
(0.825154 -0.331735 0)
(0.778131 -0.33961 0)
(0.755042 -0.228475 -7.34568e-22)
(0.770936 -0.129414 1.07154e-21)
(0.801452 0.0687745 -5.83656e-22)
(0.807725 0.20917 1.78389e-22)
(0.794547 0.311927 4.06348e-22)
(0.763271 0.402979 2.45031e-22)
(0.781133 0.239221 -5.10617e-22)
(0.787031 0.219404 0)
(0.828143 -0.0323459 -4.8334e-22)
(0.803748 -0.196684 -1.44601e-22)
(0.21232 -0.272394 7.46834e-20)
(0.174984 -0.271162 -7.40262e-20)
(0.141774 -0.262152 4.76908e-22)
(0.109829 -0.242721 -3.49299e-22)
(0.0809519 -0.211722 3.45206e-22)
(0.0565143 -0.169048 -2.95064e-22)
(0.037368 -0.114878 3.42608e-22)
(0.0260888 -0.0496302 0)
(0.0275359 0.0243037 -2.11357e-22)
(0.0405985 0.10155 1.84216e-22)
(0.0631781 0.183096 1.67447e-22)
(0.0996415 0.261791 -2.93951e-22)
(0.148516 0.331762 0)
(0.20985 0.386568 0)
(0.283715 0.419086 2.78623e-22)
(0.37022 0.421863 0)
(0.468132 0.38918 -4.52558e-22)
(0.572678 0.320517 0)
(0.676119 0.219832 -4.43955e-20)
(0.773562 0.0892755 9.17281e-20)
(0.864131 -0.0678152 -9.4591e-20)
(0.940838 -0.231948 4.72352e-20)
(0.989071 -0.369395 3.78518e-20)
(1.00114 -0.455499 -3.67548e-20)
(0.983379 -0.489518 -2.33778e-20)
(0.949405 -0.487121 2.25165e-20)
(0.908892 -0.466948 0)
(0.866553 -0.440452 3.16126e-22)
(0.826193 -0.410232 0)
(0.78536 -0.383339 0)
(0.731229 -0.367933 5.28981e-21)
(0.663111 -0.351866 -5.44417e-21)
(0.602862 -0.295184 3.33181e-22)
(0.579501 -0.176163 4.88772e-22)
(0.598111 -0.0151644 -3.81229e-22)
(0.647191 0.137554 -3.03934e-21)
(0.710027 0.252413 2.95125e-21)
(0.768163 0.332647 -3.23206e-21)
(0.802499 0.405005 2.78267e-21)
(0.80177 0.481935 8.2279e-22)
(0.787431 0.514113 -4.66651e-21)
(0.776824 0.455243 -1.87173e-21)
(0.799904 0.277163 4.06165e-21)
(0.829779 0.0581085 0)
(0.867705 -0.153435 -2.80334e-21)
(0.883346 -0.279209 2.63824e-21)
(0.896426 -0.327115 -3.57877e-21)
(0.881915 -0.33366 -5.10202e-22)
(0.837895 -0.320182 0)
(0.790301 -0.332039 2.28982e-22)