/*--------------------------------*- C++ -*----------------------------------*\
| =========                 |                                                 |
| \\      /  F ield         | OpenFOAM: The Open Source CFD Toolbox           |
|  \\    /   O peration     | Version:  2512                                  |
|   \\  /    A nd           | Website:  www.openfoam.com                      |
|    \\/     M anipulation  |                                                 |
\*---------------------------------------------------------------------------*/
FoamFile
{
    version     2.0;
    format      ascii;
    arch        "LSB;label=32;scalar=64";
    class       volVectorField;
    location    "33";
    object      U;
}
// * * * * * * * * * * * * * * * * * * * * * * * * * * * * * * * * * * * * * //

dimensions      [0 1 -1 0 0 0 0];

internalField   nonuniform List<vector> 
13248
(
(-0.0125476 0.011492 5.8601e-20)
(-0.0245825 0.0246792 0)
(-0.0244382 0.0318517 -1.10734e-19)
(-0.0128311 0.0350438 1.04314e-19)
(0.00974466 0.0358516 9.76475e-20)
(0.0429315 0.0355166 0)
(0.0864285 0.0349834 0)
(0.139891 0.0349639 2.34617e-19)
(0.20281 0.035979 -1.3184e-21)
(0.274387 0.038379 -2.04673e-19)
(0.353455 0.0423501 1.89537e-19)
(0.438443 0.0479173 -1.18438e-19)
(0.527405 0.0549511 0)
(0.618116 0.0631826 -2.03722e-19)
(0.7082 0.0722284 3.80822e-19)
(0.795291 0.0816247 -8.99275e-20)
(0.877189 0.0908728 -1.63653e-19)
(0.952001 0.0994597 1.53625e-19)
(1.01827 0.106993 0)
(1.07495 0.112874 0)
(1.12192 0.117495 0)
(1.15814 0.118717 0)
(1.18725 0.121246 5.06164e-20)
(1.20378 0.1137 1.90901e-19)
(-0.0125735 0.0102671 -1.77097e-19)
(-0.0212598 0.0206753 1.20787e-19)
(-0.0145336 0.0256905 -1.09721e-21)
(0.00646642 0.027488 -1.5959e-19)
(0.0409951 0.0277767 -9.75429e-20)
(0.0884544 0.0278847 -9.22461e-20)
(0.148181 0.028787 -1.69107e-19)
(0.219268 0.0311675 1.59976e-19)
(0.300398 0.0354513 0)
(0.389734 0.041815 7.70588e-22)
(0.484911 0.0501936 1.70758e-21)
(0.583125 0.0602979 1.18702e-19)
(0.681315 0.0716498 0)
(0.776404 0.0836358 0)
(0.865536 0.0955745 1.40492e-19)
(0.946301 0.106788 -2.63843e-19)
(1.0169 0.116668 1.6035e-19)
(1.07624 0.124732 -1.50535e-19)
(1.12395 0.130661 -6.78335e-20)
(1.16045 0.134275 -1.25757e-19)
(1.18645 0.13571 -5.49546e-20)
(1.20386 0.134633 -1.04051e-19)
(1.21342 0.133066 1.4908e-19)
(1.21775 0.126475 4.43522e-20)
(-0.0117249 0.00864896 0)
(-0.0148474 0.0159017 0)
(0.00112317 0.0189316 5.64544e-20)
(0.0344895 0.0199294 5.19388e-20)
(0.0840796 0.0206459 -1.35585e-21)
(0.14878 0.0224385 -9.53826e-20)
(0.227162 0.0262276 0)
(0.317245 0.0325369 -7.9496e-20)
(0.416362 0.0415192 7.47565e-20)
(0.521178 0.0529735 6.62911e-22)
(0.627873 0.0663842 -1.27655e-19)
(0.732458 0.080993 -1.17356e-19)
(0.831149 0.0959002 1.70849e-21)
(0.920713 0.11018 -9.84952e-20)
(0.998738 0.122992 2.3503e-19)
(1.0638 0.133672 0)
(1.11547 0.14179 -1.56507e-19)
(1.15427 0.147165 7.5338e-20)
(1.18151 0.149877 6.77689e-20)
(1.19896 0.150124 0)
(1.20877 0.14847 5.72446e-20)
(1.21297 0.144866 -2.03002e-19)
(1.21316 0.141281 1.90564e-19)
(1.21268 0.134274 1.26284e-19)
(-0.00965158 0.0066422 -6.293e-20)
(-0.00443893 0.0105252 -6.51069e-20)
(0.0238426 0.0120288 5.87136e-20)
(0.0727482 0.0131743 0)
(0.140379 0.0156283 0)
(0.224655 0.020649 -2.13327e-21)
(0.322805 0.0289212 0)
(0.431176 0.0405753 -2.43346e-19)
(0.545288 0.0552347 2.26104e-19)
(0.660144 0.0720925 -2.79175e-19)
(0.770721 0.0900406 6.396e-20)
(0.872523 0.107842 0)
(0.962042 0.124312 1.07754e-19)
(1.03706 0.138474 -2.00158e-19)
(1.09673 0.14967 4.74273e-20)
(1.14151 0.157599 1.24689e-19)
(1.1729 0.1623 -3.96304e-21)
(1.19306 0.164087 -1.40652e-19)
(1.20451 0.163449 0)
(1.20971 0.160935 0)
(1.21081 0.157172 -5.26027e-20)
(1.20947 0.152332 4.79608e-20)
(1.20696 0.147892 1.7684e-19)
(1.20424 0.140946 -1.65985e-19)
(-0.00597366 0.00432154 -6.66125e-20)
(0.0108742 0.00489521 -6.61997e-20)
(0.0547963 0.0056892 1.86131e-19)
(0.122329 0.00830761 -1.12621e-19)
(0.210385 0.0141262 1.0601e-19)
(0.315295 0.0240711 1.92169e-19)
(0.43229 0.038298 -1.35887e-19)
(0.555566 0.0562284 -1.65507e-19)
(0.678749 0.0766955 3.09338e-21)
(0.795627 0.0981613 2.11661e-19)
(0.900915 0.118988 0)
(0.990865 0.137705 5.89709e-20)
(1.06355 0.153219 0)
(1.11885 0.164923 -9.74201e-20)
(1.15815 0.172697 1.36976e-19)
(1.18387 0.176833 1.04804e-21)
(1.19894 0.177896 -3.68365e-20)
(1.2063 0.176574 6.93159e-20)
(1.20856 0.173547 6.08395e-20)
(1.20776 0.169394 -5.52929e-20)
(1.2053 0.164591 5.25905e-20)
(1.20211 0.159297 -4.79494e-20)
(1.19856 0.154396 0)
(1.19551 0.147662 -3.77885e-20)
(-0.000310327 0.00184959 6.6603e-20)
(0.0319056 -0.000418001 7.00489e-20)
(0.0948369 0.0009063 -6.23941e-20)
(0.183617 0.00668152 1.16135e-19)
(0.293349 0.0176746 -1.09312e-19)
(0.418072 0.0341196 9.8698e-20)
(0.550508 0.0552598 -4.74601e-20)
(0.682669 0.0795018 1.24295e-19)
(0.806897 0.104773 -7.83501e-20)
(0.916934 0.128939 1.39588e-19)
(1.00869 0.150185 -3.23017e-19)
(1.08054 0.167286 1.19238e-19)
(1.13307 0.179703 -1.05269e-19)
(1.16859 0.187528 9.88751e-20)
(1.19037 0.191314 8.66773e-20)
(1.20193 0.191867 7.70849e-20)
(1.20654 0.190045 -2.15125e-19)
(1.20683 0.186613 1.33849e-19)
(1.2047 0.182172 -6.08418e-20)
(1.20138 0.177141 1.61705e-19)
(1.1976 0.171798 -5.20248e-20)
(1.19371 0.166245 -1.31074e-19)
(1.18991 0.160965 1.21652e-19)
(1.1865 0.154418 3.77753e-20)
(0.00768574 -0.000517388 0)
(0.0592579 -0.00462826 6.53852e-22)
(0.144296 -0.00109028 1.31002e-19)
(0.256028 0.00978191 -1.22806e-19)
(0.387048 0.0276963 -1.10493e-19)
(0.528532 0.0517333 2.05357e-19)
(0.670648 0.0798548 -9.53663e-20)
(0.80393 0.109326 1.27336e-19)
(0.920786 0.137362 -2.52845e-21)
(1.01652 0.161684 -7.24766e-20)
(1.08963 0.180868 1.59146e-19)
(1.14136 0.19442 -2.35717e-19)
(1.17486 0.202642 0)
(1.19418 0.206354 -4.69898e-20)
(1.20341 0.206598 -1.26516e-19)
(1.20607 0.204398 3.97429e-20)
(1.20487 0.200603 1.25181e-21)
(1.20164 0.195843 -9.04435e-20)
(1.19753 0.190535 4.34853e-21)
(1.19315 0.184935 1.05223e-19)
(1.18883 0.179193 -4.78858e-20)
(1.18469 0.17339 -1.91e-20)
(1.18075 0.167734 5.71292e-20)
(1.17715 0.161303 0)
(0.0182837 -0.0024326 0)
(0.0931943 -0.00677409 3.55867e-20)
(0.202792 0.00105223 -1.71637e-19)
(0.337837 0.0190194 6.22723e-20)
(0.487807 0.0452158 -5.86094e-20)
(0.640887 0.0771081 -5.36734e-20)
(0.785398 0.111202 -9.48237e-20)
(0.91186 0.143841 4.72848e-20)
(1.01448 0.172064 4.10879e-20)
(1.09154 0.194093 0)
(1.14475 0.209405 9.50232e-20)
(1.17803 0.218486 -1.42347e-19)
(1.19622 0.222427 1.05961e-19)
(1.20401 0.222529 4.70133e-20)
(1.20528 0.220005 -3.91933e-20)
(1.20288 0.215821 -3.32878e-20)
(1.19868 0.210662 -3.13558e-20)
(1.19379 0.204969 9.26925e-20)
(1.1888 0.199003 0)
(1.184 0.192914 4.8039e-20)
(1.17948 0.186786 4.15518e-20)
(1.17524 0.180677 -1.0187e-19)
(1.17125 0.174625 -7.18244e-20)
(1.16752 0.168254 6.62543e-20)
(0.0316228 -0.0034758 -3.88673e-20)
(0.133517 -0.00579842 -1.64689e-21)
(0.269106 0.00864706 3.50034e-20)
(0.426183 0.0354927 9.79497e-20)
(0.590872 0.0706284 2.85287e-20)
(0.74896 0.109627 -5.51774e-20)
(0.888402 0.147733 5.02737e-20)
(1.00155 0.180963 -4.40953e-20)
(1.0859 0.206907 7.95036e-20)
(1.14331 0.224848 3.40226e-20)
(1.17838 0.235399 -9.67394e-20)
(1.19681 0.239936 2.85839e-20)
(1.20399 0.240064 4.92266e-20)
(1.2043 0.237244 -2.41554e-20)
(1.2009 0.23261 0)
(1.19578 0.226944 3.66532e-20)
(1.1901 0.220736 6.27347e-20)
(1.18444 0.21427 1.12596e-20)
(1.17908 0.207702 -5.27693e-20)
(1.1741 0.201118 2.237e-20)
(1.1695 0.194566 0)
(1.16523 0.188074 -1.80027e-20)
(1.16121 0.181615 -1.74046e-20)
(1.15738 0.175204 0)
(0.0476578 -0.00318217 0)
(0.179475 -0.000654568 2.04181e-20)
(0.341162 0.0227899 3.77266e-20)
(0.517305 0.0597947 -1.00245e-19)
(0.691077 0.103619 3.25005e-20)
(0.847244 0.148032 0)
(0.97533 0.187628 4.88982e-20)
(1.07115 0.21892 -6.83527e-20)
(1.13617 0.240693 -3.98171e-20)
(1.17551 0.253565 1.79772e-20)
(1.19577 0.259199 -2.91635e-20)
(1.20326 0.259576 7.05999e-20)
(1.2031 0.25649 3.55977e-20)
(1.19888 0.251322 -2.46045e-20)
(1.19288 0.245009 -2.15864e-21)
(1.18636 0.238124 -6.8552e-20)
(1.17998 0.23099 3.13111e-20)
(1.17399 0.223781 -8.54342e-22)
(1.16848 0.216587 0)
(1.16346 0.209457 -2.23935e-20)
(1.15886 0.202422 0)
(1.15461 0.195479 5.19727e-20)
(1.1506 0.18861 -6.23335e-20)
(1.14674 0.182052 2.85973e-20)
(0.0661138 -0.00108011 -1.07721e-20)
(0.229728 0.00958191 -5.15791e-20)
(0.416137 0.044209 5.88004e-20)
(0.606961 0.0919156 3.44603e-20)
(0.78358 0.143247 -1.6405e-20)
(0.931674 0.190727 2.77084e-20)
(1.04416 0.229212 -1.34098e-20)
(1.12121 0.256494 2.23944e-20)
(1.16809 0.272929 0)
(1.19232 0.280422 5.10419e-20)
(1.20136 0.281408 -2.05673e-21)
(1.20133 0.278141 -4.1303e-20)
(1.19655 0.272359 1.77391e-20)
(1.18972 0.265236 -2.0114e-20)
(1.18235 0.257478 -7.72407e-21)
(1.17517 0.249477 8.87981e-21)
(1.16849 0.241435 -6.88865e-21)
(1.1624 0.233453 -3.78533e-20)
(1.15689 0.225583 2.32038e-20)
(1.15192 0.217857 4.79035e-21)
(1.14739 0.210284 4.25825e-21)
(1.14322 0.202842 3.7914e-21)
(1.13927 0.195573 0)
(1.13541 0.188744 0)
(0.0865307 0.00327583 1.07795e-20)
(0.282519 0.0256231 -1.07459e-20)
(0.490863 0.0731624 -1.96166e-20)
(0.69108 0.131244 0)
(0.864565 0.188135 -8.17121e-21)
(0.99993 0.236082 -7.41012e-21)
(1.09473 0.271172 -1.26683e-20)
(1.15358 0.293012 0)
(1.18478 0.303578 0)
(1.19717 0.305812 0)
(1.19821 0.302582 0)
(1.19328 0.296145 0)
(1.18576 0.288036 -1.11426e-20)
(1.17755 0.279177 5.07507e-21)
(1.16954 0.270069 8.86785e-21)
(1.16212 0.260963 4.16298e-21)
(1.15539 0.251978 1.03289e-20)
(1.14936 0.243169 0)
(1.14398 0.234568 -2.51139e-21)
(1.13916 0.22619 -2.44015e-21)
(1.13481 0.218026 -4.26505e-21)
(1.1308 0.210055 -3.79747e-21)
(1.12701 0.202393 0)
(1.12326 0.195165 2.79181e-21)
(-0.00116647 0.000518155 6.42042e-21)
(-0.00579353 0.00207646 -6.66783e-21)
(-0.0142033 0.00392779 -1.26312e-20)
(-0.0245516 0.00592247 0)
(-0.0358083 0.00792551 -1.69183e-20)
(-0.0474395 0.00985079 5.31468e-21)
(-0.0590745 0.011667 -1.00281e-20)
(-0.0704581 0.013386 0)
(-0.0814293 0.0150473 0)
(-0.091892 0.0167031 0)
(-0.10179 0.0184057 0)
(-0.111091 0.0201987 0)
(-0.119776 0.0221128 1.53617e-23)
(-0.127832 0.0241649 -6.57973e-21)
(-0.135249 0.0263587 1.23559e-20)
(-0.142019 0.0286876 1.74267e-20)
(-0.148139 0.0311371 5.44321e-21)
(-0.153612 0.033687 0)
(-0.158458 0.0363143 4.81223e-21)
(-0.162725 0.0389961 -1.35362e-20)
(-0.166486 0.0417104 -8.46139e-21)
(-0.169844 0.0444371 -7.93806e-21)
(-0.172993 0.0471674 0)
(-0.176322 0.0499015 0)
(-0.0014608 0.00392751 -1.92946e-20)
(-0.00636777 0.0101514 3.33e-20)
(-0.0147017 0.0150928 -1.25513e-20)
(-0.0247512 0.0190563 -2.38725e-20)
(-0.0355524 0.0222169 3.37413e-20)
(-0.0466024 0.0247124 -2.12539e-20)
(-0.0575515 0.0266813 3.00161e-20)
(-0.0681581 0.0282615 1.88627e-20)
(-0.0782695 0.0295828 0)
(-0.0877927 0.0307603 -1.67631e-20)
(-0.0966719 0.0318875 -4.44691e-23)
(-0.104873 0.033034 1.48097e-20)
(-0.112372 0.0342452 2.0907e-20)
(-0.119153 0.0355458 2.62211e-20)
(-0.125198 0.0369446 -1.23253e-20)
(-0.130491 0.0384405 -3.47376e-20)
(-0.135016 0.0400289 1.08512e-20)
(-0.13876 0.0417083 -4.08035e-20)
(-0.141722 0.0434882 0)
(-0.143921 0.0453951 9.00646e-21)
(-0.145398 0.0474753 8.44986e-21)
(-0.146197 0.0497969 7.92707e-21)
(-0.14643 0.0524767 0)
(-0.146676 0.0556731 0)
(-0.00209897 0.0069666 0)
(-0.00764748 0.0174055 6.68044e-20)
(-0.0159435 0.0251792 -2.52016e-20)
(-0.0255185 0.0309647 2.38676e-20)
(-0.035536 0.0352028 -6.75165e-20)
(-0.045557 0.0382292 0)
(-0.0552751 0.0403347 -4.004e-20)
(-0.0644779 0.0417711 1.88151e-20)
(-0.0730301 0.0427514 -3.55028e-20)
(-0.0808476 0.0434489 1.6701e-20)
(-0.0878773 0.0439968 9.43252e-20)
(-0.0940839 0.0444899 -4.43058e-20)
(-0.0994406 0.0449888 -6.95325e-20)
(-0.103923 0.0455258 -2.61503e-20)
(-0.107508 0.0461128 -2.20766e-23)
(-0.110166 0.0467492 9.22708e-20)
(-0.111868 0.0474317 -4.33259e-20)
(-0.112579 0.048164 4.46411e-23)
(-0.112264 0.04897 0)
(-0.110899 0.0499081 -3.58068e-20)
(-0.108484 0.0510858 0)
(-0.104964 0.0526762 -3.1615e-20)
(-0.100217 0.0549665 1.18614e-19)
(-0.0949898 0.0583827 2.60183e-22)
(-0.00300313 0.00947914 0)
(-0.00949618 0.0234791 1.41841e-22)
(-0.0178147 0.0336998 2.54013e-20)
(-0.0267959 0.0410798 -2.39931e-20)
(-0.0357691 0.0462652 2.24614e-20)
(-0.0443834 0.0497541 1.2763e-19)
(-0.0523937 0.0519652 -4.00296e-20)
(-0.0596304 0.0532483 -3.7751e-20)
(-0.0659843 0.0538891 7.0997e-20)
(-0.0713862 0.0541132 -1.00193e-19)
(-0.0757894 0.0540909 3.13809e-20)
(-0.0791588 0.0539418 2.95285e-20)
(-0.0814644 0.0537426 0)
(-0.0826761 0.053534 2.60959e-20)
(-0.082762 0.0533306 0)
(-0.0816856 0.0531293 4.59866e-20)
(-0.0794048 0.0529191 -8.64226e-20)
(-0.0758692 0.0526924 2.03152e-20)
(-0.071018 0.05246 7.61604e-20)
(-0.0647918 0.0522722 3.57717e-20)
(-0.057155 0.0522487 0)
(-0.0480102 0.0526416 -9.44344e-20)
(-0.0368962 0.0539973 2.95935e-20)
(-0.023864 0.0572963 0)
(-0.00408257 0.0113844 0)
(-0.0117472 0.0281577 -8.08098e-20)
(-0.0201641 0.040329 -2.56248e-20)
(-0.0284865 0.0489868 -4.80612e-20)
(-0.0362235 0.0549205 4.52552e-20)
(-0.0431255 0.0587519 -4.2574e-20)
(-0.0490217 0.061001 8.03046e-20)
(-0.0537947 0.0620972 3.77605e-20)
(-0.0573695 0.0623863 -1.06547e-19)
(-0.0596962 0.0621387 6.68217e-20)
(-0.0607371 0.0615577 -9.41995e-20)
(-0.0604581 0.0607871 2.06571e-19)
(-0.0588244 0.0599207 -1.10898e-19)
(-0.0557981 0.059011 5.20507e-20)
(-0.0513372 0.0580789 1.46677e-19)
(-0.0453948 0.057122 -4.59745e-20)
(-0.0379185 0.056123 -4.3075e-20)
(-0.028848 0.0550586 -4.05244e-20)
(-0.0181119 0.0539111 0)
(-0.00563328 0.0526848 -7.12227e-20)
(0.00863983 0.0514403 -6.67845e-20)
(0.0248239 0.0504073 9.41442e-20)
(0.0436608 0.0503343 1.17686e-19)
(0.0656315 0.0527752 -1.1074e-19)
(-0.00525319 0.0126791 0)
(-0.0142328 0.0313795 -1.08828e-19)
(-0.0228192 0.0449185 -2.43293e-22)
(-0.0304476 0.0544476 9.65781e-20)
(-0.0367991 0.0608487 0)
(-0.0417293 0.0648339 0)
(-0.0451466 0.0669995 0)
(-0.0469918 0.0678354 -3.77937e-20)
(-0.0472276 0.0677342 3.02375e-23)
(-0.0458249 0.0670022 6.68845e-20)
(-0.042754 0.0658703 -9.41803e-20)
(-0.0379785 0.0645041 4.44768e-23)
(-0.0314538 0.0630153 0)
(-0.0231272 0.0614714 -5.20284e-20)
(-0.0129386 0.0599056 4.87327e-20)
(-0.000822098 0.0583247 -1.37355e-19)
(0.0132919 0.0567161 1.71853e-19)
(0.0294761 0.0550543 4.01881e-20)
(0.0478072 0.0533064 -1.02506e-22)
(0.0683627 0.0514391 -1.41975e-19)
(0.0911876 0.0494318 -6.63913e-20)
(0.116326 0.0473559 2.18202e-19)
(0.144289 0.0458477 -1.46046e-19)
(0.178923 0.0470853 0)
(-0.00645275 0.0134266 5.33101e-20)
(-0.0168042 0.0332193 5.45072e-20)
(-0.0255906 0.0474893 -5.18452e-20)
(-0.0324687 0.0574064 -9.72128e-20)
(-0.03727 0.0639159 9.15344e-20)
(-0.0399501 0.0677965 -8.5972e-20)
(-0.0404957 0.0697006 1.21381e-19)
(-0.0389036 0.0701624 -3.77554e-20)
(-0.035171 0.0696086 7.13397e-20)
(-0.0292846 0.0683722 0)
(-0.0212148 0.0667056 6.27378e-20)
(-0.0109142 0.0647933 -1.17903e-19)
(0.00168158 0.0627645 1.10539e-19)
(0.0166508 0.0607038 -1.03823e-19)
(0.0340811 0.0586611 0)
(0.0540639 0.0566603 9.12708e-20)
(0.0766884 0.0547051 1.7099e-19)
(0.102035 0.0527846 -1.60683e-19)
(0.130171 0.0508767 -7.51036e-20)
(0.161145 0.0489508 -7.07375e-20)
(0.194919 0.0469625 1.98839e-19)
(0.231721 0.0448898 6.17716e-20)
(0.269772 0.0427993 -5.80716e-20)
(0.322196 0.0437115 5.39675e-20)
(-0.00764686 0.0137327 -5.33174e-20)
(-0.0193348 0.033849 1.66051e-19)
(-0.0282575 0.048198 -5.23026e-20)
(-0.0342299 0.0579737 9.78917e-20)
(-0.0372075 0.0641793 -9.21729e-20)
(-0.0372358 0.0676495 3.42053e-22)
(-0.034369 0.0690801 4.07598e-20)
(-0.028649 0.0690379 1.5232e-19)
(-0.020094 0.0679741 -3.4327e-22)
(-0.00869199 0.0662413 -6.71162e-20)
(0.00560062 0.064109 0)
(0.0228557 0.0617786 -5.8717e-20)
(0.0431667 0.0593968 1.10492e-19)
(0.0666391 0.0570668 1.0338e-19)
(0.09338 0.0548585 -4.86789e-20)
(0.123485 0.0528158 -1.93609e-22)
(0.157026 0.0509633 -4.271e-20)
(0.194034 0.0493108 7.96661e-20)
(0.234486 0.0478559 7.50895e-20)
(0.278341 0.0466013 -7.03928e-20)
(0.325102 0.0454524 6.55447e-20)
(0.376302 0.0447459 -6.13132e-20)
(0.423833 0.0431719 0)
(0.498108 0.0457337 -5.3898e-20)
(-0.00882226 0.0137135 5.42077e-20)
(-0.0217008 0.0334791 -5.5566e-20)
(-0.0305301 0.0472814 5.28522e-20)
(-0.0352412 0.0563876 0)
(-0.0358913 0.0618725 0)
(-0.0325997 0.0646283 8.73404e-20)
(-0.0254699 0.065391 -8.16864e-20)
(-0.0145665 0.0647543 7.62247e-20)
(9.27879e-05 0.0631895 -3.57881e-19)
(0.0185377 0.0610659 2.30631e-22)
(0.0408379 0.0586693 6.2764e-20)
(0.0670898 0.0562183 0)
(0.0973985 0.0538775 -1.09988e-19)
(0.131857 0.0517687 2.0633e-19)
(0.170524 0.0499788 -1.45159e-19)
(0.213401 0.0485666 -2.26208e-19)
(0.260411 0.0475684 3.50806e-22)
(0.311384 0.0470017 1.58565e-19)
(0.366011 0.0468561 0)
(0.424092 0.0472051 0)
(0.483981 0.0476434 -6.55391e-20)
(0.549831 0.0495031 6.13064e-20)
(0.604165 0.0491634 -2.27879e-19)
(0.697671 0.0551041 2.13818e-19)
(-0.00996749 0.0134622 0)
(-0.0237387 0.0322975 0)
(-0.0319952 0.0449971 -1.59004e-19)
(-0.0347751 0.0529634 5.0569e-20)
(-0.0322275 0.057371 4.47563e-22)
(-0.0245247 0.0591833 8.84099e-20)
(-0.0117953 0.0591796 0)
(0.0058969 0.057982 -7.68578e-20)
(0.0285522 0.0560825 7.1666e-20)
(0.0562194 0.0538691 -1.34013e-19)
(0.0889716 0.051645 2.6266e-22)
(0.126874 0.0496447 1.17259e-19)
(0.169948 0.0480457 -4.05807e-22)
(0.218136 0.0469765 1.02353e-19)
(0.271266 0.046522 -1.44837e-19)
(0.32903 0.0467276 0)
(0.390966 0.0476021 1.68455e-19)
(0.456459 0.049125 -2.37327e-19)
(0.524678 0.0512066 7.35235e-20)
(0.5951 0.0539703 0)
(0.664915 0.0565703 6.42813e-20)
(0.739848 0.0612184 2.41907e-19)
(0.797094 0.0623113 -2.2702e-19)
(0.89627 0.0714667 -2.65628e-19)
(-0.0110457 0.0130239 1.66628e-19)
(-0.0251914 0.0304272 -2.29232e-19)
(-0.0320566 0.0415677 4.73839e-22)
(-0.0318206 0.0480421 5.09958e-20)
(-0.0247184 0.0511601 -9.49626e-20)
(-0.0109625 0.0519687 -8.79725e-20)
(0.00930957 0.0512986 1.64483e-19)
(0.0360392 0.0498056 -1.41221e-21)
(0.069222 0.0480073 -1.4448e-19)
(0.108865 0.0463095 2.6874e-19)
(0.154931 0.0450258 -7.60095e-22)
(0.207284 0.0443908 -1.17785e-19)
(0.265637 0.0445665 0)
(0.32951 0.0456466 0)
(0.398206 0.0476582 -4.80653e-20)
(0.470815 0.0505643 -8.94093e-20)
(0.546227 0.0542693 -1.67285e-19)
(0.623181 0.0586257 1.57025e-19)
(0.700272 0.0634227 -7.35507e-20)
(0.776337 0.0685779 1.36408e-19)
(0.84883 0.0733331 -6.49637e-20)
(0.921216 0.0792459 1.18784e-19)
(0.976344 0.0815016 -2.78745e-19)
(1.06073 0.0908265 5.23681e-20)
(-0.0119596 0.0123834 5.62505e-20)
(-0.025661 0.0278979 0)
(-0.0298941 0.0371521 1.08968e-19)
(-0.0250579 0.0419724 -1.02653e-19)
(-0.0114885 0.0438158 9.50496e-20)
(0.0105593 0.0438241 0)
(0.0409199 0.0428858 0)
(0.0794833 0.0416919 -7.72443e-20)
(0.126126 0.0407771 1.11082e-21)
(0.180627 0.0405461 6.81533e-20)
(0.242584 0.0412893 -6.26645e-20)
(0.311344 0.0431884 1.18009e-19)
(0.385963 0.0463186 0)
(0.465197 0.0506518 2.04287e-19)
(0.547534 0.056061 -3.82436e-19)
(0.631261 0.0623311 2.68429e-19)
(0.714552 0.0691782 1.65766e-19)
(0.79556 0.0762493 -1.55603e-19)
(0.872572 0.0832312 0)
(0.94395 0.0896168 0)
(1.00855 0.0953792 0)
(1.06593 0.0997997 0)
(1.11179 0.102744 5.51348e-20)
(1.16492 0.106805 -2.04928e-19)
(-0.180848 0.0529855 -4.94283e-21)
(-0.187303 0.0555478 4.96742e-21)
(-0.193552 0.0572973 -1.51946e-22)
(-0.199863 0.0580281 0)
(-0.206262 0.0574872 -4.6015e-21)
(-0.21274 0.0554081 8.96245e-21)
(-0.219278 0.0515331 1.46459e-23)
(-0.225829 0.0456259 -4.25683e-21)
(-0.232326 0.0374917 0)
(-0.238687 0.0269949 0)
(-0.24482 0.014078 -2.51765e-22)
(-0.250464 -0.00120048 -2.44787e-22)
(-0.255485 -0.0186059 -3.92744e-21)
(-0.259791 -0.0376291 3.58684e-21)
(-0.263061 -0.0576548 0)
(-0.26503 -0.0778474 0)
(-0.265364 -0.0971577 2.99934e-21)
(-0.263645 -0.114348 -1.34937e-22)
(-0.259319 -0.12804 -2.5358e-21)
(-0.251651 -0.136811 -1.49545e-22)
(-0.239729 -0.139328 0)
(-0.222484 -0.13453 0)
(-0.19875 -0.121838 0)
(-0.167627 -0.101521 0)
(-0.128613 -0.0746585 0)
(-0.0820042 -0.0435132 0)
(-0.0287333 -0.0104077 1.84354e-22)
(0.0293555 0.0209254 -2.9112e-22)
(0.0898898 0.0472935 0)
(0.150743 0.0668678 0)
(0.209755 0.0782873 7.99145e-23)
(0.265917 0.0817129 -7.76639e-23)
(0.318964 0.0778631 -6.68674e-23)
(0.369448 0.0685366 0)
(0.41792 0.0551393 0)
(0.464795 0.0398449 -1.57338e-22)
(0.509993 0.0238333 1.52935e-22)
(0.55299 0.0091478 0)
(0.593066 -0.00380641 -1.27303e-22)
(0.629598 -0.0135752 1.82855e-22)
(0.662247 -0.020713 -5.34448e-23)
(0.691159 -0.0241955 0)
(0.716615 -0.025475 8.13704e-23)
(0.739554 -0.02355 -7.9123e-23)
(0.760385 -0.020383 0)
(0.780276 -0.0147929 0)
(0.799023 -0.00924234 2.31258e-23)
(0.8176 -0.0022083 -6.49533e-23)
(0.834871 0.00342684 0)
(0.851872 0.00966752 0)
(0.866842 0.0134286 1.21928e-23)
(0.881625 0.0175546 4.87704e-26)
(0.893733 0.0189344 1.44142e-24)
(0.906459 0.0210369 -7.01727e-24)
(0.915661 0.0206211 0)
(0.927507 0.0214585 0)
(0.934248 0.0203813 0)
(0.947362 0.0209391 0)
(0.951526 0.0202443 0)
(0.96731 0.0210426 0)
(-0.14826 0.0597549 -4.81335e-22)
(-0.153094 0.0621996 -2.01053e-20)
(-0.157313 0.0638465 5.6651e-23)
(-0.161382 0.0644754 1.88098e-20)
(-0.165367 0.0638495 2.95174e-22)
(-0.169245 0.0616664 0)
(-0.172989 0.0576459 -1.77741e-20)
(-0.176561 0.0515275 3.52464e-20)
(-0.179918 0.0430966 -1.74708e-20)
(-0.183021 0.0322083 1.69264e-20)
(-0.185825 0.0188233 -1.62006e-20)
(-0.18826 0.00305229 1.57712e-20)
(-0.190211 -0.0150676 -1.53495e-20)
(-0.191619 -0.0349413 -4.77022e-22)
(-0.192462 -0.0559738 -1.41377e-20)
(-0.192664 -0.0773411 1.37394e-20)
(-0.192133 -0.0980156 -1.24042e-20)
(-0.190727 -0.116797 1.16822e-20)
(-0.188185 -0.132373 -1.04751e-20)
(-0.184038 -0.143411 1.93341e-20)
(-0.177573 -0.148641 -8.90737e-21)
(-0.1678 -0.147043 -4.51002e-22)
(-0.153454 -0.138014 -5.66324e-21)
(-0.133229 -0.121559 1.00578e-20)
(-0.105934 -0.098465 -4.42587e-21)
(-0.0709218 -0.0704277 1.74037e-22)
(-0.0282358 -0.0397288 1.73718e-21)
(0.0210559 -0.00999118 -6.88475e-22)
(0.0755621 0.0161655 -1.0903e-21)
(0.133543 0.0363093 -7.58031e-23)
(0.192829 0.0493685 2.89001e-22)
(0.252091 0.0547603 -1.05893e-22)
(0.310708 0.0528206 6.7004e-23)
(0.368165 0.0452124 -1.43611e-22)
(0.424214 0.0333958 0)
(0.478041 0.019674 0)
(0.52907 0.00537361 5.74717e-22)
(0.576051 -0.00740678 -4.24144e-22)
(0.618423 -0.0183088 -3.70558e-22)
(0.655394 -0.0259532 -2.95417e-23)
(0.687168 -0.0311136 4.93237e-22)
(0.713879 -0.0328881 -9.47002e-23)
(0.736412 -0.0327904 0)
(0.755655 -0.029846 0)
(0.772612 -0.0259843 0)
(0.788421 -0.0199493 0)
(0.803478 -0.0141001 -9.98682e-23)
(0.81872 -0.00682072 4.25024e-23)
(0.833462 -0.000932148 0)
(0.848554 0.00567814 0)
(0.862443 0.00978407 0)
(0.876685 0.0143026 1.9295e-23)
(0.888777 0.0160077 -3.00667e-24)
(0.90178 0.0184913 1.53292e-23)
(0.911416 0.018273 0)
(0.923856 0.0194092 0)
(0.931049 0.0183165 -6.44142e-24)
(0.944893 0.0191362 -1.50992e-23)
(0.94934 0.0183286 0)
(0.965997 0.0194751 0)
(-0.0922952 0.0637081 6.43984e-22)
(-0.0949887 0.0659022 -4.05034e-20)
(-0.096453 0.0675668 4.05807e-20)
(-0.0975589 0.0680514 -3.79427e-20)
(-0.0983947 0.0673619 -2.97184e-22)
(-0.098962 0.0650985 0)
(-0.0992121 0.0609716 -3.75172e-20)
(-0.0991093 0.0547044 3.67692e-20)
(-0.0986219 0.0460703 2.75496e-22)
(-0.0977268 0.0349119 5.55217e-22)
(-0.0964185 0.0211803 5.43996e-22)
(-0.0947571 0.00495724 5.14618e-22)
(-0.092676 -0.0135616 -3.23548e-20)
(-0.0901327 -0.0339377 3.19236e-20)
(-0.0872664 -0.0555565 0)
(-0.0841469 -0.0775865 8.94792e-22)
(-0.0808637 -0.0990043 -2.56677e-20)
(-0.0775028 -0.118629 2.53158e-20)
(-0.0740885 -0.135192 0)
(-0.0704473 -0.147453 0)
(-0.066163 -0.154277 -1.63897e-20)
(-0.0605346 -0.154786 2.95964e-20)
(-0.0525185 -0.148476 -2.37105e-20)
(-0.0407259 -0.135303 2.31512e-21)
(-0.0235221 -0.115847 1.43436e-20)
(0.000566858 -0.0914909 -1.0759e-20)
(0.032119 -0.0642953 6.86262e-21)
(0.0712046 -0.0370147 -1.45464e-21)
(0.11758 -0.0119687 -1.30473e-21)
(0.170107 0.00799251 0)
(0.226955 0.020933 0)
(0.286159 0.0269064 -7.40783e-22)
(0.346735 0.0260874 9.23537e-22)
(0.40713 0.0199081 9.0046e-24)
(0.466334 0.00969342 -1.17252e-21)
(0.522545 -0.00205522 1.13943e-21)
(0.574887 -0.0140372 0)
(0.621737 -0.0242919 -1.35024e-22)
(0.662821 -0.0325955 -1.08913e-21)
(0.697381 -0.0377432 2.04608e-21)
(0.72611 -0.0406501 -8.60494e-22)
(0.749144 -0.0405155 -9.18634e-23)
(0.767769 -0.0389104 8.16208e-22)
(0.782717 -0.0348816 -6.30103e-22)
(0.795351 -0.030322 -1.32291e-22)
(0.806655 -0.0239011 -1.15908e-22)
(0.81749 -0.0178789 1.00121e-22)
(0.828715 -0.0105201 0)
(0.840134 -0.00459323 0)
(0.852437 0.00216883 2.45322e-22)
(0.86435 0.00644231 -1.1511e-22)
(0.877178 0.01121 9.04676e-23)
(0.888487 0.0131349 -1.12633e-22)
(0.901052 0.0159357 -1.18839e-22)
(0.910548 0.0158765 2.79283e-23)
(0.923003 0.0173004 -3.96227e-23)
(0.930241 0.0161813 2.99968e-23)
(0.944263 0.017271 -1.26225e-23)
(0.948745 0.0163443 0)
(0.965668 0.0178518 0)
(-0.0164071 0.0629513 -8.42385e-20)
(-0.0172889 0.0659588 3.93983e-24)
(-0.0157913 0.0675766 7.99086e-20)
(-0.0138845 0.0679662 -6.18882e-22)
(-0.0113871 0.0672137 0)
(-0.00854615 0.0649182 0)
(-0.00522392 0.0607513 -7.72172e-20)
(-0.00138286 0.0544289 -1.61378e-21)
(0.00299955 0.0457239 1.1115e-19)
(0.00792475 0.0344661 -1.85749e-22)
(0.0133719 0.0205778 -3.60227e-20)
(0.0192685 0.00410629 -3.36797e-20)
(0.0256045 -0.0146066 3.37961e-20)
(0.0323385 -0.0352315 0)
(0.0392981 -0.0571434 -3.06132e-20)
(0.0463274 -0.0795004 2.79176e-20)
(0.0532332 -0.101275 0)
(0.0597975 -0.121292 0)
(0.0658053 -0.138308 2.1461e-20)
(0.0711792 -0.151098 -2.1383e-21)
(0.0760712 -0.158616 -1.76463e-20)
(0.0808797 -0.160193 -1.36159e-20)
(0.0862643 -0.155502 1.35151e-20)
(0.0933792 -0.144635 -8.40538e-21)
(0.103852 -0.128148 2.17076e-21)
(0.119498 -0.107262 5.76383e-21)
(0.141791 -0.0838592 3.95971e-22)
(0.171563 -0.0596346 1.32136e-23)
(0.209355 -0.0370561 0)
(0.254296 -0.0184783 -8.05707e-22)
(0.305392 -0.00624055 8.50056e-22)
(0.36095 -0.000329608 -1.04038e-22)
(0.419185 -0.000609899 0)
(0.47768 -0.0056123 1.36249e-22)
(0.534982 -0.014015 -2.19957e-21)
(0.588771 -0.0234225 4.04876e-21)
(0.637971 -0.0327186 2.44412e-22)
(0.680921 -0.0401506 -4.50882e-23)
(0.717678 -0.0456655 -1.70501e-21)
(0.747649 -0.0482281 -2.25745e-22)
(0.771867 -0.0488577 1.58457e-21)
(0.790473 -0.0468316 -1.35197e-21)
(0.804922 -0.0437468 -2.57826e-24)
(0.815729 -0.0386569 -5.73224e-22)
(0.824362 -0.0334226 6.90024e-22)
(0.831553 -0.0266571 7.90237e-22)
(0.83842 -0.0205397 -2.26854e-22)
(0.845703 -0.013218 -3.29492e-22)
(0.853622 -0.00738173 6.01958e-22)
(0.862765 -0.000692737 -4.01161e-22)
(0.872179 0.00358128 9.36017e-23)
(0.88298 0.00844919 -1.17974e-22)
(0.892884 0.0104749 -8.88262e-23)
(0.904379 0.013509 1.81563e-22)
(0.913195 0.013555 -5.41048e-24)
(0.925094 0.0152366 3.96944e-23)
(0.931966 0.0140751 0)
(0.945592 0.015425 1.28728e-23)
(0.949854 0.0143745 -1.61784e-23)
(0.966401 0.0162329 0)
(0.0772876 0.0584046 8.5481e-20)
(0.0790275 0.0626004 -1.67745e-19)
(0.0817551 0.0641257 8.13155e-20)
(0.0861262 0.0644213 8.16734e-20)
(0.0913831 0.0635797 -1.60637e-19)
(0.0971699 0.0612963 -6.30809e-22)
(0.103569 0.057146 7.79927e-20)
(0.110666 0.0508358 7.76526e-20)
(0.118477 0.0421505 -7.60621e-20)
(0.126973 0.0309176 0)
(0.136093 0.0170451 -7.37688e-20)
(0.145803 0.000562429 1.43584e-19)
(0.156006 -0.0182052 -6.98487e-20)
(0.16656 -0.038918 0)
(0.177293 -0.0609427 0)
(0.187982 -0.0834338 9.37097e-22)
(0.198361 -0.105352 -5.46304e-20)
(0.208136 -0.125509 5.30705e-20)
(0.217019 -0.142661 0)
(0.224815 -0.155594 3.94156e-20)
(0.23147 -0.163321 -6.93197e-20)
(0.237166 -0.165299 5.78512e-20)
(0.242308 -0.16136 -4.7536e-20)
(0.247737 -0.151799 4.39808e-21)
(0.254843 -0.137307 2.76267e-20)
(0.265348 -0.119017 -1.15749e-20)
(0.281006 -0.0985326 -1.9126e-22)
(0.30309 -0.0775255 -9.23611e-22)
(0.332704 -0.0581027 9.72834e-22)
(0.369673 -0.0421951 2.18224e-23)
(0.413389 -0.031082 -6.80407e-23)
(0.46211 -0.0255454 1.62807e-21)
(0.514099 -0.0254797 -3.44272e-21)
(0.566619 -0.0293376 2.03419e-21)
(0.617859 -0.0357594 0)
(0.665299 -0.0427116 2.30528e-21)
(0.707928 -0.0492807 -2.24154e-21)
(0.744301 -0.0539218 1.67996e-21)
(0.774739 -0.0567679 -2.09497e-21)
(0.798868 -0.0569333 2.11478e-22)
(0.817882 -0.0555037 0)
(0.831931 -0.0517951 1.80694e-22)
(0.842449 -0.0473967 -4.95802e-22)
(0.849732 -0.0413545 0)
(0.855147 -0.0355021 -1.27257e-21)
(0.859138 -0.0284187 5.15587e-22)
(0.862852 -0.0222335 -2.03463e-22)
(0.866875 -0.015003 -1.75632e-22)
(0.871695 -0.00934439 0)
(0.877851 -0.00287462 0)
(0.884688 0.00129041 3.11708e-22)
(0.893208 0.00613406 -4.58838e-22)
(0.901337 0.00814981 2.41032e-22)
(0.911325 0.0113279 -7.32368e-23)
(0.919044 0.0114197 -1.11069e-22)
(0.929912 0.0133154 -3.97321e-23)
(0.936072 0.0120939 5.89842e-23)
(0.948781 0.0136783 0)
(0.952601 0.0125017 2.66608e-23)
(0.968171 0.0146785 7.97909e-24)
(0.192229 0.0530048 8.70092e-20)
(0.195201 0.0570985 -8.6387e-20)
(0.197632 0.0584836 6.56163e-22)
(0.202714 0.0584821 -6.45428e-22)
(0.209438 0.0575084 6.37542e-22)
(0.216991 0.0551976 -6.29842e-22)
(0.225342 0.0510539 1.24707e-21)
(0.234638 0.0447766 0)
(0.244894 0.0361614 -1.21887e-21)
(0.256042 0.0250268 1.20203e-21)
(0.267965 0.0112725 1.18149e-21)
(0.280615 -0.00506743 -1.14953e-21)
(0.293835 -0.0237504 0)
(0.307414 -0.0443987 0)
(0.32112 -0.0663791 1.03366e-21)
(0.334663 -0.0888441 0)
(0.34772 -0.11074 -9.05295e-22)
(0.359934 -0.130857 0)
(0.370956 -0.147935 -4.35738e-20)
(0.380524 -0.1608 8.15142e-20)
(0.388511 -0.168525 -6.97868e-20)
(0.39501 -0.170586 3.20263e-20)
(0.400332 -0.16691 2.1461e-20)
(0.405127 -0.157976 -2.08406e-20)
(0.410553 -0.144685 -1.2289e-20)
(0.41806 -0.128219 1.18166e-20)
(0.429306 -0.110065 0)
(0.44563 -0.0917268 1.141e-22)
(0.468326 -0.0749401 0)
(0.497586 -0.0612304 0)
(0.533148 -0.0518128 -2.01767e-21)
(0.573482 -0.0470224 2.04167e-21)
(0.616944 -0.0466784 -1.75387e-22)
(0.660839 -0.0494092 -2.2911e-22)
(0.703325 -0.0540551 2.15472e-22)
(0.742062 -0.0587786 1.90585e-21)
(0.776214 -0.0628581 -1.85047e-21)
(0.804669 -0.0650066 2.06808e-21)
(0.827938 -0.0655405 -1.77777e-21)
(0.84586 -0.0636932 -4.18033e-22)
(0.859637 -0.0605768 1.52231e-21)
(0.869427 -0.0555128 8.77604e-23)
(0.876514 -0.050058 -1.02293e-21)
(0.881026 -0.0432378 0)