/*--------------------------------*- C++ -*----------------------------------*\
| =========                 |                                                 |
| \\      /  F ield         | OpenFOAM: The Open Source CFD Toolbox           |
|  \\    /   O peration     | Version:  2512                                  |
|   \\  /    A nd           | Website:  www.openfoam.com                      |
|    \\/     M anipulation  |                                                 |
\*---------------------------------------------------------------------------*/
FoamFile
{
    version     2.0;
    format      ascii;
    arch        "LSB;label=32;scalar=64";
    class       volScalarField;
    location    "47.75";
    object      p;
}
// * * * * * * * * * * * * * * * * * * * * * * * * * * * * * * * * * * * * * //

dimensions      [0 2 -2 0 0 0 0];

internalField   nonuniform List<scalar> 
13248
(
-0.274261
-0.273077
-0.27125
-0.268939
-0.266319
-0.26354
-0.26072
-0.257932
-0.255226
-0.252624
-0.25013
-0.247734
-0.245415
-0.243147
-0.240902
-0.238652
-0.236371
-0.234042
-0.231642
-0.229192
-0.22661
-0.224113
-0.221117
-0.218722
-0.2809
-0.279068
-0.276629
-0.273744
-0.270578
-0.267298
-0.264013
-0.260787
-0.257646
-0.254587
-0.251588
-0.248615
-0.24563
-0.242595
-0.23948
-0.236263
-0.232931
-0.229479
-0.225909
-0.222225
-0.218421
-0.214515
-0.210368
-0.206577
-0.288934
-0.286275
-0.283104
-0.279565
-0.275796
-0.271961
-0.268156
-0.264415
-0.260727
-0.257055
-0.25335
-0.249562
-0.245653
-0.241595
-0.237383
-0.233023
-0.228535
-0.223949
-0.219291
-0.214596
-0.209853
-0.205114
-0.200274
-0.195744
-0.298479
-0.294817
-0.2908
-0.286535
-0.2821
-0.277638
-0.273213
-0.268809
-0.264371
-0.259831
-0.255129
-0.250226
-0.245113
-0.239806
-0.234344
-0.228779
-0.22317
-0.217571
-0.212023
-0.206556
-0.201169
-0.195895
-0.190637
-0.185841
-0.309613
-0.304783
-0.299822
-0.294763
-0.289587
-0.284389
-0.279175
-0.273872
-0.268388
-0.262649
-0.256622
-0.250318
-0.24379
-0.237114
-0.230382
-0.22368
-0.217082
-0.210642
-0.204391
-0.198339
-0.19248
-0.186818
-0.181292
-0.176218
-0.322345
-0.316212
-0.310233
-0.30432
-0.2983
-0.292187
-0.28592
-0.279378
-0.272467
-0.265157
-0.257491
-0.249566
-0.24151
-0.233456
-0.225524
-0.217805
-0.210361
-0.203223
-0.196399
-0.189879
-0.183646
-0.177684
-0.171943
-0.166652
-0.336588
-0.329059
-0.322015
-0.315175
-0.308149
-0.300847
-0.29315
-0.284936
-0.276176
-0.266947
-0.257407
-0.247749
-0.238162
-0.228805
-0.21979
-0.211185
-0.203019
-0.195296
-0.187996
-0.181092
-0.174554
-0.168349
-0.162446
-0.156969
-0.352103
-0.343145
-0.335005
-0.327128
-0.318848
-0.309969
-0.300368
-0.29001
-0.279011
-0.267604
-0.256073
-0.244685
-0.233649
-0.223109
-0.21314
-0.203768
-0.194987
-0.186765
-0.179065
-0.171843
-0.165057
-0.158665
-0.152643
-0.14702
-0.368467
-0.358109
-0.348847
-0.339759
-0.329871
-0.31893
-0.306915
-0.293983
-0.280462
-0.266759
-0.253253
-0.240234
-0.227887
-0.216304
-0.20551
-0.195482
-0.186177
-0.177539
-0.16951
-0.162033
-0.155057
-0.148535
-0.142438
-0.136717
-0.385031
-0.373369
-0.362938
-0.35238
-0.340437
-0.326913
-0.312027
-0.296223
-0.28007
-0.26411
-0.248758
-0.234274
-0.22078
-0.208302
-0.196806
-0.186227
-0.176489
-0.167515
-0.15923
-0.151566
-0.144461
-0.137866
-0.131733
-0.12596
-0.400928
-0.388095
-0.376404
-0.36403
-0.349539
-0.332956
-0.314875
-0.296082
-0.27735
-0.259292
-0.242295
-0.226543
-0.212077
-0.198851
-0.18678
-0.17576
-0.165689
-0.156471
-0.148016
-0.140244
-0.133087
-0.126487
-0.120367
-0.114616
-0.415145
-0.401324
-0.388254
-0.37367
-0.356133
-0.336083
-0.314601
-0.292816
-0.271648
-0.251705
-0.233288
-0.21648
-0.20123
-0.187425
-0.174929
-0.163605
-0.153328
-0.143984
-0.135471
-0.127699
-0.120595
-0.114088
-0.108074
-0.102483
-0.250833
-0.252655
-0.253813
-0.254577
-0.255192
-0.255717
-0.256179
-0.256597
-0.256978
-0.257319
-0.257614
-0.257857
-0.258039
-0.258153
-0.258194
-0.25816
-0.258051
-0.257874
-0.25764
-0.257372
-0.257097
-0.256853
-0.256706
-0.256764
-0.250096
-0.251768
-0.25282
-0.253495
-0.254014
-0.254436
-0.254785
-0.255082
-0.255335
-0.255546
-0.255715
-0.255838
-0.255915
-0.255946
-0.255936
-0.255893
-0.25583
-0.255765
-0.255725
-0.255744
-0.255865
-0.256134
-0.256633
-0.257579
-0.250039
-0.251496
-0.252397
-0.25295
-0.253348
-0.253642
-0.253857
-0.254015
-0.254127
-0.254198
-0.254229
-0.254224
-0.254187
-0.254126
-0.254054
-0.253986
-0.253944
-0.253955
-0.254051
-0.254276
-0.254683
-0.255309
-0.256218
-0.25781
-0.250549
-0.251751
-0.25247
-0.252873
-0.25312
-0.253259
-0.253315
-0.253311
-0.253259
-0.253168
-0.253043
-0.252893
-0.252725
-0.252554
-0.252398
-0.252278
-0.252223
-0.252262
-0.252434
-0.252782
-0.253365
-0.254218
-0.255305
-0.25714
-0.251505
-0.252441
-0.252958
-0.253185
-0.253253
-0.253205
-0.253071
-0.252872
-0.252627
-0.252345
-0.252038
-0.251716
-0.251392
-0.251085
-0.250816
-0.250612
-0.250505
-0.250528
-0.250718
-0.251117
-0.251776
-0.252715
-0.253862
-0.255705
-0.252805
-0.253489
-0.253795
-0.253822
-0.253678
-0.253408
-0.253044
-0.252614
-0.252138
-0.251632
-0.251109
-0.250585
-0.250076
-0.249603
-0.249192
-0.248873
-0.248679
-0.248647
-0.248812
-0.24921
-0.24988
-0.250841
-0.251995
-0.253348
-0.25439
-0.25485
-0.254941
-0.254743
-0.254353
-0.253821
-0.253187
-0.252485
-0.25174
-0.250975
-0.250205
-0.249451
-0.248731
-0.248071
-0.247496
-0.247041
-0.246739
-0.246626
-0.246736
-0.247097
-0.247735
-0.248624
-0.249903
-0.250303
-0.256261
-0.256527
-0.256397
-0.255947
-0.255276
-0.254444
-0.253501
-0.252489
-0.251443
-0.250389
-0.24935
-0.248349
-0.247407
-0.246551
-0.245809
-0.245215
-0.244801
-0.244601
-0.244643
-0.244941
-0.245537
-0.2462
-0.247798
-0.247067
-0.258486
-0.258575
-0.25821
-0.257477
-0.256488
-0.25532
-0.254035
-0.252686
-0.251318
-0.249961
-0.248646
-0.247395
-0.246236
-0.245192
-0.244294
-0.243569
-0.243045
-0.24275
-0.242704
-0.242889
-0.243437
-0.243743
-0.245648
-0.244158
-0.261202
-0.261101
-0.260469
-0.259415
-0.258073
-0.256538
-0.254887
-0.253187
-0.251487
-0.249828
-0.248239
-0.246748
-0.245378
-0.244151
-0.243089
-0.242212
-0.241538
-0.241082
-0.240863
-0.240834
-0.241217
-0.241215
-0.243056
-0.241522
-0.264597
-0.264252
-0.263294
-0.261875
-0.260141
-0.258208
-0.256172
-0.254108
-0.252073
-0.250108
-0.248244
-0.246503
-0.244903
-0.243454
-0.242165
-0.241042
-0.240086
-0.239299
-0.238687
-0.238229
-0.238102
-0.237845
-0.239104
-0.238153
-0.268882
-0.268189
-0.266839
-0.264991
-0.262817
-0.260456
-0.258015
-0.255576
-0.253196
-0.250914
-0.248753
-0.246724
-0.244828
-0.243059
-0.241408
-0.239859
-0.238397
-0.237007
-0.235671
-0.234408
-0.233226
-0.232216
-0.231972
-0.231746
-0.257142
-0.257698
-0.258558
-0.259756
-0.261292
-0.263131
-0.265182
-0.267279
-0.26916
-0.270469
-0.27081
-0.269418
-0.266326
-0.260864
-0.252706
-0.241967
-0.22921
-0.215574
-0.202729
-0.192427
-0.186348
-0.185603
-0.189648
-0.19651
-0.20399
-0.205918
-0.200348
-0.185599
-0.163692
-0.13859
-0.114538
-0.0947673
-0.0816569
-0.0770788
-0.0804835
-0.0867278
-0.0883332
-0.0811795
-0.0665384
-0.0485155
-0.0312381
-0.0168664
-0.00599887
0.00139911
0.00525385
0.00615338
0.00547432
0.00490553
0.00515704
0.00622901
0.00739944
0.00833111
0.008545
0.00814142
0.00706155
0.00573353
0.00428729
0.00313364
0.00177533
0.000886253
-0.259492
-0.26167
-0.264357
-0.267605
-0.271366
-0.275557
-0.28002
-0.2845
-0.288629
-0.291931
-0.293757
-0.293037
-0.290193
-0.283909
-0.273802
-0.259983
-0.242932
-0.223859
-0.204666
-0.187185
-0.173493
-0.165678
-0.163166
-0.16532
-0.170099
-0.172792
-0.170361
-0.160669
-0.145211
-0.126794
-0.109009
-0.0950839
-0.0878877
-0.089232
-0.0973254
-0.105496
-0.105609
-0.0948769
-0.0760477
-0.0543141
-0.0341476
-0.0176927
-0.005364
0.00317278
0.00806509
0.00975451
0.0092824
0.00826903
0.00766298
0.00783503
0.00826327
0.00864054
0.00847115
0.0077638
0.00654638
0.00515984
0.00379512
0.00277261
0.00155057
0.000815677
-0.261408
-0.264947
-0.2692
-0.274232
-0.279927
-0.286164
-0.292728
-0.299284
-0.305355
-0.310372
-0.313629
-0.312535
-0.310362
-0.303301
-0.29135
-0.274744
-0.253749
-0.229601
-0.204632
-0.180576
-0.15962
-0.145523
-0.136178
-0.132818
-0.134352
-0.136507
-0.137036
-0.132141
-0.123008
-0.111376
-0.100208
-0.0928103
-0.0924082
-0.100245
-0.11308
-0.122922
-0.121282
-0.107274
-0.0846014
-0.0595608
-0.0369052
-0.0186844
-0.00511534
0.00438206
0.0101859
0.0127019
0.0126585
0.011487
0.010229
0.00957277
0.00923663
0.00899363
0.00838146
0.00734355
0.00598956
0.00458033
0.00331219
0.00243552
0.00134901
0.000746704
-0.262499
-0.26712
-0.272528
-0.278934
-0.286143
-0.29398
-0.30218
-0.310344
-0.317912
-0.32418
-0.328221
-0.328867
-0.326032
-0.318135
-0.304585
-0.285385
-0.261055
-0.232856
-0.202776
-0.172976
-0.144952
-0.126628
-0.11027
-0.100988
-0.0987406
-0.0992921
-0.100457
-0.100528
-0.0972118
-0.0923504
-0.0882187
-0.0879796
-0.0949811
-0.109587
-0.127073
-0.138427
-0.135019
-0.118201
-0.0921437
-0.0642728
-0.0395512
-0.0198866
-0.00529356
0.00500452
0.011584
0.0148937
0.0154288
0.0143645
0.0127094
0.0113467
0.0102736
0.00937387
0.00827838
0.00690309
0.00542221
0.00402824
0.00286562
0.00213758
0.00118035
0.000682197
-0.262463
-0.26815
-0.27423
-0.281517
-0.289799
-0.298779
-0.308142
-0.317463
-0.326135
-0.333347
-0.338143
-0.339495
-0.336484
-0.327963
-0.31321
-0.29209
-0.265108
-0.233577
-0.199582
-0.165456
-0.133579
-0.107993
-0.0866773
-0.0714884
-0.0656463
-0.0636134
-0.0648645
-0.0675603
-0.0691529
-0.0706606
-0.0736609
-0.0809502
-0.0955121
-0.116789
-0.138681
-0.151479
-0.1476
-0.127518
-0.098613
-0.0684627
-0.0421128
-0.0213103
-0.00589244
0.00506554
0.0122902
0.0163111
0.0174826
0.0167208
0.0148829
0.0130229
0.0112901
0.00974159
0.00815592
0.00646268
0.00487465
0.00353002
0.00247572
0.00188669
0.00104795
0.000623151
-0.261592
-0.26815
-0.274431
-0.282045
-0.290908
-0.300545
-0.310557
-0.320527
-0.329879
-0.337805
-0.342976
-0.344605
-0.341553
-0.332699
-0.317225
-0.294909
-0.266262
-0.232618
-0.196034
-0.158918
-0.123775
-0.0932721
-0.0675536
-0.0482856
-0.0370371
-0.0319761
-0.0321778
-0.0357825
-0.0410304
-0.0479832
-0.0576782
-0.0723277
-0.0940861
-0.121491
-0.147375
-0.161524
-0.157014
-0.134967
-0.10395
-0.0721365
-0.0445996
-0.0229417
-0.00687391
0.00462344
0.0123791
0.0170058
0.0187957
0.0184471
0.0166097
0.0144595
0.0121864
0.0100485
0.00800679
0.00604091
0.00437363
0.00310289
0.00215416
0.00168436
0.000949703
0.000569239
-0.259942
-0.267262
-0.273353
-0.280764
-0.289715
-0.299526
-0.309672
-0.319752
-0.329257
-0.337676
-0.342819
-0.344464
-0.34142
-0.33254
-0.316947
-0.29435
-0.265197
-0.230761
-0.193018
-0.154311
-0.117035
-0.0833691
-0.0543322
-0.0314127
-0.015733
-0.00706959
-0.00499654
-0.00815274
-0.0153819
-0.0264095
-0.0417434
-0.0628681
-0.0909185
-0.123522
-0.152841
-0.168266
-0.163554
-0.140413
-0.108113
-0.0752863
-0.0469966
-0.0247433
-0.00817705
0.00375847
0.0119501
0.0170782
0.0194232
0.0195225
0.0177995
0.0155517
0.0128824
0.0102577
0.00783129
0.0056563
0.00394056
0.00275493
0.00190234
0.00152673
0.000880073
0.000519611
-0.257591
-0.26539
-0.270989
-0.277834
-0.28647
-0.295986
-0.305784
-0.31551
-0.324638
-0.332189
-0.33787
-0.339588
-0.336713
-0.328144
-0.313007
-0.290974
-0.262415
-0.228481
-0.190983
-0.15209
-0.113998
-0.0786445
-0.0473468
-0.0214974
-0.0022232
0.00996162
0.0148933
0.0133077
0.00570791
-0.007772
-0.0272062
-0.0533086
-0.0862681
-0.122917
-0.154986
-0.171561
-0.167204
-0.143804
-0.11107
-0.0778796
-0.0492548
-0.0266496
-0.00972177
0.00256536
0.0111146
0.0166528
0.0194714
0.0200028
0.0184397
0.0162642
0.0133417
0.0103584
0.00764143
0.00532696
0.00359025
0.00248766
0.00171625
0.00140723
0.000832303
0.00047355
-0.254568
-0.2621
-0.267004
-0.273225
-0.281242
-0.290051
-0.299148
-0.308227
-0.316805
-0.323939
-0.329077
-0.330747
-0.328129
-0.32015
-0.305975
-0.285244
-0.258229
-0.22591
-0.189877
-0.152048
-0.114372
-0.0785967
-0.0461058
-0.0182295
0.00385181
0.0191968
0.0271001
0.0278557
0.0211887
0.00685476
-0.0149475
-0.0442291
-0.0804327
-0.119888
-0.153955
-0.171417
-0.168012
-0.145167
-0.112844
-0.0799283
-0.0513666
-0.0286322
-0.0114603
0.00111302
0.00996499
0.0158463
0.0190649
0.0199979
0.0186071
0.0166254
0.0135749
0.0103658
0.00745773
0.00506729
0.00332686
0.00229897
0.00158843
0.00131882
0.000799975
0.000430842
-0.250507
-0.256785
-0.261087
-0.266809
-0.273961
-0.281779
-0.289954
-0.29816
-0.305981
-0.312738
-0.317195
-0.318774
-0.316502
-0.309372
-0.296582
-0.277736
-0.252984
-0.223096
-0.189398
-0.153538
-0.117215
-0.0820143
-0.049285
-0.0203167
0.00370221
0.0215948
0.0321994
0.0357776
0.0309861
0.0171617
-0.00535633
-0.0360167
-0.0737404
-0.114682
-0.150037
-0.168031
-0.16625
-0.144718
-0.113666
-0.0816591
-0.0535229
-0.0308286
-0.0134751
-0.000629711
0.0085169
0.014716
0.0182938
0.0196211
0.0190975
0.0167049
0.0136258
0.0103125
0.00730336
0.00488613
0.00314554
0.00217986
0.00151105
0.00125511
0.000777841
0.000391869
-0.244675
-0.249304
-0.253356
-0.258552
-0.264698
-0.271556
-0.278886
-0.286242
-0.293142
-0.299117
-0.303305
-0.304997
-0.303283
-0.297297
-0.286265
-0.269772
-0.247831
-0.220965
-0.190196
-0.156891
-0.122575
-0.0885962
-0.0561586
-0.0265727
-0.00110317
0.018916
0.0322853
0.0380655
0.0357405
0.0235715
0.0017444
-0.0288377
-0.0667251
-0.107975
-0.143863
-0.164486
-0.162092
-0.142554
-0.113611
-0.0831
-0.0557119
-0.0332083
-0.0157321
-0.00263024
0.00680784
0.0133103
0.0172206
0.0189041
0.0188146
0.01654
0.0135415
0.0102297
0.00719561
0.0047851
0.00304257
0.00211903
0.00147357
0.00121045
0.000761863
0.000357481
-0.236853
-0.240781
-0.244296
-0.248234
-0.25303
-0.258723
-0.264939
-0.27118
-0.277075
-0.282222
-0.285903
-0.287554
-0.286522
-0.281902
-0.272952
-0.259241
-0.240644
-0.217422
-0.190262
-0.160194
-0.128476
-0.0964133
-0.0652566
-0.0362409
-0.0104953
0.0107256
0.025852
0.0358461
0.0355726
0.025887
0.00626893
-0.0224949
-0.0587909
-0.0987941
-0.134232
-0.154414
-0.154592
-0.137631
-0.111192
-0.0825518
-0.0563279
-0.034446
-0.0172262
-0.004163
0.00535196
0.0119911
0.0160954
0.0180209
0.0180618
0.0161555
0.0133247
0.0100995
0.00710469
0.0047292
0.00307849
0.00209506
0.00145827
0.00117737
0.000747911
0.000328381
-0.227557
-0.234044
-0.237221
-0.240227
-0.24432
-0.249426
-0.255005
-0.260627
-0.266106
-0.270596
-0.27359
-0.274621
-0.273278
-0.268573
-0.259845
-0.246736
-0.229156
-0.207357
-0.181958
-0.153881
-0.124241
-0.0941856
-0.0648193
-0.0372394
-0.0124575
0.00855573
0.0255542
0.0335621
0.0344083
0.0261041
0.00773643
-0.0199196
-0.0552728
-0.0945738
-0.129231
-0.149322
-0.148468
-0.131754
-0.106448
-0.0793174
-0.054513
-0.0337281
-0.0172396
-0.00460998
0.00468178
0.0112292
0.015345
0.0173619
0.0174734
0.0157606
0.0130362
0.00989335
0.00695626
0.0046323
0.00301311
0.00206418
0.00144188
0.00114685
0.000733278
0.000304869
-0.21711
-0.225866
-0.229413
-0.231575
-0.234767
-0.23917
-0.244108
-0.248976
-0.25333
-0.256581
-0.25863
-0.258927
-0.256882
-0.251809
-0.243182
-0.230713
-0.214357
-0.19434
-0.17118
-0.145638
-0.118639
-0.0911594
-0.0641755
-0.0386767
-0.0156146
0.00411254
0.0193223
0.0278024
0.0290443
0.0214833
0.00436132
-0.0215723
-0.0546853
-0.091174
-0.122809
-0.140121
-0.138861
-0.12319
-0.0999816
-0.0751569
-0.0523063
-0.0329359
-0.0173602
-0.0052674
0.00374373
0.0101683
0.0142737
0.0163596
0.0165689
0.0151013
0.0125811
0.00961319
0.00680428
0.00456992
0.0029961
0.0020633
0.00144415
0.00112318
0.00072087
0.000281673
-0.206142
-0.216304
-0.220237
-0.221896
-0.224303
-0.22797
-0.232181
-0.23618
-0.239483
-0.241882
-0.243141
-0.242711
-0.240116
-0.234896
-0.226631
-0.215066
-0.200153
-0.182065
-0.161206
-0.138185
-0.113771
-0.0888145
-0.0641959
-0.0408302
-0.0196123
-0.00142794
0.0124895
0.0205369
0.0216979
0.0146735
-0.00112801
-0.0249079
-0.0548648
-0.087198
-0.114616
-0.129194
-0.127796
-0.113837
-0.093199
-0.0708973
-0.0500662
-0.0321265
-0.0174786
-0.00594828
0.00275145
0.00902086
0.0130837
0.0152125
0.015551
0.0143142
0.0120232
0.00927704
0.00663736
0.00451451
0.00299318
0.00206936
0.00144985
0.00109979
0.000706804
0.000258802
-0.195222
-0.205561
-0.209778
-0.211292
-0.213165
-0.216164
-0.219689
-0.22297
-0.225557
-0.227263
-0.22782
-0.226836
-0.22394
-0.218778
-0.21101
-0.200406
-0.186911
-0.170657
-0.151963
-0.131326
-0.109393
-0.0868994
-0.0646294
-0.0434124
-0.0240727
-0.00747629
0.00519743
0.0126459
0.0138231
0.00761368
-0.00644955
-0.0275418
-0.0537774
-0.0816208
-0.105003
-0.117364
-0.116191
-0.104205
-0.0862361
-0.066496
-0.0477195
-0.0312519
-0.0175735
-0.00664218
0.00171853
0.00781529
0.0118273
0.0140001
0.0144699
0.0134528
0.0114087
0.00890542
0.00645326
0.00445072
0.00298765
0.00207233
0.0014527
0.00107549
0.000690776
0.000237811
-0.183802
-0.194036
-0.198548
-0.200127
-0.201677
-0.204139
-0.207087
-0.209805
-0.211838
-0.212956
-0.21296
-0.211601
-0.208579
-0.20359
-0.196358
-0.18669
-0.174537
-0.16
-0.143334
-0.124947
-0.105374
-0.0852467
-0.0652552
-0.0461449
-0.02868
-0.0136824
-0.00220503
0.00466116
0.00597206
0.000803499
-0.0112031
-0.0292724
-0.0516181
-0.0751242
-0.0948026
-0.105306
-0.104554
-0.0946074
-0.0792961
-0.0620829
-0.0453377
-0.0303417
-0.0176506
-0.00734436
0.000652571
0.00655959
0.0105124
0.0127239
0.0133188
0.0125241
0.0107387
0.00849031
0.00623935
0.00437639
0.00296996
0.00206673
0.00144942
0.00104918
0.000672345
0.000218922
-0.172109
-0.182255
-0.186972
-0.188654
-0.190015
-0.192074
-0.194553
-0.19681
-0.198388
-0.199057
-0.198684
-0.197107
-0.194073
-0.189328
-0.182653
-0.173895
-0.163012
-0.150079
-0.135303
-0.119012
-0.101651
-0.0837577
-0.0659368
-0.048854
-0.0332059
-0.0197514
-0.00939928
-0.00306761
-0.00156762
-0.00563243
-0.0155229
-0.0305521
-0.0491198
-0.0685576
-0.0847918
-0.0936882
-0.0934267
-0.0854276
-0.0726087
-0.0577734
-0.0429692
-0.0294103
-0.0177083
-0.00804502
-0.000433412
0.00526632
0.00914791
0.0113904
0.0121096
0.0115352
0.0100119
0.00802458
0.00598521
0.00426139
0.00293135
0.00204723
0.00143657
0.00101922
0.000650747
0.000201955
-0.160716
-0.170498
-0.175257
-0.177033
-0.178293
-0.180059
-0.182164
-0.184049
-0.18528
-0.185647
-0.185036
-0.183368
-0.180409
-0.175967
-0.169868
-0.161992
-0.152303
-0.140859
-0.127825
-0.113468
-0.0981578
-0.0823495
-0.0665698
-0.0514057
-0.0374802
-0.0254756
-0.016166
-0.0103214
-0.0086216
-0.0116266
-0.0195076
-0.0316673
-0.0467206
-0.0624545
-0.0756488
-0.083091
-0.0832428
-0.0769379
-0.0663276
-0.0536492
-0.0406537
-0.0284727
-0.0177465
-0.00873577
-0.00152704
0.00394898
0.00774747
0.0100146
0.0108562
0.0104951
0.00923179
0.0075068
0.00568537
0.00410921
0.00286506
0.00200918
0.00141108
0.000984025
0.000625357
0.000186641
-0.14963
-0.158848
-0.163553
-0.165412
-0.166627
-0.168186
-0.170004
-0.171605
-0.172599
-0.172791
-0.172096
-0.170376
-0.167555
-0.163461
-0.157949
-0.150922
-0.142348
-0.132277
-0.120841
-0.108257
-0.094834
-0.0809546
-0.0670715
-0.0536953
-0.0413771
-0.030717
-0.0223655
-0.0169641
-0.0150725
-0.0171081
-0.0231664
-0.0327358
-0.0446561
-0.0571321
-0.0676968
-0.0738273
-0.0742166
-0.0692773
-0.0605442
-0.0497686
-0.0384244
-0.0275429
-0.0177662
-0.00940926
-0.00261638
0.00262182
0.00632602
0.0086107
0.00956959
0.00941304
0.00840378
0.00693796
0.00533721
0.00391554
0.0027665
0.00194919
0.00137066
0.000942276
0.000595706
0.000172559
-0.138784
-0.147441
-0.15204
-0.153954
-0.155147
-0.156558
-0.158163
-0.159557
-0.160388
-0.160473
-0.15973
-0.158088
-0.155473
-0.15176
-0.146832
-0.140613
-0.133079
-0.12427
-0.114292
-0.103327
-0.0916274
-0.0795159
-0.0673766
-0.0556483
-0.0448129
-0.0353849
-0.0279077
-0.0229093
-0.0208455
-0.0220241
-0.026487
-0.0338083
-0.043038
-0.0527015
-0.0610127
-0.0659381
-0.0663867
-0.0624884
-0.0553016
-0.0461684
-0.0363065
-0.0266334
-0.017769
-0.0100591
-0.00368999
0.00129877
0.00489768
0.00719137
0.00826063
0.00829847
0.00753471
0.00632099
0.0049408
0.00367862
0.00263319
0.00186503
0.00131372
0.000892789
0.000561377
0.000159146
-0.128369
-0.136436
-0.140856
-0.142783
-0.143961
-0.145266
-0.146711
-0.147954
-0.14868
-0.14872
-0.148005
-0.146489
-0.144122
-0.140807
-0.136453
-0.131
-0.124429
-0.116774
-0.108124
-0.0986266
-0.0884915
-0.077987
-0.0674371
-0.0572145
-0.047732
-0.0394225
-0.0327388
-0.0281094
-0.0259037
-0.02635
-0.0294563
-0.0348748
-0.0418368
-0.049082
-0.0555071
-0.0593309
-0.0596932
-0.056551
-0.0506077
-0.0428684
-0.0343187
-0.0257554
-0.017757
-0.0106799
-0.00473737
-7.04287e-06
0.00347609
0.00576949
0.00694018
0.00716071
0.00663126
0.00566064
0.00449803
0.00339866
0.00246416
0.00175532
0.00123912
0.000834496
0.000521982
0.00014578
-0.118493
-0.125896
-0.130076
-0.131985
-0.133152
-0.134377
-0.135703
-0.136837
-0.137503
-0.137548
-0.136915
-0.135572
-0.133463
-0.130546
-0.126749
-0.122016
-0.116334
-0.109732
-0.102284
-0.0941112
-0.0853865
-0.0763321
-0.0672182
-0.0583578
-0.0500982
-0.0428014
-0.0368378
-0.0325483
-0.0302376
-0.0300757
-0.0320506
-0.0358823
-0.0409728
-0.0464774
-0.0510558
-0.0538566
-0.0540261
-0.0514095
-0.0464484
-0.0398765
-0.0324747
-0.0249189
-0.0177331
-0.0112674
-0.00574911
-0.00128328
0.00207456
0.00435773
0.00561909
0.00600902
0.00570066
0.00496228
0.00401225
0.00307721
0.00225953
0.00161939
0.00114612
0.000766461
0.000477166
0.000131857
-0.109111
-0.115851
-0.119768
-0.121636
-0.122789
-0.123951
-0.125184
-0.126242
-0.12688
-0.126961
-0.126436
-0.125278
-0.123456
-0.120938
-0.117668
-0.113604
-0.108737
-0.10309
-0.0967248
-0.0897411
-0.08228
-0.0745244
-0.0666972
-0.0590571
-0.0518951
-0.0455131
-0.0402068
-0.0362294
-0.033852
-0.0331986
-0.0342467
-0.0367709
-0.0402912
-0.0441602
-0.0474221
-0.049338
-0.0492594
-0.0469931
-0.0427968
-0.0371918
-0.0307835
-0.0241322
-0.0177001
-0.0118184
-0.00671699
-0.00251859
0.000705668
0.00296824
0.004308
0.00485269
0.00475058
0.00423204
0.00348765
0.00271667
0.00202025
0.00145711
0.00103433
0.000687895
0.000426611
0.000116834
-0.100238
-0.106352
-0.109994
-0.111798
-0.112927
-0.114035
-0.115194
-0.116196
-0.116828
-0.116965
-0.116565
-0.11561
-0.114077
-0.111935
-0.109161
-0.105714
-0.101587
-0.096802
-0.0914067
-0.0854832
-0.0791467
-0.0725459
-0.0658626
-0.0593085
-0.0531228
-0.047558
-0.0428662
-0.0391711
-0.0367655
-0.0357288
-0.0360349
-0.037498
-0.0397512
-0.0422968
-0.0444571
-0.0456141
-0.0452691
-0.0432258
-0.0396185
-0.0348067
-0.0292498
-0.0234021
-0.0176614
-0.0123311
-0.00763415
-0.00370291
-0.000619069
0.00161246
0.00301732
0.003701
0.00378892
0.00347646
0.00292907
0.00232021
0.00174795
0.00126887
0.000903641
0.000598186
0.000370047
0.000100258
-0.0919275
-0.097432
-0.100784
-0.102505
-0.103604
-0.104664
-0.10576
-0.106721
-0.107358
-0.107561
-0.107292
-0.10654
-0.105289
-0.103509
-0.101182
-0.0982973
-0.0948414
-0.0908274
-0.0862958
-0.0813123
-0.0759699
-0.0703886
-0.0647157
-0.0591217
-0.0537951
-0.0489341
-0.044703
-0.0413907
-0.0390138
-0.037692
-0.0374141
-0.038033
-0.0392869
-0.0407817
-0.0420289
-0.0425441
-0.0419396
-0.0400309
-0.0368736
-0.0327078
-0.0278741
-0.0227334
-0.0176199
-0.0128041
-0.00849523
-0.00482772
-0.00188943
0.000300937
0.00175692
0.00256306
0.00282369
0.00270245
0.0023419
0.00189156
0.00144484
0.00105551
0.000754245
0.000496937
0.000307271
8.1789e-05
-0.0841737
-0.0890913
-0.0921514
-0.0937787
-0.0948423
-0.0958567
-0.0968994
-0.097826
-0.0984732
-0.0987442
-0.0986045
-0.0980453
-0.0970567
-0.0956179
-0.0937066
-0.0913207
-0.0884575
-0.0851323
-0.0813659
-0.0772108
-0.0727416
-0.0680548
-0.0632684
-0.0585185
-0.0539543
-0.0497333
-0.0460142
-0.0429551
-0.0406425
-0.0391216
-0.0383983
-0.0383716
-0.0388398
-0.0395099
-0.0400205
-0.0400062
-0.0391655
-0.0373338
-0.0345197
-0.030877
-0.0266531
-0.0221286
-0.0175784
-0.0132374
-0.00929638
-0.0058862
-0.0030967
-0.000956957
0.000536031
0.0014476
0.00186294
0.00191715
0.00173199
0.00143499
0.00111365
0.000818367
0.00058668
0.000383999
0.000238175
6.11952e-05
-0.0769511
-0.0813252
-0.0841037
-0.0856314
-0.0866543
-0.0876245
-0.0886178
-0.0895142
-0.0901726
-0.0905078
-0.0904886
-0.0901084
-0.0893608
-0.0882327
-0.0867055
-0.0847632
-0.0824027
-0.0796953
-0.0766012
-0.0731695
-0.0694618
-0.0655547
-0.0615417
-0.0575294
-0.0536362
-0.0499879
-0.0467085
-0.0439084
-0.0416666
-0.0400355
-0.0390025
-0.0384939
-0.0383651
-0.0383995
-0.0383338
-0.0378952
-0.0368517
-0.0350632
-0.032512
-0.0292924
-0.0255798
-0.021588
-0.0175388
-0.0136315
-0.0100352
-0.00687324
-0.00423381
-0.00215317
-0.000637026
0.000362893
0.000914573
0.0011278
0.00110552
0.000955261
0.000757655
0.00055925
0.000401841
0.000259509
0.000162776
3.83556e-05
-0.0702537
-0.0741286
-0.0766382
-0.0780627
-0.0790406
-0.0799666
-0.080913
-0.0817804
-0.0824475
-0.0828396
-0.082929
-0.0827102
-0.0821797
-0.0813282
-0.0801443
-0.0786202
-0.0767637
-0.0745298
-0.0719986
-0.0691877
-0.0661373
-0.062905
-0.0595625
-0.0561925
-0.052888
-0.0497468
-0.0468628
-0.0443209
-0.0421879
-0.0405017
-0.0392572
-0.0384025
-0.0378328
-0.0373916
-0.036888
-0.0361207
-0.0349139
-0.0331522
-0.0308058
-0.0279291
-0.0246438
-0.0211098
-0.0175024
-0.0139871
-0.0107107
-0.00778545
-0.00529544
-0.00328109
-0.00175496
-0.000683468
-1.37903e-05
0.000341675
0.000468957
0.000457531
0.000380607
0.000280475
0.000201014
0.00012391
8.12343e-05
1.32506e-05
-0.06407
-0.0674858
-0.0697407
-0.0710617
-0.071992
-0.0728738
-0.0737746
-0.0746125
-0.0752838
-0.0757234
-0.0759066
-0.0758288
-0.0754876
-0.0748759
-0.073984
-0.072804
-0.0713328
-0.0695706
-0.0675389
-0.0652646
-0.0627798
-0.0601282
-0.0573641
-0.054551
-0.0517605
-0.0490666
-0.0465415
-0.0442512
-0.0422481
-0.0405619
-0.0391925
-0.0381045
-0.0372242
-0.0364406
-0.0356168
-0.0346061
-0.0332775
-0.0315387
-0.0293568
-0.0267604
-0.0238322
-0.0206898
-0.0174693
-0.0143055
-0.0113228
-0.008621
-0.00627791
-0.00433562
-0.00281163
-0.00168466
-0.000914952
-0.000434104
-0.00017114
-5.27029e-05
-1.3311e-05
-1.5187e-05
-1.41152e-05
-2.20101e-05
-6.12034e-06
-1.40529e-05
-0.0583743
-0.0613735
-0.0633917
-0.0646116
-0.0654929
-0.0663305
-0.0671864
-0.0679934
-0.0686633
-0.0691399
-0.0694011
-0.0694428
-0.069263
-0.0688562
-0.0682142
-0.0673296
-0.0661995
-0.0648268
-0.0632233
-0.0614083
-0.0594073
-0.0572521
-0.0549846
-0.0526525
-0.0503091
-0.0480105
-0.045812
-0.0437637
-0.0419063
-0.0402642
-0.0388403
-0.0376115
-0.0365279
-0.0355117
-0.0344666
-0.0332874
-0.0318779
-0.0301666
-0.0281225
-0.0257585
-0.02313
-0.020322
-0.0174387
-0.0145876
-0.0118723
-0.00937942
-0.00717911
-0.00531313
-0.00380212
-0.00263474
-0.00178228
-0.00119267
-0.000808197
-0.000569723
-0.000419539
-0.000324526
-0.00024149
-0.00017714
-9.87532e-05
-4.33981e-05
-0.0531421
-0.0557674
-0.0575681
-0.0586908
-0.0595226
-0.0603161
-0.0611274
-0.0619017
-0.0625645
-0.0630673
-0.0633908
-0.0635309
-0.063486
-0.0632515
-0.0628204
-0.0621861
-0.0613455
-0.0603003
-0.0590576
-0.0576312
-0.0560402
-0.0543087
-0.0524654
-0.0505464
-0.0485911
-0.0466414
-0.044739
-0.0429218
-0.0412215
-0.0396577
-0.0382352
-0.03694
-0.0357392
-0.0345798
-0.0333953
-0.0321117
-0.0306598
-0.0289858
-0.027063
-0.0248959
-0.022521
-0.0199989
-0.0174085
-0.0148341
-0.0123605
-0.0100614
-0.00799834
-0.0062114
-0.00472273
-0.00352876
-0.0026098
-0.00192754
-0.00143575
-0.00108771
-0.000833255
-0.000643936
-0.000478657
-0.000340077
-0.000195965
-7.45358e-05
-0.0483505
-0.0506415
-0.0522438
-0.053274
-0.0540565
-0.0548063
-0.0555734
-0.0563132
-0.0569634
-0.0574823
-0.057853
-0.0580716
-0.0581367
-0.0580443
-0.0577882
-0.0573624
-0.0567635
-0.0559916
-0.0550511
-0.0539509
-0.0527043
-0.0513298
-0.0498476
-0.0482819
-0.0466625
-0.0450207
-0.0433866
-0.0417888
-0.0402517
-0.0387913
-0.037413
-0.0361093
-0.0348593
-0.0336281
-0.032371
-0.0310368
-0.0295772
-0.0279526
-0.0261422
-0.024146
-0.0219882
-0.0197119
-0.0173758
-0.0150456
-0.0127893
-0.0106683
-0.00873607
-0.00702947
-0.00557095
-0.00436273
-0.00339234
-0.00263275
-0.00204759
-0.00160081
-0.00124946
-0.000969563
-0.000722825
-0.000509045
-0.00029688
-0.000107176
-0.0439739
-0.0459676
-0.0473902
-0.0483336
-0.0490679
-0.0497746
-0.050498
-0.051202
-0.0518345
-0.0523604
-0.0527646
-0.0530437
-0.053196
-0.053218
-0.0531044
-0.0528494
-0.0524495
-0.0519033
-0.0512133
-0.0503846
-0.0494262
-0.0483503
-0.0471725
-0.045908
-0.0445795
-0.0432081
-0.041816
-0.0404247
-0.0390526
-0.0377123
-0.0364096
-0.035141
-0.0338943
-0.0326471
-0.0313703
-0.0300297
-0.0285922
-0.0270301
-0.0253279
-0.0234842
-0.0215152
-0.0194517
-0.0173372
-0.0152221
-0.0131603
-0.0112025
-0.00939373
-0.00776749
-0.00634538
-0.00513371
-0.00412553
-0.00330296
-0.0026379
-0.00210334
-0.00166303
-0.00129729
-0.000971042
-0.000682047
-0.000400352
-0.000140944
-0.0399867
-0.0417176
-0.0429785
-0.0438412
-0.0445288
-0.0451935
-0.0458739
-0.0465411
-0.047152
-0.0476768
-0.0481026
-0.0484259
-0.0486452
-0.0487573
-0.0487573
-0.04864
-0.0484013
-0.0480393
-0.0475545
-0.0469496
-0.0462298
-0.0454026
-0.0444783
-0.0434716
-0.0423937
-0.0412594
-0.0400849
-0.038886
-0.0376764
-0.0364661
-0.0352604
-0.0340587
-0.0328541
-0.0316333
-0.0303779
-0.0290657
-0.0276753
-0.0261878
-0.0245925
-0.0228884
-0.0210865
-0.0192092
-0.0172885
-0.0153632
-0.0134754
-0.0116664
-0.00997353
-0.00842659
-0.00704566
-0.00583971
-0.0048059
-0.00393352
-0.00320134
-0.00258991
-0.00206899
-0.00162286
-0.00122
-0.000856993
-0.000505223
-0.00017536
-0.0363643
-0.0378642
-0.0389804
-0.0397685
-0.0404113
-0.0410354
-0.0416739
-0.0423039
-0.04289
-0.0434072
-0.0438443
-0.0441981
-0.0444669
-0.0446478
-0.0447364
-0.0447278
-0.044618
-0.0444043
-0.0440859
-0.0436637
-0.0431404
-0.0425206
-0.0418105
-0.0410187
-0.0401542
-0.0392266
-0.0382465
-0.0372251
-0.0361723
-0.0350959
-0.0340005
-0.032887
-0.0317522
-0.0305884
-0.0293849
-0.0281279
-0.0268041
-0.0254015
-0.0239134
-0.0223396
-0.0206883
-0.0189757
-0.0172261
-0.0154687
-0.0137366
-0.0120629
-0.0104783
-0.0090087
-0.00767235
-0.00647971
-0.00543084
-0.00452057
-0.00373318
-0.00305543
-0.00246247
-0.00194216
-0.00146634
-0.00103133
-0.000610197
-0.000210031
-0.0330838
-0.034381
-0.0353684
-0.0360881
-0.0366884
-0.0372735
-0.0378716
-0.0384647
-0.0390237
-0.0395281
-0.0399681
-0.0403406
-0.0406442
-0.040876
-0.0410321
-0.0411078
-0.0410992
-0.0410033
-0.0408183
-0.0405438
-0.0401807
-0.039731
-0.0391983
-0.0385875
-0.0379053
-0.0371571
-0.0363496
-0.03549
-0.0345856
-0.0336421
-0.0326635
-0.0316512
-0.0306042