/*--------------------------------*- C++ -*----------------------------------*\
| =========                 |                                                 |
| \\      /  F ield         | OpenFOAM: The Open Source CFD Toolbox           |
|  \\    /   O peration     | Version:  2512                                  |
|   \\  /    A nd           | Website:  www.openfoam.com                      |
|    \\/     M anipulation  |                                                 |
\*---------------------------------------------------------------------------*/
FoamFile
{
    version     2.0;
    format      ascii;
    arch        "LSB;label=32;scalar=64";
    class       volScalarField;
    location    "79";
    object      p;
}
// * * * * * * * * * * * * * * * * * * * * * * * * * * * * * * * * * * * * * //

dimensions      [0 2 -2 0 0 0 0];

internalField   nonuniform List<scalar> 
13248
(
-0.381068
-0.378959
-0.376816
-0.374722
-0.372718
-0.370836
-0.368996
-0.367021
-0.364662
-0.361629
-0.357621
-0.352362
-0.345635
-0.33731
-0.327363
-0.315874
-0.303022
-0.289055
-0.274258
-0.258942
-0.243322
-0.227751
-0.211823
-0.196144
-0.389403
-0.386524
-0.383556
-0.380595
-0.377684
-0.374866
-0.372057
-0.369053
-0.365574
-0.361308
-0.355958
-0.349284
-0.341139
-0.331487
-0.320405
-0.308066
-0.294711
-0.280613
-0.26605
-0.251278
-0.236499
-0.221916
-0.207443
-0.193566
-0.398727
-0.394965
-0.391109
-0.387247
-0.383391
-0.379577
-0.375692
-0.371495
-0.366675
-0.36092
-0.353973
-0.345671
-0.335975
-0.324961
-0.312806
-0.299748
-0.286053
-0.271984
-0.257773
-0.243619
-0.229658
-0.216042
-0.202694
-0.189846
-0.409362
-0.404568
-0.39976
-0.394965
-0.390117
-0.385206
-0.380072
-0.374429
-0.367959
-0.360395
-0.351569
-0.341447
-0.330116
-0.317766
-0.304641
-0.291005
-0.277107
-0.263158
-0.249329
-0.235748
-0.222506
-0.209699
-0.197258
-0.185449
-0.421496
-0.415516
-0.409684
-0.40391
-0.39798
-0.391803
-0.385158
-0.377736
-0.369263
-0.359576
-0.348658
-0.336625
-0.323691
-0.310121
-0.296182
-0.282113
-0.26811
-0.254316
-0.240835
-0.227739
-0.215077
-0.202891
-0.191136
-0.179999
-0.435153
-0.427849
-0.420928
-0.414101
-0.406933
-0.399225
-0.390708
-0.381107
-0.370266
-0.358197
-0.345065
-0.331133
-0.316703
-0.302061
-0.287447
-0.273042
-0.25897
-0.24531
-0.23211
-0.219396
-0.207185
-0.195486
-0.184268
-0.173663
-0.450167
-0.441453
-0.433383
-0.425382
-0.416729
-0.407114
-0.396281
-0.384077
-0.370552
-0.355942
-0.34059
-0.324866
-0.309098
-0.293539
-0.278367
-0.263689
-0.24956
-0.236003
-0.223023
-0.210613
-0.198763
-0.187459
-0.176682
-0.166486
-0.466174
-0.456028
-0.446752
-0.437393
-0.426902
-0.414908
-0.401273
-0.386084
-0.369666
-0.352483
-0.335015
-0.317668
-0.300735
-0.284402
-0.268764
-0.253854
-0.23967
-0.226191
-0.213388
-0.201229
-0.189685
-0.178726
-0.168336
-0.158493
-0.482595
-0.471069
-0.46052
-0.449536
-0.436759
-0.421866
-0.404985
-0.386547
-0.367177
-0.347527
-0.328134
-0.309372
-0.291456
-0.27448
-0.258457
-0.243359
-0.229135
-0.21573
-0.203088
-0.191158
-0.179893
-0.169258
-0.159224
-0.149706
-0.498627
-0.485831
-0.473914
-0.460959
-0.445394
-0.42712
-0.406681
-0.384912
-0.362705
-0.340811
-0.319747
-0.299798
-0.281075
-0.26358
-0.247257
-0.232022
-0.217789
-0.204475
-0.192002
-0.180302
-0.169316
-0.158998
-0.149297
-0.140097
-0.513257
-0.499336
-0.485905
-0.470568
-0.451727
-0.429706
-0.405582
-0.380583
-0.355783
-0.33194
-0.30948
-0.288569
-0.269213
-0.251328
-0.234797
-0.219498
-0.205312
-0.192133
-0.179867
-0.16843
-0.157751
-0.147772
-0.138407
-0.12955
-0.525361
-0.5105
-0.495388
-0.47724
-0.454674
-0.428643
-0.400822
-0.37278
-0.345675
-0.320186
-0.296603
-0.27496
-0.255156
-0.237034
-0.220425
-0.205169
-0.191126
-0.178167
-0.166185
-0.155083
-0.144783
-0.135211
-0.126254
-0.11786
-0.311032
-0.313294
-0.314682
-0.315578
-0.316333
-0.317054
-0.31779
-0.318568
-0.319395
-0.320263
-0.321162
-0.322083
-0.323017
-0.323959
-0.32491
-0.325871
-0.326847
-0.327845
-0.328877
-0.329959
-0.331088
-0.332219
-0.333381
-0.334955
-0.312191
-0.314818
-0.316451
-0.317536
-0.318462
-0.319326
-0.320164
-0.320985
-0.321776
-0.322506
-0.323137
-0.323628
-0.323932
-0.324006
-0.323803
-0.323281
-0.322399
-0.321122
-0.319428
-0.317314
-0.31475
-0.311637
-0.308083
-0.305082
-0.314589
-0.317414
-0.319204
-0.320434
-0.321505
-0.322502
-0.323441
-0.324313
-0.325084
-0.325698
-0.326089
-0.32618
-0.325887
-0.325122
-0.323794
-0.321811
-0.319085
-0.315533
-0.311097
-0.305747
-0.299433
-0.292004
-0.283595
-0.27584
-0.318315
-0.321152
-0.322996
-0.324318
-0.325502
-0.326616
-0.327655
-0.328591
-0.329366
-0.329901
-0.330101
-0.329854
-0.32904
-0.327528
-0.325182
-0.321865
-0.317442
-0.311788
-0.304804
-0.296436
-0.286635
-0.27524
-0.262285
-0.249777
-0.323311
-0.325971
-0.327759
-0.329107
-0.330361
-0.331564
-0.332693
-0.333696
-0.334494
-0.334983
-0.33504
-0.334523
-0.333276
-0.33113
-0.32791
-0.323437
-0.31754
-0.310059
-0.300864
-0.289874
-0.277061
-0.262325
-0.245483
-0.228074
-0.329387
-0.331697
-0.333316
-0.334612
-0.335874
-0.337119
-0.338303
-0.339351
-0.340165
-0.340616
-0.340554
-0.339809
-0.338193
-0.335505
-0.331537
-0.326083
-0.318946
-0.309953
-0.298964
-0.285891
-0.270726
-0.253488
-0.233967
-0.212327
-0.336254
-0.338073
-0.339414
-0.340568
-0.34175
-0.342959
-0.344129
-0.345166
-0.345944
-0.346317
-0.346107
-0.345118
-0.343136
-0.339933
-0.335279
-0.328952
-0.320751
-0.310515
-0.29813
-0.283547
-0.266805
-0.247971
-0.227258
-0.203752
-0.343585
-0.344814
-0.345775
-0.346677
-0.347668
-0.348727
-0.349772
-0.350691
-0.351336
-0.351534
-0.351086
-0.349772
-0.347354
-0.343587
-0.33823
-0.331063
-0.321905
-0.310629
-0.297182
-0.281591
-0.264014
-0.244464
-0.224116
-0.200105
-0.351084
-0.351668
-0.352154
-0.352684
-0.353345
-0.354109
-0.354884
-0.355538
-0.355905
-0.355788
-0.354964
-0.353193
-0.35022
-0.34579
-0.33967
-0.33166
-0.321622
-0.309494
-0.295307
-0.27917
-0.261412
-0.241914
-0.222618
-0.199738
-0.35855
-0.358471
-0.358399
-0.358428
-0.35861
-0.358916
-0.359253
-0.359474
-0.359395
-0.358796
-0.357435
-0.355052
-0.351382
-0.346178
-0.339226
-0.330374
-0.319546
-0.306766
-0.29216
-0.275925
-0.258492
-0.239777
-0.221668
-0.200961
-0.365934
-0.36519
-0.364484
-0.363887
-0.363438
-0.363122
-0.362847
-0.362462
-0.361763
-0.360512
-0.358443
-0.355285
-0.350775
-0.344683
-0.336839
-0.327151
-0.315626
-0.302375
-0.287606
-0.271611
-0.254804
-0.237362
-0.220493
-0.202036
-0.373354
-0.371938
-0.370529
-0.3692
-0.36799
-0.366909
-0.36588
-0.364739
-0.363265
-0.361196
-0.358251
-0.354147
-0.348636
-0.341523
-0.3327
-0.322153
-0.309974
-0.296351
-0.281539
-0.26587
-0.24966
-0.233344
-0.217595
-0.202262
-0.337553
-0.340763
-0.343184
-0.343879
-0.341951
-0.336365
-0.326423
-0.311526
-0.291797
-0.268359
-0.243277
-0.218593
-0.197393
-0.182607
-0.176469
-0.180032
-0.192242
-0.209324
-0.22506
-0.23193
-0.22571
-0.204002
-0.172056
-0.138225
-0.109461
-0.0891639
-0.0776877
-0.0737228
-0.0764602
-0.087088
-0.105315
-0.124458
-0.133877
-0.127677
-0.109746
-0.0885984
-0.0719497
-0.0625304
-0.05898
-0.0615717
-0.0726617
-0.0888374
-0.0986082
-0.0935908
-0.0786528
-0.0627485
-0.0510105
-0.0435566
-0.0421541
-0.0455288
-0.046977
-0.0446823
-0.0403046
-0.0346879
-0.0301507
-0.0284006
-0.0251022
-0.0247479
-0.020604
-0.0066165
-0.303008
-0.301007
-0.298818
-0.295676
-0.290912
-0.284316
-0.275114
-0.26287
-0.247566
-0.230088
-0.212744
-0.19605
-0.183429
-0.177565
-0.180319
-0.191979
-0.210601
-0.231812
-0.249398
-0.25666
-0.247288
-0.221691
-0.185243
-0.147027
-0.114387
-0.0906218
-0.0758935
-0.0688708
-0.0684574
-0.0753535
-0.089739
-0.106348
-0.115823
-0.112038
-0.0980764
-0.0808963
-0.067862
-0.0614968
-0.0604901
-0.0657029
-0.0795639
-0.0980319
-0.108694
-0.10253
-0.0851065
-0.0661032
-0.051764
-0.0420897
-0.0386839
-0.0399748
-0.0404083
-0.0386989
-0.0358102
-0.0324118
-0.0297704
-0.030563
-0.0285917
-0.0288284
-0.024355
-0.00788598
-0.269432
-0.261843
-0.25476
-0.247475
-0.239624
-0.230954
-0.221862
-0.211723
-0.200241
-0.18849
-0.177904
-0.169629
-0.165948
-0.169054
-0.180275
-0.199113
-0.222923
-0.247155
-0.265918
-0.272854
-0.262183
-0.234009
-0.194428
-0.153069
-0.117536
-0.0910595
-0.0735947
-0.0637828
-0.0603846
-0.0636732
-0.0741927
-0.0881067
-0.0973215
-0.0955675
-0.0855364
-0.0723041
-0.0629223
-0.0596543
-0.0612574
-0.0691061
-0.0856135
-0.106196
-0.117707
-0.110585
-0.0909368
-0.0690346
-0.0522256
-0.0405217
-0.0353489
-0.0347676
-0.0342261
-0.0328949
-0.0312867
-0.0300132
-0.0293038
-0.0327607
-0.0321334
-0.0328486
-0.0280297
-0.00914392
-0.239936
-0.226842
-0.215064
-0.203694
-0.192855
-0.181841
-0.172172
-0.163477
-0.155062
-0.147995
-0.143799
-0.14295
-0.147366
-0.158411
-0.176675
-0.201062
-0.228612
-0.25489
-0.274477
-0.281444
-0.270261
-0.240795
-0.199534
-0.156384
-0.119045
-0.0906639
-0.0710678
-0.0588719
-0.0527921
-0.0527399
-0.0594768
-0.0705154
-0.0790607
-0.0786734
-0.0725435
-0.0630718
-0.0572384
-0.0569783
-0.061128
-0.0714921
-0.090462
-0.113022
-0.125423
-0.117594
-0.0960284
-0.0715095
-0.0524124
-0.0388848
-0.0321945
-0.0299777
-0.0285048
-0.0273423
-0.0267882
-0.0275201
-0.0287508
-0.0349829
-0.0357085
-0.0367758
-0.0315951
-0.0103785
-0.216692
-0.198582
-0.18274
-0.16775
-0.154375
-0.142065
-0.130257
-0.121946
-0.116911
-0.113731
-0.113947
-0.118967
-0.129643
-0.14671
-0.170075
-0.198199
-0.228044
-0.255464
-0.275594
-0.282791
-0.27178
-0.242282
-0.20084
-0.157315
-0.119268
-0.089728
-0.0685572
-0.0544216
-0.0460454
-0.0430454
-0.0461844
-0.0542299
-0.0617791
-0.061726
-0.0595331
-0.0534319
-0.0508863
-0.0534182
-0.0599429
-0.0726307
-0.0938703
-0.118292
-0.131636
-0.123389
-0.100288
-0.0735175
-0.0523602
-0.0372159
-0.0292431
-0.0256366
-0.0232965
-0.0221125
-0.0223722
-0.024958
-0.0281089
-0.0372155
-0.0392935
-0.0405719
-0.035017
-0.0115776
-0.200508
-0.178687
-0.159269
-0.141537
-0.125647
-0.11183
-0.0992555
-0.0917851
-0.0875899
-0.086908
-0.0905893
-0.0994566
-0.114165
-0.134977
-0.161321
-0.191418
-0.222258
-0.249992
-0.270201
-0.277812
-0.26742
-0.238913
-0.198706
-0.156203
-0.118507
-0.0885179
-0.0662684
-0.050607
-0.0403132
-0.0348441
-0.0347491
-0.0397888
-0.0462898
-0.051465
-0.0470678
-0.0436291
-0.0439563
-0.0489692
-0.057635
-0.0724048
-0.0956944
-0.121849
-0.136185
-0.127841
-0.103644
-0.0750468
-0.0520979
-0.0355404
-0.0264978
-0.0217458
-0.0186286
-0.0172669
-0.0180923
-0.0223502
-0.0273729
-0.0394376
-0.0428582
-0.0441985
-0.0382648
-0.0127294
-0.19108
-0.168447
-0.145866
-0.125742
-0.107677
-0.091801
-0.0785074
-0.071826
-0.0683088
-0.0688628
-0.0742262
-0.0850109
-0.10163
-0.124025
-0.151394
-0.181892
-0.212625
-0.240016
-0.260041
-0.267679
-0.25819
-0.231533
-0.193765
-0.153468
-0.117049
-0.0872489
-0.0643568
-0.0475298
-0.0356695
-0.0281553
-0.025295
-0.0274239
-0.0322354
-0.0363806
-0.0348962
-0.033899
-0.0366043
-0.0437179
-0.0542131
-0.0707541
-0.0958538
-0.12359
-0.138966
-0.13088
-0.106038
-0.0760784
-0.0516437
-0.0338757
-0.0239505
-0.0182758
-0.0144966
-0.0128604
-0.0139964
-0.0197171
-0.0265344
-0.041623
-0.0463703
-0.0476219
-0.0413098
-0.0138222
-0.187265
-0.165377
-0.14167
-0.120049
-0.100863
-0.0840839
-0.0696495
-0.0621827
-0.0582803
-0.0587929
-0.0643463
-0.0754032
-0.0921466
-0.114345
-0.141133
-0.170742
-0.200456
-0.226921
-0.246131
-0.253547
-0.245152
-0.221027
-0.186636
-0.149445
-0.115031
-0.0859722
-0.0628358
-0.045169
-0.032077
-0.0229124
-0.0177693
-0.0172086
-0.0200836
-0.0233508
-0.0236216
-0.0245259
-0.0290446
-0.0377958
-0.0497513
-0.0677079
-0.0943083
-0.123494
-0.139964
-0.132472
-0.107442
-0.0766043
-0.0510186
-0.0322387
-0.0215975
-0.0151948
-0.0108667
-0.00892526
-0.0101261
-0.0170779
-0.0255821
-0.0437412
-0.049796
-0.0508123
-0.0441232
-0.0148456
-0.186979
-0.166743
-0.143898
-0.122173
-0.102753
-0.0864259
-0.0736907
-0.0618962
-0.0562763
-0.0556124
-0.0600946
-0.0700459
-0.0854899
-0.106113
-0.131073
-0.158717
-0.186638
-0.212137
-0.229588
-0.236506
-0.229378
-0.208337
-0.17799
-0.144508
-0.112616
-0.084755
-0.0617513
-0.0435447
-0.0295233
-0.0190581
-0.0120861
-0.00915699
-0.0100207
-0.012367
-0.0135593
-0.0157615
-0.021506
-0.0313829
-0.0443167
-0.0632553
-0.0911241
-0.121671
-0.139222
-0.132647
-0.107896
-0.0767005
-0.0503203
-0.0306953
-0.0194553
-0.0124978
-0.00772263
-0.00546271
-0.00650871
-0.0144474
-0.0244996
-0.0457639
-0.0530959
-0.0537358
-0.0466776
-0.0157928
-0.18846
-0.170497
-0.15023
-0.130123
-0.111341
-0.094425
-0.0801804
-0.0676785
-0.0603828
-0.0579223
-0.0604093
-0.0682359
-0.0813157
-0.0993321
-0.121483
-0.146265
-0.171545
-0.196029
-0.210918
-0.217577
-0.212171
-0.194741
-0.168902
-0.139513
-0.110502
-0.0841935
-0.0616355
-0.0431091
-0.0283413
-0.0168061
-0.00832701
-0.00333829
-0.00216272
-0.00340266
-0.00485904
-0.0077735
-0.0141526
-0.0246334
-0.0381388
-0.057684
-0.0863714
-0.11813
-0.136788
-0.131487
-0.107506
-0.0765051
-0.049717
-0.0293692
-0.0175511
-0.0101539
-0.00508251
-0.00251926
-0.00314387
-0.01184
-0.0232809
-0.0476468
-0.056216
-0.056359
-0.0489419
-0.0166547
-0.188952
-0.172922
-0.155353
-0.136912
-0.118197
-0.101128
-0.0874315
-0.0758328
-0.0679443
-0.0637404
-0.0636486
-0.0686134
-0.0785962
-0.0933298
-0.112152
-0.133623
-0.155671
-0.175725
-0.190102
-0.19728
-0.194131
-0.180809
-0.159872
-0.13489
-0.109033
-0.0845198
-0.0626247
-0.0439319
-0.0285129
-0.0160738
-0.00636042
0.000415558
0.00365212
0.0036983
0.00237583
-0.000778876
-0.00722014
-0.0176989
-0.0311077
-0.0507421
-0.0803745
-0.113421
-0.132666
-0.128873
-0.106052
-0.0757472
-0.0490046
-0.0281433
-0.0157967
-0.0079758
-0.00280368
-0.000153025
-9.84495e-05
-0.00924383
-0.0218687
-0.0493799
-0.0591027
-0.0586513
-0.0508736
-0.0174016
-0.191899
-0.178733
-0.164189
-0.148191
-0.132218
-0.115936
-0.101267
-0.0886211
-0.0787893
-0.0725854
-0.070335
-0.072087
-0.0782777
-0.0887824
-0.103049
-0.11992
-0.137828
-0.153053
-0.168452
-0.174953
-0.173599
-0.164041
-0.147624
-0.126804
-0.104135
-0.0817142
-0.0609882
-0.0427345
-0.0272196
-0.0144335
-0.0041584
0.00374313
0.00872998
0.0100873
0.00883741
0.00543689
-0.000902924
-0.0110948
-0.0241709
-0.0433625
-0.0730511
-0.10669
-0.126722
-0.123961
-0.102726
-0.0732854
-0.047046
-0.0262052
-0.0137932
-0.00564785
-0.000465899
0.00208252
0.00272293
-0.00676593
-0.0203218
-0.0508376
-0.0616986
-0.0605721
-0.0524611
-0.0179861
-0.181516
-0.176917
-0.163544
-0.147405
-0.131852
-0.117604
-0.104484
-0.0929644
-0.0837923
-0.0775484
-0.0744437
-0.0749948
-0.0796292
-0.0882787
-0.100439
-0.115062
-0.130514
-0.1444
-0.15607
-0.16132
-0.159305
-0.149982
-0.134699
-0.115592
-0.0948431
-0.0742276
-0.0549887
-0.0378159
-0.0229523
-0.0104512
-0.000189785
0.00800659
0.0138073
0.0163378
0.0158754
0.0134856
0.00728852
-0.00194648
-0.0141915
-0.0333263
-0.0649146
-0.101968
-0.124475
-0.121826
-0.0992317
-0.0696368
-0.0438231
-0.0233849
-0.011491
-0.00333051
0.00189259
0.00482482
0.006194
-0.00371197
-0.018181
-0.0519235
-0.0643484
-0.0622057
-0.0537586
-0.0184038
-0.171645
-0.169056
-0.156998
-0.142258
-0.12861
-0.116457
-0.105354
-0.0954767
-0.0873627
-0.0815411
-0.0784748
-0.0786107
-0.0821799
-0.0890903
-0.0988628
-0.110576
-0.122863
-0.13369
-0.142048
-0.145307
-0.142508
-0.133785
-0.120219
-0.103452
-0.0851726
-0.0667878
-0.0493482
-0.0334821
-0.0194552
-0.0074474
0.00258857
0.010927
0.0173002
0.0205885
0.0205577
0.0180162
0.0131025
0.00512649
-0.00606169
-0.0248546
-0.0576399
-0.0966226
-0.119635
-0.115844
-0.0933444
-0.0647829
-0.0402564
-0.0206806
-0.00925098
-0.00113925
0.00385442
0.0069491
0.00858292
-0.00135252
-0.0164637
-0.0528134
-0.0667186
-0.0633134
-0.0545148
-0.0186796
-0.161445
-0.159872
-0.149873
-0.137073
-0.125195
-0.114808
-0.105434
-0.0970074
-0.0899342
-0.0847523
-0.0818925
-0.0816403
-0.0841251
-0.0892325
-0.0965228
-0.105244
-0.114268
-0.122336
-0.12799
-0.129698
-0.126708
-0.119025
-0.10733
-0.0927878
-0.0767053
-0.0602464
-0.0443408
-0.0296089
-0.0163426
-0.00476052
0.00507328
0.0133956
0.0200702
0.0239967
0.0246558
0.0226329
0.0184383
0.0113035
0.000561174
-0.0183902
-0.0514326
-0.0899115
-0.112369
-0.108178
-0.0864812
-0.0594859
-0.0364825
-0.0178834
-0.00698829
0.000994667
0.0057602
0.00892575
0.0105697
0.000478512
-0.0152637
-0.0536289
-0.0687581
-0.0639732
-0.0548131
-0.0188712
-0.150121
-0.150181
-0.142431
-0.131618
-0.12138
-0.112527
-0.104648
-0.0975312
-0.0914445
-0.0868289
-0.0840388
-0.0832965
-0.0846894
-0.0881091
-0.0932181
-0.0994388
-0.105876
-0.111461
-0.115117
-0.115763
-0.112718
-0.105864
-0.0956449
-0.0829243
-0.0687271
-0.0540068
-0.0395529
-0.0259401
-0.0134675
-0.00236044
0.00722824
0.0154311
0.0222511
0.0267512
0.0282544
0.0270857
0.0238979
0.0176915
0.00719094
-0.0119162
-0.044325
-0.0816591
-0.103642
-0.0992696
-0.0786836
-0.0535762
-0.0323816
-0.0149815
-0.00472011
0.00307608
0.00763076
0.0107906
0.0124427
0.00213758
-0.0140923
-0.0540762
-0.070364
-0.0641953
-0.0546074
-0.0189411
-0.138878
-0.140441
-0.134646
-0.125664
-0.116945
-0.109448
-0.102864
-0.096905
-0.0916901
-0.0875545
-0.0848085
-0.0836484
-0.0841394
-0.0861942
-0.0895436
-0.093703
-0.0979976
-0.101619
-0.103722
-0.103465
-0.10029
-0.0940614
-0.0850691
-0.0739254
-0.0613981
-0.048246
-0.0351293
-0.0225717
-0.0108844
-0.000288819
0.00902432
0.0170629
0.0238988
0.0288045
0.0311104
0.0310338
0.0292012
0.024298
0.0144121
-0.00443569
-0.035976
-0.0722029
-0.0933755
-0.0890233
-0.0700096
-0.0471756
-0.0280319
-0.0120133
-0.00246581
0.00509078
0.00945914
0.0125146
0.0142112
0.00380292
-0.0126241
-0.0539396
-0.0713849
-0.0638735
-0.0538003
-0.0188451
-0.128228
-0.130644
-0.126459
-0.119159
-0.111863
-0.105587
-0.100128
-0.0951705
-0.0907307
-0.0870547
-0.0844083
-0.0829624
-0.0827667
-0.0837436
-0.085671
-0.0881846
-0.0907616
-0.0928013
-0.0936293
-0.0926149
-0.089325
-0.0836127
-0.0756384
-0.0658183
-0.054721
-0.0429506
-0.0310564
-0.0194994
-0.0085891
0.00145602
0.0104478
0.018295
0.0250533
0.0301983
0.0331562
0.0341831
0.0338986
0.0306943
0.0219141
0.00353803
-0.0271062
-0.0617418
-0.0816541
-0.077629
-0.0606851
-0.0404323
-0.0234968
-0.00900586
-0.000241933
0.00701822
0.0112319
0.0140975
0.0158493
0.00550067
-0.0108095
-0.0530523
-0.0715814
-0.0628707
-0.0523119
-0.0185411
-0.117774
-0.120783
-0.117992
-0.112214
-0.106223
-0.101039
-0.0965546
-0.0924683
-0.0887274
-0.0855001
-0.0830009
-0.0813746
-0.0806638
-0.0808029
-0.0816154
-0.082841
-0.0840793
-0.0848654
-0.084693
-0.0830916
-0.0797149
-0.0744114
-0.0672583
-0.0585391
-0.0486709
-0.0381252
-0.0273511
-0.0167421
-0.0065918
0.00287729
0.0114947
0.0191212
0.0257562
0.0310201
0.0344666
0.0363973
0.0375481
0.0361847
0.0287939
0.0110392
-0.0183183
-0.050536
-0.0687967
-0.0654009
-0.0509821
-0.0335307
-0.0188678
-0.00599431
0.00193539
0.00884204
0.0129393
0.0155501
0.0173372
0.00719888
-0.00866998
-0.0512024
-0.0706838
-0.0610671
-0.0500874
-0.0179894
-0.107539
-0.11107
-0.109441
-0.104973
-0.100132
-0.0959121
-0.092274
-0.0889429
-0.0858238
-0.0830196
-0.0806966
-0.0789773
-0.0779019
-0.077423
-0.0774128
-0.0776543
-0.0778664
-0.0776966
-0.0767665
-0.0747179
-0.0712753
-0.0663011
-0.0598249
-0.0520342
-0.0432282
-0.0337668
-0.0240136
-0.0142996
-0.00489074
0.00398839
0.0121838
0.0195461
0.0260275
0.0313237
0.0350971
0.037653
0.0398597
0.0400488
0.0340606
0.0173493
-0.00995689
-0.0388706
-0.0546051
-0.0527281
-0.0412247
-0.0266808
-0.0142516
-0.00301483
0.00405513
0.0105541
0.0145742
0.0168896
0.0186636
0.00888667
-0.00616223
-0.0481633
-0.0684286
-0.0583609
-0.0471052
-0.0171584
-0.097847
-0.101656
-0.100914
-0.0975407
-0.0936978
-0.0903176
-0.0874096
-0.0847283
-0.082155
-0.0797436
-0.0776196
-0.0758861
-0.0745804
-0.0736671
-0.0730585
-0.0725879
-0.0720447
-0.0711692
-0.0696794
-0.0673052
-0.0638337
-0.0591464
-0.0532427
-0.0462424
-0.0383567
-0.0298573
-0.0210342
-0.0121639
-0.00347782
0.00480649
0.012543
0.0195884
0.025877
0.0311365
0.0351053
0.0380222
0.040756
0.0418837
0.0371185
0.0221282
-0.00216005
-0.0271002
-0.0407617
-0.0402371
-0.031777
-0.0200907
-0.00976147
-0.000106565
0.00611023
0.012156
0.0161336
0.0181468
0.0198438
0.0106115
-0.00320558
-0.0437616
-0.0645942
-0.0546842
-0.043393
-0.0160329
-0.0886895
-0.0925541
-0.0924832
-0.0900205
-0.0870308
-0.0843717
-0.0820866
-0.0799606
-0.0778642
-0.0758158
-0.0739073
-0.0722227
-0.0707971
-0.0696107
-0.0685871
-0.0676163
-0.0665391
-0.0651641
-0.063284
-0.0606985
-0.0572439
-0.0528207
-0.0474126
-0.0410939
-0.0340126
-0.0263712
-0.0183974
-0.0103197
-0.00233608
0.00535276
0.0126051
0.0192866
0.025325
0.0304776
0.0345262
0.0376121
0.04044
0.0418683
0.0380975
0.0254435
0.00495501
-0.0157929
-0.0276808
-0.0285978
-0.0229911
-0.0139404
-0.00550466
0.00268802
0.00809341
0.0136582
0.0176226
0.019377
0.0209408
0.0124627
0.000250466
-0.037924
-0.0590539
-0.0500323
-0.039042
-0.0146214
-0.0799625
-0.0838063
-0.0842475
-0.0825238
-0.0802449
-0.0781926
-0.0764325
-0.0747774
-0.0730948
-0.0713778
-0.0696906
-0.0681007
-0.06664
-0.0652968
-0.0640188
-0.0627221
-0.0612916
-0.0595889
-0.0574629
-0.0547659
-0.0513737
-0.0472055
-0.0422392
-0.0365195
-0.0301491
-0.0232772
-0.0160805
-0.00874615
-0.00144143
0.00565365
0.0124059
0.0186873
0.0244183
0.0293851
0.0334068
0.036528
0.039213
0.0405545
0.0376009
0.0274873
0.0109797
-0.00584326
-0.0161903
-0.0183596
-0.0151313
-0.00835738
-0.00156808
0.00532458
0.00999078
0.0150743
0.0190512
0.0206602
0.022071
0.0145504
0.0042055
-0.0307284
-0.051853
-0.0444754
-0.0342023
-0.012961
-0.0717281
-0.0754812
-0.0762838
-0.0751408
-0.0734419
-0.0718921
-0.0705686
-0.0693086
-0.0679813
-0.0665624
-0.0650947
-0.0636317
-0.0622019
-0.0607988
-0.0593855
-0.0579012
-0.0562635
-0.0543724
-0.0521189
-0.0493951
-0.0461086
-0.0421963
-0.0376354
-0.0324519
-0.0267165
-0.0205391
-0.0140553
-0.00741732
-0.000765145
0.00574315
0.0119854
0.0178375
0.0232144
0.0279284
0.0318295
0.0348841
0.0373293
0.0384502
0.0361534
0.0283277
0.015432
0.00204499
-0.00686483
-0.00980145
-0.0083304
-0.00341082
0.00198822
0.00776134
0.0117781
0.016411
0.0204225
0.0220746
0.023394
0.0170033
0.00860478
-0.022447
-0.0432704
-0.0381695
-0.0290633
-0.0111166
-0.0640247
-0.0675993
-0.0686344
-0.0679412
-0.0667108
-0.0655715
-0.064606
-0.0636732
-0.0626479
-0.0614941
-0.0602383
-0.058922
-0.0575693
-0.0561792
-0.0547238
-0.0531599
-0.051429
-0.0494597
-0.0471738
-0.0444941
-0.0413528
-0.0377021
-0.0335216
-0.0288261
-0.0236645
-0.018118
-0.01229
-0.00630335
-0.000274929
0.00565896
0.0113862
0.0167889
0.0217799
0.0261931
0.0298987
0.0328053
0.0349834
0.0358779
0.0340766
0.0280964
0.0182301
0.00776472
0.000257526
-0.00292828
-0.00260639
0.000877955
0.00512986
0.00996283
0.0134263
0.0176573
0.0217187
0.023648
0.025066
0.0199447
0.0133242
-0.0135435
-0.0338211
-0.0313836
-0.0238518
-0.00917669
-0.0568129
-0.0601616
-0.0613368
-0.060987
-0.0601294
-0.0593202
-0.0586437
-0.0579785
-0.0572068
-0.056286
-0.05523
-0.0540701
-0.052827
-0.0515005
-0.0500721
-0.0485102
-0.0467731
-0.0448105
-0.0425674
-0.0399888
-0.0370261
-0.0336441
-0.0298261
-0.0255812
-0.0209435
-0.0159734
-0.01075
-0.00537181
6.35209e-05
0.00543976
0.0106558
0.0156003
0.0201865
0.0242653
0.0277209
0.0304263
0.0323485
0.0330614
0.0316445
0.0271159
0.0196901
0.0116421
0.00546719
0.00242887
0.00209581
0.00451861
0.00784461
0.0118988
0.0149097
0.0187918
0.0228872
0.0252944
0.0271263
0.0233635
0.0181062
-0.00466116
-0.0241776
-0.0244607
-0.018798
-0.00724348
-0.0500791
-0.0531813
-0.0544246
-0.0543288
-0.0537619
-0.0532139
-0.052767
-0.0523174
-0.051756
-0.0510368
-0.0501647
-0.0491622
-0.0480468
-0.0468207
-0.0454689
-0.043968
-0.0422891
-0.0403971
-0.0382536
-0.0358199
-0.033062
-0.0299546
-0.0264858
-0.0226613
-0.0185059
-0.0140651
-0.00939983
-0.00458916
0.000285524
0.00512582
0.00984175
0.0143295
0.0185043
0.0222317
0.0254065
0.0278861
0.0295857
0.0301842
0.0290983
0.0257128
0.0202076
0.0141174
0.0091722
0.0065011
0.00586862
0.00753935
0.0101381
0.0135463
0.0162021
0.01979
0.0238559
0.0268064
0.0292428
0.026835
0.0224059
0.00345015
-0.0149758
-0.0177366
-0.0140941
-0.00541728
-0.043822
-0.046661
-0.0479153
-0.0480015
-0.0476581
-0.0473136
-0.0470465
-0.0467678
-0.0463786
-0.0458318
-0.0451255
-0.0442757
-0.0432973
-0.0421939
-0.0409512
-0.0395521
-0.0379765
-0.0362005
-0.0341974
-0.0319403
-0.0294058
-0.0265769
-0.0234452
-0.0200157
-0.0163069
-0.012354
-0.0082043
-0.00392155
0.000426392
0.00475643
0.00898931
0.0130306
0.0167998
0.0201745
0.0230584
0.0253111
0.0268316
0.0273809
0.0265978
0.0241205
0.0201093
0.0155823
0.0117144
0.00951771
0.00882005
0.00998
0.0120239
0.0148959
0.0172787
0.0206007
0.0245521
0.0279413
0.0308015
0.0295247
0.0254897
0.0100951
-0.0067104
-0.0115302
-0.00990033
-0.00378869
-0.038022
-0.0405923
-0.0418175
-0.0420299
-0.0418557
-0.0416676
-0.0415387
-0.0413936
-0.0411435
-0.0407423
-0.040184
-0.0394789
-0.038638
-0.0376663
-0.036552
-0.035281
-0.0338386
-0.0322087
-0.0303731
-0.0283135
-0.026014
-0.0234635
-0.0206573
-0.0175999
-0.0143061
-0.0108035
-0.00712991
-0.00333663
0.000519727
0.00436881
0.00814171
0.0117533
0.01513
0.0181646
0.020765
0.0228047
0.024188
0.0247364
0.0242351
0.0224857
0.0196312
0.0163367
0.0134083
0.0116855
0.0110611
0.0118897
0.0135207
0.0159467
0.0181117
0.0211607
0.0248875
0.0284804
0.0313357
0.0307572
0.0269126
0.0148154
0.000186656
-0.00612608
-0.00632618
-0.00242486
-0.0326598
-0.0349663
-0.0361347
-0.03643
-0.0363814
-0.0363113
-0.0362869
-0.0362444
-0.0361052
-0.0358256
-0.0353971
-0.0348262
-0.0341218
-0.0332801
-0.032302
-0.0311731
-0.029881
-0.0284149
-0.0267626
-0.0249118
-0.022852
-0.0205762
-0.0180824
-0.0153755
-0.0124675
-0.00938077
-0.00614581
-0.00280453
0.000595842
0.0039962
0.00733672
0.0105418
0.0135463
0.0162582
0.0185932
0.0204424
0.0217218
0.0223011
0.022059
0.020892
0.0189267
0.0166006
0.0144659
0.0131796
0.0126975
0.013323
0.0146502
0.016703
0.0186698
0.0214197
0.0248014
0.0282989
0.0307151
0.0304578
0.0268203
0.0175371
0.00537194
-0.00172188
-0.00340462
-0.00134992
-0.0277176
-0.0297699
-0.0308633
-0.0312086
-0.0312514
-0.031269
-0.0313219
-0.0313567
-0.0313043
-0.0311244
-0.0308067
-0.0303549
-0.0297729
-0.0290634
-0.0282244
-0.0272439
-0.0261103
-0.0248159
-0.0233534
-0.0217147
-0.019893
-0.0178843
-0.0156884
-0.0133101
-0.0107602
-0.00805681
-0.005225
-0.00229921
0.000681282
0.00366639
0.00660504
0.00943305
0.0120919
0.0145014
0.0165924
0.0182737
0.0194745
0.0201004
0.0200873
0.0193826
0.0181009
0.0165285
0.0150515
0.014142
0.0138257
0.0143362
0.0154373
0.0171745
0.0189405
0.0213562
0.0242859
0.0275017
0.0292416
0.0290501
0.0257132
0.0185827
0.0087761
0.00163051
-0.00109843
-0.000540976
-0.0231744
-0.0249867
-0.025995
-0.0263662
-0.0264741
-0.0265555
-0.0266645
-0.0267562
-0.0267709
-0.026672
-0.0264485
-0.0261022
-0.0256353
-0.0250487
-0.0243433
-0.0235084
-0.0225332
-0.021411
-0.0201374
-0.0187076
-0.0171172
-0.0153642
-0.0134494
-0.0113779
-0.0091589
-0.00680774
-0.00434497
-0.00179911
0.000797318
0.00340205
0.00597208
0.00845301
0.0107934
0.0129274
0.0147975
0.0163298
0.0174679
0.0181411
0.0183199
0.0179808
0.0172211
0.0162272
0.0152713
0.0146859
0.0145317
0.0149832
0.0159137
0.0173787
0.018933
0.0209891
0.0233581
0.0256099
0.0272298
0.0270203
0.024058
0.0184682
0.0106651
0.0040085
0.000673132
5.35901e-05
-0.0190102
-0.0205997
-0.0215185
-0.0218985
-0.0220514
-0.0221782
-0.0223266
-0.0224594
-0.0225252
-0.0224916
-0.0223475
-0.0220934
-0.0217311
-0.0212607
-0.0206771
-0.019979
-0.0191558
-0.0182005
-0.0171095
-0.0158802
-0.01451
-0.0129982
-0.0113462
-0.00955872
-0.00764389
-0.00561468
-0.00348805
-0.00128761
0.000959728
0.00321913
0.00545447
0.00761865
0.00966971
0.0115535
0.0132247
0.0146242
0.0157063
0.0164186
0.0167519
0.016695
0.0163275
0.0157714
0.0152216
0.0149029
0.0148919
0.0153169
0.0161138
0.0173415
0.0186775
0.0203857
0.0222351
0.0240354
0.0250631
0.0247463
0.0221639
0.0176712
0.0114497
0.00555101
0.001989
0.000484815
-0.0152055
-0.0165906
-0.0174197
-0.0177964
-0.0179794
-0.0181377
-0.0183129
-0.0184744
-0.0185783
-0.0185965
-0.0185184
-0.0183434
-0.0180726
-0.0177036
-0.0172334
-0.0166625
-0.0159824
-0.015185
-0.0142665
-0.0132257
-0.0120615
-0.0107739
-0.00936447
-0.00783772
-0.0062005
-0.00446384
-0.00264167
-0.000753316
0.00117904
0.00312642
0.00505959
0.00693938
0.00872983
0.010387
0.0118773
0.0131568
0.0141844
0.0149218
0.0153703
0.0155232
0.0154458
0.0152174
0.014975
0.0148679
0.0149736
0.0153865
0.0160746
0.0170951
0.0182128
0.0195949
0.0209916
0.0223228
0.0228983
0.0224577
0.0202153
0.0165262
0.0115133
0.00642133
0.00282464
0.000787925
-0.0117403
-0.0129401
-0.0136825
-0.0140482
-0.0142501
-0.0144296
-0.0146222
-0.0148029
-0.0149348
-0.0149937
-0.0149699
-0.0148621
-0.0146707
-0.0143941
-0.0140295
-0.0135709
-0.0130186
-0.0123655
-0.0116063
-0.0107395
-0.00976479
-0.00868267
-0.00749481
-0.00620504
-0.00481919
-0.00334643
-0.0017981
-0.000190188
0.00145958
0.00312729
0.00478903
0.00641412
0.00797287
0.00942847
0.0107626
0.0119183
0.0128872
0.0136325
0.0141593
0.0144634
0.0145949
0.0146049
0.0145866
0.014641
0.0148344
0.0152381
0.0158336
0.0166738
0.0175825
0.0186637
0.0196749
0.0205928
0.0208283
0.0202772
0.0183181
0.015238
0.011149
0.00680708
0.00342636
0.00100147
-0.00859539
-0.0096292
-0.0102899
-0.0106398
-0.0108529
-0.0110459
-0.0112489
-0.0114416
-0.0115936
-0.011684
-0.0117043
-0.0116529
-0.0115293
-0.0113323
-0.0110583
-0.010704
-0.0102657
-0.00974183
-0.00912712
-0.00841861
-0.00761579
-0.00671961
-0.00573164
-0.00465511
-0.00349479
-0.00225827
-0.000954679
0.000403071
0.0018007
0.00321903
0.00463892
0.00603508
0.00738559
0.00865908
0.00983453
0.0108834
0.0117925
0.0125318
0.0131053
0.0135108
0.0137857
0.0139606
0.0140998
0.0142702
0.0145245
0.0149156
0.0154294
0.0161121
0.0168292
0.0176423
0.0183351
0.018913
0.0188975
0.0182617
0.0165333
0.0139275
0.0105503
0.00684945
0.00373567
0.00113387
-0.00575271
-0.00663923
-0.00722451
-0.00755619
-0.00777476
-0.00797566
-0.00818408
-0.00838375
-0.00854953
-0.00866406
-0.00871988
-0.00871516
-0.00864925
-0.00852048
-0.00832601
-0.00806196
-0.00772557
-0.00731471
-0.00682772
-0.00626069
-0.0056119
-0.00488202
-0.00407243
-0.00318583
-0.00222606
-0.00119928
-0.00011276
0.00102319
0.00219737
0.00339439
0.00459935
0.00579182
0.00695429
0.00806261
0.00909917
0.0100439
0.0108833
0.0115997
0.0121925
0.0126575
0.0130223
0.0133085
0.0135493
0.0137973