/*--------------------------------*- C++ -*----------------------------------*\
| =========                 |                                                 |
| \\      /  F ield         | OpenFOAM: The Open Source CFD Toolbox           |
|  \\    /   O peration     | Version:  2512                                  |
|   \\  /    A nd           | Website:  www.openfoam.com                      |
|    \\/     M anipulation  |                                                 |
\*---------------------------------------------------------------------------*/
FoamFile
{
    version     2.0;
    format      ascii;
    arch        "LSB;label=32;scalar=64";
    class       surfaceScalarField;
    location    "79";
    object      phi;
}
// * * * * * * * * * * * * * * * * * * * * * * * * * * * * * * * * * * * * * //

dimensions      [0 3 -1 0 0 0 0];

oriented        oriented;

internalField   nonuniform List<scalar> 
26232
(
0.00013174
0.0009015
-0.00103324
0.000625102
0.00151228
-0.00200564
0.00159923
0.00108791
-0.00206203
0.00318584
-0.000301467
-0.00128514
0.00552707
-0.00260912
0.000267891
0.00876743
-0.00580222
0.00256186
0.0130413
-0.00985151
0.00557764
0.0184561
-0.0147163
0.00930148
0.0250736
-0.02033
0.0137126
0.0328926
-0.0265901
0.0187711
0.041838
-0.0333548
0.0244094
0.0517579
-0.0404486
0.0305287
0.0624323
-0.0476746
0.0370002
0.0735905
-0.0548309
0.0436727
0.0849364
-0.0617291
0.0503831
0.0961768
-0.0682101
0.0569697
0.107049
-0.0741569
0.0632847
0.117344
-0.0795014
0.0692062
0.126924
-0.0842239
0.0746443
0.135726
-0.0883565
0.0795546
0.143753
-0.0919442
0.0839172
0.151075
-0.0951256
0.087803
0.157662
-0.0978228
0.0912361
-0.100514
0.0947209
0.163455
0.000174129
0.00072737
0.000839542
0.00084687
0.00214891
-0.000221466
0.00425931
-0.00241186
0.00732838
-0.00567819
0.0115012
-0.00997507
0.0168891
-0.0152394
0.0235453
-0.0213725
0.0314439
-0.0282286
0.0404666
-0.0356128
0.0504042
-0.0432923
0.0609718
-0.0510163
0.0718383
-0.0585411
0.0826619
-0.0656544
0.0931275
-0.0721947
0.10298
-0.0780625
0.112046
-0.0832235
0.120248
-0.0877031
0.127599
-0.0915744
0.134186
-0.0949434
0.140166
-0.0979245
0.145702
-0.100661
0.151048
-0.103169
-0.10585
0.156384
0.000229985
0.000497386
0.00110266
-2.58034e-05
0.00280302
-0.00192183
0.00550827
-0.0051171
0.00937871
-0.00954863
0.0145338
-0.0151301
0.0210222
-0.0217278
0.0287952
-0.0291455
0.0376924
-0.0371258
0.0474471
-0.0453676
0.0577128
-0.053558
0.0681049
-0.0614084
0.0782492
-0.0686855
0.0878281
-0.0752332
0.0966144
-0.080981
0.10449
-0.0859385
0.111448
-0.090181
0.117573
-0.0938282
0.123019
-0.0970201
0.127973
-0.0998978
0.132632
-0.102583
0.13716
-0.10519
0.141727
-0.107735
-0.110485
0.146361
0.000306312
0.000191074
0.00143336
-0.00115285
0.0035884
-0.00407687
0.006954
-0.0084827
0.0116659
-0.0142606
0.0177779
-0.0212421
0.0252277
-0.0291776
0.0338205
-0.0377383
0.0432386
-0.0465439
0.0530795
-0.0552085
0.0629128
-0.0633914
0.0723424
-0.0708379
0.0810586
-0.0774017
0.0888716
-0.0830462
0.0957203
-0.0878297
0.101659
-0.0918771
0.106827
-0.0953489
0.111411
-0.0984118
0.115607
-0.101217
0.119595
-0.103886
0.123522
-0.106509
0.127488
-0.109156
0.131583
-0.11183
-0.114713
0.135811
0.000405708
-0.000214635
0.00183506
-0.00258221
0.00449955
-0.00674136
0.00855994
-0.0125431
0.0140881
-0.0197887
0.0210243
-0.0281782
0.0291533
-0.0373067
0.0381166
-0.0467017
0.0474617
-0.055889
0.0567159
-0.0644626
0.0654627
-0.0721381
0.0734006
-0.0787759
0.080373
-0.084374
0.0863652
-0.0890384
0.091477
-0.0929415
0.09588
-0.0962802
0.0997733
-0.0992422
0.103347
-0.101985
0.106759
-0.104629
0.110128
-0.107255
0.113535
-0.109917
0.117029
-0.112649
0.12065
-0.115452
-0.118438
0.124375
0.00052644
-0.000741075
0.00229658
-0.00435234
0.00549902
-0.0099438
0.0102354
-0.0172795
0.0164674
-0.0260208
0.0239801
-0.0356909
0.0323888
-0.0457154
0.0411976
-0.0555105
0.0498905
-0.0645819
0.0580247
-0.0725968
0.0652972
-0.0794107
0.0715718
-0.0850505
0.0768651
-0.0896674
0.0813064
-0.0934797
0.0850849
-0.0967199
0.0884018
-0.0995972
0.0914372
-0.102278
0.0943324
-0.104881
0.0971882
-0.107485
0.100071
-0.110138
0.103022
-0.112868
0.106064
-0.115691
0.10922
-0.118608
-0.12168
0.112462
0.000663592
-0.00140467
0.00279452
-0.00648328
0.00652408
-0.0136734
0.0118513
-0.0226067
0.0185856
-0.032755
0.0263373
-0.0434426
0.0345763
-0.0539544
0.0427396
-0.0636738
0.0503453
-0.0721875
0.0570715
-0.0793231
0.0627842
-0.0851233
0.0675143
-0.0897806
0.071407
-0.09356
0.0746604
-0.0967332
0.077476
-0.0995355
0.0800259
-0.102147
0.0824405
-0.104692
0.0848097
-0.10725
0.0871911
-0.109866
0.0896198
-0.112566
0.0921161
-0.115365
0.0946907
-0.118266
0.0973535
-0.121271
-0.124406
0.10008
0.000809949
-0.00221462
0.00329721
-0.00897054
0.00749674
-0.0178729
0.0132633
-0.0283733
0.0202289
-0.0397207
0.0278451
-0.0510588
0.0354997
-0.0616089
0.0426546
-0.0708287
0.0489461
-0.078479
0.0542191
-0.084596
0.0585014
-0.0894056
0.0619426
-0.0932219
0.0647461
-0.0963635
0.0671142
-0.0991013
0.0692163
-0.101638
0.0711774
-0.104108
0.0730816
-0.106596
0.0749814
-0.109149
0.076908
-0.111793
0.0788798
-0.114538
0.080907
-0.117392
0.0829948
-0.120354
0.0851479
-0.123424
-0.126606
0.0873481
0.000956648
-0.00317126
0.00376816
-0.011782
0.0083344
-0.0224391
0.0143356
-0.0343745
0.02123
-0.046615
0.0283613
-0.0581901
0.0351193
-0.068367
0.0410709
-0.0767803
0.0460128
-0.0834209
0.0499491
-0.0885323
0.0530229
-0.0924795
0.0554397
-0.0956386
0.0574053
-0.0983291
0.0590912
-0.100787
0.0606222
-0.103169
0.0620805
-0.105567
0.0635165
-0.108032
0.0649594
-0.110592
0.0664261
-0.113259
0.0679266
-0.116039
0.0694664
-0.118932
0.0710485
-0.121936
0.0726739
-0.125049
-0.128264
0.0743314
0.00109351
-0.00426477
0.00416953
-0.0148581
0.0089608
-0.0272304
0.0149632
-0.0403768
0.0214953
-0.0531472
0.0278666
-0.0645614
0.0335462
-0.0740466
0.0382503
-0.0814844
0.0419336
-0.0871042
0.0447183
-0.091317
0.0468073
-0.0945684
0.0484121
-0.0972435
0.0497109
-0.099628
0.0508334
-0.10191
0.051864
-0.104199
0.0528534
-0.106556
0.0538303
-0.109009
0.0548113
-0.111573
0.055806
-0.114254
0.0568202
-0.117053
0.0578571
-0.119968
0.0589182
-0.122997
0.0600031
-0.126134
-0.129367
0.0611064
0.00121031
-0.00547508
0.00446741
-0.0181152
0.00931719
-0.0320802
0.0150861
-0.0461458
0.0210119
-0.0590729
0.0264441
-0.0699936
0.0309821
-0.0785846
0.0344978
-0.0850001
0.0370711
-0.0896775
0.0388933
-0.0931392
0.0401812
-0.0958563
0.0411238
-0.098186
0.0418605
-0.100365
0.0424822
-0.102531
0.0430428
-0.10476
0.0435723
-0.107085
0.0440873
-0.109524
0.0445975
-0.112084
0.0451089
-0.114765
0.0456253
-0.117569
0.0461485
-0.120492
0.0466788
-0.123527
0.047214
-0.126669
-0.129906
0.0477527
0.00130063
-0.00677571
0.00463885
-0.0214534
0.00937122
-0.0368126
0.0146948
-0.0514694
0.0198361
-0.0642142
0.0242435
-0.074401
0.0276648
-0.0820059
0.0301055
-0.0874408
0.0317276
-0.0912996
0.0327482
-0.0941599
0.0333696
-0.0964776
0.0337456
-0.0985621
0.0339785
-0.100598
0.0341287
-0.102682
0.0342293
-0.10486
0.0342978
-0.107154
0.034344
-0.109571
0.0343742
-0.112114
0.0343926
-0.114784
0.0344021
-0.117579
0.0344043
-0.120494
0.0343991
-0.123522
0.0343835
-0.126654
0.0343582
-0.12988
-0.000249435
-0.000597559
0.000846995
-0.000866669
-0.00184234
0.00245958
-0.0017747
-0.00308999
0.00399802
-0.00291691
-0.00427578
0.00541799
-0.00424864
-0.00536878
0.00670051
-0.00573339
-0.00637158
0.00785633
-0.00734071
-0.00731028
0.00891759
-0.00904502
-0.00822246
0.00992677
-0.0108248
-0.00914667
0.0109264
-0.0126617
-0.0101147
0.0119517
-0.0145397
-0.0111478
0.0130258
-0.0164436
-0.0122552
0.0141591
-0.0183579
-0.0134353
0.0153496
-0.0202655
-0.0146769
0.0165845
-0.0221469
-0.0159598
0.0178412
-0.0239796
-0.0172557
0.0190884
-0.0257383
-0.0185271
0.0202857
-0.0273948
-0.0197272
0.0213838
-0.0289203
-0.0207986
0.0223241
-0.030287
-0.0216736
0.0230402
-0.0314703
-0.022277
0.0234603
-0.0324528
-0.0225244
0.0235069
-0.0332371
-0.0223106
0.0230948
-0.0215317
-0.0338629
0.0221575
-0.000293369
-0.000304191
-0.0010112
-0.00112451
-0.00205681
-0.00204439
-0.00335957
-0.00297301
-0.00486546
-0.00386289
-0.00653272
-0.00470432
-0.00832917
-0.00551383
-0.01023
-0.00632163
-0.0122161
-0.00716061
-0.0142721
-0.0080587
-0.0163851
-0.00903482
-0.0185424
-0.0100978
-0.0207309
-0.0112469
-0.0229349
-0.0124729
-0.0251362
-0.0137585
-0.0273133
-0.0150786
-0.0294413
-0.0163991
-0.0314929
-0.0176756
-0.03344
-0.0188515
-0.0352568
-0.0198568
-0.0369246
-0.0206092
-0.0384333
-0.0210157
-0.0397826
-0.0209612
-0.0203169
-0.0409975
-0.000315823
1.16328e-05
-0.00108497
-0.000355361
-0.00219852
-0.000930841
-0.00357595
-0.00159558
-0.00515574
-0.0022831
-0.00689125
-0.00296881
-0.00874764
-0.00365744
-0.0106991
-0.0043702
-0.0127262
-0.00513346
-0.0148139
-0.00597104
-0.0169488
-0.00689993
-0.0191177
-0.0079289
-0.0213059
-0.0090587
-0.0234961
-0.0102827
-0.0256674
-0.0115871
-0.0277951
-0.0129509
-0.0298499
-0.0143444
-0.0317977
-0.0157278
-0.0336008
-0.0170484
-0.035221
-0.0182366
-0.0366265
-0.0192037
-0.0377969
-0.0198453
-0.0387186
-0.0200394
-0.0196094
-0.0394261
-0.000313941
0.000325574
-0.00107963
0.000410331
-0.00218502
0.000174545
-0.00354455
-0.000236049
-0.00509123
-0.000736425
-0.00677348
-0.00128655
-0.00855279
-0.00187814
-0.0103998
-0.00252323
-0.0122918
-0.00324138
-0.0142105
-0.00405243
-0.0161385
-0.00497187
-0.0180585
-0.00600889
-0.0199511
-0.0071661
-0.0217941
-0.00843966
-0.0235619
-0.00981936
-0.0252246
-0.0112882
-0.0267472
-0.0128217
-0.0280889
-0.0143861
-0.0292008
-0.0159365
-0.030026
-0.0174113
-0.0305051
-0.0187246
-0.0305871
-0.0197634
-0.0302268
-0.0203997
-0.0204317
-0.0294045
-0.000288155
0.000613729
-0.000996094
0.00111827
-0.00201765
0.0011961
-0.00326655
0.00101285
-0.00467257
0.000669595
-0.00617802
0.000218894
-0.00774032
-0.000315836
-0.00932247
-0.000941078
-0.0108954
-0.00166844
-0.012433
-0.00251489
-0.0139099
-0.00349495
-0.0153001
-0.00461871
-0.0165754
-0.00589077
-0.0177052
-0.00730987
-0.0186561
-0.00886843
-0.0193922
-0.0105522
-0.0198745
-0.0123394
-0.0200603
-0.0142003
-0.019901
-0.0160958
-0.0193367
-0.0179756
-0.0182923
-0.019769
-0.016689
-0.0213667
-0.0144579
-0.0226308
-0.0233836
-0.0115061
-0.000241987
0.000855716
-0.000844114
0.0017204
-0.00171266
0.00206465
-0.0027645
0.00206469
-0.0039268
0.0018319
-0.0051386
0.00143069
-0.00634505
0.000890618
-0.00750097
0.00021484
-0.00856744
-0.000601964
-0.00950509
-0.00157724
-0.0102756
-0.00272444
-0.0108392
-0.00405513
-0.0111539
-0.00557603
-0.0111759
-0.00728784
-0.0108601
-0.00918429
-0.010161
-0.0112512
-0.00903431
-0.0134661
-0.00743725
-0.0157973
-0.00532847
-0.0182046
-0.00266514
-0.0206389
0.000607156
-0.0230413
0.00457878
-0.0253383
0.00932266
-0.0273747
-0.0290265
0.0149656
-0.0001815
0.00103722
-0.00064098
0.00217988
-0.00130046
0.00272413
-0.00208166
0.00284589
-0.0029099
0.00266014
-0.00371628
0.00223707
-0.00443722
0.00161156
-0.00501531
0.000792932
-0.00539295
-0.000224319
-0.00551659
-0.00145361
-0.00533018
-0.00291085
-0.00477649
-0.00460882
-0.0037968
-0.00655572
-0.0023321
-0.00875254
-0.000324779
-0.0111916
0.00227923
-0.0138553
0.00552819
-0.0167151
0.00946262
-0.0197318
0.0141141
-0.0228561
0.0195057
-0.0260305
0.0256537
-0.0291893
0.0325982
-0.0322828
0.0403085
-0.035085
-0.0380571
0.049339
-0.000114347
0.00115156
-0.000408851
0.00247438
-0.000820183
0.00313546
-0.00127439
0.0033001
-0.00169406
0.0030798
-0.00200196
0.00254497
-0.00212249
0.00173208
-0.00198164
0.000652087
-0.00150581
-0.000700152
-0.000620973
-0.00233844
0.000746995
-0.00427882
0.00267248
-0.00653431
0.00522796
-0.00911119
0.00848168
-0.0120063
0.0124945
-0.0152044
0.0173165
-0.0186773
0.0229843
-0.0223829
0.0295193
-0.0262667
0.0369266
-0.0302634
0.0451973
-0.0343012
0.0543017
-0.0382937
0.064243
-0.0422242
0.0748898
-0.0457318
-0.0498935
0.0867262
-4.83605e-05
0.00119992
-0.000170783
0.0025968
-0.00031317
0.00327785
-0.000403087
0.00339002
-0.000358476
0.00303519
-9.23056e-05
0.0022788
0.000485053
0.00115472
0.00146461
-0.000327474
0.00293819
-0.00217373
0.00499734
-0.00439759
0.00773125
-0.00701273
0.0112239
-0.010027
0.0155501
-0.0134374
0.0207707
-0.0172269
0.0269282
-0.0213619
0.0340427
-0.0257917
0.0421098
-0.0304501
0.0511007
-0.0352576
0.0609636
-0.0401262
0.0716284
-0.044966
0.0830113
-0.0496766
0.0950396
-0.0542525
0.10757
-0.0582626
-0.0631008
0.120778
1.02217e-05
0.0011897
5.47112e-05
0.00255231
0.000186636
0.00314592
0.0004822
0.00309445
0.00103122
0.00248617
0.00193254
0.00137749
0.0032908
-0.000203538
0.00521346
-0.00225014
0.00780776
-0.00476802
0.0111764
-0.00776625
0.0154124
-0.0112487
0.0205927
-0.0152072
0.0267711
-0.0196159
0.0339727
-0.0244285
0.0421887
-0.0295778
0.0513746
-0.0349777
0.0614519
-0.0405273
0.0723118
-0.0461176
0.0838241
-0.0516385
0.0958432
-0.0569851
0.108228
-0.0620616
0.120819
-0.0668429
0.133564
-0.0710082
-0.0757653
0.146229
5.83967e-05
0.0011313
0.000258074
0.00235264
0.000662542
0.00274145
0.00135761
0.00239939
0.00244497
0.00139881
0.00403733
-0.000214874
0.00625444
-0.00242064
0.00921624
-0.00521195
0.0130367
-0.00858851
0.017815
-0.0125445
0.0236257
-0.0170594
0.0305092
-0.0220908
0.0384641
-0.0275708
0.0474418
-0.0334062
0.0573462
-0.0394823
0.0680385
-0.0456699
0.0793455
-0.0518343
0.0910735
-0.0578456
0.103022
-0.0635872
0.115003
-0.0689663
0.126856
-0.0739142
0.138421
-0.0784078
0.1497
-0.0822874
-0.0861146
0.160049
9.80646e-05
0.000445058
0.00112448
0.00223872
0.00390542
0.00625241
0.00940941
0.0134989
0.018623
0.0248495
0.0321996
0.0406375
0.050067
0.0603335
0.0712343
0.0825341
0.0939845
0.105345
0.116402
0.126991
0.136993
0.146389
0.155337
0.163944
-0.0325285
-0.0288172
0.0274828
-0.0306121
-0.0246398
0.0227235
-0.028043
-0.0184143
0.0158451
-0.0247242
-0.0099522
0.00663343
-0.0207749
0.000741397
-0.00469064
-0.0162014
0.0137621
-0.0183356
-0.0110936
0.0288858
-0.0339937
-0.00566374
0.0455511
-0.050981
-0.000169778
0.0630577
-0.0685517
0.00507977
0.0805772
-0.0858268
0.00961108
0.0974117
-0.101943
0.0135131
0.112229
-0.116131
0.0170819
0.124363
-0.127932
0.0211298
0.132608
-0.136656
0.0268656
0.135
-0.140735
0.0353009
0.129152
-0.137587
0.0465898
0.113047
-0.124336
0.0598661
0.0860831
-0.0993593
0.0739454
0.0490498
-0.0631291
0.0880059
0.00373457
-0.0177951
0.101486
-0.0461065
0.0326269
0.113596
-0.0942934
0.0821831
0.123266
-0.133167
0.123497
0.129633
-0.158625
0.152257
0.132741
-0.171596
0.168488
0.133275
-0.17526
0.174726
0.131072
-0.173856
0.176059
0.125137
-0.174358
0.180293
0.116169
-0.181337
0.190305
0.108029
-0.186723
0.194864
0.105364
-0.170302
0.172967
0.109813
-0.117917
0.113467
0.119527
-0.0369078
0.0271941
0.13078
0.0502109
-0.0614643
0.140617
0.123328
-0.133165
0.147825
0.172385
-0.179593
0.152004
0.197333
-0.201511
0.151805
0.211514
-0.211316
0.146335
0.230149
-0.224679
0.137799
0.251456
-0.242919
0.13099
0.242863
-0.236055
0.129576
0.180676
-0.179262
0.133544
0.0681289
-0.072097
0.140713
-0.0514104
0.0442419
0.14816
-0.147365
0.139918
0.152316
-0.203625
0.199468
0.150252
-0.235782
0.237846
0.142669
-0.264853
0.272436
0.134549
-0.264674
0.272794
0.1315
-0.229787
0.232836
0.135118
-0.106851
0.103232
0.141501
0.0068271
-0.0132095
0.144399
0.145673
-0.148571
0.142079
0.237754
-0.235434
0.136875
0.304843
-0.299639
0.133776
0.336542
-0.333443
0.134578
0.187369
-0.188171
0.134957
0.135777
-0.136156
0.133305
-0.130014
0.131666
-0.230731
0.232515
-0.0404848
-0.0293299
-0.0393305
-0.0257941
-0.0374584
-0.0202863
-0.0347089
-0.0127017
-0.0310764
-0.00289105
-0.0266105
0.00929619
-0.0213455
0.0236208
-0.0154137
0.0396194
-0.00899435
0.0566383
-0.0023729
0.0739558
0.00436527
0.0906736
0.0112741
0.10532
0.0185529
0.117085
0.0268609
0.1243
0.0368708
0.12499
0.0488441
0.117178
0.0623231
0.099568
0.0762695
0.0721367
0.0897524
0.0355669
0.102235
-0.00874761
0.113555
-0.0574268
0.12307
-0.103808
0.130007
-0.140105
0.133822
-0.162439
0.134682
-0.172457
0.13347
-0.174047
0.130366
-0.170752
0.124126
-0.168119
0.114532
-0.171742
0.104922
-0.177114
0.100595
-0.165975
0.104237
-0.121558
0.114204
-0.0468756
0.126579
0.0378359
0.138045
0.111863
0.14704
0.163389
0.152652
0.191721
0.153371
0.210795
0.148672
0.234849
0.14105
0.259078
0.134999
0.248914
0.133657
0.182018
0.136846
0.0649394
0.142654
-0.0572183
0.148768
-0.153479
0.152107
-0.206964
0.149695
-0.23337
0.141954
-0.257112
0.133763
-0.256483
0.130858
-0.226883
0.134743
-0.110735
0.141358
0.000212058
0.144363
0.142668
0.142164
0.239953
0.137059
0.309948
0.133889
0.339712
0.134903
0.186355
0.135537
0.135143
0.134033
-0.12851
-0.22906
-0.0395505
-0.0292055
-0.0390574
-0.0262872
-0.0378418
-0.0215019
-0.0357423
-0.0148013
-0.0325494
-0.00608397
-0.0283537
0.00510055
-0.0231344
0.0184015
-0.0169188
0.0334037
-0.00964667
0.0493662
-0.00184325
0.0661523
0.00729691
0.0815334
0.0169879
0.0956293
0.0274703
0.106602
0.0390429
0.112728
0.0518865
0.112146
0.0657747
0.10329
0.0799693
0.0853734
0.0935036
0.0586024
0.105636
0.0234342
0.116195
-0.0193063
0.12513
-0.0663616
0.131949
-0.110628
0.136122
-0.144278
0.137475
-0.163791
0.136319
-0.171301
0.133561
-0.17129
0.129698
-0.166889
0.1235
-0.16192
0.113833
-0.162075
0.103119
-0.1664
0.09699
-0.159846
0.0993351
-0.123903
0.109117
-0.0566575
0.122339
0.0246135
0.135321
0.0988811
0.146063
0.152647
0.153122
0.184662
0.154907
0.20901
0.151212
0.238544
0.144649
0.26564
0.139309
0.254254
0.137911
0.183417
0.140221
0.0626292
0.144625
-0.0616226
0.149347
-0.158201
0.151883
-0.2095
0.149222
-0.230708
0.141424
-0.249314
0.1332
-0.24826
0.130397
-0.22408
0.134465
-0.114803
0.141301
-0.00662386
0.144449
0.13952
0.142384
0.242017
0.137366
0.314966
0.134108
0.34297
0.135346
0.185116
0.136301
0.134188
0.134958
-0.127167
-0.227482
-0.0300394
-0.0285705
-0.0300962
-0.0262304
-0.0293875
-0.0222106
-0.0277878
-0.016401
-0.0251674
-0.00870438
-0.0211922
0.00112535
-0.0160713
0.0132806
-0.00986183
0.0271943
-0.00233761
0.041842
0.00732124
0.0564935
0.0178259
0.0710288
0.0293763
0.0840789
0.0419225
0.094056
0.0554015
0.0992486
0.0695939
0.0979537
0.0840042
0.08888
0.0978314
0.0715462
0.110219
0.0462145
0.12067
0.0129838
0.129204
-0.0278402
0.135803
-0.0729611
0.140021
-0.114845
0.141525
-0.145782
0.140535
-0.162802
0.137594
-0.16836
0.133503
-0.167199
0.128946
-0.162332
0.122993
-0.155967
0.113837
-0.152919
0.102613
-0.155175
0.0947096
-0.151943
0.0952658
-0.12446
0.104329
-0.0657206
0.11808
0.010862
0.132421
0.0845406
0.144828
0.140241
0.153348
0.176142
0.156354
0.206004
0.153881
0.241017
0.148476
0.271045
0.143774
0.258957
0.142189
0.185001
0.143586
0.0612322
0.146585
-0.0646216
0.149887
-0.161503
0.151622
-0.211234
0.14879
-0.227875
0.14102
-0.241544
0.132794
-0.240034
0.130049
-0.221334
0.134241
-0.118995
0.141304
-0.013687
0.144643
0.136181
0.142739
0.243921
0.137806
0.319899
0.134442
0.346334
0.135909
0.18365
0.137245
0.132852
0.136076
-0.125999
-0.225979
-0.0128453
-0.0272314
-0.0136946
-0.025381
-0.0136313
-0.0222739
-0.0125923
-0.01744
-0.0104857
-0.010811
-0.00687729
-0.0024831
-0.00220603
0.0086093
0.00458727
0.020401
0.0130008
0.0334284
0.0226961
0.0467982
0.0337589
0.0599659
0.0460748
0.071763
0.0594405
0.0806903
0.0735407
0.0851484
0.0878933
0.083601
0.101848
0.0749252
0.114631
0.0587629
0.125547
0.0352987
0.134302
0.00422932
0.140931
-0.0344691
0.145325
-0.0773552
0.147044
-0.116565
0.145996
-0.144734
0.142825
-0.159631
0.138351
-0.163885
0.133213
-0.162062
0.128062
-0.15718
0.122414
-0.150319
0.114209
-0.144714
0.103192
-0.144158
0.0938503
-0.142602
0.0922666
-0.122876
0.10002
-0.073474
0.11388
-0.00299833
0.129319
0.0691021
0.143248
0.126312
0.153227
0.166162
0.157609
0.201622
0.156558
0.242069
0.152383
0.27522
0.14824
0.2631
0.146361
0.18688
0.146843
0.0607505
0.148487
-0.0662657
0.150363
-0.163379
0.151293
-0.212165
0.148362
-0.224944
0.140699
-0.233881
0.132484
-0.231819
0.129748
-0.218598
0.13402
-0.123268
0.141332
-0.0209993
0.144925
0.132588
0.143223
0.245624
0.138387
0.324734
0.134905
0.349817
0.136591
0.181964
0.138363
0.13108
0.137382
-0.125018
-0.224536
0.0124336
-0.0246994
0.0103086
-0.023256
0.00917301
-0.0211384
0.00926954
-0.0175365
0.0107327
-0.0122742
0.0135839
-0.00533424
0.018335
0.00385823
0.0243525
0.0143835
0.0321044
0.0256766
0.0414479
0.0374547
0.0522871
0.0491268
0.0644526
0.0595976
0.0776275
0.0675153
0.0913441
0.0714319
0.104988
0.0699574
0.117867
0.0620458
0.129292
0.0473375
0.138712
0.0258786
0.146045
-0.00310319
0.151062
-0.0394861
0.153425
-0.0797184
0.152757
-0.115896
0.149349
-0.141327
0.144239
-0.15452
0.138479
-0.158126
0.13258
-0.156162
0.126966
-0.151566
0.121567
-0.14492
0.114555
-0.137702
0.104476
-0.134078
0.0943281
-0.132454
0.0905127
-0.11906
0.0964501
-0.0794114
0.10975
-0.0162983
0.125973
0.0528791
0.141211
0.111074
0.152628
0.154745
0.15853
0.19572
0.159071
0.241527
0.15621
0.278081
0.152561
0.266749
0.150307
0.189134
0.149895
0.0611624
0.150275
-0.0666464
0.150746
-0.163849
0.150859
-0.212278
0.147892
-0.221977
0.140412
-0.226401
0.13221
-0.223618
0.129426
-0.215813
0.133744
-0.127586
0.141342
-0.0285972
0.145271
0.128659
0.143828
0.247066
0.139116
0.329446
0.135504
0.353429
0.137398
0.18007
0.139648
0.12883
0.138868
-0.124238
-0.22314
0.0452874
-0.0206477
0.0418015
-0.0197701
0.0390509
-0.0183878
0.0374086
-0.0158942
0.037104
-0.0119696
0.0382699
-0.00650012
0.0414785
0.00064958
0.0461785
0.00968357
0.0527648
0.0190902
0.0611099
0.0291095
0.071072
0.0391646
0.0824024
0.0482672
0.094702
0.0552158
0.107421
0.0587133
0.119893
0.0574846
0.131442
0.0504969
0.141478
0.0373022
0.14959
0.0177662
0.15568
-0.0091928
0.159283
-0.0430896
0.159769
-0.0802047
0.156904
-0.113031
0.15142
-0.135843
0.144681
-0.147781
0.137893
-0.151338
0.131493
-0.149763
0.125595
-0.145667
0.120341
-0.139667
0.114501
-0.131863
0.105943
-0.12552
0.0958419
-0.122353
0.0900563
-0.113275
0.0936629
-0.0830181
0.105864
-0.0284993
0.122342
0.0364011
0.138601
0.0948153
0.151396
0.141949
0.15894
0.188176
0.161255
0.239212
0.159793
0.279543
0.15662
0.269921
0.153924
0.19183
0.152651
0.0624356
0.151891
-0.0658862
0.151007
-0.162965
0.150285
-0.211556
0.147333
-0.219025
0.140116
-0.219184
0.131923
-0.215424
0.12902
-0.21291
0.133351
-0.131918
0.141281
-0.0365268
0.145645
0.124296
0.144541
0.24817
0.139995
0.333992
0.136249
0.357176
0.13833
0.177988
0.141098
0.126062
0.140527
-0.123667
-0.221783
0.0816501
-0.0155716
0.0770554
-0.0151754
0.0729902
-0.0143226
0.0696823
-0.0125863
0.067442
-0.00972934
0.0665232
-0.00558127
0.0674523
-0.000279486
0.0700239
0.00711188
0.0745894
0.0145248
0.0811057
0.0225933
0.0894245
0.0308458
0.0992427
0.038449
0.110106
0.0443523
0.121421
0.0473989
0.132502
0.0464031
0.142689
0.0403103
0.151459
0.0285324
0.158407
0.0108181
0.163363
-0.0141492
0.165552
-0.0452785
0.164197
-0.0788503
0.159327
-0.108161
0.152101
-0.128617
0.144103
-0.139782
0.136555
-0.14379
0.129861
-0.143069
0.123873
-0.13968
0.118699
-0.134492
0.113801
-0.126965
0.107043
-0.118762
0.0978865
-0.113197
0.0907711
-0.106159
0.091805
-0.084052
0.102233
-0.0389276
0.118374
0.0202603
0.13531
0.0778796
0.149392
0.127868
0.158655
0.178913
0.16287
0.234997
0.16292
0.279494
0.160271
0.27257
0.157115
0.194985
0.155036
0.0645155
0.153267
-0.0641175
0.151109
-0.160807
0.149528
-0.209974
0.146627
-0.216125
0.139769
-0.212326
0.131583
-0.207238
0.128473
-0.209801
0.132782
-0.136227
0.14109
-0.0448341
0.146007
0.119378
0.145342
0.248835
0.141022
0.338311
0.137148
0.36105
0.139395
0.175741
0.142704
0.122753
0.142347
-0.12331
-0.220464
0.115482
-0.0102763
0.110557
-0.0102496
0.106001
-0.00976681
0.101938
-0.00852389
0.0986247
-0.0064156
0.0963885
-0.00334505
0.0951733
0.000935706
0.0957045
0.00658067
0.0979629
0.0122663
0.102126
0.0184298
0.108148
0.0248246
0.115793
0.0308039
0.124646
0.035499
0.13413
0.0379146
0.143571
0.0369626
0.152293
0.031588
0.159749
0.0210766
0.165511
0.00505573
0.169168
-0.0178061
0.169755
-0.0458652
0.16653
-0.0756252
0.159876
-0.101506
0.151289
-0.12003
0.142427
-0.13092
0.134394
-0.135757
0.127558
-0.136233
0.12165
-0.133772
0.116576
-0.129418
0.112316
-0.122706
0.107295
-0.113741
0.0998066
-0.105708
0.0922959
-0.0986488
0.0908863
-0.0826423
0.0989267
-0.0469679
0.114042
0.00514545
0.131241
0.0606801
0.146462
0.112646
0.157499
0.167877
0.163783
0.228712
0.165474
0.277803
0.163388
0.274656
0.159831
0.198542
0.156959
0.0673882
0.154325
-0.0614843
0.151
-0.157481
0.148538
-0.207513
0.145708
-0.213295
0.139322
-0.20594
0.131164
-0.19908
0.127747
-0.206383
0.131973
-0.140453
0.140713
-0.0535741
0.146311
0.11378
0.146204
0.248942
0.142191
0.342325
0.138207
0.365035
0.1406
0.173348
0.144457
0.118895
0.14432
-0.123173
-0.219179
0.141438
-0.00548528
0.136874
-0.00568594
0.13253
-0.00542275
0.12858
-0.00457351
0.12521
-0.00304579
0.122669
-0.00080434
0.120748
0.00285641
0.120216
0.0071132
0.120971
0.0115117
0.123228
0.0161724
0.127066
0.020986
0.132393
0.0254776
0.138934
0.0289576
0.14624
0.0306087
0.153711
0.0294922
0.160683
0.0246153
0.166587
0.0151734
0.170982
0.000660063
0.17295
-0.019774
0.171655
-0.04457
0.166567
-0.0705376
0.158425
-0.0933645
0.148888
-0.110492
0.139531
-0.121563
0.131267
-0.127494
0.124406
-0.129372
0.118698
-0.128064
0.113829
-0.124548
0.109972
-0.118849
0.106367
-0.110136
0.100924
-0.100266
0.0940419
-0.0917664
0.0907785
-0.079379
0.0960423
-0.0522317
0.109391
-0.00820281
0.126339
0.043732
0.142495
0.0964895
0.155268
0.155105
0.163648
0.220331
0.167107
0.274345
0.165793
0.275969
0.161938
0.202398
0.15842
0.0709063
0.155016
-0.0580805
0.150647
-0.153112
0.147292
-0.204158
0.144525
-0.210528
0.138735
-0.20015
0.130661
-0.191006
0.12683
-0.202552
0.13089
-0.144513
0.140078
-0.0627627
0.146507
0.107351
0.147094
0.248355
0.143487
0.345931
0.139428
0.369094
0.141946
0.17083
0.146354
0.114487
0.146436
-0.123255
-0.217935
0.156187
-0.00162302
0.152399
-0.00189789
0.148769
-0.00179306
0.145567
-0.00137112
0.143054
-0.00053302
0.140738
0.00151181
0.139336
0.00425814
0.13885
0.00759918
0.139191
0.011171
0.140622
0.014741
0.143245
0.0183632
0.147003
0.0217199
0.151701
0.0242595
0.157025
0.025285
0.16253
0.0239872
0.167629
0.0195161
0.171631
0.0111712
0.174177
-0.00188639
0.174373
-0.0199695
0.171179
-0.0413761
0.164508
-0.0638667
0.155371
-0.0842272
0.145387
-0.100508
0.135916
-0.112093
0.127658
-0.119235
0.120844
-0.122558
0.115336
-0.122556
0.110723
-0.119935
0.107085
-0.11521
0.104388
-0.107439
0.100907
-0.0967848
0.0954647
-0.0863237
0.0912555
-0.0751697
0.0937061
-0.0546824
0.1046
-0.019097
0.120605
0.0277272
0.137406
0.079689
0.151969
0.140542
0.162668
0.209632
0.168051
0.268962
0.167479
0.276541
0.163488
0.206388
0.159455
0.0749394
0.155416
-0.0540414
0.150141
-0.147837
0.145893
-0.19991
0.143125
-0.20776
0.138012
-0.195036
0.130099
-0.183093
0.12577
-0.198223
0.129537
-0.14828
0.139121
-0.0723462
0.146533
0.0999393
0.147973
0.246915
0.144891
0.349013
0.140802
0.373183
0.143444
0.168188
0.148379
0.109552
0.148681
-0.123557
-0.216738
0.161194
0.0011269
0.158275
0.00102093
0.155446
0.00103604
0.152853
0.00122215
0.1505
0.00181938
0.148921
0.00309059
0.148148
0.00503151
0.148238
0.00750935
0.14913
0.0102787
0.15072
0.0131515
0.153029
0.0160542
0.15607
0.0186784
0.159727
0.0206025
0.163745
0.0212674
0.167747
0.019985
0.171268
0.0159947
0.173835
0.00860473
0.174649
-0.00270074
0.172827
-0.0181475
0.168052
-0.0366009
0.160472
-0.0562869
0.151163
-0.074918
0.141453
-0.0907987
0.132369
-0.103008
0.124414
-0.111281
0.117753
-0.115897
0.112386
-0.117189
0.107981
-0.11553
0.10442
-0.11165
0.102081
-0.1051
0.100054
-0.0947577
0.0963829
-0.0826528
0.0921628
-0.0709495
0.0922684
-0.054788
0.10009
-0.0269187
0.114356
0.013461
0.131011
0.0630346
0.146823
0.12473
0.159763
0.196691
0.167345
0.26138
0.167973
0.275914
0.164245
0.210116
0.160072
0.0791126
0.155452
-0.0494208
0.149489
-0.141875
0.144444
-0.194865
0.141595
-0.204912
0.137174
-0.190616
0.12949
-0.175409
0.124642
-0.193375
0.128018
-0.151656
0.137876
-0.0822044
0.146341
0.0914746
0.1488
0.244456
0.146394
0.35142
0.142341
0.377236
0.145095
0.165435
0.150519
0.104128
0.15106
-0.124098
-0.215571
0.186352
0.0039072
-0.189133
0.184035
0.00333802
0.181765
0.00330632
0.179464
0.00352273
0.177209
0.00407479
0.175177
0.00512265
0.173515
0.00669358
0.172338
0.00868645
0.171684
0.0109326
0.171589
0.0132466
0.172201
0.0154416
0.173646
0.017234
0.176011
0.018237
0.179322
0.0179565
0.183495
0.0158118
0.188268
0.0112222
0.193108
0.00376422
0.1975
-0.00709244
0.200436
-0.0210833
0.201152
-0.0373169
0.199248
-0.054383
0.19495
-0.0706201
0.188822
-0.0846704
0.181516
-0.0957019
0.173615
-0.10338
0.16555
-0.107832
0.157689
-0.109327
0.15014
-0.107982
0.142779
-0.104289
0.135964
-0.0982851
0.129752
-0.0885456
0.122621
-0.0755216
0.113849
-0.0621773
0.106389
-0.0473282
0.104516
-0.0250457
0.108617
0.00935995
0.115518
0.0561341
0.121927
0.11832
0.127138
0.19148
0.132319
0.256199
0.139824
0.268408
0.150728
0.199212
0.161423
0.0684179
0.167376
-0.0553741
0.166453
-0.140952
0.161453
-0.189864
0.155834
-0.199293
0.148552
-0.183333
0.139013
-0.165871
0.130999
-0.18536
0.128857
-0.149514
0.131526
-0.0848737
0.133242
0.089759
0.132293
0.245405
0.129693
0.354019
0.129212
0.377717
0.134279
0.160368
0.140523
0.0978835
0.140703
-0.124279
-0.212442
0.197721
0.00559666
-0.199411
0.196046
0.00501359
0.194456
0.00489569
0.19289
0.00508873
0.191404
0.00556064
0.190138
0.00638858
0.189224
0.00760756
0.188752
0.00915862
0.188781
0.0109036
0.189369
0.0126586
0.190586
0.0142248
0.192482
0.0153384
0.195072
0.0156462
0.198306
0.0147234
0.202017
0.0121004
0.205898
0.00734068
0.209591
7.20188e-05
0.212444
-0.00994546
0.213788
-0.0224275
0.213111
-0.0366405
0.210211
-0.0514828
0.205276
-0.0656847
0.198753
-0.0781474
0.191206
-0.0881549
0.183192
-0.0953668
0.175103
-0.0997424
0.167227
-0.101451
0.159732
-0.100486
0.152459
-0.0970168
0.145546
-0.0913714
0.139419
-0.0824186
0.133115
-0.0692183
0.12515
-0.0542117
0.117054
-0.0392324
0.11303
-0.0210218
0.115316
0.0070737
0.121678
0.0497726
0.128741
0.111257
0.135237
0.184985
0.142146
0.249291
0.151787
0.258767
0.164211
0.186787
0.175503
0.0571265
0.181075
-0.0609468
0.179212
-0.139088
0.172924
-0.183577
0.16634
-0.192709
0.158692
-0.175684
0.148718
-0.155897
0.139991
-0.176634
0.137164
-0.146686
0.139839
-0.0875487
0.141995
0.0876031
0.141493
0.245907
0.139317
0.356195
0.139115