/*--------------------------------*- C++ -*----------------------------------*\
| =========                 |                                                 |
| \\      /  F ield         | OpenFOAM: The Open Source CFD Toolbox           |
|  \\    /   O peration     | Version:  2512                                  |
|   \\  /    A nd           | Website:  www.openfoam.com                      |
|    \\/     M anipulation  |                                                 |
\*---------------------------------------------------------------------------*/
FoamFile
{
    version     2.0;
    format      ascii;
    arch        "LSB;label=32;scalar=64";
    class       volVectorField;
    location    "79";
    object      U;
}
// * * * * * * * * * * * * * * * * * * * * * * * * * * * * * * * * * * * * * //

dimensions      [0 1 -1 0 0 0 0];

internalField   nonuniform List<vector> 
13248
(
(-0.0120887 0.0119261 8.08719e-20)
(-0.0193022 0.023686 0)
(-0.0105397 0.028189 -1.53278e-19)
(0.0124769 0.0274433 1.44387e-19)
(0.0486754 0.0232692 1.35727e-19)
(0.0973334 0.0172001 0)
(0.157781 0.0104114 0)
(0.229175 0.00378224 3.31176e-19)
(0.310288 -0.00204464 -1.5222e-21)
(0.399357 -0.00662748 -2.8939e-19)
(0.494036 -0.00970485 2.66662e-19)
(0.591471 -0.0111814 -1.66721e-19)
(0.688498 -0.0111116 0)
(0.781898 -0.009675 -2.75365e-19)
(0.86869 -0.00714206 5.08799e-19)
(0.946387 -0.00383356 -1.21043e-19)
(1.01319 -7.59348e-05 -2.03063e-19)
(1.06809 0.00382535 1.90637e-19)
(1.11089 0.00766459 0)
(1.1421 0.0111379 0)
(1.16302 0.0145971 0)
(1.1745 0.0165091 0)
(1.18013 0.0206546 4.91817e-20)
(1.17693 0.0164529 1.66019e-19)
(-0.0107406 0.00952304 -2.44196e-19)
(-0.0124991 0.0172642 1.66484e-19)
(0.00479505 0.0192254 -1.20815e-21)
(0.0392246 0.0172625 -2.20344e-19)
(0.0894978 0.0130989 -1.3558e-19)
(0.154518 0.00821757 -1.28268e-19)
(0.23297 0.00373729 -2.3706e-19)
(0.32304 0.000446089 2.23573e-19)
(0.42223 -0.00116558 0)
(0.527316 -0.000889252 1.37991e-21)
(0.634488 0.00122226 2.53836e-21)
(0.739661 0.00489424 1.65364e-19)
(0.838865 0.00969111 0)
(0.928645 0.0150931 0)
(1.00638 0.020577 1.82674e-19)
(1.07048 0.0256879 -3.42982e-19)
(1.12045 0.0300907 1.97051e-19)
(1.1568 0.0335957 -1.85005e-19)
(1.18086 0.0361625 -7.90286e-20)
(1.19455 0.0378507 -1.38265e-19)
(1.19999 0.0389265 -5.41736e-20)
(1.1995 0.0391906 -1.00011e-19)
(1.19491 0.0404718 1.52259e-19)
(1.18706 0.0375681 4.22883e-20)
(-0.00843145 0.00693723 0)
(-0.00223111 0.0103525 0)
(0.0264774 0.00982835 7.79758e-20)
(0.0753777 0.00708511 7.21382e-20)
(0.142703 0.0037512 -1.3849e-21)
(0.22659 0.00122405 -1.31364e-19)
(0.324542 0.000460566 0)
(0.433176 0.00198086 -1.11231e-19)
(0.548199 0.00589266 1.03712e-19)
(0.664655 0.0119267 -1.2118e-22)
(0.777389 0.0195118 -1.76411e-19)
(0.88162 0.0278912 -1.59651e-19)
(0.973473 0.0362591 4.54795e-21)
(1.05035 0.0438914 -1.26989e-19)
(1.1111 0.050245 3.08881e-19)
(1.15595 0.0550119 0)
(1.18628 0.0581258 -1.90948e-19)
(1.20428 0.0597236 9.33677e-20)
(1.21256 0.0600975 7.89599e-20)
(1.21372 0.0595694 0)
(1.2102 0.0586217 6.19325e-20)
(1.20383 0.0571701 -2.09045e-19)
(1.19612 0.0566991 1.96237e-19)
(1.18793 0.0530421 1.18813e-19)
(-0.00482786 0.00421483 -8.57949e-20)
(0.0123791 0.00334015 -8.85249e-20)
(0.0558123 0.000891539 8.04558e-20)
(0.122431 -0.00165052 0)
(0.209544 -0.0028408 0)
(0.313914 -0.00150133 -2.07515e-21)
(0.431184 0.00294718 0)
(0.555839 0.0104799 -3.35728e-19)
(0.681576 0.0205441 3.11349e-19)
(0.801998 0.0321928 -3.84123e-19)
(0.911418 0.0442789 8.78496e-20)
(1.00555 0.055673 0)
(1.08191 0.0654532 1.42415e-19)
(1.13991 0.0730268 -2.62257e-19)
(1.18062 0.0781694 6.24594e-20)
(1.20632 0.0809887 1.54744e-19)
(1.21997 0.0818349 -9.51775e-21)
(1.22468 0.0811905 -1.70645e-19)
(1.22332 0.0795637 0)
(1.21823 0.0774031 0)
(1.21115 0.0751148 -5.81054e-20)
(1.2032 0.072704 5.14314e-20)
(1.1952 0.0712349 1.7925e-19)
(1.18708 0.0671835 -1.68297e-19)
(0.000478938 0.00141742 -8.97441e-20)
(0.0322386 -0.00333927 -8.96254e-20)
(0.0938924 -0.00664533 2.52316e-19)
(0.181228 -0.00749623 -1.53617e-19)
(0.289983 -0.00484558 1.44595e-19)
(0.414796 0.00200054 2.63604e-19)
(0.548824 0.012915 -1.8584e-19)
(0.684216 0.0270096 -2.25103e-19)
(0.813085 0.0428701 5.11163e-21)
(0.928634 0.0588686 2.88478e-19)
(1.02605 0.0734896 0)
(1.10298 0.085592 7.80615e-20)
(1.15941 0.0945476 0)
(1.19727 0.100246 -1.25131e-19)
(1.21969 0.102996 1.75721e-19)
(1.23031 0.103364 1.63414e-21)
(1.23264 0.102014 -4.50248e-20)
(1.22962 0.0995777 8.30132e-20)
(1.22353 0.0965712 7.12346e-20)
(1.21591 0.0933672 -6.32287e-20)
(1.20773 0.0902186 5.80906e-20)
(1.19952 0.0871518 -5.14178e-20)
(1.19156 0.084745 0)
(1.18396 0.0804505 -3.8819e-20)
(0.00790659 -0.00131832 8.97313e-20)
(0.0581293 -0.00910308 9.37822e-20)
(0.141361 -0.0117112 -8.44414e-20)
(0.251656 -0.00898634 1.57242e-19)
(0.382407 -0.000646072 -1.47999e-19)
(0.525426 0.013119 1.33965e-19)
(0.671139 0.0310951 -6.41288e-20)
(0.809851 0.0513065 1.69067e-19)
(0.933308 0.0715147 -1.05897e-19)
(1.03591 0.0897093 1.86305e-19)
(1.11524 0.104466 -4.28677e-19)
(1.17182 0.1151 1.56766e-19)
(1.2084 0.121621 -1.35948e-19)
(1.22892 0.124548 1.27698e-19)
(1.23764 0.124671 1.08645e-19)
(1.2384 0.12283 9.41453e-20)
(1.23429 0.11977 -2.61778e-19)
(1.22751 0.116068 1.61893e-19)
(1.21948 0.112118 -7.12362e-20)
(1.21108 0.108169 1.83951e-19)
(1.20276 0.104357 -5.94404e-20)
(1.19474 0.100715 -1.42435e-19)
(1.18713 0.0975398 1.31131e-19)
(1.17989 0.0930867 3.88062e-20)
(0.0178136 -0.00374707 0)
(0.0905464 -0.0131708 6.17884e-22)
(0.198201 -0.0130924 1.75153e-19)
(0.332458 -0.00470317 -1.64452e-19)
(0.483624 0.0110048 -1.48492e-19)
(0.640338 0.0324863 2.75928e-19)
(0.790758 0.0571589 -1.28117e-19)
(0.924654 0.0820063 1.70493e-19)
(1.03515 0.104338 -3.96049e-21)
(1.11943 0.122311 -9.62328e-20)
(1.17835 0.135113 2.08952e-19)
(1.21539 0.142851 -3.07454e-19)
(1.23531 0.146257 0)
(1.24301 0.146356 -5.9619e-20)
(1.24275 0.144181 -1.58115e-19)
(1.23779 0.140609 4.98681e-20)
(1.23039 0.13629 2.22467e-21)
(1.22193 0.131656 -1.06529e-19)
(1.21323 0.126974 7.65485e-21)
(1.2047 0.122392 1.22752e-19)
(1.19653 0.117985 -5.39058e-20)
(1.18878 0.11379 -2.02828e-20)
(1.18144 0.10989 6.32229e-20)
(1.17446 0.105256 0)
(0.0304389 -0.00551527 0)
(0.12956 -0.0145864 4.74148e-20)
(0.263584 -0.00950216 -2.27405e-19)
(0.421201 0.00658729 8.27676e-20)
(0.589182 0.030823 -7.78978e-20)
(0.753311 0.0599153 -7.09295e-20)
(0.900779 0.0899163 -1.25589e-19)
(1.02269 0.117183 6.26442e-20)
(1.11522 0.139206 5.46334e-20)
(1.17922 0.154891 0)
(1.21877 0.164379 1.23327e-19)
(1.23948 0.168618 -1.82628e-19)
(1.24701 0.168897 1.35973e-19)
(1.24617 0.166485 5.96495e-20)
(1.24055 0.162429 -4.83514e-20)
(1.23254 0.157487 -3.99671e-20)
(1.22361 0.152151 -3.70938e-20)
(1.21453 0.14672 1.11948e-19)
(1.20571 0.141359 0)
(1.19732 0.136155 5.53596e-20)
(1.18939 0.131152 4.59871e-20)
(1.18192 0.126373 -1.14791e-19)
(1.17484 0.12179 -7.75981e-20)
(1.16809 0.11696 7.18415e-20)
(0.0458515 -0.00618636 -5.057e-20)
(0.174713 -0.0123028 -1.60834e-21)
(0.335819 0.000268937 4.61336e-20)
(0.514451 0.0257492 1.285e-19)
(0.693963 0.0588736 3.72643e-20)
(0.858448 0.0944934 -7.20268e-20)
(0.996046 0.127699 6.59712e-20)
(1.10102 0.15493 -5.79365e-20)
(1.1736 0.174525 1.03396e-19)
(1.21825 0.186525 4.3989e-20)
(1.24144 0.192076 -1.24551e-19)
(1.24978 0.192781 3.66914e-20)
(1.24884 0.190217 6.22685e-20)
(1.24273 0.185667 -3.07068e-20)
(1.23412 0.180045 0)
(1.22462 0.173938 4.53032e-20)
(1.21506 0.167689 7.61781e-20)
(1.20583 0.161488 1.26914e-20)
(1.19711 0.155435 -6.32263e-20)
(1.18892 0.149581 2.63057e-20)
(1.18125 0.143952 0)
(1.17403 0.13855 -2.04858e-20)
(1.16719 0.133315 -1.91892e-20)
(1.16064 0.128213 0)
(0.0639059 -0.00528406 0)
(0.224965 -0.00530953 2.64269e-20)
(0.412412 0.0171714 4.88406e-20)
(0.608119 0.0531183 -1.30492e-19)
(0.792927 0.0945677 4.19902e-20)
(0.951091 0.134823 0)
(1.07372 0.168775 6.32096e-20)
(1.15944 0.193731 -8.81616e-20)
(1.21264 0.209362 -5.14946e-20)
(1.2406 0.21694 2.3342e-20)
(1.25109 0.218439 -3.69069e-20)
(1.25071 0.215841 8.98595e-20)
(1.24435 0.210767 4.48478e-20)
(1.23518 0.204362 -3.13153e-20)
(1.22503 0.197352 -3.0673e-21)
(1.21487 0.190155 -8.48e-20)
(1.20513 0.182995 3.85535e-20)
(1.19598 0.175988 -9.48933e-22)
(1.18746 0.169193 0)
(1.17953 0.162641 -2.63329e-20)
(1.17213 0.156343 0)
(1.16518 0.150279 5.90539e-20)
(1.15859 0.144425 -7.01492e-20)
(1.15224 0.138959 3.18989e-20)
(0.0842129 -0.00234089 -1.36171e-20)
(0.278702 0.00724071 -6.62237e-20)
(0.490257 0.0417474 7.51527e-20)
(0.697947 0.0884362 4.4236e-20)
(0.88175 0.136784 -2.1187e-20)
(1.02823 0.179304 3.54871e-20)
(1.13301 0.211618 -1.72786e-20)
(1.19946 0.232548 2.87504e-20)
(1.23546 0.243291 0)
(1.25006 0.24621 6.49541e-20)
(1.25128 0.243821 -2.70884e-21)
(1.24511 0.238224 -5.23501e-20)
(1.23549 0.230912 2.23827e-20)
(1.22467 0.222825 -2.51812e-20)
(1.21382 0.214496 -9.51697e-21)
(1.20347 0.206206 1.10639e-20)
(1.1938 0.198093 -8.49931e-21)
(1.18485 0.190224 -4.59457e-20)
(1.17659 0.182635 2.81459e-20)
(1.16897 0.175341 5.74077e-21)
(1.16187 0.168337 5.03985e-21)
(1.15522 0.161593 4.42532e-21)
(1.14889 0.155151 0)
(1.14275 0.149204 0)
(0.106205 0.00306469 1.36265e-20)
(0.33396 0.0259403 -1.36527e-20)
(0.566074 0.0740448 -2.50018e-20)
(0.780099 0.130887 0)
(0.957296 0.184068 -1.04894e-20)
(1.08847 0.226382 -9.39285e-21)
(1.17452 0.25505 -1.61224e-20)
(1.22322 0.27077 0)
(1.24491 0.276205 0)
(1.24939 0.274532 0)
(1.2442 0.268523 0)
(1.23441 0.260194 0)
(1.22297 0.250821 -1.40294e-20)
(1.21139 0.241124 6.38401e-21)
(1.20035 0.231473 1.10829e-20)
(1.19009 0.222043 5.17587e-21)
(1.18066 0.212913 1.27707e-20)
(1.17202 0.204121 0)
(1.16413 0.195682 -3.0433e-21)
(1.15688 0.187601 -2.89265e-21)
(1.15017 0.179858 -5.04784e-21)
(1.14388 0.17243 -4.43236e-21)
(1.13789 0.165428 0)
(1.13207 0.158883 3.15818e-21)
(-0.000993926 -0.0127399 8.17718e-21)
(-0.00575315 -0.0368198 -8.49484e-21)
(-0.0151494 -0.0589427 -1.60926e-20)
(-0.027033 -0.0783216 0)
(-0.040195 -0.0947524 -2.15255e-20)
(-0.0539762 -0.108547 6.74404e-21)
(-0.0678758 -0.120316 -1.27837e-20)
(-0.0815125 -0.130763 0)
(-0.0946185 -0.140521 0)
(-0.107014 -0.150059 0)
(-0.118582 -0.159648 0)
(-0.129246 -0.169373 0)
(-0.138954 -0.179165 8.54718e-26)
(-0.147659 -0.188842 -8.40414e-21)
(-0.155317 -0.198138 1.58299e-20)
(-0.161876 -0.206721 2.2355e-20)
(-0.167278 -0.214203 6.94841e-21)
(-0.171464 -0.220149 0)
(-0.174384 -0.224083 6.24837e-21)
(-0.176017 -0.225503 -1.7392e-20)
(-0.17634 -0.223911 -1.07958e-20)
(-0.175266 -0.2188 -1.01025e-20)
(-0.172858 -0.209599 0)
(-0.170132 -0.195882 0)
(-0.00087779 -0.0080496 -2.46122e-20)
(-0.00561175 -0.0258759 4.24616e-20)
(-0.0155397 -0.0439459 -1.60829e-20)
(-0.0282073 -0.0607741 -3.05283e-20)
(-0.0422482 -0.075728 4.30965e-20)
(-0.0569302 -0.0888327 -2.72104e-20)
(-0.0717049 -0.100487 3.83755e-20)
(-0.0861651 -0.111233 2.43037e-20)
(-0.100037 -0.121585 0)
(-0.113149 -0.131924 -2.14111e-20)
(-0.125398 -0.142464 -7.04318e-23)
(-0.136727 -0.153259 1.89297e-20)
(-0.147101 -0.164229 2.68912e-20)
(-0.156493 -0.175193 3.36265e-20)
(-0.164875 -0.185894 -1.58484e-20)
(-0.172217 -0.196012 -4.44876e-20)
(-0.178481 -0.205167 1.37112e-20)
(-0.183632 -0.212921 -5.16761e-20)
(-0.187655 -0.218777 0)
(-0.190582 -0.222195 1.15136e-20)
(-0.192427 -0.222611 1.07839e-20)
(-0.193027 -0.219429 1.00913e-20)
(-0.192448 -0.211981 0)
(-0.192803 -0.199834 0)
(-0.00134628 -0.00282824 0)
(-0.00655645 -0.0137641 8.59444e-20)
(-0.0168812 -0.0274526 -3.24096e-20)
(-0.0298279 -0.0416062 3.06546e-20)
(-0.0440105 -0.0550822 -8.72166e-20)
(-0.058691 -0.0675532 0)
(-0.0733132 -0.0791548 -5.18292e-20)
(-0.0874648 -0.0902368 2.44678e-20)
(-0.100873 -0.101177 -4.63195e-20)
(-0.11337 -0.112271 2.20568e-20)
(-0.124863 -0.12368 1.22617e-19)
(-0.135302 -0.135437 -5.75678e-20)
(-0.144661 -0.147462 -8.98245e-20)
(-0.152923 -0.159584 -3.36316e-20)
(-0.16007 -0.171566 3.21132e-22)
(-0.166083 -0.183106 1.17705e-19)
(-0.170937 -0.19384 -5.50601e-20)
(-0.174603 -0.203334 3.76431e-22)
(-0.177072 -0.211077 0)
(-0.178388 -0.21648 -4.28037e-20)
(-0.178576 -0.218882 0)
(-0.177359 -0.217551 -3.65941e-20)
(-0.174603 -0.211728 1.3348e-19)
(-0.173462 -0.20107 -1.47922e-21)
(-0.0023956 0.00247513 0)
(-0.00855372 -0.00141699 4.61934e-22)
(-0.0190762 -0.0106087 3.31132e-20)
(-0.0317187 -0.0220327 -3.13925e-20)
(-0.045223 -0.0340218 2.90008e-20)
(-0.0589138 -0.0458691 1.66959e-19)
(-0.0722681 -0.0574203 -5.23181e-20)
(-0.084888 -0.0688171 -4.98159e-20)
(-0.0965039 -0.080292 9.32441e-20)
(-0.10695 -0.0920495 -1.31362e-19)
(-0.11613 -0.104205 4.14836e-20)
(-0.123994 -0.116772 3.90141e-20)
(-0.130516 -0.129672 0)
(-0.135683 -0.14275 3.38219e-20)
(-0.139488 -0.155791 0)
(-0.141925 -0.168519 5.89883e-20)
(-0.142988 -0.180599 -1.08039e-19)
(-0.142668 -0.191631 2.73089e-20)
(-0.140963 -0.201126 9.33181e-20)
(-0.137918 -0.208494 4.27659e-20)
(-0.133576 -0.212998 0)
(-0.127604 -0.213715 -1.02793e-19)
(-0.119316 -0.209627 3.33469e-20)
(-0.111974 -0.200224 0)
(-0.00393143 0.00740612 0)
(-0.0114136 0.0102221 -1.05467e-19)
(-0.0218859 0.00543039 -3.38521e-20)
(-0.0336051 -0.00326845 -6.32014e-20)
(-0.0455718 -0.0137418 5.95147e-20)
(-0.0572347 -0.0249182 -5.59125e-20)
(-0.0681373 -0.0363644 1.06526e-19)
(-0.0779147 -0.0479995 5.00638e-20)
(-0.0863004 -0.059904 -1.41404e-19)
(-0.0931205 -0.0721915 8.90564e-20)
(-0.0982658 -0.0849265 -1.25144e-19)
(-0.101672 -0.0981008 2.75533e-19)
(-0.103306 -0.111633 -1.47287e-19)
(-0.103154 -0.125377 6.90505e-20)
(-0.101219 -0.139128 1.90896e-19)
(-0.0975216 -0.152632 -6.08374e-20)
(-0.0921002 -0.165584 -5.68819e-20)
(-0.0850042 -0.177626 -5.11764e-20)
(-0.0762935 -0.188339 0)
(-0.0660623 -0.197211 -8.05016e-20)
(-0.0544598 -0.203567 -6.82327e-20)
(-0.0413724 -0.206417 1.02717e-19)
(-0.0255648 -0.204318 1.12895e-19)
(-0.00778904 -0.195829 -1.04968e-19)
(-0.00578339 0.0115697 0)
(-0.0148118 0.0203075 -1.44022e-19)
(-0.0249452 0.0196022 -9.9136e-22)
(-0.0351147 0.0135418 1.27996e-19)
(-0.0446743 0.00460268 0)
(-0.0532538 -0.0058364 0)
(-0.0604802 -0.0170754 0)
(-0.0660154 -0.0288225 -5.06932e-20)
(-0.069606 -0.0410184 -1.80043e-22)
(-0.0710661 -0.053673 9.04525e-20)
(-0.0702569 -0.0667908 -1.26356e-19)
(-0.067089 -0.0803326 1.76148e-22)
(-0.0615113 -0.0942014 0)
(-0.053507 -0.108241 -6.9017e-20)
(-0.0430959 -0.122242 6.37859e-20)
(-0.0303383 -0.135943 -1.79907e-19)
(-0.0153387 -0.149041 2.17251e-19)
(0.00175451 -0.161196 4.49405e-20)
(0.0207568 -0.172036 -7.25776e-21)
(0.0414518 -0.181152 -1.65976e-19)
(0.0635545 -0.188067 -7.15553e-20)
(0.0867361 -0.192099 2.16786e-19)
(0.111638 -0.191709 -1.40389e-19)
(0.143041 -0.183471 0)
(-0.00773473 0.01468 7.12134e-20)
(-0.0183341 0.0281782 7.22688e-20)
(-0.0278058 0.0310216 -6.96881e-20)
(-0.0358186 0.0273906 -1.30748e-19)
(-0.0421215 0.01995 1.23116e-19)
(-0.046535 0.0103081 -1.16691e-19)
(-0.0487993 -0.000610173 1.65232e-19)
(-0.0486288 -0.012339 -5.07244e-20)
(-0.0457618 -0.0246714 9.76645e-20)
(-0.0399838 -0.0375121 0)
(-0.0311354 -0.0507992 8.68689e-20)
(-0.019103 -0.0644483 -1.63333e-19)
(-0.00382626 -0.0783308 1.5055e-19)
(0.0146954 -0.092264 -1.41403e-19)
(0.0363957 -0.106012 0)
(0.0611331 -0.119288 1.20012e-19)
(0.0886865 -0.131764 2.16682e-19)
(0.118755 -0.143079 -2.03177e-19)
(0.15097 -0.152858 -8.98971e-20)
(0.18491 -0.160727 -7.60153e-20)
(0.220053 -0.166351 2.18039e-19)
(0.256143 -0.169336 5.61726e-20)
(0.291433 -0.169024 -5.74324e-20)
(0.34031 -0.15994 4.44978e-20)
(-0.00956273 0.0165936 -7.1223e-20)
(-0.0215343 0.0334235 2.24214e-19)
(-0.029968 0.0390581 -7.07927e-20)
(-0.0352217 0.0374937 1.33072e-19)
(-0.0374269 0.0314226 -1.25302e-19)
(-0.0365978 0.0225857 7.40968e-22)
(-0.0325862 0.0120646 5.61763e-20)
(-0.0251582 0.000481976 2.12588e-19)
(-0.0140657 -0.0118202 2.4124e-22)
(0.000918814 -0.0246492 -9.27746e-20)
(0.0199692 -0.0378635 0)
(0.0431884 -0.0513208 -8.20379e-20)
(0.0705948 -0.0648455 1.53621e-19)
(0.102105 -0.0782151 1.41126e-19)
(0.137516 -0.0911583 -6.66548e-20)
(0.176503 -0.103359 2.47117e-22)
(0.218616 -0.114466 -5.50455e-20)
(0.26329 -0.12411 9.97224e-20)
(0.30987 -0.131921 8.986e-20)
(0.357686 -0.137535 -8.00672e-20)
(0.405725 -0.140746 6.98661e-20)
(0.454872 -0.140802 -6.06967e-20)
(0.49722 -0.139427 0)
(0.563956 -0.127787 -4.44111e-20)
(-0.0110777 0.0173174 7.35821e-20)
(-0.0239897 0.0359131 -7.51899e-20)
(-0.0309155 0.0433901 7.23033e-20)
(-0.0327657 0.0433554 0)
(-0.0299979 0.0383928 0)
(-0.0228 0.0302842 1.22188e-19)
(-0.0111319 0.0202077 -1.13328e-19)
(0.00517896 0.00890262 1.07737e-19)
(0.0263501 -0.00317602 -5.03411e-19)
(0.0525793 -0.0157324 1.97174e-22)
(0.0839919 -0.0285416 8.89404e-20)
(0.120598 -0.0413917 0)
(0.162261 -0.0540499 -1.53388e-19)
(0.20867 -0.0662503 2.85934e-19)
(0.259326 -0.0776918 -1.99092e-19)
(0.313547 -0.0880462 -2.98917e-19)
(0.370484 -0.0969729 7.57759e-21)
(0.429163 -0.104138 2.02408e-19)
(0.488516 -0.109246 0)
(0.547624 -0.111961 0)
(0.604667 -0.112471 -6.9849e-20)
(0.662395 -0.109173 6.06818e-20)
(0.706706 -0.106508 -1.98043e-19)
(0.781292 -0.0920346 1.8585e-19)
(-0.012149 0.0169879 0)
(-0.0253317 0.0357844 0)
(-0.0301153 0.0440276 -2.183e-19)
(-0.0277844 0.0448361 6.92363e-20)
(-0.0190399 0.0405996 -8.76525e-23)
(-0.00421038 0.0330699 1.23497e-19)
(0.0166416 0.0234671 0)
(0.0436071 0.012611 -1.08577e-19)
(0.0768219 0.00105149 1.01142e-19)
(0.11637 -0.0108211 -1.91011e-19)
(0.162203 -0.0226967 5.30234e-22)
(0.214073 -0.0342932 1.65779e-19)
(0.271487 -0.0453289 -1.94823e-21)
(0.333685 -0.0555132 1.39386e-19)
(0.399646 -0.0645505 -2.00776e-19)
(0.468125 -0.0721525 0)
(0.537716 -0.0780551 2.14659e-19)
(0.606941 -0.0820345 -3.00586e-19)
(0.674313 -0.083947 8.74985e-20)
(0.738671 -0.083565 0)
(0.797917 -0.0814266 6.82414e-20)
(0.855035 -0.0756477 2.30505e-19)
(0.896063 -0.0717354 -2.16333e-19)
(0.962279 -0.0562668 -2.15957e-19)
(-0.0127065 0.0158252 2.29371e-19)
(-0.0252393 0.0333878 -3.15801e-19)
(-0.0269808 0.0412973 2.65876e-22)
(-0.0194278 0.0421977 7.0489e-20)
(-0.00343652 0.0382593 -1.32192e-19)
(0.020555 0.0311622 -1.22814e-19)
(0.052373 0.0221312 2.32128e-19)
(0.0919752 0.0120354 -1.11634e-21)
(0.139308 0.00149785 -2.04926e-19)
(0.194178 -0.00901381 3.82818e-19)
(0.256136 -0.0191242 -1.40165e-21)
(0.324408 -0.0285115 -1.6756e-19)
(0.397855 -0.0368902 0)
(0.474993 -0.0440089 0)
(0.554058 -0.0496572 -6.57171e-20)
(0.633111 -0.0536768 -1.18513e-19)
(0.710175 -0.0559689 -2.11886e-19)
(0.783373 -0.0565063 1.98898e-19)
(0.851068 -0.0553211 -8.75314e-20)
(0.911999 -0.0524722 1.49302e-19)
(0.964965 -0.0483532 -7.73813e-20)
(1.01126 -0.0420233 1.0584e-19)
(1.04359 -0.0374053 -2.66101e-19)
(1.08766 -0.024023 4.44006e-20)
(-0.0127066 0.0140687 7.75993e-20)
(-0.0233774 0.0291932 0)
(-0.0207889 0.0357837 1.50871e-19)
(-0.00655099 0.036107 -1.42124e-19)
(0.0183819 0.0321322 1.32309e-19)
(0.0534702 0.0254583 0)
(0.0983748 0.0172894 0)
(0.15279 0.00851471 -1.09772e-19)
(0.216261 -0.000201818 9.99399e-22)
(0.288024 -0.00835947 9.67787e-20)
(0.366885 -0.0155788 -8.85545e-20)
(0.451185 -0.0215793 1.67362e-19)
(0.538832 -0.0261714 0)
(0.627419 -0.0292539 2.79452e-19)
(0.714393 -0.0308124 -5.17268e-19)
(0.797257 -0.0309127 3.57883e-19)
(0.873769 -0.0296854 2.0803e-19)
(0.942104 -0.0273252 -1.95289e-19)
(1.00101 -0.0240036 0)
(1.04974 -0.020064 0)
(1.08846 -0.0154309 0)
(1.11743 -0.0106889 0)
(1.13705 -0.00599826 5.13904e-20)
(1.15667 0.00258993 -1.74345e-19)
(-0.168126 -0.175246 -6.62948e-21)
(-0.160559 -0.142765 6.65041e-21)
(-0.150083 -0.100035 -1.91303e-22)
(-0.136101 -0.0470137 0)
(-0.118603 0.0160718 -6.11821e-21)
(-0.097793 0.0876602 1.17624e-20)
(-0.073866 0.165326 -2.11137e-22)
(-0.0475023 0.24536 -5.28969e-21)
(-0.0199479 0.323901 0)
(0.00716295 0.396936 0)
(0.0317802 0.46119 -2.16977e-22)
(0.0526954 0.512838 -1.91766e-22)
(0.0704839 0.550194 -2.90605e-21)
(0.0880192 0.570003 2.65804e-21)
(0.1112 0.566154 0)
(0.14694 0.530653 0)
(0.199465 0.45701 2.57491e-21)
(0.266846 0.345138 2.04744e-22)
(0.342603 0.201486 -2.45065e-21)
(0.42061 0.0362791 -1.79788e-22)
(0.497139 -0.13615 0)
(0.567737 -0.293277 0)
(0.626462 -0.412495 0)
(0.668432 -0.483836 0)
(0.691896 -0.512815 0)
(0.700597 -0.511246 0)
(0.698177 -0.494989 2.72347e-22)
(0.678919 -0.48614 -4.37991e-22)
(0.636812 -0.494382 0)
(0.584266 -0.493006 0)
(0.551027 -0.430516 -4.9313e-22)
(0.558145 -0.28145 4.79273e-22)
(0.60111 -0.0755535 2.53396e-22)
(0.660858 0.127885 0)
(0.717785 0.284771 0)
(0.761812 0.379038 2.99681e-22)
(0.792898 0.41647 -2.91301e-22)
(0.808192 0.428075 0)
(0.794226 0.446648 2.0632e-22)
(0.751242 0.471042 -3.0651e-22)
(0.70425 0.442563 1.23175e-22)
(0.684299 0.322274 0)
(0.700956 0.12124 -2.9415e-22)
(0.737439 -0.0817129 2.8602e-22)
(0.782918 -0.236024 0)
(0.820629 -0.320664 0)
(0.830684 -0.365185 -6.4768e-23)
(0.801849 -0.401741 1.76974e-22)
(0.7506 -0.389834 0)
(0.716725 -0.325491 0)
(0.723699 -0.143474 -5.61704e-23)
(0.759325 0.0130661 5.95257e-24)
(0.796082 0.188627 -5.78584e-24)
(0.795447 0.294413 3.33677e-23)
(0.773937 0.364915 0)
(0.740634 0.392326 0)
(0.751034 0.213242 0)
(0.75022 0.14973 0)
(0.763695 -0.140289 0)
(0.742755 -0.240692 0)
(-0.19801 -0.181208 -5.63738e-22)
(-0.197026 -0.152366 -2.35981e-20)
(-0.19323 -0.11341 3.95305e-22)
(-0.186059 -0.0644872 2.18075e-20)
(-0.174853 -0.00576741 2.99841e-22)
(-0.159656 0.0620814 0)
(-0.140368 0.13678 -1.81437e-20)
(-0.117109 0.215112 3.48797e-20)
(-0.0904288 0.29334 -1.67352e-20)
(-0.061022 0.367767 1.39243e-20)
(-0.0309118 0.434855 -1.33169e-20)
(-7.56788e-05 0.488722 1.1125e-20)
(0.0337743 0.52693 -1.07835e-20)
(0.0729363 0.544429 -3.03726e-22)
(0.121362 0.534574 -1.01411e-20)
(0.182562 0.490943 9.85465e-21)
(0.256634 0.410244 -1.13765e-20)
(0.33892 0.294909 1.068e-20)
(0.423055 0.151317 -1.24725e-20)
(0.504514 -0.0122437 2.4024e-20)
(0.580805 -0.181666 -1.15625e-20)
(0.647054 -0.33335 -6.3483e-22)
(0.69684 -0.44362 -7.20813e-21)
(0.727032 -0.503477 1.25156e-20)
(0.737995 -0.521544 -5.35568e-21)
(0.734338 -0.512024 2.25647e-22)
(0.722351 -0.488386 2.89028e-21)
(0.699004 -0.469522 -5.77845e-23)
(0.655093 -0.469051 -5.12573e-21)
(0.596183 -0.469078 5.46967e-21)
(0.549497 -0.420988 -2.84024e-21)
(0.541633 -0.291173 4.06835e-22)
(0.574239 -0.0993827 -2.53911e-22)
(0.629712 0.0995419 4.10296e-22)
(0.687925 0.259805 0)
(0.738161 0.360523 0)
(0.777557 0.4055 -9.39834e-22)
(0.798738 0.427113 6.99814e-22)
(0.788009 0.456482 6.5635e-22)
(0.748683 0.486479 2.32446e-22)
(0.709358 0.454466 -1.06385e-21)
(0.697617 0.324466 3.21844e-22)
(0.720453 0.114407 0)
(0.757463 -0.0939183 0)
(0.79941 -0.248451 0)
(0.832317 -0.327712 0)
(0.839654 -0.362564 2.84855e-22)
(0.809996 -0.390857 -1.14085e-22)
(0.756239 -0.378389 0)
(0.720993 -0.321681 0)
(0.723467 -0.149096 0)
(0.758894 0.00386302 -7.83956e-23)
(0.792244 0.184163 1.73124e-23)
(0.791542 0.296523 -7.57709e-23)
(0.770496 0.370447 0)
(0.736975 0.395323 0)
(0.75134 0.211583 5.97672e-23)
(0.751513 0.148568 1.91806e-22)
(0.769218 -0.139162 0)
(0.74739 -0.239394 0)
(-0.18159 -0.184404 -8.49732e-22)
(-0.186656 -0.159355 -4.21014e-20)
(-0.188362 -0.124232 3.92749e-20)
(-0.187474 -0.0797142 -3.67991e-20)
(-0.182321 -0.0257406 -3.0192e-22)
(-0.172718 0.03701 0)
(-0.158454 0.107467 -3.01458e-20)
(-0.138891 0.182572 2.94389e-20)
(-0.113471 0.258396 2.27655e-22)
(-0.0819433 0.332739 3.32446e-22)
(-0.0466388 0.398118 3.08955e-22)
(-0.00645922 0.451661 3.41439e-22)
(0.0420313 0.488844 -1.94576e-20)
(0.099297 0.503381 1.92141e-20)
(0.16705 0.488972 0)
(0.245804 0.440893 6.66557e-22)
(0.333119 0.358142 -2.43251e-20)
(0.423433 0.244283 2.40105e-20)
(0.511117 0.104756 0)
(0.593184 -0.0541018 0)
(0.667596 -0.218235 -2.3683e-20)
(0.72826 -0.363018 4.2801e-20)
(0.768108 -0.464292 -3.38505e-20)
(0.785794 -0.514152 3.66718e-21)
(0.784514 -0.523301 1.94403e-20)
(0.76952 -0.508035 -1.51678e-20)
(0.748223 -0.479883 1.13922e-20)
(0.720841 -0.45309 -7.91231e-22)
(0.67679 -0.443412 -4.55434e-21)
(0.614461 -0.442622 0)
(0.556346 -0.407836 0)
(0.53318 -0.298723 2.37494e-21)
(0.553646 -0.123212 -3.02925e-21)
(0.603178 0.0693273 -6.63147e-23)
(0.661694 0.231586 2.4401e-21)
(0.717452 0.338326 -2.37135e-21)
(0.764315 0.391607 0)
(0.790797 0.424225 2.1462e-22)
(0.783572 0.464678 2.00378e-21)
(0.748723 0.500107 -4.28284e-21)
(0.717355 0.464987 2.0104e-21)
(0.713598 0.326495 3.70393e-22)
(0.742399 0.108884 -3.55591e-21)
(0.780041 -0.103649 2.73e-21)
(0.818123 -0.258432 5.43169e-22)
(0.845776 -0.33327 3.96955e-22)
(0.850169 -0.3593 -2.85566e-22)
(0.819837 -0.3797 0)
(0.763878 -0.366843 0)
(0.727543 -0.318009 -6.7548e-22)
(0.725437 -0.154948 3.38966e-22)
(0.760264 -0.00555323 -2.87775e-22)
(0.790123 0.17956 4.25807e-22)
(0.789159 0.298426 5.28362e-22)
(0.768377 0.37577 -1.41996e-22)
(0.734452 0.398265 2.71597e-22)
(0.75271 0.209591 -2.70431e-22)
(0.754013 0.147024 1.63862e-22)
(0.776132 -0.138114 0)
(0.753044 -0.238062 0)
(-0.119456 -0.184658 -7.68047e-20)
(-0.130065 -0.163409 4.51985e-21)
(-0.135776 -0.132207 6.8308e-20)
(-0.139645 -0.0921393 -5.33732e-22)
(-0.139806 -0.0431511 0)
(-0.134992 0.0137995 0)
(-0.124684 0.0790654 -4.70891e-20)
(-0.109042 0.150015 1.92037e-21)
(-0.0849641 0.221512 6.21584e-20)
(-0.0535842 0.291038 -1.05896e-21)
(-0.0157272 0.352571 -1.84512e-20)
(0.0320815 0.404449 -1.70364e-20)
(0.0905073 0.439546 1.70349e-20)
(0.159455 0.451494 0)
(0.238875 0.434655 -2.09096e-20)
(0.327191 0.385674 1.89698e-20)
(0.42058 0.304954 0)
(0.513386 0.196318 0)
(0.601077 0.0635757 2.74317e-20)
(0.682204 -0.0887033 -1.89021e-22)
(0.754255 -0.246586 -2.4927e-20)
(0.809108 -0.383858 -2.06206e-20)
(0.838855 -0.476265 2.04799e-20)
(0.843903 -0.517404 -1.21973e-20)
(0.830705 -0.519333 3.03861e-21)
(0.80555 -0.49982 8.46926e-21)
(0.775501 -0.46955 6.95688e-22)
(0.743695 -0.437584 2.2273e-23)
(0.700578 -0.418751 0)
(0.638159 -0.414108 4.02649e-21)
(0.5716 -0.390048 -4.14241e-21)
(0.533359 -0.302411 3.35954e-22)
(0.54007 -0.145844 0)
(0.581951 0.0379318 -3.48433e-22)
(0.639583 0.200538 4.22217e-21)
(0.699845 0.312765 -7.30076e-21)
(0.753094 0.374902 -2.15352e-22)
(0.784282 0.419141 -1.09092e-22)
(0.780829 0.470687 2.85302e-21)
(0.75107 0.511519 4.73497e-22)
(0.727665 0.474106 -5.31826e-21)
(0.731545 0.328646 4.47074e-21)
(0.766115 0.104865 -4.30495e-23)
(0.804716 -0.110871 2.56967e-21)
(0.838827 -0.266009 -3.04297e-21)
(0.86086 -0.337475 -2.63051e-21)
(0.862049 -0.355635 7.92005e-22)
(0.8311 -0.368414 7.63023e-22)
(0.773184 -0.355128 -1.39003e-21)
(0.736005 -0.314279 9.58178e-22)
(0.729346 -0.160866 -2.9523e-22)
(0.76329 -0.0151535 3.0496e-22)
(0.789656 0.174787 2.33811e-22)
(0.788294 0.300122 -7.5287e-22)
(0.767621 0.380907 -7.93289e-24)
(0.73317 0.401202 -3.09235e-22)
(0.755187 0.20731 0)
(0.75772 0.145093 -1.43447e-22)
(0.784399 -0.137136 3.90228e-22)
(0.75971 -0.23666 0)
(-0.0134552 -0.181297 6.9308e-20)
(-0.0304512 -0.163654 -1.29695e-19)
(-0.0405376 -0.137066 5.99248e-20)
(-0.0487112 -0.101665 4.95718e-20)
(-0.0535777 -0.057705 -9.28809e-20)
(-0.0526762 -0.00562036 3.79529e-21)
(-0.0448649 0.052987 3.88442e-20)
(-0.0329079 0.116176 3.28221e-20)
(-0.0133769 0.181355 -3.21844e-20)
(0.016568 0.244335 0)
(0.0560532 0.302712 -2.93596e-20)
(0.106938 0.351361 5.88865e-20)
(0.169486 0.383714 -2.95772e-20)
(0.243285 0.39384 0)
(0.327067 0.376721 0)
(0.418101 0.329772 6.80861e-22)
(0.511949 0.254012 -5.12164e-20)
(0.603257 0.152969 4.97464e-20)
(0.688959 0.0285921 0)
(0.768809 -0.116058 5.55877e-20)
(0.838617 -0.266702 -1.00875e-19)
(0.887445 -0.395513 8.78044e-20)
(0.906987 -0.478926 -7.25401e-20)
(0.899719 -0.512748 7.05888e-21)
(0.875256 -0.509738 4.14843e-20)
(0.841415 -0.487688 -1.7538e-20)
(0.80394 -0.457148 -3.45675e-22)
(0.767463 -0.423019 -3.59864e-21)
(0.725465 -0.396586 4.2827e-22)
(0.665779 -0.385695 3.23651e-21)
(0.594648 -0.36846 2.32736e-22)
(0.542685 -0.301224 -3.97072e-21)
(0.53435 -0.165909 7.96768e-21)
(0.566788 0.00662438 -4.45009e-21)
(0.622066 0.167128 0)
(0.685405 0.284083 -3.62753e-21)
(0.74372 0.355309 3.49265e-21)
(0.779007 0.411448 -2.89187e-21)
(0.779593 0.473981 3.5901e-21)
(0.75537 0.520453 -4.92434e-22)
(0.739725 0.481954 0)
(0.750799 0.331204 -7.69405e-22)
(0.790934 0.102557 2.467e-21)
(0.830965 -0.115577 0)
(0.861216 -0.271042 5.29012e-21)
(0.877339 -0.340198 -2.30064e-21)
(0.875112 -0.35157 5.80828e-22)
(0.843605 -0.357064 3.91873e-22)
(0.78388 -0.343275 0)
(0.745974 -0.310435 0)
(0.734874 -0.166755 -7.05088e-22)
(0.767773 -0.024933 1.05292e-21)
(0.790739 0.169794 -6.04225e-22)
(0.788923 0.301589 1.86225e-22)
(0.768267 0.38587 4.677e-22)
(0.733229 0.40418 3.09534e-22)
(0.758813 0.204763 -6.84712e-22)
(0.762637 0.142741 0)
(0.793971 -0.136216 -5.70885e-22)
(0.767374 -0.235146 -1.39953e-22)
(0.137072 -0.172041 6.44398e-20)
(0.112919 -0.157766 -6.38599e-20)
(0.0955199 -0.137006 4.30447e-22)
(0.0814755 -0.107856 -3.2707e-22)
(0.0708536 -0.0702172 3.33035e-22)
(0.0651507 -0.0244823 -2.93491e-22)
(0.0665597 0.0266972 3.99368e-22)
(0.0751514 0.0820377 0)
(0.0916649 0.140881 -3.30798e-22)
(0.118582 0.198739 3.2122e-22)
(0.156363 0.252359 3.30308e-22)
(0.20599 0.296705 -4.25442e-22)
(0.267709 0.326155 0)
(0.340755 0.335243 0)
(0.423241 0.319444 5.58582e-22)
(0.512017 0.276454 0)
(0.602617 0.207295 -7.32768e-22)
(0.690245 0.114725 0)
(0.773406 -0.000739406 -5.40453e-20)
(0.852127 -0.13712 1.06251e-19)
(0.919427 -0.279218 -9.93283e-20)
(0.961591 -0.398478 4.71905e-20)
(0.970798 -0.473025 3.21511e-20)
(0.952037 -0.501053 -3.1222e-20)
(0.917402 -0.495411 -1.83268e-20)
(0.876294 -0.472524 1.76435e-20)
(0.833037 -0.442875 0)
(0.791951 -0.409024 2.39432e-22)
(0.750467 -0.377437 0)
(0.69546 -0.359071 0)
(0.62409 -0.344201 5.05708e-21)
(0.56116 -0.29473 -5.171e-21)
(0.537349 -0.182181 3.30422e-22)
(0.558359 -0.0243385 4.6298e-22)
(0.609305 0.13186 -3.25344e-22)
(0.674071 0.252537 -2.70404e-21)
(0.735962 0.332755 2.62559e-21)
(0.774755 0.400738 -3.47186e-21)
(0.779572 0.474099 3.0096e-21)
(0.761162 0.526739 9.88713e-22)
(0.752964 0.488691 -5.78701e-21)
(0.770747 0.334378 -1.86317e-21)
(0.81623 0.101959 4.79407e-21)
(0.858255 -0.117847 0)
(0.88497 -0.273484 -2.44859e-21)
(0.894965 -0.341375 2.07725e-21)
(0.889123 -0.347172 -2.8465e-21)
(0.857135 -0.345721 -3.94351e-22)
(0.795704 -0.331246 0)
(0.757032 -0.306368 2.08778e-22)