/*--------------------------------*- C++ -*----------------------------------*\
| =========                 |                                                 |
| \\      /  F ield         | OpenFOAM: The Open Source CFD Toolbox           |
|  \\    /   O peration     | Version:  2512                                  |
|   \\  /    A nd           | Website:  www.openfoam.com                      |
|    \\/     M anipulation  |                                                 |
\*---------------------------------------------------------------------------*/
FoamFile
{
    version     2.0;
    format      ascii;
    arch        "LSB;label=32;scalar=64";
    class       surfaceScalarField;
    location    "20";
    object      phi;
}
// * * * * * * * * * * * * * * * * * * * * * * * * * * * * * * * * * * * * * //

dimensions      [0 3 -1 0 0 0 0];

oriented        oriented;

internalField   nonuniform List<scalar> 
26232
(
3.22448e-05
0.000974725
-0.00100697
0.000302634
0.00193183
-0.00220222
0.000963491
0.00204606
-0.00270692
0.00215862
0.00136954
-0.00256467
0.00403164
-6.8384e-05
-0.00180463
0.00672839
-0.00225466
-0.000442093
0.0103921
-0.00518262
0.00151892
0.0151554
-0.00884496
0.00408162
0.0211274
-0.0132219
0.00724989
0.0283784
-0.0182723
0.0110213
0.0369256
-0.0239279
0.0153807
0.046722
-0.0300918
0.0202954
0.0576517
-0.0366417
0.025712
0.069532
-0.0434371
0.0315569
0.0821226
-0.0503291
0.0377385
0.095142
-0.0571714
0.044152
0.108287
-0.0638306
0.0506857
0.121255
-0.0701966
0.0572287
0.133767
-0.0761851
0.0636729
0.145587
-0.0817596
0.0699395
0.156531
-0.0868734
0.0759291
0.166471
-0.0916434
0.0817036
0.175285
-0.0958324
0.0870186
-0.100148
0.0928838
0.182549
7.4297e-05
0.000900429
0.000499075
0.00150705
0.00145649
0.00108865
0.00311931
-0.000293275
0.00565724
-0.00260631
0.00923181
-0.00582923
0.0139861
-0.00993695
0.0200269
-0.0148857
0.0274054
-0.0206004
0.0361002
-0.0269671
0.046007
-0.0338347
0.0569384
-0.0410233
0.0686348
-0.0483381
0.0807844
-0.0555867
0.0930509
-0.0625956
0.105103
-0.0692237
0.116645
-0.0753728
0.127441
-0.0809919
0.137333
-0.0860771
0.146242
-0.0906693
0.154197
-0.0948278
0.161243
-0.0986895
0.167606
-0.102196
-0.105914
0.173372
0.000136284
0.000764144
0.000768528
0.000874808
0.00210581
-0.000248632
0.00434503
-0.00253249
0.00766989
-0.00593118
0.0122369
-0.0103962
0.0181535
-0.0158536
0.0254537
-0.0221859
0.0340778
-0.0292245
0.0438641
-0.0367533
0.0545551
-0.0445257
0.0658203
-0.0522885
0.0772899
-0.0598076
0.0885946
-0.0668914
0.0994052
-0.0734061
0.109465
-0.0792831
0.11861
-0.0845184
0.126782
-0.0891637
0.134016
-0.0933115
0.140427
-0.0970801
0.146184
-0.100585
0.151458
-0.103963
0.156468
-0.107206
-0.110724
0.161279
0.000218925
0.000545219
0.00111188
-1.81502e-05
0.00290762
-0.00204437
0.00581463
-0.0054395
0.0100081
-0.0101247
0.0156034
-0.0159915
0.0226246
-0.0228748
0.0309809
-0.0305422
0.0404588
-0.0387025
0.0507377
-0.0470322
0.0614256
-0.0552137
0.0721091
-0.0629719
0.0824052
-0.0701037
0.0920072
-0.0764935
0.100715
-0.0821138
0.108447
-0.0870148
0.115232
-0.0913035
0.121187
-0.095119
0.126484
-0.0986083
0.13131
-0.101906
0.135844
-0.105119
0.14022
-0.108339
0.144573
-0.111559
-0.115039
0.148887
0.000321603
0.000223616
0.00152344
-0.00121999
0.00384111
-0.00436204
0.00747285
-0.00907124
0.0125507
-0.0152025
0.0191015
-0.0225423
0.0270159
-0.0307891
0.0360396
-0.039566
0.0457976
-0.0484604
0.0558448
-0.0570794
0.0657329
-0.0651018
0.0750749
-0.0723138
0.0835933
-0.0786222
0.0911448
-0.0840449
0.0977174
-0.0886864
0.103406
-0.0927039
0.108376
-0.0962728
0.112816
-0.099559
0.116908
-0.1027
0.1208
-0.105799
0.124602
-0.108921
0.128376
-0.112113
0.132183
-0.115365
-0.11884
0.135985
0.000442691
-0.000219074
0.00199209
-0.00276939
0.00487013
-0.00724008
0.00923293
-0.013434
0.0151247
-0.0210943
0.0224351
-0.0298527
0.0308851
-0.0392391
0.0400555
-0.0487363
0.0494537
-0.0578586
0.0585984
-0.0662241
0.0670968
-0.0736003
0.0746955
-0.0799126
0.081296
-0.0852227
0.0869377
-0.0896866
0.0917581
-0.0935068
0.095944
-0.0968897
0.0996871
-0.100016
0.103153
-0.103025
0.106468
-0.106015
0.109717
-0.109048
0.112953
-0.112157
0.116202
-0.115362
0.119497
-0.11866
-0.122136
0.122792
0.000579336
-0.00079841
0.00250025
-0.0046903
0.00594226
-0.0106821
0.0109788
-0.0184706
0.0175192
-0.0276348
0.0252805
-0.037614
0.0338129
-0.0477715
0.0425798
-0.0575032
0.0510615
-0.0663403
0.0588485
-0.0740111
0.065696
-0.0804478
0.0715325
-0.0857491
0.0764293
-0.0901194
0.0805481
-0.0938054
0.0840859
-0.0970447
0.0872308
-0.100035
0.0901359
-0.102921
0.0929118
-0.105801
0.0956305
-0.108734
0.0983353
-0.111752
0.101051
-0.114872
0.103788
-0.1181
0.106562
-0.121433
-0.12491
0.109336
0.000726842
-0.00152525
0.0030229
-0.00698636
0.00698937
-0.0146486
0.012573
-0.0240542
0.0195116
-0.0345734
0.0273441
-0.0454464
0.0354939
-0.0559214
0.0433937
-0.065403
0.0505987
-0.0735453
0.0568507
-0.0802632
0.0620839
-0.085681
0.0663837
-0.0900489
0.0699249
-0.0936606
0.0729097
-0.0967902
0.0755238
-0.0996588
0.0779134
-0.102424
0.0801804
-0.105188
0.0823896
-0.10801
0.0845791
-0.110924
0.0867696
-0.113943
0.0889722
-0.117075
0.0911914
-0.120319
0.0934328
-0.123674
-0.127149
0.0956712
0.000878128
-0.00240338
0.00352781
-0.00963604
0.00793233
-0.0190531
0.0138738
-0.0299957
0.0209054
-0.041605
0.0284218
-0.0529628
0.0357985
-0.0632981
0.0425325
-0.072137
0.0483252
-0.079338
0.0530925
-0.0850304
0.0569175
-0.089506
0.0599795
-0.0931109
0.062485
-0.0961661
0.0646211
-0.0989263
0.0665321
-0.10157
0.0683171
-0.104209
0.0700372
-0.106908
0.0717276
-0.109701
0.0734073
-0.112603
0.0750863
-0.115622
0.0767693
-0.118758
0.0784588
-0.122009
0.0801557
-0.125371
-0.128837
0.0818443
0.00102384
-0.00342722
0.00397785
-0.0125901
0.00869051
-0.0237657
0.0147576
-0.0360628
0.0215666
-0.0484141
0.0284344
-0.0598306
0.0347767
-0.0696403
0.0402232
-0.0775834
0.0446434
-0.0837582
0.0480997
-0.0884868
0.0507673
-0.0921737
0.0528568
-0.0952003
0.0545601
-0.0978695
0.0560254
-0.100392
0.057353
-0.102897
0.0586041
-0.10546
0.0598131
-0.108117
0.0609984
-0.110886
0.0621696
-0.113774
0.0633319
-0.116784
0.0644876
-0.119914
0.0656377
-0.123159
0.0667807
-0.126514
-0.129965
0.0679083
0.0011537
-0.00458092
0.00433671
-0.0157731
0.00919503
-0.028624
0.0151403
-0.042008
0.0214439
-0.0547177
0.0274248
-0.0658115
0.0326081
-0.0748236
0.0367835
-0.0817588
0.0399682
-0.0869429
0.0423214
-0.0908399
0.0440549
-0.0939072
0.0453691
-0.0965145
0.0464205
-0.0989209
0.0473155
-0.101287
0.0481186
-0.103701
0.0488655
-0.106207
0.0495751
-0.108827
0.0502572
-0.111568
0.0509171
-0.114434
0.0515579
-0.117425
0.0521807
-0.120536
0.0527855
-0.123764
0.0533691
-0.127098
-0.130524
0.0539278
0.00126048
-0.00584141
0.00457704
-0.0190896
0.0094009
-0.0334479
0.0149893
-0.0475964
0.0205669
-0.0602953
0.0255262
-0.0707709
0.029538
-0.0788355
0.0325417
-0.0847625
0.0346605
-0.0890617
0.0361005
-0.0922799
0.037071
-0.0948777
0.0377416
-0.0971852
0.0382296
-0.0994089
0.0386065
-0.101663
0.0389116
-0.104006
0.0391652
-0.106461
0.0393775
-0.109039
0.0395543
-0.111745
0.039699
-0.114579
0.0398138
-0.11754
0.0398997
-0.120622
0.0399563
-0.12382
0.0399807
-0.127122
0.0399726
-0.130516
-0.000271154
0.000103878
0.000167276
-0.000939093
0.000268332
0.000399607
-0.00191891
0.000416853
0.000562963
-0.00315028
0.000557588
0.000673781
-0.00458913
0.000693286
0.000745562
-0.00620402
0.000825402
0.000789493
-0.0079735
0.000955255
0.000814222
-0.00988378
0.0010845
0.000825782
-0.0119269
0.0012153
0.000827788
-0.0140989
0.00135021
0.000821846
-0.0163989
0.00149193
0.00080805
-0.0188275
0.00164306
0.000785481
-0.021386
0.00180596
0.000752621
-0.0240764
0.00198272
0.000707651
-0.0269003
0.0021752
0.000648658
-0.0298592
0.00238518
0.000573776
-0.0329551
0.00261455
0.000481294
-0.0361904
0.00286556
0.000369749
-0.0395695
0.00314121
0.00023796
-0.0430986
0.00344532
8.37535e-05
-0.0467933
0.00378111
-8.64168e-05
-0.050669
0.0041536
-0.000277867
-0.0547573
0.00457545
-0.000487233
0.0050703
-0.0591185
-0.000709087
-0.000256166
0.000360044
-0.00088966
0.000901826
-0.00181971
0.0013469
-0.00298737
0.00172526
-0.00434859
0.0020545
-0.00587093
0.00234774
-0.00753115
0.00261548
-0.00931306
0.00286641
-0.0112056
0.00310786
-0.0132014
0.00334599
-0.0152952
0.00358577
-0.0174831
0.00383094
-0.0197613
0.00408414
-0.0221256
0.00434704
-0.0245711
0.00462067
-0.0270916
0.0049057
-0.02968
0.00520296
-0.0323284
0.00551392
-0.0350287
0.00584156
-0.0377748
0.00619134
-0.0405648
0.00657116
-0.0434017
0.00699047
-0.0462966
0.00747041
0.00807074
-0.0492971
-0.000222351
0.000582395
-0.000777963
0.00145744
-0.00159608
0.00216502
-0.00262185
0.00275103
-0.00381193
0.00324458
-0.00513229
0.00366809
-0.00655631
0.0040395
-0.00806305
0.00437314
-0.00963561
0.00468043
-0.0112598
0.00497014
-0.0129226
0.00524866
-0.0146118
0.0055201
-0.0163142
0.00578656
-0.0180156
0.00604845
-0.0196998
0.00630488
-0.0213482
0.00655406
-0.0229391
0.00679389
-0.0244478
0.00702262
-0.0258461
0.00723984
-0.0271033
0.00744849
-0.0281896
0.00765746
-0.0290813
0.00788217
-0.0297571
0.00814624
0.00852078
-0.0302071
-0.000176035
0.000758431
-0.000623425
0.00190483
-0.00128461
0.0028262
-0.00211032
0.00357674
-0.00305841
0.00419267
-0.004093
0.00470268
-0.00518335
0.00512985
-0.00630264
0.00549244
-0.00742675
0.00580454
-0.0085331
0.00607649
-0.00959963
0.00631519
-0.0106039
0.00652436
-0.0115223
0.00670496
-0.0123294
0.00685555
-0.0129972
0.0069727
-0.0134946
0.00705143
-0.0137863
0.00708565
-0.0138324
0.00706871
-0.0135867
0.00699415
-0.0129955
0.00685728
-0.0119976
0.00665952
-0.0105299
0.00641448
-0.00853807
0.00615441
0.00599121
-0.0060085
-0.000125278
0.000883708
-0.000450973
0.00223052
-0.000932522
0.00330775
-0.00152618
0.0041704
-0.00219105
0.00485754
-0.00288943
0.00540105
-0.00358646
0.00582688
-0.00424946
0.00615544
-0.00484706
0.00640214
-0.00534837
0.0065778
-0.00572218
0.00668899
-0.00593625
0.00673844
-0.00595679
0.00672549
-0.00574772
0.00664648
-0.00527043
0.00649541
-0.00448297
0.00626397
-0.00333947
0.00594216
-0.00178924
0.00551848
0.000224623
0.00498029
0.00276747
0.00431443
0.00591786
0.00350913
0.00976792
0.00256442
0.0144172
0.00150509
0.000376022
0.0200324
-7.80716e-05
0.00096178
-0.000285657
0.00243811
-0.000587697
0.00360979
-0.000944332
0.00452704
-0.00131524
0.00522845
-0.00166085
0.00574666
-0.0019425
0.00610853
-0.00212213
0.00633507
-0.00216169
0.00644171
-0.00202257
0.00643868
-0.00166491
0.00633133
-0.0010471
0.00612063
-0.000125283
0.00580368
0.00114693
0.00537427
0.00281921
0.00482312
0.0049445
0.00413868
0.00757951
0.00330714
0.0107851
0.00231291
0.0146266
0.00113874
0.0191743
-0.000233286
0.0245084
-0.00182496
0.0307323
-0.00365945
0.0379103
-0.00567296
-0.00817747
0.0464638
-4.06415e-05
0.00100242
-0.000147259
0.00254473
-0.000288297
0.00375083
-0.000424705
0.00466345
-0.000515075
0.00531882
-0.000517386
0.00574897
-0.000388895
0.00598004
-8.60591e-05
0.00603223
0.000435965
0.00591968
0.00122395
0.00565069
0.00232715
0.00522814
0.00379777
0.00465001
0.00569144
0.00391001
0.00806756
0.00299814
0.0109894
0.00190132
0.0145238
0.000604243
0.0187417
-0.000910763
0.0237169
-0.00266223
0.0295248
-0.00466923
0.0362436
-0.00695203
0.0439395
-0.00952083
0.0527298
-0.0124498
0.0625366
-0.0154797
-0.0196857
0.0740448
-1.61477e-05
0.00101857
-4.59293e-05
0.00257451
-5.38483e-05
0.00375875
2.58255e-06
0.00460702
0.000168148
0.00515325
0.000489832
0.00542729
0.00101613
0.00545374
0.00179795
0.00525041
0.00288929
0.00482834
0.00434792
0.00419206
0.00623595
0.00334011
0.0086202
0.00226575
0.0115723
0.000957929
0.0151683
-0.000597886
0.0194885
-0.00241883
0.0246154
-0.00452268
0.0306323
-0.00692773
0.0376209
-0.00965082
0.0456575
-0.0127058
0.0548136
-0.0161081
0.0651246
-0.0198319
0.076705
-0.0240302
0.0893051
-0.0280798
-0.0340701
0.103689
-4.03982e-06
0.00102261
2.01897e-05
0.00255028
0.000119571
0.00365937
0.000345157
0.00438143
0.000749927
0.00474848
0.0013889
0.00478832
0.00232055
0.00452209
0.00360775
0.00396321
0.00531869
0.0031174
0.00752752
0.00198323
0.0103144
0.000553261
0.0137649
-0.0011848
0.017969
-0.00324619
0.0230186
-0.00564747
0.0290044
-0.00840461
0.0360126
-0.0115309
0.0441202
-0.0150353
0.0533899
-0.0189206
0.0638647
-0.0231806
0.0755671
-0.0278106
0.0884699
-0.0327347
0.102596
-0.0381565
0.117657
-0.0431405
-0.0504901
0.134077
-1.41788e-08
0.00102262
6.50206e-05
0.00248524
0.000260556
0.00346383
0.000651741
0.00399024
0.00130478
0.00409544
0.00228904
0.00380406
0.00367905
0.00313208
0.0055559
0.00208636
0.00800785
0.000665449
0.0111297
-0.00113864
0.0150212
-0.00333817
0.0197833
-0.00594694
0.0255144
-0.00897731
0.0323043
-0.0124373
0.0402276
-0.016328
0.0493382
-0.0206414
0.0596621
-0.0253592
0.0711936
-0.0304521
0.0838916
-0.0358785
0.0976765
-0.0415954
0.112435
-0.0474935
0.128
-0.0537215
0.144223
-0.0593632
-0.067069
0.160802
2.90247e-06
0.00101972
0.000111631
0.00237652
0.000415699
0.00315977
0.0010001
0.00340585
0.00195061
0.00314493
0.00335742
0.00239725
0.00531732
0.00117218
0.00793422
-0.000530548
0.0113179
-0.00271824
0.0155799
-0.00540063
0.0208279
-0.00858613
0.0271579
-0.012277
0.034646
-0.0164654
0.043339
-0.0211303
0.0532472
-0.0262362
0.0643384
-0.0317326
0.0765348
-0.0375556
0.0897138
-0.0436311
0.103711
-0.0498762
0.11833
-0.0562142
0.133369
-0.0625326
0.148534
-0.0688861
0.163846
-0.0746751
-0.0815527
0.178329
1.27506e-05
0.000187047
0.000639893
0.00148106
0.00282136
0.00477652
0.00746762
0.0110187
0.0155503
0.021171
0.0279656
0.035984
0.0452306
0.0556571
0.0671593
0.0795788
0.0927089
0.106307
0.120103
0.133829
0.147225
0.160042
0.172386
0.183717
-0.0623386
0.00453842
-0.00131832
-0.0653851
0.00482952
-0.00178299
-0.0682096
0.00508756
-0.00226304
-0.0707345
0.00527204
-0.00274721
-0.0728754
0.00534423
-0.00320328
-0.0745338
0.00526131
-0.00360298
-0.0756002
0.00497293
-0.00390654
-0.0759535
0.00442972
-0.00407639
-0.0754656
0.00359294
-0.00408087
-0.0740058
0.00243398
-0.00389371
-0.0714452
0.000929394
-0.00348997
-0.0677243
-0.000830003
-0.00289091
-0.0627595
-0.00287819
-0.00208668
-0.0564571
-0.00524504
-0.00105729
-0.0487718
-0.00781976
0.000134403
-0.0397136
-0.0104568
0.00139861
-0.0293347
-0.013067
0.00268814
-0.0178348
-0.0152743
0.00377429
-0.00535219
-0.0170478
0.00456518
0.00778657
-0.0180601
0.00492129
0.0213079
-0.0182955
0.00477419
0.0349079
-0.0176833
0.00408318
0.0482946
-0.0162791
0.00289249
0.0612165
-0.0142245
0.00130261
0.0734755
-0.0117198
-0.000539274
0.0849431
-0.00897531
-0.00249235
0.0955404
-0.00617481
-0.00442245
0.105228
-0.00345641
-0.00623144
0.113995
-0.00092502
-0.00784145
0.121886
0.00130632
-0.00919787
0.128939
0.00323096
-0.010284
0.135217
0.00486205
-0.0111395
0.140793
0.00613751
-0.0117141
0.145739
0.00718728
-0.0121325
0.150122
0.00791317
-0.0122969
0.154015
0.00855669
-0.0124495
0.15748
0.00887548
-0.0123408
0.160577
0.00934543
-0.0124418
0.163359
0.00943645
-0.0122188
0.165878
0.00992816
-0.0124471
0.168182
0.00991671
-0.0122207
0.170306
0.0105747
-0.0126985
0.172264
0.010617
-0.0125751
0.174045
0.0116134
-0.0133945
0.175619
0.0118182
-0.0133923
0.17695
0.0132287
-0.0145592
0.178017
0.0134729
-0.0145403
0.178813
0.0153186
-0.0161145
0.179358
0.0154858
-0.0160311
0.179677
0.0179003
-0.0182189
0.179805
0.0180868
-0.0182153
0.179776
0.0211802
-0.0211509
0.179621
0.0214878
-0.0213332
0.179363
0.0253699
-0.0251115
0.179028
0.0257493
-0.0254139
0.178623
0.0306085
-0.0302044
0.178169
0.0311155
-0.0306612
0.177665
0.0370746
-0.0365703
0.177128
0.0379174
-0.0373805
0.0452212
-0.0446392
-0.0520165
0.00725782
-0.0546072
0.00742025
-0.0569597
0.00744005
-0.0590179
0.00733024
-0.0607041
0.00703043
-0.0619269
0.00648416
-0.062583
0.00562902
-0.0625541
0.00440083
-0.0617167
0.00275553
-0.0598691
0.000586376
-0.0571409
-0.0017988
-0.0533206
-0.00465028
-0.048297
-0.00790188
-0.0420371
-0.0115049
-0.0345178
-0.015339
-0.0257868
-0.0191878
-0.015811
-0.0230428
-0.00486721
-0.0262181
0.00675493
-0.0286699
0.0189293
-0.0302344
0.0313604
-0.0307266
0.0437538
-0.0300766
0.0558527
-0.0283781
0.0674592
-0.025831
0.0784353
-0.0226958
0.0887036
-0.0192436
0.0982291
-0.0157002
0.106997
-0.0122246
0.115027
-0.00895495
0.122322
-0.0059887
0.12893
-0.00337719
0.134885
-0.00109257
0.140251
0.000771832
0.145069
0.00236844
0.149387
0.00359527
0.153263
0.00468117
0.15674
0.00539878
0.159866
0.00621901
0.162688
0.00661489
0.165252
0.00736376
0.167605
0.00756368
0.169782
0.00839778
0.171798
0.00860135
0.173641
0.00977024
0.175279
0.01018
0.176672
0.0118361
0.177796
0.0123482
0.178642
0.014473
0.17923
0.0148974
0.179584
0.0175461
0.179744
0.0179267
0.179741
0.0211833
0.179611
0.0216177
0.179374
0.0256073
0.179059
0.0260638
0.178673
0.0309952
0.178236
0.0315518
0.177746
0.0375646
0.177224
0.0384395
0.0457933
-0.0319893
0.00904002
-0.0337201
0.00915106
-0.0352536
0.00897347
-0.0365205
0.00859719
-0.0374545
0.00796438
-0.0379909
0.00702056
-0.0380376
0.0056758
-0.0374793
0.00384251
-0.0361433
0.00141953
-0.0341299
-0.00142701
-0.0312129
-0.00471582
-0.027294
-0.00856922
-0.0223475
-0.0128484
-0.0163159
-0.0175365
-0.00916773
-0.0224872
-0.00086337
-0.0274922
0.00804797
-0.0319541
0.0178746
-0.0360447
0.0283688
-0.0391641
0.0392464
-0.041112
0.0502158
-0.041696
0.0610158
-0.0408766
0.0714294
-0.0387917
0.0813022
-0.0357038
0.0905462
-0.0319398
0.0991311
-0.0278285
0.10707
-0.0236396
0.114384
-0.0195383
0.121104
-0.0156746
0.127256
-0.0121407
0.132881
-0.00900238
0.138028
-0.00623916
0.14271
-0.00391054
0.146964
-0.00188532
0.150806
-0.000247462
0.154306
0.00118183
0.157474
0.00223056
0.160349
0.00334355
0.162961
0.00400333
0.16535
0.00497501
0.167555
0.00535863
0.169609
0.00634347
0.171527
0.00668329
0.173299
0.00799819
0.174892
0.00858704
0.176263
0.010465
0.177387
0.0112249
0.178246
0.0136138
0.17886
0.0142834
0.179247
0.0171593
0.179446
0.0177274
0.179484
0.0211451
0.179399
0.0217026
0.179207
0.0258
0.178939
0.0263313
0.178598
0.0313365
0.178209
0.0319407
0.177764
0.03801
0.177288
0.0389153
0.0463226
-0.0064559
0.00948742
-0.00710678
0.00980194
-0.00766296
0.00952965
-0.00801405
0.00894828
-0.00811527
0.0080656
-0.00789153
0.00679682
-0.00729422
0.00507849
-0.00623011
0.0027784
-0.00456936
-0.00024121
-0.00233296
-0.00366342
0.000642197
-0.00769098
0.00428764
-0.0122147
0.00878797
-0.0173487
0.0141742
-0.0229227
0.0204528
-0.0287658
0.0275697
-0.0346091
0.0355916
-0.039976
0.0442464
-0.0446995
0.0533777
-0.0482954
0.0627375
-0.0504718
0.0720759
-0.0510345
0.081167
-0.0499677
0.089832
-0.0474567
0.0979537
-0.0438256
0.105475
-0.0394608
0.112388
-0.0347421
0.118729
-0.0299807
0.124541
-0.0253495
0.129865
-0.0209988
0.134744
-0.0170198
0.139222
-0.0134806
0.143333
-0.0103503
0.147105
-0.00768255
0.150563
-0.00534291
0.153752
-0.00343631
0.156645
-0.00171204
0.159286
-0.000410223
0.161717
0.0009129
0.163941
0.00177899
0.165994
0.00292197
0.167903
0.00344984
0.169698
0.00454868
0.171394
0.00498725
0.172985
0.0064074
0.17444
0.00713191
0.175717
0.00918821
0.176786
0.0101553
0.177626
0.012774
0.178249
0.01366
0.178666
0.0167426
0.178912
0.0174814
0.179007
0.0210507
0.178987
0.0217226
0.178862
0.0259245
0.178668
0.026526
0.178399
0.0316047
0.178087
0.0322532
0.177717
0.0383801
0.177319
0.0393131
0.0467763
0.0205683
0.00895157
0.0210082
0.00936203
0.0214414
0.00909645
0.0219655
0.0084242
0.0226165
0.00741456
0.0234518
0.00596156
0.0245454
0.00398483
0.0259615
0.00136236
0.0276612
-0.00194094
0.0298458
-0.00584798
0.0325507
-0.0103959
0.0358989
-0.0155629
0.039895
-0.0213447
0.0445781
-0.0276059
0.0499553
-0.034143
0.055997
-0.0406507
0.0627075
-0.0466865
0.0698976
-0.0518897
0.0774059
-0.0558037
0.0850305
-0.0580964
0.0925738
-0.0585778
0.0998647
-0.0572586
0.106777
-0.0543687
0.113233
-0.0502815
0.119196
-0.0454243
0.124664
-0.0402105
0.129664
-0.0349798
0.134235
-0.0299209
0.138409
-0.025173
0.142222
-0.0208328
0.145711
-0.0169697
0.148909
-0.0135483
0.151847
-0.0106199
0.154548
-0.00804419
0.157032
-0.00592023
0.159311
-0.00399148
0.161425
-0.00252354
0.163355
-0.00101685
0.165127
7.02367e-06
0.166788
0.00126045
0.168343
0.00189443
0.169818
0.00307419
0.171231
0.00357404
0.172582
0.00505665
0.173846
0.00586753
0.174985
0.0080496
0.175969
0.0091715
0.176769
0.0119733
0.177394
0.0130354
0.177842
0.0162942
0.178145
0.017179
0.178311
0.0208844
0.178376
0.0216577
0.178343
0.0259575
0.178246
0.0266224
0.178079
0.0317723
0.177871
0.0324605
0.177607
0.0386447
0.177318
0.039602
0.0471217
0.0474988
0.00791665
0.0485744
0.00828641
0.0496884
0.00798241
0.0508668
0.00724587
0.0521117
0.00616959
0.0534484
0.00462493
0.0549316
0.00250158
0.0565698
-0.000275837
0.0583723
-0.00374348
0.0604497
-0.00792538
0.0628765
-0.0128227
0.0657282
-0.0184146
0.0690386
-0.0246552
0.0728391
-0.0314064
0.0771359
-0.0384398
0.0819076
-0.0454223
0.0871202
-0.0518991
0.0926386
-0.0574081
0.09832
-0.0614851
0.10402
-0.0637963
0.109614
-0.0641719
0.115008
-0.0626527
0.120144
-0.0595046
0.124993
-0.0551305
0.12954
-0.0499715
0.133778
-0.0444477
0.137706
-0.0389087
0.141346
-0.0335604
0.144696
-0.0285233
0.147767
-0.0239031
0.150574
-0.0197772
0.153139
-0.0161129
0.155482
-0.0129636
0.157625
-0.0101865
0.159587
-0.00788298
0.161386
-0.00579014
0.163037
-0.00417426
0.164558
-0.00253822
0.165988
-0.00142296
0.167269
-2.06978e-05
0.168509
0.000655083
0.169684
0.00189886
0.170825
0.00243338
0.171936
0.00394477
0.173006
0.004798
0.174
0.00705528
0.174893
0.00827833
0.175654
0.0112131
0.176283
0.0124059
0.176772
0.0158055
0.177144
0.0168071
0.177399
0.0206289
0.177569
0.0214875
0.177651
0.0258758
0.177678
0.0265954
0.177638
0.0318122
0.177564
0.0325345
0.177435
0.0387742
0.177286
0.0397512
0.0473267
0.0748574
0.00710405
0.0758668
0.00727702
0.0770579
0.00679136
0.078376
0.00592775
0.0797822
0.00476334
0.0812812
0.00312595
0.0828786
0.000904162
0.0845602
-0.0019574
0.086337
-0.00552031
0.0882456
-0.00983397
0.0903276
-0.0149046
0.0926192
-0.0207062
0.0951415
-0.0271775
0.0979177
-0.0341826
0.100969
-0.0414908
0.104282
-0.0487359
0.10782
-0.0554364
0.11149
-0.0610784
0.115192
-0.0651868
0.11885
-0.0674543
0.122426
-0.0677485
0.125913
-0.0661399
0.129323
-0.062914
0.132669
-0.0584763
0.135951
-0.0532539
0.139149
-0.0476457
0.142234
-0.0419937
0.14519
-0.0365162
0.147986
-0.0313191
0.150593
-0.0265101
0.153001
-0.0221851
0.155207
-0.0183191
0.157218
-0.0149749
0.159046
-0.0120141
0.160708
-0.00954564
0.162217
-0.00729845
0.163594
-0.00555098
0.164853
-0.00379803
0.166015
-0.00258421
0.167099
-0.00110559
0.168088
-0.000333278
0.169044
0.000942709
0.169978
0.00149937
0.170901
0.00302147
0.171814
0.00388505
0.172693
0.00617689
0.173517
0.0074541
0.174254
0.0104755
0.174905
0.0117554
0.175451
0.0152599
0.17591
0.0163478
0.176274
0.0202645
0.176571
0.0211907
0.176791
0.025656
0.176966
0.0264202
0.17708
0.0316981
0.177167
0.0324476
0.177202
0.0387393
0.177222
0.0397307
0.0473596
0.103645
0.0071489
0.103952
0.00696983
0.104568
0.00617515
0.105383
0.00511234
0.106363
0.00378426
0.107498
0.00199006
0.108762
-0.000359139
0.110101
-0.00329713
0.1115
-0.00691852
0.112953
-0.011287
0.114461
-0.0164127
0.116025
-0.0222702
0.117638
-0.0287911
0.119286
-0.0358304
0.120944
-0.0431484
0.122603
-0.0503947
0.124283
-0.0571168
0.12596
-0.0627554
0.127601
-0.0668278
0.129213
-0.0690667
0.130846
-0.0693811
0.132565
-0.0678593
0.134435
-0.0647831
0.136489
-0.0605305
0.138725
-0.0554904
0.141101
-0.0500217
0.143553
-0.0444458
0.146025
-0.0389881
0.148464
-0.0337577
0.150803
-0.0288494
0.153007
-0.0243887
0.155051
-0.0203635
0.156927
-0.0168509
0.158633
-0.0137206
0.160182
-0.0110937
0.161578
-0.00869538
0.162845
-0.0068174
0.163994
-0.00494754
0.165049
-0.00363875
0.166014
-0.00207064
0.166912
-0.00123082
0.167736
0.000118369
0.168558
0.000677184
0.169372
0.00220789
0.170193
0.00306411
0.171007
0.0053627
0.171803
0.00665777
0.172551
0.00972803
0.173249
0.0110569
0.173875
0.0146338
0.174444
0.0157794
0.174939
0.0197694
0.175384
0.020745
0.175766
0.0252746
0.176114
0.0260723
0.176408
0.0314037
0.176683
0.032173
0.17691
0.0385115
0.17713
0.0395115
0.0471894
0.13293
0.00829595
0.132242
0.00765732
0.131872
0.00654574
0.131709
0.00527555
0.131788
0.00370474
0.132093
0.00168515
0.13256
-0.000826641
0.13311
-0.00384635
0.133713
-0.00752158
0.134331
-0.0119054
0.134928
-0.0170095
0.135469
-0.0228115
0.135921
-0.029243
0.136248
-0.036157
0.136409
-0.04331
0.136378
-0.050363
0.13615
-0.0568888
0.135813
-0.0624189
0.135458
-0.0664723
0.135185
-0.0687937
0.135115
-0.0693116
0.13536
-0.0681046
0.136
-0.065423
0.137063
-0.061593
0.138522
-0.0569496
0.140308
-0.0518075
0.142323
-0.0464608
0.144474
-0.041139
0.146693
-0.0359771
0.148894
-0.0310509
0.151015
-0.026509
0.153014
-0.0223631
0.154873
-0.0187091
0.156578
-0.0154259
0.158134
-0.0126498
0.159542
-0.0101038
0.16082
-0.00809492
0.161978
-0.00610585
0.163037
-0.00469807
0.164006
-0.0030394
0.164891
-0.00211584
0.165719
-0.000708992
0.166504
-0.000107746
0.167294
0.00141701
0.168098
0.0022605
0.16891
0.00455042
0.16973
0.00583813
0.170529
0.00892911
0.171309
0.0102767
0.172044
0.0138988
0.172747
0.0150767
0.173397
0.0191198
0.174014
0.0201272
0.174581
0.0247078
0.175126
0.0255277
0.175626
0.0309039
0.176114
0.0316848
0.176562
0.0380632
0.177008
0.0390653
0.046786
0.158847
0.0102509
0.157343
0.00916127
0.155997
0.00789148
0.154803
0.00647024
0.153857
0.00464995
0.153124
0.00241863
0.152632
-0.000335013
0.15217
-0.00338449
0.151737
-0.00708804
0.151275
-0.0114438
0.150732
-0.0164663
0.150051
-0.0221302
0.149179
-0.0283709
0.148068
-0.0350458
0.146679
-0.041921
0.144998
-0.0486823
0.143053
-0.0549444
0.140942
-0.0603077
0.138884
-0.0644139
0.13708
-0.0669896
0.135702
-0.067934
0.134874
-0.0672764
0.134659
-0.0652085
0.135057
-0.0619904
0.136008
-0.0579008
0.137417
-0.053216
0.139162
-0.048206
0.141122
-0.0430998
0.143214
-0.038069
0.145363
-0.0331992
0.147482
-0.0286278
0.149511
-0.0243927
0.151422
-0.0206196
0.153194
-0.0171987
0.154829
-0.0142842
0.156322
-0.0115965
0.157686
-0.00945954
0.158931
-0.00735053
0.160076
-0.00584297
0.161125
-0.0040881
0.162087
-0.00307822
0.162976
-0.00159795
0.163832
-0.000963778
0.164664
0.000584417
0.165523
0.00140245
0.166394
0.00367854
0.16729
0.00494226
0.168185
0.00803451
0.169084
0.00937781
0.169959
0.0130236
0.170823
0.0142125
0.171652
0.0182907
0.172466
0.0193138
0.173241
0.0239321
0.174006
0.0247627
0.174737
0.0301736
0.175464
0.0309576
0.176159
0.0373675
0.17686
0.038365
0.0461202
0.176347
0.012233
0.174524
0.0109844
0.17263
0.00978543
0.170886
0.00821403
0.169348
0.00618878
0.167919
0.00384743
0.16649
0.00109398
0.165166
-0.00206054
0.163767
-0.00568899
0.162284
-0.00996123
0.160654
-0.0148363
0.15881
-0.0202862
0.156697
-0.0262575
0.15427
-0.0326191
0.15151
-0.039161
0.148433
-0.0456053
0.145116
-0.0516272
0.141693
-0.0568845
0.138411
-0.0611317
0.135559
-0.0641379
0.133326
-0.0657013
0.131821
-0.0657712
0.131083
-0.0644707
0.131083
-0.0619897
0.131735
-0.0585533
0.132926
-0.0544067
0.134524
-0.0498039
0.136399
-0.0449749
0.138445
-0.0401151
0.140582
-0.035336
0.142741
-0.0307874
0.144847
-0.0264988
0.146857
-0.0226293
0.148744
-0.0190854
0.150503
-0.0160433
0.152127
-0.0132204
0.153627
-0.0109597
0.155008
-0.00873147
0.15629
-0.00712523
0.157474
-0.00527209
0.158572
-0.00417588
0.159592
-0.00261807
0.160569
-0.00194064
0.161509
-0.000355367
0.162478
0.000432582
0.163467
0.00269041
0.164488
0.00392039
0.165522
0.00700145
0.166576
0.00832369
0.167623
0.0119765
0.168676
0.0131591
0.16971
0.0172566
0.170743
0.018281
0.171751
0.0229238
0.17276
0.023754
0.173745
0.0291887
0.174736
0.0299671
0.175704
0.0363986
0.176685
0.0373845
0.0451636
0.182541
0.0134087
0.18089
0.0126356
0.179263
0.0114125
0.177653
0.00982453
0.175995
0.00784618
0.17428
0.00556303
0.172509
0.00286444
0.17082
-0.000371023
0.168885
-0.0037545
0.166754
-0.00782989
0.164372
-0.0124546
0.161705
-0.0176187
0.158719
-0.0232719
0.155403
-0.0293026
0.151779
-0.0355373
0.147917
-0.0417431
0.143938
-0.047649
0.140008
-0.052954
0.136282
-0.0574055
0.132934
-0.0607897
0.130159
-0.0629266
0.128151
-0.063763
0.126975
-0.0632955
0.126597
-0.0616109
0.126929
-0.0588855
0.127858
-0.0553361
0.129257
-0.0512025
0.130994
-0.0467124
0.132961
-0.0420822
0.135066
-0.0374404
0.137226
-0.0329475
0.139377
-0.0286497
0.141471
-0.0247231
0.14347
-0.0210851
0.145364
-0.0179373
0.147138
-0.0149937
0.148798
-0.0126198
0.150344
-0.0102775
0.151796
-0.00857769
0.153153
-0.00662912
0.154427
-0.00544922
0.15562
-0.00381141
0.156759
-0.0030796
0.157876
-0.0014725
0.158999
-0.000690166
0.160147
0.00154229
0.161338
0.00272981
0.162548
0.00579144
0.163791
0.00707975
0.165041
0.0107267
0.166311
0.0118891
0.167576
0.015992
0.168852
0.0170048
0.170116
0.0216594
0.171392
0.0224787
0.172655
0.0279256
0.173932
0.0286898
0.175199
0.0351315
0.176485
0.0360987
0.0438894
0.199424
0.014407
-0.200423
0.198992
0.0130674
0.198558
0.0118468
0.198176
0.0102064
0.197851
0.00817104
0.197614
0.00580015
0.197411
0.00306776
0.19694
9.9496e-05
0.196715
-0.00352962
0.196352
-0.00746634
0.195826
-0.011929
0.195074
-0.0168664
0.194011
-0.0222092
0.192562
-0.0278531
0.190671
-0.0336464
0.188316
-0.0393882
0.185515
-0.0448482
0.182336
-0.0497749
0.178874
-0.0539436
0.175251
-0.0571664
0.17161
-0.0592858
0.168084
-0.060237
0.164805
-0.0600167
0.161881
-0.0586864
0.159382
-0.0563869
0.157345
-0.053299
0.155771
-0.0496287
0.154632
-0.045573
0.153879
-0.0413291
0.153457
-0.0370192
0.153313
-0.0328032
0.15339
-0.0287264
0.15363
-0.0249628
0.153979
-0.0214348
0.154395
-0.0183534
0.154842
-0.0154401
0.155292
-0.0130703
0.155727
-0.0107124
0.156135
-0.00898571
0.156504
-0.00699838
0.156828
-0.00577238
0.157097
-0.00408056
0.157316
-0.00329871
0.157494
-0.00165059
0.157654
-0.000849899
0.157798
0.00139745
0.15796
0.0025681
0.158137
0.00561483
0.158338
0.00687821
0.158551
0.0105136
0.158781
0.0116591
0.15901
0.0157639
0.159243
0.0167714
0.159465
0.0214372
0.159688
0.0222563
0.159894
0.027719
0.160104
0.0284801
0.160299
0.0349368
0.160503
0.0358947
0.0436959
0.211933
0.0145174
-0.212043
0.211898
0.0131024
0.212039
0.0117053
0.212156
0.0100895
0.212192
0.00813469
0.212151
0.00584131
0.211991
0.00322764
0.21183
0.000261116
0.211462
-0.00316183
0.210942
-0.00694618
0.210177
-0.0111637
0.20911
-0.0157994
0.207684