/*--------------------------------*- C++ -*----------------------------------*\
| =========                 |                                                 |
| \\      /  F ield         | OpenFOAM: The Open Source CFD Toolbox           |
|  \\    /   O peration     | Version:  2512                                  |
|   \\  /    A nd           | Website:  www.openfoam.com                      |
|    \\/     M anipulation  |                                                 |
\*---------------------------------------------------------------------------*/
FoamFile
{
    version     2.0;
    format      ascii;
    arch        "LSB;label=32;scalar=64";
    class       volScalarField;
    location    "72";
    object      p;
}
// * * * * * * * * * * * * * * * * * * * * * * * * * * * * * * * * * * * * * //

dimensions      [0 2 -2 0 0 0 0];

internalField   nonuniform List<scalar> 
13248
(
-0.336551
-0.334833
-0.332198
-0.32888
-0.325189
-0.321441
-0.317908
-0.314814
-0.312308
-0.310465
-0.309277
-0.308659
-0.308451
-0.308441
-0.308378
-0.307996
-0.307044
-0.305304
-0.302598
-0.298842
-0.293844
-0.287758
-0.279507
-0.270006
-0.344073
-0.341711
-0.338496
-0.334669
-0.330518
-0.326347
-0.322404
-0.318859
-0.315802
-0.31324
-0.3111
-0.309242
-0.307475
-0.305586
-0.30336
-0.300605
-0.297171
-0.292953
-0.287892
-0.281959
-0.275111
-0.267357
-0.258414
-0.249135
-0.353554
-0.350291
-0.346342
-0.34192
-0.33725
-0.332601
-0.328164
-0.32403
-0.320206
-0.316627
-0.31317
-0.309679
-0.30599
-0.301952
-0.297447
-0.2924
-0.286777
-0.280575
-0.273808
-0.266498
-0.258621
-0.250239
-0.241161
-0.232015
-0.365008
-0.360613
-0.355788
-0.350676
-0.345397
-0.34015
-0.335038
-0.330051
-0.325112
-0.320108
-0.314915
-0.309425
-0.303564
-0.297294
-0.290617
-0.283561
-0.276171
-0.268489
-0.260545
-0.252354
-0.243913
-0.235261
-0.226286
-0.217583
-0.378388
-0.372677
-0.366858
-0.36096
-0.354942
-0.3489
-0.34282
-0.336595
-0.330095
-0.323221
-0.31592
-0.308198
-0.300104
-0.291721
-0.283138
-0.27444
-0.265687
-0.256918
-0.248148
-0.239373
-0.230583
-0.221787
-0.21292
-0.20437
-0.393593
-0.386437
-0.37954
-0.372758
-0.365821
-0.358681
-0.351213
-0.343253
-0.334694
-0.325533
-0.315859
-0.30582
-0.295585
-0.285311
-0.275123
-0.265102
-0.255291
-0.245698
-0.236312
-0.227111
-0.21807
-0.209176
-0.200387
-0.191959
-0.410429
-0.40176
-0.393733
-0.385942
-0.377816
-0.369153
-0.359758
-0.349502
-0.338407
-0.326649
-0.314486
-0.302194
-0.29001
-0.278106
-0.266589
-0.255504
-0.244855
-0.234618
-0.224757
-0.215233
-0.206007
-0.197047
-0.18833
-0.179969
-0.428546
-0.418365
-0.409168
-0.400185
-0.39049
-0.379754
-0.367824
-0.354734
-0.340739
-0.326229
-0.311615
-0.297238
-0.283339
-0.270055
-0.257439
-0.245487
-0.234163
-0.223413
-0.21318
-0.203411
-0.194054
-0.185068
-0.176432
-0.168148
-0.44739
-0.435764
-0.425348
-0.414903
-0.403143
-0.389716
-0.374667
-0.358329
-0.341247
-0.324007
-0.307104
-0.290875
-0.275508
-0.261069
-0.247548
-0.234893
-0.223028
-0.211877
-0.201365
-0.191424
-0.181993
-0.173025
-0.16449
-0.156301
-0.466162
-0.453219
-0.441495
-0.429223
-0.414828
-0.398112
-0.379494
-0.359701
-0.339554
-0.319763
-0.300823
-0.283004
-0.266406
-0.251016
-0.236761
-0.223543
-0.211261
-0.199814
-0.189112
-0.179073
-0.169629
-0.160725
-0.152305
-0.144244
-0.483837
-0.469731
-0.456553
-0.442004
-0.424398
-0.403911
-0.38148
-0.35824
-0.335217
-0.313151
-0.292464
-0.273319
-0.255715
-0.239563
-0.224735
-0.211098
-0.198522
-0.186891
-0.176099
-0.166053
-0.156674
-0.147896
-0.139626
-0.131748
-0.499248
-0.484175
-0.469365
-0.452056
-0.430702
-0.406078
-0.379734
-0.353175
-0.327537
-0.303501
-0.281361
-0.261154
-0.242776
-0.226066
-0.210847
-0.196954
-0.184235
-0.172556
-0.161799
-0.151861
-0.142658
-0.134108
-0.126091
-0.118547
-0.300943
-0.302531
-0.303522
-0.304192
-0.304816
-0.305496
-0.306287
-0.307222
-0.308319
-0.309586
-0.311028
-0.312655
-0.314475
-0.316497
-0.318731
-0.32118
-0.323839
-0.326696
-0.329726
-0.332892
-0.336138
-0.339396
-0.342594
-0.345674
-0.304286
-0.305327
-0.305992
-0.30647
-0.306973
-0.307603
-0.308425
-0.309484
-0.310807
-0.312418
-0.314338
-0.316592
-0.31921
-0.32222
-0.325649
-0.329517
-0.333833
-0.338585
-0.343741
-0.349244
-0.355002
-0.360891
-0.366732
-0.372444
-0.30782
-0.308285
-0.30859
-0.308836
-0.309169
-0.309691
-0.310477
-0.311581
-0.313044
-0.314898
-0.317179
-0.319925
-0.323179
-0.326984
-0.33138
-0.336396
-0.342045
-0.348312
-0.355148
-0.362479
-0.370142
-0.377945
-0.385561
-0.39292
-0.311227
-0.311138
-0.311072
-0.311048
-0.311151
-0.311487
-0.312141
-0.313179
-0.314652
-0.316605
-0.319081
-0.322128
-0.325797
-0.330138
-0.335197
-0.341006
-0.347574
-0.354879
-0.362853
-0.371374
-0.380255
-0.389225
-0.397842
-0.405756
-0.314265
-0.313702
-0.313277
-0.312948
-0.312757
-0.312812
-0.313215
-0.314048
-0.315374
-0.317249
-0.319724
-0.322851
-0.326683
-0.331272
-0.33666
-0.342875
-0.349919
-0.357755
-0.366293
-0.375377
-0.384784
-0.394179
-0.403199
-0.410709
-0.316805
-0.31589
-0.31514
-0.31448
-0.313926
-0.313601
-0.313628
-0.314108
-0.315121
-0.316735
-0.319009
-0.321996
-0.32575
-0.330317
-0.335731
-0.34201
-0.349139
-0.357064
-0.365678
-0.374742
-0.384055
-0.393125
-0.402017
-0.408218
-0.318851
-0.317725
-0.316698
-0.315686
-0.314711
-0.313918
-0.313455
-0.313448
-0.314
-0.315192
-0.317095
-0.319764
-0.323249
-0.327588
-0.332803
-0.338893
-0.345814
-0.353478
-0.361735
-0.370381
-0.379142
-0.387214
-0.395405
-0.399526
-0.320546
-0.319346
-0.318086
-0.316711
-0.315275
-0.313949
-0.312915
-0.312327
-0.312314
-0.312979
-0.314399
-0.316638
-0.31974
-0.32373
-0.328607
-0.334346
-0.340875
-0.348057
-0.355695
-0.36346
-0.371196
-0.377728
-0.384585
-0.386439
-0.322172
-0.320993
-0.319532
-0.317787
-0.315867
-0.313982
-0.312344
-0.311141
-0.310529
-0.310629
-0.311534
-0.313303
-0.315974
-0.319551
-0.32401
-0.329268
-0.335195
-0.341597
-0.348228
-0.354676
-0.360834
-0.365399
-0.370061
-0.369466
-0.324126
-0.322994
-0.321332
-0.319212
-0.316812
-0.314379
-0.31216
-0.310371
-0.309191
-0.308759
-0.309169
-0.310477
-0.312694
-0.315787
-0.319669
-0.3242
-0.32918
-0.334352
-0.33943
-0.344024
-0.348014
-0.350403
-0.352432
-0.349659
-0.32688
-0.325728
-0.323827
-0.321321
-0.318457
-0.315519
-0.312778
-0.310471
-0.308791
-0.307877
-0.307815
-0.308631
-0.310295
-0.312712
-0.315726
-0.319124
-0.322641
-0.325981
-0.328842
-0.330955
-0.332194
-0.332225
-0.331812
-0.327874
-0.330902
-0.32957
-0.327351
-0.32444
-0.321133
-0.31774
-0.31455
-0.311801
-0.309681
-0.30831
-0.307742
-0.307953
-0.308851
-0.310274
-0.311999
-0.313759
-0.31526
-0.316214
-0.316343
-0.315486
-0.313462
-0.310484
-0.306892
-0.302442
-0.349098
-0.351467
-0.351886
-0.349505
-0.343711
-0.334049
-0.320099
-0.301915
-0.280425
-0.257197
-0.234359
-0.214311
-0.199211
-0.190869
-0.190039
-0.195776
-0.205153
-0.213228
-0.214493
-0.205939
-0.18685
-0.160121
-0.13188
-0.107932
-0.09159
-0.0833774
-0.0824833
-0.0893283
-0.105457
-0.128694
-0.149801
-0.156714
-0.145797
-0.122367
-0.0963521
-0.0754054
-0.0625606
-0.0566294
-0.0568918
-0.0655549
-0.0807677
-0.0926099
-0.0913097
-0.0787672
-0.0644056
-0.0537284
-0.0472579
-0.0468329
-0.0529289
-0.0593671
-0.0583068
-0.0509156
-0.042445
-0.0337774
-0.0279418
-0.0246772
-0.0212814
-0.0205128
-0.0147669
-0.00439211
-0.379467
-0.384111
-0.386323
-0.384913
-0.37879
-0.367868
-0.351553
-0.329464
-0.302831
-0.273402
-0.243467
-0.215551
-0.192036
-0.175162
-0.165989
-0.164872
-0.169553
-0.175603
-0.177729
-0.171603
-0.158446
-0.138324
-0.116652
-0.0986316
-0.0872784
-0.0830974
-0.0857353
-0.0963912
-0.116724
-0.14367
-0.166648
-0.172702
-0.158524
-0.131222
-0.101627
-0.0775033
-0.061834
-0.0534945
-0.0513307
-0.0571387
-0.0697228
-0.0802937
-0.0799365
-0.0702298
-0.0593354
-0.0518366
-0.048057
-0.0504671
-0.0592893
-0.0675165
-0.0660014
-0.0564893
-0.045542
-0.0344027
-0.0264434
-0.0208135
-0.0164313
-0.0156218
-0.0110549
-0.00329314
-0.402851
-0.409272
-0.412509
-0.41175
-0.405644
-0.393377
-0.374468
-0.348932
-0.317834
-0.283048
-0.246976
-0.21223
-0.181529
-0.157131
-0.14064
-0.132475
-0.131964
-0.135471
-0.138074
-0.13354
-0.127428
-0.113867
-0.098842
-0.0868785
-0.0805598
-0.080384
-0.0865684
-0.101004
-0.12531
-0.155588
-0.1802
-0.185684
-0.168839
-0.138227
-0.105583
-0.0787744
-0.0606327
-0.0501048
-0.0457114
-0.0487863
-0.058742
-0.0679878
-0.0684351
-0.0614617
-0.0539065
-0.049526
-0.0485077
-0.0538834
-0.0655478
-0.075596
-0.0736407
-0.0618716
-0.0483958
-0.0348809
-0.0249882
-0.017209
-0.0119125
-0.0109311
-0.00744867
-0.00222377
-0.417631
-0.425594
-0.429314
-0.428739
-0.422378
-0.409042
-0.388202
-0.359999
-0.325444
-0.286387
-0.245411
-0.205345
-0.168932
-0.138453
-0.115632
-0.10123
-0.0951396
-0.0954109
-0.0984805
-0.102023
-0.0955361
-0.0874994
-0.0788074
-0.072661
-0.0711206
-0.0746874
-0.0842135
-0.102197
-0.130172
-0.163515
-0.189761
-0.1951
-0.176403
-0.143226
-0.108163
-0.0792407
-0.0590689
-0.0466271
-0.0402527
-0.04081
-0.0482258
-0.0560858
-0.0571386
-0.052669
-0.0482202
-0.0468206
-0.0485498
-0.0569303
-0.0715019
-0.0834217
-0.0810787
-0.0669948
-0.050972
-0.0351983
-0.0235731
-0.0138626
-0.00772308
-0.00645719
-0.00396421
-0.00119177
-0.423725
-0.432463
-0.436272
-0.435573
-0.428931
-0.414933
-0.392964
-0.363164
-0.326502
-0.284853
-0.240792
-0.197156
-0.156643
-0.121506
-0.0934518
-0.073522
-0.0619769
-0.0580014
-0.0592598
-0.0625136
-0.0618861
-0.0595037
-0.0566538
-0.0558277
-0.0585623
-0.0655214
-0.0781551
-0.099445
-0.13081
-0.166981
-0.194879
-0.200624
-0.181023
-0.146203
-0.109445
-0.0789966
-0.0572572
-0.0432122
-0.0351354
-0.033434
-0.0384617
-0.0449328
-0.046792
-0.0440527
-0.0423728
-0.0437286
-0.0481043
-0.0594539
-0.0769392
-0.0907668
-0.0881357
-0.0717861
-0.0532458
-0.0353478
-0.0221915
-0.0107644
-0.00385407
-0.00221327
-0.00061557
-0.000203628
-0.421039
-0.429571
-0.433256
-0.432551
-0.42583
-0.411637
-0.389478
-0.359449
-0.322407
-0.280125
-0.235043
-0.189843
-0.14706
-0.108811
-0.0767288
-0.0519845
-0.0351907
-0.0262877
-0.0240821
-0.0261801
-0.0286299
-0.0305429
-0.0326198
-0.036318
-0.0427767
-0.0528401
-0.0684155
-0.0927809
-0.127188
-0.165881
-0.195442
-0.202161
-0.182634
-0.147169
-0.109527
-0.0781396
-0.0552853
-0.0399575
-0.0304567
-0.026805
-0.0296517
-0.0347488
-0.0367064
-0.0357672
-0.0364523
-0.0402626
-0.0471101
-0.0613135
-0.0816442
-0.0973997
-0.0946423
-0.0761757
-0.0551952
-0.0353208
-0.0208292
-0.0078978
-0.000290965
0.00179161
0.00258745
0.000735612
-0.410203
-0.417628
-0.421125
-0.420796
-0.414265
-0.400402
-0.379005
-0.350077
-0.314312
-0.27331
-0.229254
-0.184527
-0.141382
-0.10172
-0.0670278
-0.0384683
-0.0168945
-0.00278306
0.0040896
0.0049438
0.00234691
-0.00194585
-0.00742021
-0.0146177
-0.0242453
-0.0371588
-0.055512
-0.0826583
-0.119644
-0.160481
-0.191735
-0.199812
-0.18124
-0.146176
-0.108518
-0.0767615
-0.0532123
-0.0369183
-0.0262625
-0.0209668
-0.0218784
-0.0256909
-0.027584
-0.0279904
-0.0305604
-0.0364613
-0.0455262
-0.0623887
-0.0854388
-0.103121
-0.100442
-0.0800929
-0.0567992
-0.0351114
-0.0194721
-0.00523787
0.00298734
0.0055522
0.00564016
0.00162188
-0.394065
-0.398372
-0.401657
-0.401814
-0.395651
-0.382693
-0.362988
-0.336343
-0.303271
-0.265146
-0.223817
-0.181294
-0.139495
-0.100049
-0.0642604
-0.0332049
-0.00780795
0.0111572
0.0232215
0.0285356
0.0283775
0.0242819
0.0174055
0.00800548
-0.00408087
-0.0195086
-0.0403852
-0.0699051
-0.108885
-0.151375
-0.184201
-0.193901
-0.177016
-0.143331
-0.106498
-0.0749283
-0.051072
-0.0341214
-0.0225671
-0.0159255
-0.0151475
-0.0178018
-0.0195385
-0.0208553
-0.0248086
-0.0323808
-0.0433516
-0.0625951
-0.0881816
-0.107766
-0.105399
-0.0834769
-0.0580503
-0.0347246
-0.0181215
-0.00276957
0.00600709
0.009069
0.00854316
0.00245196
-0.372619
-0.373814
-0.37702
-0.37749
-0.37182
-0.360366
-0.343149
-0.31968
-0.290309
-0.256154
-0.21868
-0.179525
-0.140287
-0.102342
-0.0668225
-0.0346921
-0.0068369
0.0159006
0.0327412
0.0430975
0.0471284
0.0456246
0.039555
0.0296146
0.0160966
-0.0012681
-0.0242253
-0.0555956
-0.0959423
-0.139482
-0.173509
-0.18493
-0.170329
-0.13889
-0.103678
-0.0728353
-0.0490191
-0.0316873
-0.0194507
-0.0117162
-0.00946357
-0.0110736
-0.0125865
-0.0144374
-0.0193087
-0.0280947
-0.0405616
-0.0618847
-0.0897986
-0.111234
-0.109425
-0.0863021
-0.0589859
-0.0341976
-0.0168003
-0.000511462
0.00878177
0.0123481
0.0113031
0.00322396
-0.347935
-0.346731
-0.350036
-0.350431
-0.345352
-0.335898
-0.321659
-0.301852
-0.276701
-0.24703
-0.213913
-0.178634
-0.142528
-0.106791
-0.0724785
-0.0404279
-0.0114894
0.0135467
0.0339237
0.0487723
0.0574592
0.0601666
0.0567117
0.0480563
0.0343958
0.0159512
-0.00835748
-0.0407637
-0.081611
-0.125499
-0.16035
-0.173497
-0.161754
-0.13338
-0.100561
-0.0709518
-0.0474288
-0.0298854
-0.0171023
-0.00841854
-0.00480808
-0.005467
-0.00674127
-0.00874465
-0.0141206
-0.0236656
-0.0372606
-0.0602749
-0.090189
-0.113451
-0.112482
-0.0885562
-0.0596644
-0.0335788
-0.0155153
0.00152502
0.0112987
0.01538
0.0139337
0.00393674
-0.322922
-0.32105
-0.324171
-0.323844
-0.319485
-0.312306
-0.301202
-0.285239
-0.264502
-0.23948
-0.210878
-0.179644
-0.146874
-0.113679
-0.081017
-0.0495735
-0.0201852
0.00630803
0.029114
0.0473686
0.0604302
0.0675883
0.0673564
0.0617092
0.0494818
0.0311017
0.00628763
-0.0264475
-0.0672765
-0.110829
-0.145604
-0.160115
-0.15127
-0.126681
-0.0969903
-0.069114
-0.0461047
-0.0284721
-0.0153181
-0.00584032
-0.000928113
-0.000678859
-0.00187819
-0.00378005
-0.00941876
-0.0191294
-0.0332791
-0.0577023
-0.0895732
-0.114472
-0.114417
-0.0900417
-0.0599375
-0.0327603
-0.0141573
0.00346693
0.0135982
0.018139
0.0164475
0.00458984
-0.29954
-0.299495
-0.300719
-0.298211
-0.293966
-0.288332
-0.279717
-0.267208
-0.250663
-0.230241
-0.206317
-0.17949
-0.150537
-0.120358
-0.0898804
-0.0599382
-0.0313496
-0.00490045
0.0187527
0.0389353
0.0553065
0.0657198
0.071022
0.0687229
0.05924
0.0424855
0.0187241
-0.0127767
-0.0519415
-0.0938376
-0.12782
-0.142715
-0.137027
-0.116565
-0.0903147
-0.0646975
-0.042812
-0.0256221
-0.0126579
-0.00295453
0.00284184
0.00392139
0.0027108
0.000280674
-0.00521683
-0.0148313
-0.0291246
-0.0543316
-0.0875385
-0.114089
-0.114626
-0.0903256
-0.0592547
-0.031318
-0.0124692
0.00559853
0.0158704
0.0207484
0.0188584
0.00517578
-0.278362
-0.288017
-0.286237
-0.280973
-0.27558
-0.269525
-0.261146
-0.249374
-0.233916
-0.214932
-0.192794
-0.168023
-0.141281
-0.113335
-0.0849813
-0.0569598
-0.0299802
-0.00471571
0.0182563
0.0384091
0.0555355
0.0665326
0.0731502
0.0734616
0.0662275
0.050813
0.0276655
-0.00358497
-0.0430487
-0.0854772
-0.11888
-0.133201
-0.126073
-0.106066
-0.0813883
-0.0576449
-0.0373251
-0.0211692
-0.00883209
0.000564478
0.00653107
0.00820993
0.00743924
0.0053913
0.000493978
-0.00865818
-0.0229912
-0.0494301
-0.0851102
-0.114368
-0.116582
-0.0901714
-0.057762
-0.0292988
-0.0105623
0.00782701
0.0180774
0.0233811
0.0211615
0.00569023
-0.254065
-0.267165
-0.266344
-0.259839
-0.253224
-0.246752
-0.238688
-0.227718
-0.213477
-0.196168
-0.176173
-0.153923
-0.129926
-0.104775
-0.0791205
-0.0536022
-0.0288456
-0.00546592
0.0159707
0.0349355
0.0502195
0.0626272
0.0699315
0.0713036
0.0653388
0.0512662
0.02945
-0.000350509
-0.0378743
-0.077361
-0.107152
-0.118339
-0.111177
-0.0931146
-0.071314
-0.0502957
-0.0319651
-0.017072
-0.0055518
0.00348008
0.00958628
0.0116634
0.0109696
0.00879746
0.00446342
-0.00395004
-0.0179458
-0.0450589
-0.0824671
-0.113142
-0.115233
-0.0884654
-0.0555185
-0.0269848
-0.00849462
0.00993288
0.0199591
0.025715
0.0230779
0.00612252
-0.231805
-0.245492
-0.245502
-0.238961
-0.231871
-0.225265
-0.217664
-0.207669
-0.19482
-0.179288
-0.161419
-0.141565
-0.120109
-0.0975174
-0.0743356
-0.0511349
-0.0284875
-0.00696217
0.0129047
0.0306108
0.0453835
0.0569941
0.0640687
0.0656098
0.0602473
0.0472385
0.0269452
-0.000511308
-0.0340937
-0.0680528
-0.0928847
-0.101845
-0.0956659
-0.0803742
-0.0616894
-0.0433069
-0.0268698
-0.0131555
-0.00236916
0.00625417
0.012371
0.0148065
0.0142708
0.0121911
0.00810416
-6.56492e-05
-0.0141033
-0.0417381
-0.079554
-0.110219
-0.112429
-0.0857982
-0.0527606
-0.0244009
-0.00627295
0.0120394
0.0218103
0.0279501
0.0248092
0.00652124
-0.211525
-0.224121
-0.224745
-0.218857
-0.211927
-0.205423
-0.198295
-0.189236
-0.17771
-0.163813
-0.147857
-0.130151
-0.111005
-0.0907917
-0.069963
-0.0490152
-0.028457
-0.00880332
0.00945321
0.0258227
0.0396311
0.0503521
0.0570231
0.0586572
0.0540069
0.0423966
0.0242089
-6.88327e-06
-0.0287265
-0.0570579
-0.0775401
-0.0851206
-0.0803799
-0.0679155
-0.052226
-0.0363925
-0.0218463
-0.00933299
0.000713117
0.00886766
0.014908
0.0176805
0.0174926
0.0156705
0.0119085
0.00387967
-0.0103707
-0.0381895
-0.0755696
-0.105953
-0.108378
-0.0821304
-0.0493988
-0.0215128
-0.00387724
0.0141508
0.0236244
0.0300753
0.0264256
0.00689673
-0.191842
-0.203513
-0.204668
-0.199584
-0.193112
-0.186894
-0.18026
-0.172085
-0.161806
-0.149444
-0.135266
-0.119549
-0.102551
-0.084569
-0.0659716
-0.0471819
-0.0286494
-0.010842
0.00577489
0.0207245
0.0334171
0.0432697
0.0495166
0.0512886
0.0475497
0.0377316
0.0221944
0.00169229
-0.0221929
-0.0454925
-0.0623775
-0.0690075
-0.0658038
-0.0560801
-0.0432246
-0.0297706
-0.0170236
-0.00568687
0.00364892
0.0113141
0.017211
0.0202678
0.0205507
0.0191156
0.0158836
0.0081924
-0.00602027
-0.0335933
-0.0703749
-0.100343
-0.102859
-0.0773401
-0.0454153
-0.0183404
-0.00133343
0.0162544
0.0253746
0.0320486
0.0279173
0.00724148
-0.173214
-0.184136
-0.185574
-0.181205
-0.17532
-0.169545
-0.163468
-0.15615
-0.147051
-0.136134
-0.123615
-0.109737
-0.0947233
-0.0788125
-0.0623045
-0.0455582
-0.0289704
-0.0129628
0.00203248
0.0155664
0.0271249
0.0361428
0.04198
0.0439199
0.0411613
0.0332514
0.0204866
0.00366556
-0.0157168
-0.0345252
-0.0483722
-0.0543256
-0.0525341
-0.0452274
-0.0348691
-0.0235322
-0.0124438
-0.00224841
0.00640535
0.0135856
0.0192829
0.0225501
0.0233768
0.0225035
0.0199804
0.0128972
-0.000922142
-0.0279891
-0.0640316
-0.0932331
-0.0957664
-0.0713973
-0.0408201
-0.014913
0.00132962
0.018332
0.0270347
0.0338272
0.0292342
0.00754444
-0.156048
-0.165952
-0.167506
-0.16379
-0.158557
-0.153332
-0.147864
-0.141379
-0.133384
-0.12381
-0.112826
-0.100642
-0.0874509
-0.0734507
-0.058887
-0.0440625
-0.0293227
-0.015042
-0.00161251
0.0105504
0.0210024
0.0292219
0.0346707
0.0367772
0.0349456
0.0288371
0.0187001
0.00529643
-0.0100524
-0.024965
-0.0362517
-0.0416117
-0.0408926
-0.0355236
-0.0272619
-0.0177608
-0.00816237
0.00094601
0.00894482
0.0156716
0.0211284
0.0245336
0.0259181
0.0257799
0.0241167
0.017906
0.00472834
-0.0215944
-0.0565108
-0.0845888
-0.0871163
-0.0643282
-0.0356534
-0.0112773
0.00407163
0.0203597
0.0285788
0.0353658
0.0303185
0.00780084
-0.140015
-0.148889
-0.150522
-0.147429
-0.142859
-0.138223
-0.133382
-0.127695
-0.120725
-0.112388
-0.102814
-0.0921844
-0.0806642
-0.0684203
-0.0556547
-0.0426204
-0.0296148
-0.0169667
-0.00502692
0.00581897
0.0152212
0.0226835
0.027767
0.0300219
0.0290154
0.0245162
0.0167386
0.00633653
-0.00558331
-0.0172021
-0.026285
-0.0309821
-0.0309419
-0.0270246
-0.0204579
-0.0125124
-0.00422016
0.00387326
0.0112372
0.0175568
0.0227578
0.0262373
0.0281284
0.0288504
0.0281802
0.023076
0.0107628
-0.0144561
-0.0478308
-0.0744904
-0.0770078
-0.0562324
-0.029995
-0.00749661
0.00684427
0.0223094
0.0299825
0.03662
0.0311204
0.008014
-0.125009
-0.13303
-0.134731
-0.132178
-0.128227
-0.124172
-0.119946
-0.115015
-0.108992
-0.101789
-0.0935065
-0.0842965
-0.0743019
-0.0636636
-0.0525483
-0.0411664
-0.0297711
-0.0186465
-0.0080984
0.00154542
0.00992056
0.016668
0.0214093
0.0237882
0.0234932
0.020377
0.0146169
0.00674572
-0.00232804
-0.0111754
-0.0183571
-0.0223074
-0.0226012
-0.0197078
-0.0144659
-0.00781602
-0.000649473
0.00651735
0.0132625
0.0192139
0.0241755
0.0276846
0.02999
0.0315973
0.0320442
0.0282742
0.0171176
-0.00662578
-0.0381667
-0.0631358
-0.0656562
-0.0473001
-0.0239675
-0.00364728
0.00959386
0.0241508
0.031228
0.0375548
0.0316066
0.00819579
-0.111195
-0.118395
-0.120085
-0.117999
-0.114625
-0.11113
-0.107494
-0.103269
-0.0981168
-0.0919469
-0.0848375
-0.0769169
-0.0683075
-0.0591278
-0.0495161
-0.0396471
-0.0297331
-0.020016
-0.0107609
-0.00225305
0.0051904
0.0112771
0.0156963
0.0181678
0.018466
0.016499
0.0124138
0.00663845
-9.59065e-05
-0.00663112
-0.0122003
-0.0153523
-0.0157148
-0.0135017
-0.00926604
-0.00367947
0.0025269
0.00886741
0.0150145
0.0206132
0.0253683
0.02889
0.0315134
0.0338996
0.0355636
0.0333628
0.0236679
0.00163739
-0.0278857
-0.0508714
-0.0534318
-0.0378227
-0.0177361
0.000185224
0.0122657
0.0258557
0.0323102
0.0381581
0.0317741
0.00836858
-0.0985221
-0.1049
-0.106544
-0.104878
-0.102028
-0.0990507
-0.0959665
-0.0923951
-0.088035
-0.0827997
-0.0767494
-0.0699919
-0.0626316
-0.0547682
-0.0465164
-0.03802
-0.0294552
-0.021026
-0.0129586
-0.0054974
0.00109527
0.00657307
0.0106854
0.0132121
0.0139889
0.0129602
0.0102458
0.00617827
0.0013123
-0.00364794
-0.00752206
-0.00984852
-0.0101013
-0.00831084
-0.00482058
-9.39964e-05
0.00529805
0.010915
0.0164954
0.0217383
0.0263071
0.0298417
0.0327179
0.0356892
0.0385034
0.0380233
0.0299951
0.00981129
-0.0174848
-0.0381712
-0.0408325
-0.0281758
-0.0115014
0.00391189
0.0148072
0.0274036
0.0332444
0.0384579
0.0316692
0.00856785
-0.0868442
-0.0924884
-0.0940821
-0.0927825
-0.0904072
-0.0879046
-0.0853188
-0.082336
-0.0786891
-0.0742922
-0.0691907
-0.0634746
-0.0572328
-0.050549
-0.0435171
-0.0362548
-0.028907
-0.0216438
-0.0146557
-0.0081464
-0.00233097
0.00258646
0.00640386
0.00894807
0.0100986
0.00982145
0.0082138
0.00553487
0.00221212
-0.00121057
-0.00394164
-0.00553199
-0.00557929
-0.00402927
-0.00107929
0.00296137
0.00766566
0.0126542
0.0177101
0.0225882
0.0269666
0.0305098
0.0335961
0.0369463
0.0406137
0.0416488
0.0353112
0.0172297
-0.00741382
-0.0255604
-0.0284396
-0.0187871
-0.00548464
0.00744446
0.0171707
0.0287792
0.0340694
0.0385433
0.031413
0.00884171
-0.0761427
-0.0811382
-0.0826667
-0.0816791
-0.0797324
-0.0776449
-0.0755044
-0.0730436
-0.0700296
-0.0663772
-0.0621178
-0.0573265
-0.0520779
-0.0464421
-0.0404956
-0.0343337
-0.0280741
-0.0218569
-0.0158397
-0.0101887
-0.00507884
-0.00067664
0.00285454
0.00537954
0.00680814
0.00711956
0.00638939
0.00481921
0.00274145
0.000537232
-0.00123522
-0.00217963
-0.00198079
-0.000548508
0.00201654
0.00551612
0.00964235
0.0140847
0.018662
0.0231723
0.0273392
0.0308669
0.0341077
0.0375857
0.0416933
0.043678
0.0388692
0.0233271
0.00192634
-0.0136652
-0.0169039
-0.0100942
9.90872e-05
0.0106988
0.0193119
0.0299648
0.0348367
0.0385776
0.0312157
0.00924367
-0.0664021
-0.070792
-0.0722336
-0.0715062
-0.0699341
-0.0682366
-0.0664799
-0.0644731
-0.0620109
-0.0590117
-0.055493
-0.0515154
-0.0471416
-0.0424294
-0.0374405
-0.0322508
-0.026956
-0.0216699
-0.0165177
-0.0116337
-0.00716101
-0.00323388
1.84054e-05
0.00248933
0.00411025
0.00486644
0.0048153
0.00410973
0.00299586
0.00176182
0.000785217
0.000396022
0.000846139
0.00223763
0.0045311
0.00760602
0.0112488
0.0152142
0.0193552
0.0235035
0.02743
0.0308996
0.0342229
0.0376724
0.0417051
0.0439773
0.0404517
0.0277565
0.00998461
-0.00321706
-0.00682149
-0.00245736
0.00507835
0.0136057
0.0211843
0.0309299
0.0355778
0.0388741
0.0313599
0.00981326
-0.0575352
-0.0613729
-0.0627213
-0.0622116
-0.0609636
-0.0596022
-0.0582025
-0.0565857
-0.0545957
-0.0521586
-0.0492831
-0.0460151
-0.0424056
-0.0385008
-0.0343498
-0.0300129
-0.0255657
-0.0210982
-0.0167156
-0.0125131
-0.00861318
-0.00512153
-0.00214149
0.000243412
0.00197954
0.00305592
0.00351679
0.00347262
0.0030904
0.0026072
0.00227566
0.00235198
0.00303586
0.00442964
0.00653107
0.00927206
0.0125103
0.0160586
0.0198001
0.023594
0.027253
0.0306021
0.0339356
0.0371759
0.0407954
0.0428844
0.0403257
0.030392
0.016204
0.00521071
0.00144215
0.00392959
0.00934774
0.0161182
0.0227449
0.031617
0.0362496
0.0397214
0.0320757
0.0105366
-0.0494703
-0.0528212
-0.0540765
-0.053746
-0.0527742
-0.0517016
-0.0506048
-0.0493389
-0.0477535
-0.0457909
-0.0434648
-0.0408093
-0.0378596
-0.034653
-0.0312291
-0.0276344
-0.0239267
-0.020175
-0.0164661
-0.0128672
-0.00948019
-0.00638972
-0.00367662
-0.00140546
0.000380619
0.00167048
0.00249729
0.00294339
0.00311947
0.00319832
0.00336865
0.00381979
0.00470594
0.00612087
0.00808299
0.0105586
0.0134564
0.016639
0.0200119
0.0234605
0.026832
0.0299739
0.0329748
0.0361181
0.0391888
0.0408872
0.0389823
0.0314163
0.0204351
0.0115011
0.00785069
0.00904583
0.0128695
0.0182027
0.0239625
0.031943
0.0366766
0.0405848
0.0332234
0.0113113
-0.0421632
-0.0450806
-0.0462402
-0.0460537
-0.0453146
-0.0444873
-0.0436455
-0.0426714
-0.0414395
-0.039893
-0.0380328
-0.0358905
-0.033501
-0.0308925
-0.0280923
-0.0251363
-0.0220779
-0.0189392
-0.0158001
-0.0127408
-0.00981741
-0.00709897
-0.00464769
-0.00251405
-0.000733351
0.000682781
0.00175667
0.00254322
0.00312578
0.00362233
0.004171
0.00491043
0.00595878
0.00739656
0.00925161
0.0115113
0.0141196
0.0169795
0.0200128
0.0231273
0.026203
0.0291114
0.0318961
0.0346538
0.0371454
0.0384206
0.0369464
0.0312844
0.0229936
0.015911
0.0125932
0.0129793
0.0156588
0.0198362
0.0247986
0.0318282
0.0366349
0.0406497
0.0340657
0.0119353
-0.0355563
-0.0380858
-0.0391495
-0.0390778
-0.0385333
-0.0379126
-0.0372848
-0.0365545
-0.0356154
-0.0344152
-0.032952
-0.0312493
-0.0293332
-0.0272254
-0.0249478
-0.0225268
-0.0199887
-0.0174031
-0.0147903
-0.0122032
-0.00969521
-0.00731871
-0.0051213
-0.00314295
-0.00141398
5.54661e-05
0.00127819
0.00229036
0.00315163
0.00394443
0.00476526
0.0057148
0.00688215
0.00833327
0.0100983
0.0121762
0.0145346
0.0171064
0.0198279
0.0226235
0.0254002
0.0280469
0.0305575
0.0329149
0.0348901
0.0358016
0.0346367
0.0304576
0.0243163
0.0188244
0.0159499
0.0158757
0.0177543
0.0210086
0.025206
0.0312016
0.0359369
0.0394166
0.0336711
0.0121481
-0.0295866
-0.0317744
-0.0327461
-0.0327647
-0.0323813
-0.0319324
-0.0314818
-0.0309525
-0.0302545
-0.0293416
-0.0282097
-0.0268756
-0.0253591
-0.0236773
-0.0218464
-0.0198859
-0.0178204
-0.0156832
-0.0135067
-0.0113281
-0.00918666
-0.00712139
-0.00516738
-0.00335704
-0.00171657
-0.000251122
0.00104293
0.00218947
0.00322782
0.00421464
0.00521726
0.00630735
0.00755062
0.00899881
0.0106799
0.0125989
0.0147372
0.0170492
0.0194843
0.0219793
0.02446
0.0268276
0.0290438
0.0310293
0.0325835
0.0332248
0.0323106
0.0292605
0.0247833
0.0206019
0.0181716
0.0178956
0.0192091
0.0217151
0.0251637
0.0300185
0.0337915
0.0366108
0.0315467
0.0117679
-0.0242023
-0.0260908
-0.0269747
-0.0270624
-0.0268104
-0.0265026
-0.0261968
-0.025831
-0.0253299
-0.0246526
-0.0237935
-0.0227647
-0.0215811
-0.0202555
-0.0187992
-0.0172258
-0.0155531
-0.0138039
-0.0120036
-0.0101799
-0.00836195
-0.00657818
-0.00485586
-0.0032242
-0.00169263
-0.00027662
0.00102908
0.00223559
0.00336913
0.00446782
0.00557748
0.006748
0.0080267
0.00945241
0.0110488
0.0128227
0.0147635
0.0168396
0.0190113
0.0212255
0.0234214
0.02551
0.0274363
0.0290975
0.0303292
0.0307912
0.0300949
0.0278941
0.0246747
0.0215422
0.0195706
0.0192
0.0200905
0.0219711
0.0246928
0.0284178
0.0313428
0.0328211
0.028031
0.0108096
-0.0193556
-0.0209811
-0.0217814
-0.0219206
-0.0217743
-0.0215809
-0.0213917
-0.0211574
-0.0208148
-0.0203285
-0.0196919
-0.0189134
-0.0180041
-0.0169732
-0.0158282
-0.0145783
-0.0132356
-0.0118159
-0.0103377
-0.00882147
-0.00728855
-0.00576034
-0.00425756
-0.00279838
-0.00139774
-6.13265e-05
0.00120832
0.00241738
0.00358236
0.00472773
0.00588377
0.00708419
0.00836199
0.00974512
0.0112519
0.0128886
0.0146488
0.0165096
0.0184399
0.0203944
0.0223227
0.0241453
0.0258037
0.0271937
0.0281877
0.0285427
0.0280374
0.0264716
0.0241862
0.02188
0.0203618
0.0199188
0.0204731
0.0218168
0.0238388
0.026501
0.0284306
0.0286735
0.0238991
0.00946185
-0.0149983
-0.0163939
-0.0171159
-0.0172921
-0.01723
-0.017128
-0.0170315
-0.0169012
-0.0166847
-0.0163514
-0.0158943
-0.0153191
-0.0146337
-0.0138446
-0.0129565
-0.011975
-0.0109081
-0.00976645
-0.00856295
-0.00731236
-0.00603002
-0.00473192
-0.00343369
-0.00214696
-0.000883234
0.000350603
0.00155082
0.00272008
0.00386792
0.00500937
0.0061637
0.00735275
0.00859863
0.00992027
0.0113309
0.0128347
0.0144268
0.0160901
0.0177999
0.0195174
0.0212003
0.0227784
0.0241996
0.0253689
0.0261892
0.0264877
0.0261466
0.0250522
0.0234508
0.0217731
0.0206073
0.0201475
0.0204303
0.0213082
0.0226817
0.0243927
0.0253462
0.0246094
0.0198234
0.00796612
-0.0110875
-0.012283
-0.0129322
-0.0131336
-0.0131374
-0.0131075
-0.0130835
-0.0130342
-0.0129166
-0.0127044
-0.0123907
-0.011979
-0.0114748
-0.0108825
-0.0102049
-0.00944492
-0.00860739
-0.00769911
-0.00672878
-0.00570662
-0.00464337
-0.00355075
-0.00244053
-0.00132075
-0.000198854
0.000918431
0.00202669
0.00312597
0.00422107
0.00532063
0.00643635
0.00758152
0.00877012
0.010014
0.0113217
0.0126948
0.0141294
0.015611
0.0171196
0.0186224
0.0200843
0.0214478
0.0226639
0.0236533
0.0243457
0.0246182
0.024413
0.0236646
0.0225541
0.021339
0.0204353
0.0199637
0.0200449
0.0205241
0.0212912
0.0221649
0.02231
0.0208806
0.016192
0.00652386
-0.00758467
-0.00860623
-0.00918809
-0.00940542
-0.00945982
-0.00948593
-0.00951763
-0.00953055
-0.00948939
-0.00937194
-0.00917152
-0.00889006
-0.00853141
-0.00809816
-0.00759168
-0.00701335
-0.00636555
-0.00565229
-0.00487904
-0.00405255
-0.00318028
-0.0022704
-0.00133125
-0.00036882
0.000611718
0.00160497
0.00260687
0.00361582
0.00463346
0.00566399
0.00671399
0.00779078
0.00890252
0.0100556
0.0112547
0.0124993
0.013785
0.0150989
0.0164247
0.0177336
0.0189984
0.0201747
0.021218
0.0220616
0.022658
0.0229189
0.02282
0.0223216
0.0215559
0.0206722
0.019957
0.0195019
0.0193983
0.0195421
0.0198093
0.0200072
0.0194818
0.0176072
0.013148
0.00525571
-0.00445454
-0.00532531
-0.00584539
-0.00607124
-0.00616394
-0.00623286
-0.00630666
-0.0063664
-0.00638344
-0.00633915
-0.00622733
-0.0060488
-0.00580601
-0.00550042
-0.00513236
-0.00470203
-0.00421028
-0.00365916
-0.00305179
-0.00239228
-0.00168552
-0.000936911
-0.000152012
0.000664235
0.00150814
0.0023756
0.00326359
0.00416989
0.00509416
0.00603757
0.00700322
0.00799441
0.00901529
0.0100683
0.0111553
0.0122735
0.0134184
0.0145774
0.0157369
0.0168719
0.0179589
0.0189761
0.0198739
0.0205989
0.0211198
0.0213728
0.0213513
0.0210281
0.0204986
0.0198456
0.0192629
0.0188122
0.0185582
0.0184177
0.0182737
0.0179526
0.0169462