/*--------------------------------*- C++ -*----------------------------------*\
| =========                 |                                                 |
| \\      /  F ield         | OpenFOAM: The Open Source CFD Toolbox           |
|  \\    /   O peration     | Version:  2512                                  |
|   \\  /    A nd           | Website:  www.openfoam.com                      |
|    \\/     M anipulation  |                                                 |
\*---------------------------------------------------------------------------*/
FoamFile
{
    version     2.0;
    format      ascii;
    arch        "LSB;label=32;scalar=64";
    class       surfaceScalarField;
    location    "128";
    object      phi;
}
// * * * * * * * * * * * * * * * * * * * * * * * * * * * * * * * * * * * * * //

dimensions      [0 3 -1 0 0 0 0];

oriented        oriented;

internalField   nonuniform List<scalar> 
26232
(
0.000196484
0.000884707
-0.00108119
0.000884775
0.00136908
-0.00205737
0.0021772
0.000690407
-0.00198283
0.00419671
-0.00109801
-0.000921508
0.00707751
-0.00395349
0.00107269
0.0109554
-0.00783827
0.00396039
0.01595
-0.0127076
0.00771292
0.022142
-0.0184931
0.0123011
0.0295488
-0.0250871
0.0176803
0.0381055
-0.0323331
0.0237764
0.0476564
-0.0400269
0.0304759
0.0579613
-0.0479288
0.037624
0.0687149
-0.0557845
0.0450309
0.0795795
-0.0633499
0.0524853
0.0902216
-0.070415
0.0597729
0.100349
-0.0768233
0.0666955
0.109743
-0.0824823
0.0730891
0.118271
-0.0873662
0.0788375
0.125902
-0.0915077
0.0838773
0.132686
-0.0949903
0.0882059
0.138738
-0.0979063
0.091854
0.144207
-0.100416
0.0949476
0.149081
-0.102443
0.0975684
-0.104481
0.100126
0.153435
0.0002248
0.000659907
0.00105885
0.000535025
0.00265942
-0.00091016
0.00518144
-0.00362002
0.00877605
-0.0075481
0.013573
-0.0126353
0.0196538
-0.0187883
0.0270221
-0.0258613
0.0355811
-0.0336462
0.0451265
-0.0418784
0.0553578
-0.0502582
0.0659102
-0.0584812
0.0763983
-0.0662727
0.0864641
-0.0734156
0.0958192
-0.0797701
0.104275
-0.0852794
0.111757
-0.0899637
0.118296
-0.0939053
0.124014
-0.0972261
0.129089
-0.100066
0.133739
-0.102556
0.13816
-0.104836
0.142643
-0.106926
-0.109207
0.14737
0.000275966
0.000383941
0.00130801
-0.000497016
0.00329097
-0.00289312
0.00640204
-0.0067311
0.0107896
-0.0119356
0.0165435
-0.0183891
0.02366
-0.0259049
0.0320153
-0.0342166
0.0413581
-0.042989
0.0513307
-0.051851
0.061513
-0.0604405
0.0714809
-0.0684491
0.0808644
-0.0756562
0.0893941
-0.0819453
0.0969265
-0.0873025
0.103446
-0.0917993
0.109048
-0.0955657
0.113903
-0.0987604
0.118221
-0.101543
0.122213
-0.104058
0.126072
-0.106415
0.129947
-0.108711
0.133974
-0.110954
-0.11338
0.138147
0.000355387
2.85544e-05
0.00164629
-0.00178792
0.00408879
-0.00533562
0.00786003
-0.0105023
0.0130708
-0.0171464
0.019724
-0.0250424
0.0276814
-0.0338623
0.0366557
-0.0431909
0.0462389
-0.0525721
0.0559612
-0.0615733
0.0653652
-0.0698446
0.0740747
-0.0771587
0.0818424
-0.0834239
0.0885682
-0.088671
0.0942878
-0.0930221
0.0991401
-0.0966516
0.103323
-0.0997485
0.10705
-0.102488
0.110519
-0.105013
0.113892
-0.107431
0.117293
-0.109816
0.120805
-0.112223
0.124502
-0.114651
-0.117271
0.128393
0.000462041
-0.000433486
0.00206675
-0.00339263
0.00502653
-0.00829539
0.00948435
-0.0149602
0.0154676
-0.0231296
0.0228436
-0.0324184
0.0313054
-0.0423242
0.0404047
-0.0522902
0.0496255
-0.0617929
0.0584757
-0.0704235
0.0665682
-0.0779371
0.0736701
-0.0842606
0.0797131
-0.0894669
0.084769
-0.0937269
0.0890042
-0.0972573
0.0926279
-0.100275
0.095849
-0.10297
0.0988474
-0.105486
0.101762
-0.107927
0.104693
-0.110362
0.107707
-0.11283
0.110844
-0.11536
0.114143
-0.117951
-0.120705
0.117577
0.000590882
-0.00102437
0.00254727
-0.00534902
0.00604572
-0.0117938
0.0111522
-0.0200666
0.0177626
-0.0297401
0.0255734
-0.0402292
0.0341101
-0.0508608
0.0428129
-0.0609929
0.0511483
-0.0701284
0.0587058
-0.077981
0.0652517
-0.084483
0.0707335
-0.0897424
0.075244
-0.0939775
0.0789652
-0.0974482
0.082111
-0.100403
0.0848837
-0.103048
0.0874498
-0.105536
0.089933
-0.107969
0.0924184
-0.110413
0.0949616
-0.112905
0.0975985
-0.115467
0.10035
-0.118111
0.103239
-0.120839
-0.123706
0.10624
0.000734525
-0.00175889
0.00305661
-0.0076711
0.00706896
-0.0158062
0.012715
-0.0257126
0.0197213
-0.0367465
0.0276081
-0.0481159
0.0357771
-0.0590298
0.0436435
-0.0688594
0.0507544
-0.0772393
0.0568541
-0.0840807
0.0618868
-0.0895156
0.065952
-0.0938076
0.0692389
-0.0972644
0.0719637
-0.100173
0.074325
-0.102764
0.0764814
-0.105204
0.078547
-0.107601
0.0805983
-0.11002
0.0826838
-0.112498
0.084834
-0.115055
0.0870676
-0.1177
0.0893954
-0.120439
0.0918282
-0.123272
-0.126221
0.0943438
0.00088449
-0.00264338
0.0035588
-0.0103454
0.00801138
-0.0202588
0.0140235
-0.0317248
0.021138
-0.0438609
0.0287308
-0.0557088
0.0361577
-0.0664567
0.0429009
-0.0756025
0.0486559
-0.0829943
0.0533411
-0.0887659
0.057048
-0.0932225
0.0599666
-0.0967262
0.0623155
-0.0996133
0.0642938
-0.102151
0.0660578
-0.104528
0.0677176
-0.106864
0.0693451
-0.109229
0.0709849
-0.11166
0.0726643
-0.114178
0.0744003
-0.116791
0.0762036
-0.119504
0.0780809
-0.122316
0.0800382
-0.125229
-0.128244
0.0820608
0.00103138
-0.00367476
0.00401595
-0.01333
0.0087902
-0.025033
0.0149497
-0.0378843
0.0218699
-0.0507811
0.0288471
-0.0626861
0.0352767
-0.0728863
0.0407748
-0.0811006
0.0452062
-0.0874256
0.0486362
-0.092196
0.0512482
-0.0958345
0.0532634
-0.0987413
0.0548854
-0.101235
0.0562739
-0.10354
0.0575398
-0.105794
0.058754
-0.108078
0.0599593
-0.110434
0.0611814
-0.112882
0.062436
-0.115432
0.0637334
-0.118088
0.0650801
-0.12085
0.0664806
-0.123717
0.0679377
-0.126686
-0.129749
0.0694427
0.00116486
-0.00483963
0.00439076
-0.0165559
0.00933388
-0.0299761
0.0154037
-0.0439541
0.0218546
-0.057232
0.0279811
-0.0688125
0.0332865
-0.0781918
0.0375482
-0.0853623
0.040781
-0.0906584
0.0431492
-0.0945642
0.0448745
-0.0975597
0.0461685
-0.100035
0.0471995
-0.102266
0.048084
-0.104424
0.0488958
-0.106606
0.0496782
-0.108861
0.0504564
-0.111212
0.0512456
-0.113671
0.0520555
-0.116242
0.0528928
-0.118926
0.0537619
-0.121719
0.0546659
-0.124621
0.0556059
-0.127626
-0.130723
0.0565796
0.00127492
-0.00611454
0.00465138
-0.0199323
0.00959153
-0.0349163
0.0153437
-0.0497062
0.0211068
-0.062995
0.0262437
-0.0739495
0.0304039
-0.082352
0.0335176
-0.088476
0.03571
-0.0928508
0.0371956
-0.0960498
0.0381955
-0.0985597
0.038891
-0.100731
0.0394099
-0.102785
0.0398324
-0.104847
0.0402051
-0.106979
0.0405542
-0.10921
0.0408945
-0.111553
0.0412358
-0.114013
0.0415846
-0.116591
0.0419456
-0.119287
0.0423217
-0.122096
0.0427146
-0.125014
0.0431236
-0.128035
-0.131149
0.0435499
0.00135568
-0.00747023
0.00477805
-0.0233547
0.00953993
-0.0396782
0.0147768
-0.0549431
0.0197022
-0.0679205
0.0237974
-0.0780447
0.0268634
-0.085418
0.0289536
-0.0905661
0.0302593
-0.0941565
0.0310073
-0.0967978
0.0313955
-0.0989478
0.0315679
-0.100903
0.0316163
-0.102834
0.0315935
-0.104824
0.0315285
-0.106914
0.0314367
-0.109118
0.0313276
-0.111444
0.0312076
-0.113893
0.0310817
-0.116465
0.0309535
-0.119158
0.0308257
-0.121968
0.0306993
-0.124887
0.0305727
-0.127909
0.0304494
-0.131026
-0.000324638
0.000241875
8.27624e-05
-0.00110569
-8.44109e-05
0.000865466
-0.0022353
-0.000919233
0.00204884
-0.00364111
-0.00204372
0.00344953
-0.00527073
-0.00331018
0.00493979
-0.00708336
-0.00464133
0.00645395
-0.00904468
-0.00601734
0.00797866
-0.0111241
-0.00745659
0.009536
-0.0132932
-0.00899591
0.011165
-0.0155248
-0.0106743
0.0129059
-0.0177917
-0.0125226
0.0147895
-0.0200652
-0.0145589
0.0168324
-0.0223131
-0.0167874
0.0190354
-0.0244985
-0.0191983
0.0213837
-0.0265778
-0.0217677
0.023847
-0.0285003
-0.0244565
0.0263791
-0.0302082
-0.0272084
0.0289163
-0.0316366
-0.0299483
0.0313767
-0.032716
-0.0325803
0.0336596
-0.0333747
-0.0349891
0.0356479
-0.0335428
-0.0370442
0.0372123
-0.0331573
-0.038601
0.0382155
-0.0321812
-0.039491
0.038515
-0.0395614
-0.030632
0.0380121
-0.000353587
0.000595462
-0.00120858
0.000770584
-0.002447
0.000319189
-0.00398696
-0.000503759
-0.00576803
-0.0015291
-0.00774474
-0.00266462
-0.00988186
-0.00388021
-0.0121517
-0.00518672
-0.0145316
-0.00661603
-0.0170018
-0.00820414
-0.0195434
-0.00998093
-0.0221368
-0.0119655
-0.0247592
-0.014165
-0.0273837
-0.0165738
-0.0299777
-0.0191737
-0.0325024
-0.0219318
-0.0349122
-0.0247987
-0.0371546
-0.0277059
-0.0391716
-0.0305632
-0.0409031
-0.0332577
-0.0422908
-0.0356565
-0.0432811
-0.0376107
-0.0438279
-0.0389442
-0.0394663
-0.0439231
-0.000348842
0.000944304
-0.00120297
0.00162472
-0.00244659
0.00156281
-0.00399387
0.00104352
-0.00577861
0.000255637
-0.00775072
-0.000692522
-0.00987148
-0.00175945
-0.0121136
-0.0029446
-0.0144552
-0.00427439
-0.0168792
-0.00578021
-0.0193699
-0.00749021
-0.0219115
-0.00942394
-0.0244861
-0.0115904
-0.0270726
-0.0139873
-0.0296462
-0.0166001
-0.0321775
-0.0194004
-0.0346319
-0.0223444
-0.0369682
-0.0253696
-0.0391387
-0.0283928
-0.0410906
-0.0313057
-0.0427739
-0.0339733
-0.0441435
-0.0362411
-0.045146
-0.0379417
-0.0388452
-0.045767
-0.000309485
0.00125379
-0.00108549
0.00240072
-0.00222703
0.00270436
-0.00365116
0.00246765
-0.00528901
0.00189349
-0.00708431
0.00110277
-0.00899036
0.000146607
-0.0109802
-0.000954771
-0.0130249
-0.00222968
-0.0151038
-0.00370134
-0.0171979
-0.00539603
-0.0192886
-0.00733327
-0.0213559
-0.00952316
-0.0233783
-0.0119649
-0.0253332
-0.0146453
-0.0271962
-0.0175374
-0.0289418
-0.0205989
-0.0305407
-0.0237706
-0.0319586
-0.0269749
-0.0331526
-0.0301117
-0.0340755
-0.0330503
-0.0346859
-0.0356307
-0.0349318
-0.0376958
-0.039053
-0.034724
-0.000240828
0.00149462
-0.000870408
0.0030303
-0.0018129
0.00364685
-0.00299371
0.00364846
-0.00434283
0.0032426
-0.00579865
0.0025586
-0.00731306
0.00166102
-0.00883442
0.000566589
-0.0103362
-0.000727885
-0.0117845
-0.00225303
-0.0131504
-0.00403018
-0.014405
-0.00607865
-0.0155193
-0.00840881
-0.0164644
-0.0110199
-0.0172123
-0.0138973
-0.0177384
-0.0170113
-0.0180217
-0.0203156
-0.0180456
-0.0237468
-0.0177956
-0.0272249
-0.0172533
-0.030654
-0.0163875
-0.0339161
-0.0151611
-0.0368572
-0.0135595
-0.0392974
-0.0411229
-0.0114896
-0.000153035
0.00164765
-0.000586678
0.00346394
-0.00125528
0.00431545
-0.00209638
0.00448956
-0.00304139
0.00418761
-0.00402328
0.00354049
-0.00498076
0.0026185
-0.00586038
0.0014462
-0.00660774
1.94778e-05
-0.00718137
-0.0016794
-0.00753587
-0.00367568
-0.00762738
-0.00598714
-0.00741346
-0.00862273
-0.00685215
-0.0115812
-0.00590619
-0.0148432
-0.00454502
-0.0183724
-0.0027473
-0.0221133
-0.000502813
-0.0259913
0.00218681
-0.0299145
0.00530889
-0.0337761
0.00885293
-0.0374601
0.0128401
-0.0408444
0.0172663
-0.0437236
-0.046015
0.0221584
-5.91153e-05
0.00170677
-0.000272498
0.00367732
-0.000622782
0.00466574
-0.00106063
0.0049274
-0.0015197
0.00464669
-0.00192802
0.00394881
-0.00221345
0.00290393
-0.00230718
0.00153993
-0.00214345
-0.000144249
-0.00165835
-0.0021645
-0.000791559
-0.00454247
0.000516125
-0.00729483
0.00232271
-0.0104293
0.00467763
-0.0139361
0.00762325
-0.0177889
0.0111901
-0.0219393
0.0153939
-0.0263171
0.0202338
-0.0308312
0.0256926
-0.0353733
0.0317404
-0.0398238
0.0383364
-0.0440562
0.0454594
-0.0479673
0.053045
-0.0513092
-0.0544583
0.0614882
2.80014e-05
0.00167877
3.34184e-05
0.00367191
1.1832e-05
0.00468732
4.06925e-06
0.00493517
7.42458e-05
0.00457651
0.000299973
0.00372308
0.000763125
0.00244077
0.00154693
0.000756126
0.00273338
-0.0013307
0.00440271
-0.00383383
0.00663097
-0.00677073
0.00948899
-0.0101528
0.0130378
-0.0139781
0.0173269
-0.0182251
0.0223872
-0.0228492
0.0282287
-0.0277808
0.0348378
-0.0329262
0.042178
-0.0381714
0.0501932
-0.0433885
0.058814
-0.0484447
0.0679642
-0.0532063
0.0775845
-0.0575876
0.0876023
-0.061327
-0.0651247
0.0982688
9.73958e-05
0.00158137
0.000296124
0.00347318
0.000586391
0.00439705
0.00100426
0.0045173
0.00161514
0.00396563
0.00250186
0.00283636
0.00375745
0.00118518
0.00547887
-0.000965288
0.00776296
-0.00361479
0.0107026
-0.00677347
0.0143823
-0.0104504
0.0188728
-0.0146433
0.0242248
-0.0193302
0.0304631
-0.0244634
0.0375809
-0.029967
0.0455376
-0.0357376
0.05426
-0.0416485
0.0636464
-0.0475578
0.0735764
-0.0533185
0.0839203
-0.0587886
0.0945596
-0.0638456
0.105381
-0.0684089
0.11633
-0.0722763
-0.0761623
0.127368
0.000144509
0.00143686
0.000500621
0.00311707
0.00106727
0.0038304
0.0018865
0.00369807
0.00302982
0.00282231
0.00458905
0.00127714
0.00666848
-0.000894254
0.00937749
-0.0036743
0.012823
-0.0070603
0.0171018
-0.0110523
0.0222915
-0.0156401
0.028441
-0.0207928
0.0355618
-0.026451
0.0436213
-0.0325229
0.0525404
-0.0388861
0.0621961
-0.0453933
0.0724302
-0.0518826
0.0830623
-0.0581898
0.0939061
-0.0641624
0.104787
-0.0696692
0.11556
-0.0746187
0.126097
-0.0789461
0.136409
-0.0825883
-0.0859828
0.14623
0.000170789
0.00126607
0.000649006
0.00263885
0.00145821
0.0030212
0.00265636
0.00249992
0.00432824
0.00115043
0.00657853
-0.000973156
0.00952332
-0.00383905
0.0132792
-0.00743021
0.0179519
-0.0117329
0.0236221
-0.0167225
0.0303321
-0.0223501
0.0380735
-0.0285342
0.0467794
-0.0351569
0.0563234
-0.0420668
0.0665251
-0.0490878
0.0771646
-0.0560329
0.0880018
-0.0627198
0.0987992
-0.0689872
0.109344
-0.0747072
0.119473
-0.0797981
0.129078
-0.0842234
0.138122
-0.0879902
0.146663
-0.0911291
-0.093732
0.154412
0.000184883
0.000766361
0.00180473
0.00338314
0.00560627
0.0085935
0.0124674
0.0173383
0.0232856
0.0303396
0.0384655
0.0475552
0.0574292
0.0678477
0.0785328
0.0891953
0.0995646
0.109415
0.118585
0.126993
0.134623
0.141581
0.14802
0.154414
-0.0258141
-0.0539134
0.0490955
-0.0198507
-0.0495985
0.0436351
-0.0128166
-0.0421307
0.0350966
-0.00480664
-0.0313441
0.0233342
0.00411396
-0.0171895
0.00826887
0.0136477
8.25001e-05
-0.00961627
0.0234967
0.0203915
-0.0302404
0.0334557
0.0426768
-0.0526358
0.0432525
0.06565
-0.0754469
0.0526359
0.0875067
-0.0968901
0.0610095
0.106838
-0.115211
0.0676032
0.122612
-0.129205
0.0716226
0.134741
-0.13876
0.0726464
0.14414
-0.145164
0.0713569
0.151604
-0.150314
0.0699286
0.155846
-0.154418
0.0712451
0.152504
-0.15382
0.0771386
0.136015
-0.141909
0.0872649
0.103242
-0.113368
0.099933
0.0553628
-0.0680309
0.11323
-0.00253301
-0.0107638
0.125904
-0.0619383
0.0492639
0.136481
-0.112952
0.102375
0.143928
-0.148467
0.14102
0.147919
-0.16815
0.164159
0.149109
-0.176182
0.174992
0.148319
-0.177161
0.177951
0.145237
-0.176207
0.179289
0.139018
-0.180063
0.186282
0.130607
-0.189433
0.197845
0.123495
-0.190577
0.197689
0.121289
-0.162715
0.164922
0.124988
-0.0969249
0.0932254
0.132805
-0.00890334
0.00108678
0.141771
0.0782556
-0.087222
0.149789
0.1429
-0.150918
0.155532
0.182253
-0.187996
0.157606
0.202931
-0.205005
0.154736
0.223166
-0.220295
0.147662
0.244601
-0.237527
0.139933
0.247391
-0.239662
0.135635
0.20833
-0.204031
0.136491
0.113375
-0.114232
0.141774
0.00223507
-0.00751722
0.148636
-0.108719
0.101857
0.153351
-0.171984
0.167268
0.152511
-0.220499
0.221339
0.146477
-0.248057
0.254092
0.139629
-0.25648
0.263329
0.137168
-0.231562
0.234022
0.140324
-0.115981
0.112826
0.145673
-0.026345
0.0209958
0.14776
0.126406
-0.128493
0.14574
0.203195
-0.201176
0.142867
0.282637
-0.279763
0.141919
0.314414
-0.313467
0.142593
0.16991
-0.170585
0.142874
0.136735
-0.137015
0.141301
-0.138355
0.139928
-0.227341
0.229209
-0.041114
-0.0567225
-0.036853
-0.0538595
-0.0311518
-0.0478319
-0.0239601
-0.0385358
-0.0153758
-0.0257738
-0.00562673
-0.00966657
0.00540519
0.00935955
0.0171532
0.0309289
0.0286141
0.0541891
0.0397855
0.0763354
0.0498996
0.0967237
0.0582044
0.114307
0.0641067
0.128839
0.0676605
0.140587
0.0700293
0.149235
0.0733207
0.152555
0.0795118
0.146313
0.0891064
0.126421
0.100942
0.0914063
0.11341
0.042895
0.125186
-0.0143092
0.135461
-0.0722131
0.143269
-0.12076
0.148014
-0.153212
0.149667
-0.169803
0.148934
-0.175449
0.14673
-0.174957
0.142839
-0.172315
0.136092
-0.173316
0.12691
-0.180251
0.118736
-0.182403
0.115819
-0.159798
0.11961
-0.100716
0.128371
-0.0176643
0.138831
0.0677961
0.148567
0.133164
0.155882
0.174939
0.159138
0.199675
0.157206
0.225098
0.151006
0.2508
0.143991
0.254405
0.139801
0.21252
0.139912
0.113264
0.143875
-0.00172715
0.149393
-0.114238
0.153289
-0.17588
0.152045
-0.219255
0.145838
-0.241851
0.138876
-0.249518
0.136588
-0.229274
0.139931
-0.119324
0.145394
-0.0318084
0.147594
0.124206
0.14566
0.205129
0.142945
0.285352
0.142053
0.315306
0.14303
0.168934
0.143613
0.136151
0.142122
-0.136864
-0.225493
-0.0454859
-0.0570036
-0.0437618
-0.0555836
-0.0403993
-0.0511944
-0.0352121
-0.043723
-0.0281231
-0.0328629
-0.0192443
-0.0185454
-0.00861268
-0.00127204
0.00308414
0.019232
0.0157701
0.0415031
0.0283263
0.0637792
0.0401063
0.0849437
0.0504289
0.103984
0.0589126
0.120355
0.0658957
0.133603
0.0725739
0.142557
0.0805338
0.144595
0.0907629
0.136084
0.102854
0.11433
0.115273
0.0789872
0.126768
0.0313996
0.136619
-0.0241594
0.144346
-0.0799407
0.149356
-0.12577
0.151459
-0.155316
0.150941
-0.169285
0.148516
-0.173023
0.14509
-0.171532
0.140607
-0.167831
0.133696
-0.166405
0.124116
-0.170671
0.114987
-0.173274
0.11109
-0.155901
0.114629
-0.104255
0.124021
-0.0270568
0.13577
0.0560475
0.147137
0.121797
0.156013
0.166062
0.160562
0.195126
0.159785
0.225874
0.154659
0.255926
0.148411
0.260654
0.144263
0.216667
0.143548
0.113979
0.146097
-0.00427604
0.150179
-0.118319
0.153238
-0.178939
0.151664
-0.217682
0.145367
-0.235554
0.138307
-0.242458
0.136132
-0.227099
0.139607
-0.122799
0.145199
-0.037401
0.147554
0.121852
0.145698
0.206984
0.143102
0.287948
0.142276
0.316132
0.143596
0.167614
0.144524
0.135223
0.143118
-0.135457
-0.223664
-0.0370396
-0.0546879
-0.0382297
-0.0543936
-0.0378209
-0.0516031
-0.0355157
-0.0460282
-0.0310539
-0.0373246
-0.0242863
-0.0253131
-0.0154892
-0.0100691
-0.00479319
0.00853601
0.00746539
0.0292445
0.0205916
0.050653
0.0336952
0.0718401
0.0460668
0.0916128
0.0574033
0.109018
0.0680286
0.122978
0.078807
0.131778
0.0906445
0.132757
0.103716
0.123012
0.117058
0.100988
0.129232
0.0668137
0.139278
0.0213532
0.147094
-0.0319749
0.152339
-0.0851859
0.154671
-0.128102
0.154258
-0.154902
0.151741
-0.166767
0.147848
-0.169131
0.143367
-0.167051
0.138416
-0.16288
0.131638
-0.159627
0.122122
-0.161156
0.112301
-0.163453
0.107242
-0.150842
0.110089
-0.107102
0.119697
-0.0366648
0.132538
0.0432062
0.145416
0.108919
0.155838
0.155641
0.161794
0.18917
0.162381
0.225287
0.158496
0.259811
0.153054
0.266096
0.14889
0.220832
0.147295
0.115574
0.148392
-0.00537249
0.150975
-0.120903
0.153174
-0.181138
0.151328
-0.215835
0.145009
-0.229235
0.137861
-0.235309
0.135732
-0.224969
0.139307
-0.126374
0.145063
-0.0431566
0.147627
0.119288
0.145854
0.208757
0.143347
0.290455
0.142596
0.316883
0.144295
0.165915
0.145606
0.133912
0.144287
-0.134138
-0.221851
-0.0160892
-0.0500883
-0.0200603
-0.0504224
-0.0226414
-0.0490221
-0.0234941
-0.0451755
-0.0223559
-0.0384628
-0.018706
-0.0289629
-0.0125552
-0.0162199
-0.0040063
-1.28932e-05
0.00693557
0.0183027
0.0195344
0.0380541
0.0330942
0.0582803
0.046858
0.0778491
0.0604735
0.0954029
0.0740238
0.109428
0.0878888
0.117913
0.102329
0.118317
0.116948
0.108393
0.130571
0.0873651
0.141943
0.055441
0.150561
0.0127354
0.156384
-0.0377982
0.159259
-0.0880607
0.159039
-0.127882
0.156271
-0.152135
0.151954
-0.16245
0.146846
-0.164023
0.141522
-0.161727
0.136209
-0.157567
0.129757
-0.153175
0.120739
-0.152137
0.110633
-0.153347
0.10438
-0.144589
0.106119
-0.108841
0.115475
-0.0460208
0.129104
0.029577
0.143313
0.0947095
0.155235
0.143719
0.162705
0.1817
0.164848
0.223144
0.162361
0.262299
0.157757
0.2707
0.153528
0.22506
0.151047
0.118055
0.1507
-0.00502527
0.151755
-0.121958
0.153068
-0.182451
0.150996
-0.213764
0.144719
-0.222957
0.137483
-0.228073
0.135327
-0.222814
0.13898
-0.130026
0.144948
-0.0491242
0.147795
0.11644
0.146128
0.210424
0.143689
0.292894
0.14302
0.317552
0.145122
0.163813
0.146853
0.132181
0.145623
-0.132908
-0.220051
0.0156822
-0.0436121
0.00923235
-0.0439726
0.00355063
-0.0433404
-0.000718156
-0.0409067
-0.00269017
-0.0364908
-0.00249793
-0.0291552
0.000413834
-0.0191317
0.00695581
-0.00655487
0.0158504
0.00940805
0.026819
0.0270856
0.0395832
0.045516
0.0535252
0.0639071
0.0681789
0.0807493
0.0833109
0.0942958
0.0988112
0.102413
0.114411
0.102717
0.129361
0.0934434
0.142481
0.0742444
0.152831
0.0450915
0.160081
0.00548551
0.16418
-0.0418975
0.164856
-0.0887364
0.162277
-0.125303
0.157402
-0.147259
0.151521
-0.15657
0.145438
-0.15794
0.139489
-0.155778
0.133896
-0.151974
0.127857
-0.147136
0.119688
-0.143968
0.109809
-0.143468
0.102548
-0.137328
0.102836
-0.109129
0.111471
-0.0546558
0.125452
0.0155962
0.14073
0.0794318
0.154063
0.130386
0.163129
0.172634
0.166999
0.219274
0.166056
0.263242
0.162335
0.27442
0.158026
0.229369
0.15468
0.121401
0.152952
-0.00329703
0.152479
-0.121486
0.152881
-0.182853
0.150622
-0.211506
0.144449
-0.216784
0.137122
-0.220746
0.13486
-0.220551
0.138571
-0.133737
0.14481
-0.0553635
0.148032
0.113218
0.146517
0.211939
0.14414
0.295271
0.143555
0.318137
0.146077
0.161291
0.148259
0.13
0.147118
-0.131768
-0.218259
0.0543645
-0.0364885
0.0473173
-0.0369253
0.0404774
-0.0365005
0.0343543
-0.0347836
0.0293526
-0.0314892
0.0263779
-0.0261805
0.0259752
-0.0187289
0.0282466
-0.00882625
0.0336232
0.0040314
0.0417953
0.0189135
0.0525497
0.0347617
0.0653429
0.0511139
0.0796162
0.066476
0.0948552
0.0790568
0.110541
0.0867273
0.126015
0.0872432
0.140339
0.0791193
0.152451
0.0621321
0.161657
0.0358855
0.167728
-0.000585404
0.170255
-0.0444244
0.168927
-0.0874087
0.164241
-0.120617
0.157558
-0.140576
0.150382
-0.149394
0.143555
-0.151113
0.1372
-0.149423
0.131414
-0.146188
0.125767
-0.141489
0.118654
-0.136855
0.109521
-0.134335
0.101666
-0.129473
0.100369
-0.107833
0.10777
-0.0620568
0.12159
0.00177616
0.137582
0.0634397
0.152183
0.115786
0.162887
0.16193
0.168635
0.213526
0.169382
0.262495
0.166611
0.277191
0.162241
0.233739
0.15807
0.125572
0.155069
-0.000295672
0.153106
-0.119523
0.152572
-0.182319
0.150157
-0.209091
0.144155
-0.210781
0.136736
-0.213328
0.134283
-0.218098
0.138025
-0.13748
0.144598
-0.061937
0.148307
0.109509
0.147015
0.213232
0.144705
0.297581
0.144204
0.318637
0.147157
0.158339
0.149816
0.12734
0.148764
-0.130716
-0.216473
0.0913805
-0.0296002
0.084576
-0.0301208
0.0777869
-0.0297113
0.0711292
-0.0281259
0.0649898
-0.0253498
0.0599941
-0.0211848
0.0567061
-0.0154408
0.0556936
-0.00781382
0.0575325
0.00219251
0.0623605
0.0140855
0.070209
0.0269131
0.0807286
0.0405943
0.0933705
0.0538341
0.107444
0.0649831
0.122143
0.0720281
0.136548
0.0728385
0.14964
0.0660276
0.160504
0.0512677
0.168588
0.0278017
0.173518
-0.00551512
0.174537
-0.0454442
0.171347
-0.0842179
0.164821
-0.114092
0.156675
-0.13243
0.148505
-0.141224
0.141144
-0.143752
0.134578
-0.142856
0.128704
-0.140315
0.123372
-0.136156
0.11734
-0.130824
0.109377
-0.126372
0.101488
-0.121584
0.0987391
-0.105083
0.104479
-0.0677964
0.11756
-0.0113055
0.133828
0.0471718
0.149484
0.10013
0.161812
0.149601
0.169531
0.205807
0.17209
0.259936
0.170379
0.278903
0.16601
0.238108
0.161111
0.130471
0.156961
0.00385436
0.153586
-0.116148
0.152096
-0.180828
0.149548
-0.206544
0.143793
-0.205027
0.136293
-0.205828
0.133559
-0.215363
0.137295
-0.141215
0.144256
-0.0688984
0.148582
0.105183
0.147609
0.214205
0.14539
0.299799
0.144972
0.319056
0.148354
0.154956
0.151517
0.124177
0.150547
-0.129746
-0.214693
0.121002
-0.0232345
0.114786
-0.0239052
0.108655
-0.0235802
0.102664
-0.0221344
0.0969851
-0.0196712
0.0919033
-0.016103
0.0877998
-0.0113373
0.0852412
-0.00525518
0.0845529
0.00288077
0.0863467
0.0122916
0.0910109
0.0222489
0.09854
0.0330653
0.108585
0.0437892
0.120475
0.0530929
0.133293
0.0592103
0.145977
0.060154
0.157475
0.0545296
0.166957
0.0417856
0.173853
0.0209059
0.177513
-0.00917527
0.176941
-0.0448721
0.171985
-0.0792615
0.163907
-0.106014
0.154662
-0.123185
0.14581
-0.132372
0.138107
-0.136049
0.131485
-0.136234
0.12565
-0.134479
0.120561
-0.131068
0.115491
-0.125753
0.108943
-0.119824
0.101619
-0.11426
0.0977986
-0.101263
0.101711
-0.0717083
0.113412
-0.0230075
0.129479
0.0311048
0.145889
0.0837209
0.159749
0.135741
0.16952
0.196036
0.174047
0.255409
0.173496
0.279454
0.169193
0.242411
0.163743
0.135921
0.158496
0.00910097
0.153862
-0.111515
0.151398
-0.178363
0.148731
-0.203877
0.143317
-0.199613
0.135766
-0.198277
0.132663
-0.212261
0.136339
-0.144891
0.143726
-0.076286
0.148813
0.100097
0.148281
0.214737
0.146196
0.301883
0.145857
0.319395
0.149666
0.151147
0.153349
0.120495
0.152457
-0.128854
-0.21292
0.140629
-0.0176342
0.135177
-0.0184529
0.129845
-0.0182487
0.12488
-0.0171689
0.120411
-0.0152019
0.116479
-0.0121714
0.113197
-0.00805513
0.110791
-0.00284941
0.109505
0.00416692
0.110017
0.0117793
0.112555
0.0197115
0.117462
0.0281576
0.124685
0.0365669
0.133827
0.0439504
0.144142
0.0488961
0.154609
0.0496871
0.16418
0.0449578
0.172069
0.033897
0.177583
0.0153914
0.179688
-0.0112795
0.177343
-0.0425275
0.170729
-0.072647
0.161419
-0.0967049
0.151438
-0.113204
0.1422
-0.123134
0.134327
-0.128176
0.127761
-0.129668
0.122096
-0.128814
0.117234
-0.126207
0.112931
-0.12145
0.107841
-0.114734
0.101587
-0.108006
0.0972545
-0.0969312
0.0993566
-0.0738103
0.109317
-0.0329679
0.124602
0.0158194
0.141384
0.0669393
0.156591
0.120535
0.168361
0.184265
0.174926
0.248845
0.175701
0.278679
0.171641
0.246471
0.165795
0.141767
0.159677
0.0152193
0.153903
-0.10574
0.150447
-0.174907
0.147656
-0.201085
0.142683
-0.19464
0.135147
-0.190741
0.131598
-0.208711
0.135129
-0.148422
0.142952
-0.0841087
0.148952
0.0940961
0.149005
0.214685
0.147119
0.303769
0.146862
0.319652
0.151088
0.146921
0.155297
0.116287
0.154481
-0.128038
-0.211159
0.149794
-0.0130166
0.145165
-0.0138241
0.140664
-0.0137472
0.136709
-0.0132138
0.133409
-0.0119024
0.130781
-0.00954269
0.128911
-0.00618501
0.128067
-0.00200624
0.128017
0.00421775
0.128782
0.0110136
0.13072
0.0177739
0.134319
0.0245581
0.13964
0.0312463
0.1465
0.0370904
0.154371
0.0410249
0.16248
0.0415787
0.16994
0.0374974
0.17596
0.0278771
0.179483
0.0118679
0.179901
-0.0116971
0.175812
-0.0384384
0.167856
-0.0646909
0.157762
-0.0866108
0.147448
-0.10289
0.13811
-0.113795
0.13021
-0.120276
0.123737
-0.123195
0.118294
-0.123371
0.113638
-0.121551
0.109842
-0.117654
0.106017
-0.110909
0.101119
-0.103108
0.0968385
-0.0926506
0.0973818
-0.0743537
0.105341
-0.0409271
0.119295
0.00186506
0.13597
0.050265
0.152303
0.104201
0.16615
0.170418
0.174934
0.24006
0.177085
0.276529
0.173291
0.250264
0.167305
0.147754
0.160498
0.022026
0.153787
-0.0990295
0.149325
-0.170445
0.14637
-0.19813
0.141896
-0.190166
0.134462
-0.183308
0.130419
-0.204668
0.133688
-0.151691
0.141875
-0.0922954
0.148942
0.0870293
0.149751
0.213876
0.148149
0.305371
0.147981
0.319821
0.152614
0.142287
0.157345
0.111557
0.156606
-0.1273
-0.209418
0.15124
-0.00984282
0.147508
-0.0100923
0.143967
-0.0102059
0.140841
-0.0100878
0.138271
-0.00933203
0.136432
-0.00770402
0.135383
-0.00513601
0.135022
-0.00164535
0.135924
0.00331595
0.137975
0.00896275
0.140931
0.0148182
0.144696
0.0207925
0.149425
0.0265169
0.155094
0.0314218
0.16141
0.0347087
0.167753
0.0352363
0.173378
0.0318723
0.177552
0.0237031
0.179629
0.0097911
0.177798
-0.00986623
0.172171
-0.0328117
0.163409
-0.0559292
0.153218
-0.076419
0.143147
-0.0928203
0.134095
-0.104743
0.12637
-0.112551
0.120012
-0.116837
0.114765
-0.118124
0.110272
-0.117058
0.106708
-0.11409
0.10377
-0.107971
0.100239
-0.0995772
0.0964675
-0.0888789
0.0958726
-0.0737588
0.101755
-0.0468097
0.113875
-0.0102549
0.129839
0.0343011
0.146579
0.0874617
0.162021
0.154976
0.173124
0.228957
0.177069
0.272584
0.173934
0.253399
0.168005
0.153682
0.160977
0.0290537
0.153449
-0.0915016
0.148092
-0.165088
0.144948
-0.194986
0.140982
-0.1862
0.133724
-0.176051
0.129191
-0.200135
0.132119
-0.154618
0.140547
-0.100724
0.148745
0.0788313
0.150476
0.212145
0.149267
0.30658
0.149215
0.319873
0.154237
0.137264
0.159477
0.106317
0.158832
-0.126655
-0.207679
0.183836
-0.00603085
-0.187648
0.180641
-0.00689798
0.177506
-0.00707008
0.174288
-0.00687018
0.171072
-0.0061161
0.167987
-0.00461901
0.165144
-0.00229322
0.162673
0.000825678
0.161002
0.0049868
0.160143
0.00982182
0.160055
0.0149063
0.160896
0.0199512
0.162864
0.0245495
0.166138
0.0281476
0.170831
0.0300157
0.176831
0.0292358
0.183771
0.0249323
0.191038
0.0164367
0.197419
0.00340995
0.201703
-0.0141506
0.202799
-0.033907
0.200573
-0.0537038
0.195669
-0.071515
0.188991
-0.0861421
0.181361
-0.0971136
0.173367
-0.104557
0.165445
-0.108915
0.157835
-0.110514
0.150401
-0.109623
0.143259
-0.106948
0.136601
-0.101312
0.129574
-0.0925505
0.121424
-0.0807285
0.114044
-0.0663797
0.111115
-0.0438806
0.114221
-0.0133603
0.121009
0.0275127
0.128503
0.0799677
0.134981
0.148498
0.140297
0.223642
0.145513
0.267368
0.152321
0.24659
0.160669
0.145335
0.16606
0.0236629
0.166669
-0.092111
0.16347
-0.161888
0.1587
-0.190216
0.152149
-0.179649
0.143308
-0.167209
0.135685
-0.192512
0.133366
-0.152299
0.134764
-0.102122
0.136426
0.0771695
0.135104
0.213467
0.13353
0.308154
0.136233
0.31717
0.142829
0.130667
0.148695
0.100452
0.147604
-0.125564
-0.203972
0.194318
-0.00331221
-0.197037
0.191614
-0.00419328
0.188994
-0.0044508
0.186361
-0.00423724
0.183791
-0.00354619
0.181431
-0.00225855
0.179454
-0.000316302
0.17788
0.00239967
0.177018
0.00584888
0.176975
0.00986508
0.177795
0.0140859
0.179547
0.018199
0.182296
0.0218008
0.186081
0.0243632
0.190861
0.0252356
0.196422
0.0236744
0.202332
0.0190226
0.207949
0.0108196
0.212479
-0.00112035
0.214738
-0.0164097
0.214256
-0.0334245
0.211041
-0.0504888
0.205593
-0.0660678
0.198626
-0.0791749
0.190861
-0.0893482
0.182831
-0.0965267
0.174885
-0.100969
0.167274
-0.102904
0.159888
-0.102237
0.152671
-0.0997317
0.145956
-0.0945966
0.139382
-0.0859766
0.131886
-0.0732323
0.124384
-0.0588783
0.120334
-0.0398299
0.122022
-0.0150487
0.128295
0.0212402
0.136031
0.0722311
0.143423
0.141106
0.149976
0.217089
0.156625
0.260719
0.164727
0.238487
0.173786
0.136276
0.179652
0.0177966
0.17963
-0.092089
0.175379
-0.157637
0.169628
-0.184465
0.162591
-0.172612
0.153235
-0.157853
0.144948
-0.184225
0.141966
-0.149317
0.143316
-0.103472
0.145487
0.0749981
0.144594
0.21436
0.143318
0.30943
0.146391
0.314097
0.153535
0.123523
0.159917
0.0940708
0.158419
-0.124067
-0.199799
0.204976
-0.00111513
-0.207173