/*--------------------------------*- C++ -*----------------------------------*\
| =========                 |                                                 |
| \\      /  F ield         | OpenFOAM: The Open Source CFD Toolbox           |
|  \\    /   O peration     | Version:  2512                                  |
|   \\  /    A nd           | Website:  www.openfoam.com                      |
|    \\/     M anipulation  |                                                 |
\*---------------------------------------------------------------------------*/
FoamFile
{
    version     2.0;
    format      ascii;
    arch        "LSB;label=32;scalar=64";
    class       volScalarField;
    location    "163.5";
    object      p;
}
// * * * * * * * * * * * * * * * * * * * * * * * * * * * * * * * * * * * * * //

dimensions      [0 2 -2 0 0 0 0];

internalField   nonuniform List<scalar> 
13248
(
-0.447248
-0.444453
-0.441859
-0.439551
-0.437556
-0.435892
-0.434411
-0.432811
-0.430678
-0.427532
-0.422888
-0.416314
-0.407492
-0.396262
-0.382644
-0.366829
-0.349145
-0.330011
-0.309873
-0.289174
-0.268226
-0.247408
-0.226299
-0.205376
-0.456157
-0.452635
-0.449184
-0.445914
-0.442856
-0.440037
-0.437293
-0.434289
-0.430575
-0.425668
-0.419116
-0.410581
-0.39988
-0.387014
-0.372155
-0.355605
-0.337751
-0.319004
-0.299756
-0.280349
-0.261042
-0.242083
-0.223383
-0.205462
-0.466107
-0.46173
-0.457378
-0.453139
-0.449005
-0.444971
-0.440835
-0.436215
-0.430647
-0.423683
-0.41497
-0.404317
-0.391716
-0.377328
-0.361443
-0.344421
-0.326642
-0.308458
-0.290171
-0.272027
-0.254202
-0.236872
-0.219974
-0.203707
-0.47746
-0.472061
-0.466745
-0.461516
-0.456252
-0.450877
-0.445126
-0.438582
-0.430811
-0.421469
-0.410368
-0.39751
-0.383065
-0.367322
-0.350628
-0.333338
-0.31577
-0.298186
-0.280793
-0.263748
-0.247169
-0.23117
-0.215694
-0.200972
-0.490383
-0.483785
-0.477427
-0.47115
-0.464637
-0.457704
-0.45002
-0.44118
-0.430853
-0.418877
-0.405282
-0.39027
-0.37415
-0.357277
-0.339989
-0.322579
-0.305275
-0.288246
-0.271615
-0.255469
-0.239875
-0.224888
-0.210472
-0.19678
-0.504829
-0.49689
-0.489411
-0.481982
-0.474014
-0.465195
-0.455171
-0.443627
-0.430428
-0.415657
-0.399579
-0.382556
-0.364973
-0.347177
-0.329444
-0.311979
-0.294917
-0.278348
-0.262328
-0.246894
-0.232071
-0.217878
-0.204292
-0.191415
-0.520553
-0.511188
-0.502512
-0.493767
-0.484033
-0.472896
-0.460064
-0.445424
-0.429125
-0.411526
-0.393088
-0.374266
-0.355442
-0.3369
-0.318827
-0.301334
-0.284476
-0.268278
-0.252747
-0.237883
-0.22368
-0.210129
-0.197217
-0.18497
-0.537102
-0.526302
-0.51635
-0.506049
-0.494135
-0.480168
-0.464054
-0.446009
-0.426515
-0.406182
-0.385593
-0.365211
-0.345355
-0.326211
-0.307868
-0.290355
-0.273663
-0.257767
-0.242639
-0.228248
-0.214567
-0.201569
-0.189239
-0.177533
-0.553813
-0.54164
-0.530319
-0.518142
-0.50355
-0.486226
-0.466442
-0.44483
-0.422204
-0.399351
-0.37688
-0.35519
-0.334495
-0.314873
-0.296326
-0.27881
-0.262269
-0.246641
-0.231868
-0.217897
-0.204681
-0.192185
-0.18038
-0.169162
-0.569799
-0.556373
-0.543556
-0.52911
-0.511319
-0.490193
-0.466518
-0.441376
-0.415844
-0.390778
-0.366728
-0.34398
-0.322625
-0.302642
-0.283957
-0.266473
-0.250093
-0.234727
-0.220294
-0.206721
-0.193947
-0.181925
-0.170603
-0.159851
-0.583975
-0.569443
-0.554956
-0.537802
-0.516338
-0.491117
-0.463532
-0.435071
-0.406965
-0.380036
-0.354713
-0.331143
-0.309301
-0.289079
-0.27034
-0.252947
-0.23677
-0.221695
-0.207621
-0.19446
-0.182139
-0.170595
-0.159743
-0.149465
-0.595165
-0.579708
-0.563358
-0.543055
-0.517508
-0.488014
-0.456609
-0.425106
-0.394776
-0.366324
-0.340021
-0.315867
-0.293726
-0.273416
-0.254747
-0.237546
-0.221657
-0.206945
-0.193294
-0.180604
-0.168791
-0.157779
-0.147453
-0.137752
-0.340117
-0.342845
-0.344476
-0.345512
-0.346398
-0.347274
-0.348202
-0.349212
-0.350308
-0.351474
-0.352691
-0.353946
-0.35523
-0.356549
-0.357918
-0.359366
-0.360933
-0.362667
-0.364626
-0.366867
-0.369408
-0.372169
-0.375112
-0.378632
-0.345197
-0.348371
-0.350362
-0.351748
-0.353018
-0.354293
-0.355609
-0.356967
-0.358335
-0.359655
-0.360858
-0.361869
-0.362613
-0.363015
-0.363013
-0.362552
-0.361596
-0.360128
-0.358167
-0.355762
-0.352928
-0.34957
-0.345845
-0.343037
-0.35191
-0.355288
-0.357519
-0.359207
-0.36084
-0.362517
-0.36424
-0.365979
-0.367662
-0.369188
-0.370434
-0.371258
-0.371511
-0.371038
-0.369684
-0.367306
-0.363779
-0.359008
-0.352955
-0.345642
-0.337066
-0.327098
-0.316027
-0.306165
-0.360237
-0.363546
-0.365869
-0.367782
-0.369734
-0.371788
-0.373912
-0.37604
-0.378062
-0.379831
-0.381168
-0.381871
-0.381714
-0.380461
-0.377871
-0.373712
-0.367774
-0.359886
-0.349945
-0.33794
-0.32388
-0.307652
-0.289477
-0.27225
-0.369918
-0.372888
-0.375141
-0.377178
-0.379369
-0.381734
-0.384209
-0.38669
-0.389025
-0.391024
-0.392457
-0.39306
-0.392539
-0.390582
-0.386872
-0.381101
-0.372993
-0.362322
-0.34894
-0.332806
-0.313985
-0.292501
-0.268341
-0.243688
-0.380508
-0.382909
-0.384928
-0.386955
-0.389259
-0.391822
-0.394541
-0.397269
-0.399823
-0.401964
-0.403414
-0.403854
-0.402931
-0.40027
-0.395493
-0.388243
-0.378207
-0.365144
-0.348907
-0.329469
-0.306957
-0.28161
-0.253431
-0.222594
-0.391461
-0.393129
-0.394758
-0.396616
-0.398864
-0.401449
-0.404237
-0.407044
-0.409639
-0.411749
-0.413049
-0.413169
-0.411707
-0.408243
-0.402366
-0.393696
-0.381927
-0.366853
-0.348396
-0.326622
-0.301771
-0.274145
-0.244364
-0.211586
-0.402243
-0.403092
-0.404195
-0.405708
-0.407697
-0.410084
-0.412709
-0.415358
-0.417761
-0.419604
-0.420519
-0.420096
-0.417896
-0.413475
-0.406413
-0.396351
-0.38303
-0.366329
-0.346283
-0.323095
-0.297185
-0.26885
-0.239674
-0.207242
-0.412447
-0.412466
-0.412935
-0.413925
-0.415436
-0.417382
-0.419589
-0.421817
-0.423764
-0.425076
-0.425348
-0.42414
-0.420992
-0.415457
-0.407142
-0.395743
-0.381093
-0.363191
-0.342213
-0.318496
-0.292639
-0.264893
-0.237282
-0.206945
-0.421876
-0.421113
-0.42087
-0.421176
-0.422001
-0.42327
-0.42481
-0.42636
-0.427593
-0.42812
-0.427506
-0.425288
-0.421002
-0.414228
-0.404626
-0.391987
-0.376266
-0.357599
-0.336303
-0.31283
-0.287846
-0.26167
-0.236037
-0.208657
-0.430589
-0.429113
-0.428106
-0.427595
-0.427557
-0.427945
-0.428598
-0.429246
-0.429534
-0.429045
-0.42732
-0.423884
-0.418292
-0.410174
-0.39928
-0.38552
-0.368984
-0.349937
-0.328791
-0.306077
-0.282412
-0.258268
-0.234808
-0.210505
-0.438891
-0.43675
-0.434944
-0.433527
-0.432506
-0.431874
-0.431483
-0.431052
-0.430205
-0.428492
-0.425434
-0.420563
-0.413477
-0.40389
-0.391671
-0.376868
-0.359699
-0.340526
-0.319799
-0.298037
-0.275709
-0.253372
-0.231656
-0.210454
-0.383822
-0.390168
-0.394759
-0.39571
-0.391848
-0.38073
-0.362351
-0.336347
-0.304211
-0.268401
-0.23285
-0.201458
-0.177103
-0.161522
-0.155831
-0.160894
-0.176333
-0.198489
-0.219617
-0.229978
-0.223327
-0.199523
-0.166175
-0.1329
-0.106166
-0.0882563
-0.0788017
-0.0763529
-0.0803001
-0.0920398
-0.111513
-0.132134
-0.142623
-0.136139
-0.116837
-0.0946254
-0.0775782
-0.0675809
-0.0636221
-0.0666875
-0.0781679
-0.0929459
-0.0995538
-0.0928097
-0.0781523
-0.0635101
-0.0531951
-0.0472367
-0.0473011
-0.0496956
-0.0495068
-0.0470613
-0.0429581
-0.0373445
-0.0337988
-0.0310733
-0.0284417
-0.0289321
-0.0235337
-0.00671256
-0.341846
-0.341804
-0.341372
-0.339082
-0.333529
-0.323108
-0.308611
-0.288101
-0.263638
-0.235739
-0.20824
-0.184477
-0.167034
-0.157855
-0.158499
-0.169929
-0.191092
-0.217296
-0.240203
-0.250172
-0.240974
-0.213649
-0.176449
-0.139636
-0.109873
-0.0892349
-0.0771444
-0.0721177
-0.0732813
-0.0816081
-0.0974531
-0.115496
-0.125708
-0.121356
-0.105598
-0.0870882
-0.0734172
-0.0662732
-0.0648238
-0.0705708
-0.0847539
-0.10179
-0.109182
-0.101311
-0.0841456
-0.0665813
-0.0539137
-0.045748
-0.0439048
-0.0443521
-0.0437457
-0.0419703
-0.0392722
-0.0356846
-0.0337792
-0.0333234
-0.0314725
-0.0323859
-0.0265315
-0.00757248
-0.298567
-0.290768
-0.284173
-0.277448
-0.269525
-0.258345
-0.246321
-0.230927
-0.21571
-0.195181
-0.175742
-0.15984
-0.149797
-0.147688
-0.155249
-0.173118
-0.199414
-0.22881
-0.252977
-0.262865
-0.252193
-0.222675
-0.183012
-0.14383
-0.111899
-0.0891323
-0.0747889
-0.0673835
-0.0659038
-0.0709094
-0.0830671
-0.0983977
-0.108202
-0.105849
-0.0935478
-0.078695
-0.0683927
-0.0641298
-0.0652391
-0.073651
-0.0903884
-0.109548
-0.117782
-0.108997
-0.0895741
-0.0692337
-0.0543434
-0.0441806
-0.0406563
-0.0393302
-0.0382553
-0.0369243
-0.0354884
-0.0338937
-0.0336847
-0.0355511
-0.0344539
-0.0357091
-0.0294186
-0.00841211
-0.258832
-0.24262
-0.229175
-0.217097
-0.20617
-0.196016
-0.182597
-0.167652
-0.163951
-0.148736
-0.137048
-0.129047
-0.12669
-0.131991
-0.146486
-0.170256
-0.200789
-0.232572
-0.257726
-0.267838
-0.256824
-0.226465
-0.185775
-0.145491
-0.11235
-0.0881376
-0.0720344
-0.0625763
-0.0586756
-0.0605785
-0.0691406
-0.0816241
-0.0907531
-0.0901354
-0.0810685
-0.0696929
-0.062626
-0.0611429
-0.0647188
-0.075634
-0.0947253
-0.115904
-0.125071
-0.115665
-0.0943246
-0.071442
-0.0544978
-0.0425648
-0.0376008
-0.0346971
-0.0331015
-0.0319935
-0.0316533
-0.0319903
-0.0335126
-0.0377397
-0.0373594
-0.0388637
-0.0321601
-0.00922175
-0.226634
-0.202431
-0.182099
-0.164472
-0.14869
-0.135192
-0.121976
-0.111273
-0.108716
-0.100789
-0.0962
-0.0955405
-0.100539
-0.112892
-0.133642
-0.162264
-0.195887
-0.229228
-0.255101
-0.265648
-0.25513
-0.22527
-0.185031
-0.144956
-0.111533
-0.0865016
-0.0691197
-0.0579936
-0.05202
-0.0511207
-0.0562461
-0.0658031
-0.0739545
-0.0747505
-0.068516
-0.0603011
-0.0562078
-0.0572828
-0.0631217
-0.0763008
-0.0975274
-0.120575
-0.130776
-0.121123
-0.0983063
-0.0732029
-0.0544085
-0.0409288
-0.0347572
-0.0304889
-0.0283352
-0.0272487
-0.0278153
-0.0299912
-0.0332605
-0.0398689
-0.0401593
-0.0418092
-0.0347218
-0.00999181
-0.203447
-0.172522
-0.145487
-0.125347
-0.104104
-0.0862297
-0.0788101
-0.0662349
-0.061242
-0.0581589
-0.0587793
-0.0639912
-0.0750694
-0.0931792
-0.118747
-0.150707
-0.186066
-0.220029
-0.246251
-0.257287
-0.247841
-0.219596
-0.181188
-0.142546
-0.109726
-0.0844627
-0.0662312
-0.0538095
-0.0461304
-0.0428781
-0.0448574
-0.0514728
-0.058352
-0.0605574
-0.0562009
-0.0507389
-0.0492457
-0.0525747
-0.060408
-0.0755547
-0.0986317
-0.123363
-0.134719
-0.125238
-0.101444
-0.0745141
-0.0541014
-0.0392896
-0.0321235
-0.0267166
-0.0239895
-0.0227497
-0.024019
-0.0279107
-0.0329232
-0.0419146
-0.0428197
-0.0445077
-0.0370728
-0.0107123
-0.190094
-0.157464
-0.126364
-0.0998112
-0.0759873
-0.0561653
-0.0421978
-0.0311345
-0.0267273
-0.0258184
-0.0294503
-0.0383828
-0.0534315
-0.0752162
-0.103608
-0.13715
-0.172872
-0.206516
-0.232487
-0.243952
-0.235983
-0.210263
-0.17483
-0.138649
-0.107198
-0.0822278
-0.0635186
-0.0501234
-0.0410749
-0.0359066
-0.035189
-0.038978
-0.0443063
-0.0468251
-0.044367
-0.0412699
-0.0419204
-0.0471397
-0.0566228
-0.0733661
-0.0979473
-0.124191
-0.136792
-0.127919
-0.103674
-0.0753664
-0.0535951
-0.0376578
-0.0296826
-0.0233591
-0.0200769
-0.0184822
-0.0203033
-0.0257605
-0.0324924
-0.0438518
-0.0453066
-0.0469248
-0.0391851
-0.0113736
-0.185025
-0.153103
-0.120446
-0.0910011
-0.06483
-0.0425265
-0.0249805
-0.0127045
-0.00685716
-0.00590021
-0.0103201
-0.0206177
-0.0372266
-0.0603356
-0.0894367
-0.122851
-0.157694
-0.190119
-0.215029
-0.226874
-0.220627
-0.198119
-0.166516
-0.133571
-0.104101
-0.0798818
-0.0610357
-0.0469575
-0.036849
-0.0301656
-0.0272349
-0.0284509
-0.0320878
-0.0344391
-0.0333924
-0.0321881
-0.0344639
-0.04114
-0.0518823
-0.0698084
-0.0954917
-0.123093
-0.136966
-0.129109
-0.104952
-0.0757589
-0.0529102
-0.0360449
-0.0274264
-0.0203838
-0.0165873
-0.0146526
-0.016707
-0.0235521
-0.0319573
-0.0456554
-0.0475885
-0.0490296
-0.041033
-0.0119678
-0.185131
-0.155529
-0.124228
-0.0943993
-0.0670889
-0.0431144
-0.0234246
-0.00887745
-0.000418147
0.00218221
-0.00110593
-0.0106391
-0.0265951
-0.0488854
-0.0768119
-0.108606
-0.141487
-0.172067
-0.195802
-0.207324
-0.202896
-0.184091
-0.156893
-0.127694
-0.10065
-0.0775719
-0.0589092
-0.0444146
-0.0335196
-0.0256677
-0.0209885
-0.019959
-0.0218524
-0.0237617
-0.0235662
-0.0237516
-0.0271186
-0.0347936
-0.0463158
-0.0649309
-0.0914052
-0.120187
-0.135283
-0.128822
-0.105303
-0.0757632
-0.0521332
-0.0344984
-0.0253685
-0.0177951
-0.0135093
-0.0112417
-0.0132561
-0.0212935
-0.0313058
-0.0473001
-0.0496384
-0.050793
-0.0425918
-0.0124906
-0.187799
-0.161294
-0.133355
-0.105497
-0.0788249
-0.0546092
-0.0339179
-0.0171292
-0.00510565
0.000264295
-0.000439228
-0.00755378
-0.0211068
-0.0408673
-0.0660769
-0.0949976
-0.125024
-0.152833
-0.174972
-0.186346
-0.184082
-0.169398
-0.14696
-0.121813
-0.097501
-0.0758682
-0.057648
-0.0429245
-0.0314134
-0.0226225
-0.0165402
-0.0135847
-0.013746
-0.0149634
-0.01503
-0.0161564
-0.0200787
-0.0282875
-0.0401904
-0.0590934
-0.0858704
-0.11554
-0.131841
-0.127184
-0.104794
-0.0755064
-0.0514209
-0.0331132
-0.0235119
-0.0155899
-0.0108847
-0.00827476
-0.00995041
-0.0189973
-0.030525
-0.0487537
-0.0514267
-0.0521913
-0.0438324
-0.0129346
-0.190729
-0.167557
-0.143415
-0.1179
-0.0923277
-0.0683849
-0.047209
-0.0284842
-0.015456
-0.00804559
-0.00541577
-0.00897589
-0.0189822
-0.035046
-0.0565566
-0.0819736
-0.108687
-0.133774
-0.153347
-0.164507
-0.1646
-0.154335
-0.136918
-0.116074
-0.0947445
-0.0747911
-0.0572175
-0.0424046
-0.0303833
-0.0208288
-0.0136226
-0.00901787
-0.00753483
-0.00804824
-0.00878517
-0.00965453
-0.013634
-0.0218497
-0.0334793
-0.0521186
-0.0792037
-0.109725
-0.126739
-0.124163
-0.103168
-0.0747394
-0.0506151
-0.0317978
-0.0217438
-0.0135613
-0.0086462
-0.00586668
-0.00681473
-0.0166462
-0.0295913
-0.0500059
-0.0529113
-0.0532007
-0.0447202
-0.0132721
-0.193895
-0.175967
-0.156249
-0.133781
-0.110868
-0.0887332
-0.066669
-0.0482834
-0.0325527
-0.0218278
-0.0165123
-0.0162577
-0.0216152
-0.0327325
-0.0489583
-0.0690636
-0.0911068
-0.113032
-0.130872
-0.140879
-0.142731
-0.136526
-0.12379
-0.107084
-0.0888321
-0.0708761
-0.0544321
-0.0400644
-0.0280205
-0.0182016
-0.0104516
-0.00472709
-0.0018619
-0.00173214
-0.0026292
-0.00394866
-0.00796584
-0.0159842
-0.027136
-0.0450167
-0.0715657
-0.102159
-0.119932
-0.118818
-0.0997226
-0.0724263
-0.0487158
-0.0298877
-0.0197424
-0.0113027
-0.00634426
-0.00365529
-0.00384626
-0.0143446
-0.0285095
-0.0509761
-0.0540826
-0.053811
-0.0452633
-0.013458
-0.182331
-0.174014
-0.155531
-0.133659
-0.112212
-0.0916907
-0.0718767
-0.0545757
-0.0402866
-0.0299778
-0.0237139
-0.0219499
-0.0254164
-0.0342701
-0.0480399
-0.0655845
-0.0850873
-0.103999
-0.119171
-0.127774
-0.129007
-0.123048
-0.111451
-0.0964043
-0.079947
-0.063628
-0.0485063
-0.0350763
-0.0235844
-0.0140033
-0.00624541
-0.000129999
0.00361787
0.00469968
0.00420668
0.00303087
-0.000879311
-0.00801541
-0.018181
-0.0356861
-0.0633382
-0.0964574
-0.116545
-0.11676
-0.0965211
-0.0690975
-0.0456728
-0.0272395
-0.0175626
-0.00897428
-0.00389636
-0.000716532
-0.000308274
-0.0115582
-0.0270619
-0.0518223
-0.0552679
-0.0541282
-0.0455697
-0.0135128
-0.171761
-0.165545
-0.148369
-0.128184
-0.109028
-0.0916117
-0.0749758
-0.0600305
-0.0473486
-0.0376787
-0.0314974
-0.0293668
-0.0317197
-0.0386211
-0.0496554
-0.063806
-0.0794609
-0.0943102
-0.106072
-0.112611
-0.113025
-0.107671
-0.0977724
-0.0849557
-0.0707784
-0.0564653
-0.0429297
-0.0306295
-0.0198551
-0.0106935
-0.00310483
0.00315687
0.00736197
0.00889074
0.00841954
0.00693577
0.00388777
-0.00224715
-0.0113175
-0.0280537
-0.0560678
-0.0903349
-0.110903
-0.110332
-0.0909449
-0.0645825
-0.042291
-0.0246304
-0.0153299
-0.00680517
-0.00197375
0.00147473
0.00214136
-0.00933101
-0.0258985
-0.0523798
-0.056101
-0.0539084
-0.0454047
-0.0134878
-0.160975
-0.155708
-0.141143
-0.123642
-0.10722
-0.0919718
-0.0777635
-0.0647401
-0.0534532
-0.0446755
-0.0389304
-0.0365856
-0.0378884
-0.0428426
-0.051059
-0.061676
-0.0734058
-0.0845958
-0.0934036
-0.0981859
-0.0983025
-0.0939151
-0.0857645
-0.0749811
-0.0627713
-0.0501506
-0.037948
-0.0266262
-0.0164953
-0.00769602
-0.000299808
0.0059467
0.0104237
0.0123738
0.0121399
0.010703
0.00797939
0.00238586
-0.00614901
-0.0223932
-0.0497975
-0.0829666
-0.103004
-0.102417
-0.0844053
-0.0596353
-0.0386993
-0.0219194
-0.0130597
-0.00469378
-0.000117872
0.00344433
0.00409645
-0.00755969
-0.024992
-0.052623
-0.0565398
-0.0532073
-0.0448048
-0.0134096
-0.14869
-0.145684
-0.133997
-0.118962
-0.10452
-0.0914213
-0.0793366
-0.0681719
-0.0583487
-0.0505052
-0.0450981
-0.0424182
-0.0426436
-0.045755
-0.0514376
-0.059045
-0.0675807
-0.0757761
-0.0822029
-0.0857043
-0.0856188
-0.081908
-0.0750483
-0.0658636
-0.0552993
-0.0441787
-0.0332167
-0.0228492
-0.0133865
-0.0049895
0.00216495
0.00829431
0.0129348
0.0153295
0.0155019
0.0143357
0.0120515
0.00697097
-0.00118085
-0.0167532
-0.0426387
-0.0741719
-0.0939002
-0.0935204
-0.0769713
-0.0541072
-0.0348087
-0.0191066
-0.0107592
-0.00262789
0.00170763
0.00524385
0.00588521
-0.0058841
-0.0239339
-0.0524108
-0.0565589
-0.0520621
-0.043734
-0.0132455
-0.137004
-0.135872
-0.12653
-0.113745
-0.101276
-0.0900807
-0.0798478
-0.0703614
-0.0618693
-0.0548572
-0.0497357
-0.0467737
-0.0461118
-0.0477253
-0.0513756
-0.0565689
-0.0625247
-0.0682544
-0.0727502
-0.0750834
-0.0746572
-0.0713667
-0.0655109
-0.0576556
-0.0485061
-0.0387091
-0.028868
-0.0193878
-0.0105827
-0.00260917
0.00428654
0.0102431
0.014935
0.0176931
0.018344
0.0176731
0.0160489
0.0116927
0.00422864
-0.010151
-0.0342622
-0.0643533
-0.0836442
-0.0835547
-0.0686885
-0.0480841
-0.0306855
-0.0162286
-0.00844935
-0.000614003
0.00348887
0.00682895
0.00754904
-0.00411824
-0.0225189
-0.0516198
-0.0560486
-0.0504074
-0.0421372
-0.0129643
-0.126112
-0.12604
-0.118694
-0.10805
-0.0974729
-0.0879802
-0.0793516
-0.071322
-0.0640081
-0.0577763
-0.0529862
-0.0498787
-0.0485661
-0.0490258
-0.0510677
-0.0543014
-0.0581646
-0.0619035
-0.0647772
-0.0660622
-0.0652734
-0.0622592
-0.0571707
-0.050376
-0.0423954
-0.033736
-0.0248992
-0.0162442
-0.00808388
-0.000559722
0.00605805
0.0118164
0.0164695
0.0194856
0.0206471
0.0206417
0.0198464
0.016465
0.010029
-0.00291754
-0.0252748
-0.0537342
-0.0723399
-0.0727028
-0.0597739
-0.0416889
-0.0263847
-0.013315
-0.00615076
0.00133224
0.00521967
0.0082075
0.00905848
-0.00225208
-0.0207081
-0.0500716
-0.0548411
-0.0481855
-0.0399854
-0.0125368
-0.115409
-0.116195
-0.110655
-0.101973
-0.0931234
-0.0851433
-0.0779073
-0.0711481
-0.064894
-0.0594102
-0.0549931
-0.0518505
-0.0500769
-0.0496566
-0.0504402
-0.0521296
-0.0543387
-0.0565049
-0.0580601
-0.058463
-0.057318
-0.0544502
-0.049919
-0.0439583
-0.036945
-0.0292662
-0.0213297
-0.0134394
-0.00589945
0.00115767
0.00747402
0.0130277
0.0175993
0.0207846
0.0224197
0.023085
0.0232679
0.0210833
0.0158707
0.00436827
-0.0161444
-0.042658
-0.0603574
-0.0612971
-0.0504935
-0.0350818
-0.021981
-0.0104012
-0.00388393
0.00319776
0.00690372
0.00941138
0.0103846
-0.000312261
-0.0184377
-0.04755
-0.0527629
-0.0453718
-0.0372796
-0.0119382
-0.104972
-0.106593
-0.102594
-0.0956103
-0.0882887
-0.081644
-0.0756229
-0.0699737
-0.0646656
-0.0598799
-0.055852
-0.0527592
-0.0506862
-0.0496247
-0.0494677
-0.0500136
-0.0509392
-0.0518724
-0.0523797
-0.0520508
-0.0505683
-0.0477639
-0.0436434
-0.0383454
-0.0321335
-0.025296
-0.0181604
-0.0109766
-0.00402716
0.00255697
0.00854678
0.0138863
0.0183601
0.0216542
0.0237083
0.0249365
0.026083
0.025241
0.0214095
0.0113393
-0.00733716
-0.031667
-0.048147
-0.0497212
-0.0411574
-0.0284577
-0.0175627
-0.00752244
-0.00166512
0.00497356
0.0085464
0.0104932
0.0115339
0.0017281
-0.0155955
-0.0438709
-0.0496601
-0.0419674
-0.0340555
-0.011153
-0.0952281
-0.0973728
-0.0945787
-0.0890339
-0.0830503
-0.0775782
-0.0726137
-0.0679287
-0.0634555
-0.0593117
-0.0556802
-0.0527102
-0.0504783
-0.048985
-0.048154
-0.0478437
-0.0478251
-0.04782
-0.0475126
-0.0465969
-0.0448255
-0.0420474
-0.038237
-0.0334683
-0.027921
-0.0218056
-0.0153813
-0.00884956
-0.00245993
0.00365721
0.00930117
0.0144068
0.0187699
0.022123
0.0244052
0.0261867
0.0281115
0.0285461
0.0261225
0.0174352
0.000563356
-0.0212295
-0.0361288
-0.0383852
-0.0320966
-0.0220272
-0.0132289
-0.00471455
0.000493444
0.00665561
0.0101519
0.0115369
0.0125699
0.00393795
-0.0120998
-0.0389365
-0.0454307
-0.0380071
-0.0303909
-0.0101795
-0.0861248
-0.0885049
-0.0866582
-0.0823343
-0.0775101
-0.0730551
-0.069002
-0.0651497
-0.0614101
-0.0578535
-0.0546186
-0.0518284
-0.049551
-0.0477951
-0.0465114
-0.0455961
-0.0448908
-0.0441936
-0.043277
-0.0419154
-0.0399178
-0.0371551
-0.0335877
-0.0292491
-0.0242589
-0.018767
-0.0129746
-0.00704272
-0.00118339
0.00447935
0.00976898
0.0146158
0.0188489
0.0222331
0.0247494
0.0268644
0.0292711
0.030631
0.0293239
0.021972
0.00714809
-0.0116451
-0.024749
-0.0277427
-0.0236376
-0.0159916
-0.00908384
-0.00201526
0.00257958
0.00824526
0.0117228
0.0126513
0.0136039
0.00637452
-0.00795709
-0.0327838
-0.0400746
-0.0335734
-0.0264126
-0.00903617
-0.0774712
-0.0800144
-0.0789351
-0.0756254
-0.071781
-0.0681928
-0.0649178
-0.0617805
-0.0586817
-0.0556567
-0.0528088
-0.0502378
-0.0480029
-0.0461182
-0.0445545
-0.0432393
-0.0420611
-0.0408785
-0.0395291
-0.037848
-0.0356906
-0.0329518
-0.0295884
-0.0256101
-0.021094
-0.0161445
-0.010915
-0.00553366
-0.000175115
0.00504701
0.00997965
0.01455
0.0186231
0.0219968
0.0246762
0.0269936
0.0295728
0.0313479
0.0307091
0.0246928
0.0122742
-0.0032626
-0.0145685
-0.0182463
-0.0160571
-0.0105136
-0.00522504
0.00053595
0.00457395
0.00974072
0.013253
0.0139395
0.0147651
0.00905045
-0.00328871
-0.0256488
-0.0337586
-0.0288032
-0.0222823
-0.00776226
-0.0693501
-0.0719842
-0.0714887
-0.0689955
-0.0659637
-0.0631046
-0.0604877
-0.0579592
-0.0554157
-0.0528673
-0.0503891
-0.048061
-0.0459345
-0.0440254
-0.0423177
-0.0407633
-0.0392857
-0.0377867
-0.0361518
-0.0342627
-0.0320125
-0.0293186
-0.0261404
-0.0224744
-0.0183693
-0.0138965
-0.00917134
-0.00429481
0.000592065
0.00538837
0.0099637
0.0142459
0.0181239
0.0214353
0.024191
0.0265983
0.0291158
0.030897
0.0305769
0.0258236
0.0158877
0.00347396
-0.00612828
-0.0102197
-0.00952353
-0.00569224
-0.00172923
0.00290226
0.00644734
0.0111256
0.0147117
0.0154482
0.0161595
0.0119201
0.00164804
-0.0179998
-0.0268323
-0.0238733
-0.0181799
-0.00641728
-0.0618306
-0.0644274
-0.0643482
-0.0625071
-0.0601463
-0.0578956
-0.0558299
-0.0538153
-0.0517492
-0.0496238
-0.0474925
-0.0454182
-0.043445
-0.041589
-0.0398421
-0.0381739
-0.0365334
-0.0348533
-0.0330545
-0.0310539
-0.0287741
-0.026152
-0.0231529
-0.0197679
-0.0160269
-0.0119785
-0.00770828
-0.0032948
0.00114825
0.00553504
0.0097556
0.0137395
0.017392
0.0205897
0.0233302
0.0257234
0.0280406
0.029623
0.0294257
0.025734
0.0180261
0.00834401
0.000361246
-0.00375807
-0.00407626
-0.0015606
0.00135563
0.00505293
0.00816641
0.0123694
0.0160303
0.0171074
0.0178062
0.0148622
0.00647632
-0.010473
-0.0197877
-0.0189826
-0.0142817
-0.00507406
-0.0548335
-0.057323
-0.0575441
-0.0562229
-0.0544108
-0.0526617
-0.0510524
-0.0494675
-0.0478082
-0.0460548
-0.0442432
-0.0424231
-0.0406302
-0.038882
-0.0371735
-0.0354869
-0.0337888
-0.0320342
-0.0301697
-0.028138
-0.0258843
-0.0233625
-0.0205449
-0.0174213
-0.0140102
-0.0103444
-0.00648772
-0.00250043
0.00152622
0.0055214
0.00939022
0.0130672
0.0164753
0.0195139
0.0221576
0.0244475
0.0265047
0.02783
0.0276646
0.0248108
0.0189455
0.0115347
0.00507698
0.00124651
0.000341601
0.00189723
0.00401103
0.00696066
0.00970184
0.0134409
0.0171132
0.0187079
0.0195459
0.0176273
0.010759
-0.0037043
-0.0131695
-0.0143383
-0.0107333
-0.00380568
-0.0483236
-0.0506812
-0.0511124
-0.0501967
-0.0488257
-0.0474848
-0.0462496
-0.0450206
-0.0437047
-0.042275
-0.0407541
-0.0391805
-0.0375835
-0.035977
-0.0343612
-0.0327256
-0.0310486
-0.0293011
-0.0274474
-0.0254493
-0.0232692
-0.0208747
-0.0182449
-0.015371
-0.0122648
-0.00894885
-0.00547076
-0.00187695
0.00175968
0.00538086
0.00890476
0.012273
0.015418
0.018261
0.0207508
0.0228804
0.0246703
0.0257556
0.0256029
0.0234174
0.0190195
0.013435
0.00835394
0.0050023
0.00383589
0.0047234
0.006242
0.00860164
0.0110253
0.014317
0.0178808
0.019969
0.0210128
0.019807
0.0140725
0.00186001
-0.00736421
-0.0101133
-0.00763381
-0.0026751
-0.0423119
-0.0445065
-0.0450689
-0.0444633
-0.0434437
-0.0424323
-0.0415008
-0.0405638
-0.0395354
-0.0383844
-0.0371239
-0.0357829
-0.0343849
-0.0329414
-0.0314541
-0.0299175
-0.0283182
-0.0266376
-0.0248525
-0.0229383
-0.0208701
-0.0186261
-0.0161916
-0.0135602
-0.0107403
-0.00774795
-0.00461924
-0.00138982
0.00188142
0.00514692
0.00833693
0.0114011
0.0142725
0.0168911
0.0191912
0.021135
0.0226851
0.0235813
0.0234599
0.0218193
0.0185735
0.0144273
0.0105213
0.00772835
0.00652548
0.0069731
0.0080663
0.00996007
0.0121027
0.0149708
0.0182874
0.0206678
0.0218118
0.0209938
0.0161338
0.00603288
-0.00256276
-0.00642118
-0.00502966
-0.00172573
-0.0367715
-0.0387818
-0.0394174
-0.0390474
-0.0383062
-0.0375586
-0.0368713
-0.0361715
-0.0353814
-0.034468
-0.0334373
-0.0323112
-0.0311081
-0.0298366
-0.0284986
-0.0270919
-0.0256086
-0.0240369
-0.0223619
-0.0205687
-0.0186413
-0.016566
-0.0143334
-0.0119396
-0.00939148
-0.00670108
-0.00389672
-0.00100584
0.00192359
0.00485346
0.00772319
0.0104894
0.0130881
0.015469
0.0175615
0.0193162
0.0206675
0.0214335
0.0213694
0.0201791
0.0178321
0.0148068
0.0118666
0.00962788
0.00852838
0.00870734
0.00950746
0.0110287
0.0129064
0.0153726
0.0183083
0.0207044
0.0217566
0.0210879
0.0169557
0.00884069
0.00116551
-0.003326
-0.00291858
-0.00097283
-0.0316708
-0.0334928
-0.0341605
-0.0339666
-0.0334437
-0.0329053
-0.0324125
-0.0319038
-0.0313094
-0.0305966
-0.0297662
-0.0288344
-0.0278158
-0.0267167
-0.0255378
-0.0242785
-0.0229346
-0.0214989
-0.0199619
-0.0183149
-0.0165485
-0.0146546
-0.012628
-0.0104672
-0.00817858
-0.0057717
-0.00326942
-0.000693349
0.00191698
0.00453095
0.00709564
0.00957457
0.0119078
0.0140522
0.0159368
0.0175129
0.0187052
0.0193911
0.0194058
0.0185879
0.0169347
0.0147735
0.0126215
0.0108855
0.00995775
0.00998856
0.0105922
0.0118106
0.0134264
0.0155108
0.0179781
0.0201595
0.0209945
0.020339
0.0168174
0.0104502
0.0038384
-0.000847476
-0.00126105
-0.000402268
-0.0269905
-0.0286254
-0.0292942
-0.0292291
-0.0288758
-0.0285021
-0.0281631
-0.027807
-0.027372
-0.0268272
-0.0261697
-0.0254103
-0.0245612
-0.0236282
-0.02261
-0.0215056
-0.020313
-0.0190283
-0.0176458
-0.0161604
-0.0145669
-0.0128615
-0.011042
-0.00910877
-0.00706802
-0.00492792
-0.00270751
-0.000424093
0.0018893
0.00420742
0.00648463
0.00869111
0.0107707
0.012687
0.0143734
0.0157902
0.0168579
0.0174991
0.0176033
0.0170891
0.0159695
0.0144685
0.0129619
0.0116458
0.0109138
0.0108786
0.0113498
0.0123217
0.0136756
0.0154014
0.0173735
0.0192077
0.01978
0.0190962
0.0160808
0.011123
0.00557336
0.00103737
2.10722e-06
1.64258e-05
-0.022707
-0.0241601
-0.0248087
-0.0248363
-0.0246139
-0.0243691
-0.0241507
-0.0239153
-0.0236092
-0.0232036
-0.0226938
-0.0220862
-0.0213902
-0.0206123
-0.0197496
-0.0187996
-0.0177612
-0.0166333
-0.0154123
-0.0140953
-0.0126798
-0.0111647
-0.00954994
-0.0078371
-0.00603243
-0.00414324
-0.00218563
-0.000173874
0.00186411
0.00390782
0.00591761
0.00786815
0.00970983
0.0114141
0.0129242
0.0141931
0.0151621
0.0157801
0.0159722
0.0157018
0.0149906
0.0139842
0.0129398
0.0120123
0.0114826
0.0114359
0.0118155
0.0125863
0.0136859
0.0150799
0.0165824
0.0179366
0.0183249
0.0176316
0.0150419
0.0111454
0.00656394
0.00239261
0.000933833
0.000315785
-0.0187959
-0.0200773
-0.0206921
-0.0207847
-0.0206627
-0.020518
-0.0203934
-0.0202529
-0.0200501
-0.0197589
-0.0193737
-0.0188984
-0.0183409
-0.0177035
-0.0169856
-0.0161833
-0.015296
-0.0143233
-0.0132636
-0.0121151
-0.0108769
-0.00954912
-0.00813325
-0.00663169
-0.00505056
-0.00339647
-0.00168326
7.70164e-05
0.00186091
0.00365145
0.00541455
0.00712883
0.00875138
0.0102587
0.0116005
0.012744
0.0136349
0.0142412
0.0145121
0.0144349
0.0140314
0.0133921
0.0126821
0.0120882
0.0117431
0.0117154
0.0120279
0.0126348
0.0134995
0.0145916
0.0156863
0.0166475
0.0168063
0.0161166
0.0138901
0.0107652
0.00701621
0.00330314
0.00159068
0.000523309
-0.0152355
-0.0163572
-0.0169299
-0.0170666
-0.0170209
-0.0169534
-0.0169012
-0.0168345
-0.016714
-0.0165163
-0.0162358
-0.0158745
-0.0154355
-0.0149231
-0.0143382
-0.0136757
-0.0129324
-0.0121088
-0.0112046
-0.0102195
-0.00915275
-0.00800543
-0.00677959
-0.00547818
-0.00410693
-0.00267186
-0.00118497
0.000343665
0.00189433
0.00345235
0.00498968
0.00648876
0.00791166
0.00923794
0.0104272
0.0114586
0.0122842
0.012881
0.0132156
0.0132868
0.0131149
0.0127559
0.0123361
0.011965
0.0117654
0.011768
0.0120279
0.0125007
0.0131585
0.0139802
0.0147332
0.0153688
0.015329
0.0146462
0.0127338
0.0101663
0.00709927
0.00385858
0.0020222
0.000660005
-0.0120038
-0.0129791
-0.0135057
-0.0136712
-0.0136831
-0.0136748
-0.0136781
-0.0136685
-0.013613
-0.0134912
-0.013297
-0.0130318
-0.0126974
-0.0122965
-0.0118294
-0.0112931
-0.0106832
-0.00999914
-0.00924143
-0.00841034
-0.00750584
-0.0065289
-0.00548178
-0.00436753
-0.00319141
-0.00195892
-0.000680086
0.000636305
0.00197368
0.00332024
0.00465217
0.00595457
0.00719725
0.00836204
0.0094136
0.0103419
0.0111058
0.0116913
0.0120725
0.0122525
0.0122514
0.0121009
0.0118955
0.0116943
0.0116061
0.0116394
0.0118557
0.0122179
0.0126989
0.0132884
0.0137689
0.0141396
0.0139456
0.013268
0.0116277
0.00946905
0.00694039
0.00414289
0.00227574
0.000742264
-0.0090799
-0.00992318
-0.0104025
-0.0105855
-0.0106407
-0.0106776
-0.010723
-0.0107572
-0.0107526
-0.0106918
-0.0105691
-0.0103852
-0.0101411
-0.00983632
-0.00947153
-0.00904749
-0.00855917
-0.00800349
-0.00738071
-0.00669187
-0.00593749
-0.00511846
-0.00423678
-0.00329527
-0.00229865
-0.00125171
-0.000162935
0.000960196
0.00210417
0.00325882
0.00440474
0.00552973
0.00660867
0.00762835
0.00855869
0.00938799
0.0100896
0.0106585
0.0110702
0.011326
0.011445
0.0114439
0.0113915
0.0113178
0.0113113
0.0113705
0.0115494
0.01182
0.0121541
0.0125508
0.012819
0.0129826
0.0126787
0.012004
0.0105944
0.0087473
0.00663252
0.00422851
0.00239354
0.000782567
-0.00644456
-0.00716994
-0.00760313
-0.00779567
-0.0078829
-0.00795403
-0.00803125
-0.00809875
-0.00813379
-0.00812183
-0.00805766
-0.00794101
-0.00777274
-0.00755223
-0.00727876
-0.00695128
-0.00656933
-0.00612894
-0.00562853
-0.00506886
-0.00445093
-0.0037757
-0.00304484
-0.0022607
-0.00142729
-0.000548754