/*--------------------------------*- C++ -*----------------------------------*\
| =========                 |                                                 |
| \\      /  F ield         | OpenFOAM: The Open Source CFD Toolbox           |
|  \\    /   O peration     | Version:  2512                                  |
|   \\  /    A nd           | Website:  www.openfoam.com                      |
|    \\/     M anipulation  |                                                 |
\*---------------------------------------------------------------------------*/
FoamFile
{
    version     2.0;
    format      ascii;
    arch        "LSB;label=32;scalar=64";
    class       volVectorField;
    location    "163.5";
    object      U;
}
// * * * * * * * * * * * * * * * * * * * * * * * * * * * * * * * * * * * * * //

dimensions      [0 1 -1 0 0 0 0];

internalField   nonuniform List<vector> 
13248
(
(-0.0118129 0.0120994 9.48248e-20)
(-0.0167135 0.0236706 0)
(-0.00331752 0.0277051 -1.79759e-19)
(0.0262546 0.0258617 1.69328e-19)
(0.0706017 0.019891 1.59229e-19)
(0.12871 0.0113911 0)
(0.199565 0.0016329 0)
(0.281878 -0.00840376 3.90528e-19)
(0.373839 -0.0179765 -1.48763e-21)
(0.47296 -0.0265472 -3.41739e-19)
(0.576084 -0.0337618 3.14947e-19)
(0.679561 -0.0394354 -1.97023e-19)
(0.779558 -0.0435323 0)
(0.872441 -0.0461392 -3.22648e-19)
(0.955133 -0.0474286 5.94511e-19)
(1.0254 -0.0476177 -1.4187e-19)
(1.08203 -0.046928 -2.32936e-19)
(1.12483 -0.0455616 2.18694e-19)
(1.15452 -0.0436449 0)
(1.17255 -0.0413881 0)
(1.18095 -0.0384724 0)
(1.18125 -0.0362685 0)
(1.17708 -0.0312775 5.27584e-20)
(1.16557 -0.0338214 1.71694e-19)
(-0.00978534 0.00904496 -2.86146e-19)
(-0.00801532 0.0155089 1.94963e-19)
(0.0149679 0.0161918 -1.37039e-21)
(0.0569593 0.0126433 -2.58053e-19)
(0.11637 0.00649505 -1.59057e-19)
(0.191742 -0.000746714 -1.50451e-19)
(0.281245 -0.00791247 -2.78753e-19)
(0.382371 -0.0141597 2.62607e-19)
(0.491763 -0.0189498 0)
(0.605254 -0.022036 1.68462e-21)
(0.718154 -0.0234378 2.76557e-21)
(0.825705 -0.0233899 1.94515e-19)
(0.923609 -0.0222682 0)
(1.00849 -0.0205037 0)
(1.07821 -0.0185011 2.11502e-19)
(1.13196 -0.0165748 -3.97159e-19)
(1.17023 -0.0149134 2.24966e-19)
(1.19453 -0.0135738 -2.11223e-19)
(1.20707 -0.012495 -8.90106e-20)
(1.21042 -0.0115535 -1.53501e-19)
(1.20709 -0.0104729 -5.83405e-20)
(1.19939 -0.00945902 -1.06917e-19)
(1.18928 -0.00667906 1.6569e-19)
(1.17654 -0.00808357 4.51374e-20)
(-0.0068016 0.00601498 0)
(0.00428931 0.0073553 0)
(0.0399772 0.00495335 9.1317e-20)
(0.0976655 0.000285746 8.4588e-20)
(0.175221 -0.00510979 -1.47496e-21)
(0.270238 -0.00984481 -1.53686e-19)
(0.379435 -0.012964 0)
(0.498431 -0.0139615 -1.3073e-19)
(0.621858 -0.0127582 1.21597e-19)
(0.743789 -0.00965391 -5.56951e-22)
(0.858407 -0.00522988 -2.06784e-19)
(0.96072 -0.000208961 -1.86425e-19)
(1.04713 0.00469449 5.92604e-21)
(1.11575 0.00890193 -1.46393e-19)
(1.1664 0.0120508 3.57823e-19)
(1.20039 0.0140185 0)
(1.2201 0.0148973 -2.17351e-19)
(1.22845 0.0149319 1.06674e-19)
(1.22847 0.0144569 8.89361e-20)
(1.22289 0.0137879 0)
(1.21401 0.0133238 6.84648e-20)
(1.20339 0.012933 -2.28133e-19)
(1.19232 0.0138958 2.14155e-19)
(1.18078 0.0116347 1.26452e-19)
(-0.00247002 0.00298813 -1.00067e-19)
(0.0211518 -0.000491752 -1.03179e-19)
(0.0730455 -0.0051702 9.40091e-20)
(0.14979 -0.00977497 0)
(0.248133 -0.0129621 0)
(0.364003 -0.0136069 -2.16079e-21)
(0.491933 -0.011205 0)
(0.625189 -0.0058817 -3.92949e-19)
(0.756401 0.00171012 3.64215e-19)
(0.878506 0.0105624 -4.49292e-19)
(0.985715 0.019541 1.02756e-19)
(1.07421 0.0276187 0)
(1.14242 0.0340516 1.6495e-19)
(1.19088 0.0384655 -3.03163e-19)
(1.22178 0.0408485 7.22937e-20)
(1.23828 0.0414726 1.76735e-19)
(1.24389 0.0407795 -1.20164e-20)
(1.24195 0.0392657 -1.93937e-19)
(1.23523 0.0373908 0)
(1.22586 0.0355201 0)
(1.21527 0.0339505 -6.46828e-20)
(1.20435 0.0326177 5.68582e-20)
(1.19374 0.0324476 1.95203e-19)
(1.18299 0.0295668 -1.83302e-19)
(0.00366785 -2.35064e-05 -1.0426e-19)
(0.0435158 -0.00768202 -1.0433e-19)
(0.115198 -0.0133267 2.93824e-19)
(0.213918 -0.0161789 -1.79257e-19)
(0.334544 -0.0153363 1.68724e-19)
(0.470526 -0.0102313 3.08074e-19)
(0.613661 -0.00115732 -2.16992e-19)
(0.754894 0.010824 -2.62342e-19)
(0.885629 0.0241815 6.27623e-21)
(0.999038 0.0372775 3.36431e-19)
(1.09094 0.0487111 0)
(1.16004 0.0575519 9.03431e-20)
(1.20758 0.0634228 0)
(1.23658 0.0664424 -1.4392e-19)
(1.25096 0.0670755 2.02075e-19)
(1.25475 0.0659559 1.94336e-21)
(1.25152 0.063731 -5.12767e-20)
(1.24405 0.0609583 9.4088e-20)
(1.23435 0.0580581 8.04331e-20)
(1.22368 0.0553106 -7.10482e-20)
(1.21285 0.0528856 6.46656e-20)
(1.20225 0.0507705 -5.68426e-20)
(1.19213 0.0494329 0)
(1.18229 0.0461342 -4.26229e-20)
(0.0120518 -0.00289847 1.04245e-19)
(0.0721384 -0.0136723 1.08752e-19)
(0.166913 -0.0185151 -9.82874e-20)
(0.289557 -0.0175689 1.83078e-19)
(0.43222 -0.0107842 -1.72313e-19)
(0.585223 0.00142013 1.56072e-19)
(0.73761 0.0175837 -7.46144e-20)
(0.878852 0.0355466 1.97047e-19)
(1.00066 0.0530286 -1.23182e-19)
(1.09816 0.0681412 2.15967e-19)
(1.17016 0.0797018 -4.96243e-19)
(1.21848 0.0873086 1.81056e-19)
(1.24699 0.0912128 -1.56481e-19)
(1.26034 0.0920819 1.46988e-19)
(1.26308 0.0907484 1.24351e-19)
(1.25904 0.0880137 1.07247e-19)
(1.25108 0.0845355 -2.98023e-19)
(1.24113 0.0807904 1.84072e-19)
(1.23041 0.0770895 -8.04344e-20)
(1.21962 0.0736153 2.06619e-19)
(1.2091 0.0704607 -6.67607e-20)
(1.19904 0.0676347 -1.58655e-19)
(1.18951 0.0653614 1.45829e-19)
(1.18033 0.0617767 4.26095e-20)
(0.0230299 -0.00538291 0)
(0.107429 -0.017683 6.29078e-22)
(0.227941 -0.0195598 2.03092e-19)
(0.375035 -0.0126281 -1.90774e-19)
(0.537424 0.0017574 -1.72469e-19)
(0.702152 0.0217203 3.20444e-19)
(0.856312 0.0444115 -1.48769e-19)
(0.989525 0.066719 1.97748e-19)
(1.09566 0.0860684 -4.77155e-21)
(1.17322 0.100887 -1.11357e-19)
(1.22447 0.11068 2.41235e-19)
(1.25404 0.115814 -3.54433e-19)
(1.26739 0.117172 0)
(1.26967 0.115808 -6.84118e-20)
(1.26508 0.1127 -1.80992e-19)
(1.25667 0.108629 5.71322e-20)
(1.24642 0.104143 2.6756e-21)
(1.23551 0.099595 -1.20791e-19)
(1.22461 0.0951926 9.16469e-21)
(1.21404 0.0910462 1.38908e-19)
(1.20393 0.0872054 -6.05263e-20)
(1.19435 0.0836921 -2.26146e-20)
(1.18525 0.0805355 7.10313e-20)
(1.17654 0.0766521 0)
(0.0368065 -0.00710292 0)
(0.149325 -0.0187381 5.4909e-20)
(0.297187 -0.0151983 -2.62809e-19)
(0.467539 -0.000221318 9.5776e-20)
(0.645354 0.0228264 -9.014e-20)
(0.815026 0.0502702 -8.19124e-20)
(0.963323 0.0779776 -1.45157e-19)
(1.082 0.102388 7.23914e-20)
(1.1686 0.121282 6.32167e-20)
(1.22551 0.133925 0)
(1.25804 0.140757 1.41971e-19)
(1.27256 0.142889 -2.09823e-19)
(1.27501 0.141643 1.56255e-19)
(1.27014 0.138225 6.84473e-20)
(1.26132 0.133579 -5.53146e-20)
(1.25068 0.128356 -4.55918e-20)
(1.23947 0.12297 -4.21475e-20)
(1.22835 0.117659 1.27625e-19)
(1.21761 0.112554 0)
(1.2074 0.107721 6.27186e-20)
(1.19772 0.103189 5.17844e-20)
(1.18857 0.0989729 -1.29559e-19)
(1.17989 0.0950109 -8.69328e-20)
(1.17157 0.0908354 8.06515e-20)
(0.0533983 -0.00760224 -5.80327e-20)
(0.197209 -0.0157771 -1.62278e-21)
(0.372701 -0.00425862 5.32203e-20)
(0.563365 0.020404 1.48012e-19)
(0.75081 0.0523272 4.2862e-20)
(0.918268 0.0860223 -8.28329e-20)
(1.05426 0.11658 7.60092e-20)
(1.15439 0.140727 -6.6801e-20)
(1.22053 0.157214 1.18913e-19)
(1.25854 0.166438 5.05844e-20)
(1.27578 0.16975 -1.43058e-19)
(1.27921 0.168806 4.21584e-20)
(1.27439 0.165122 7.14559e-20)
(1.26521 0.159872 -3.52309e-20)
(1.25411 0.153856 0)
(1.24245 0.147573 5.18649e-20)
(1.23095 0.141308 8.71558e-20)
(1.21991 0.135213 1.445e-20)
(1.20946 0.129368 -7.22463e-20)
(1.19961 0.123812 3.00734e-20)
(1.19034 0.118565 0)
(1.18157 0.11362 -2.33499e-20)
(1.17325 0.108899 -2.16552e-20)
(1.16526 0.104357 0)
(0.0725983 -0.00639376 0)
(0.249876 -0.0077998 3.02725e-20)
(0.451778 0.0141427 5.59721e-20)
(0.65831 0.0494593 -1.4989e-19)
(0.848921 0.089544 4.81003e-20)
(1.00776 0.127522 0)
(1.12708 0.158524 7.24972e-20)
(1.20723 0.180312 -1.01061e-19)
(1.25419 0.192998 -5.91292e-20)
(1.27637 0.198136 2.6843e-20)
(1.28201 0.197793 -4.23164e-20)
(1.27779 0.19391 1.03097e-19)
(1.26841 0.187993 5.14852e-20)
(1.2568 0.181066 -3.59283e-20)
(1.24458 0.173757 -3.51573e-21)
(1.23257 0.166415 -9.73974e-20)
(1.2211 0.159227 4.42798e-20)
(1.21031 0.152287 -1.00329e-21)
(1.2002 0.145642 0)
(1.19073 0.139316 -3.01043e-20)
(1.18185 0.133316 0)
(1.17347 0.127616 6.74562e-20)
(1.1655 0.122181 -8.01683e-20)
(1.15783 0.117189 3.64369e-20)
(0.0939532 -0.00301132 -1.54594e-20)
(0.305568 0.00600151 -7.56607e-20)
(0.531185 0.0404524 8.57246e-20)
(0.748161 0.0865631 5.05586e-20)
(0.935702 0.133272 -2.42633e-20)
(1.08107 0.173168 4.05584e-20)
(1.18155 0.202341 -1.97781e-20)
(1.24236 0.220153 3.2919e-20)
(1.27275 0.228197 0)
(1.28249 0.229013 7.44163e-20)
(1.27982 0.225112 -3.05402e-21)
(1.27061 0.218487 -6.00524e-20)
(1.25855 0.210502 2.57178e-20)
(1.2457 0.201982 -2.89805e-20)
(1.23305 0.193383 -1.10072e-20)
(1.22104 0.184939 1.27148e-20)
(1.20979 0.176764 -9.82929e-21)
(1.19933 0.168913 -5.29778e-20)
(1.1896 0.161413 3.24854e-20)
(1.18055 0.154276 6.65618e-21)
(1.17208 0.147491 5.8466e-21)
(1.16409 0.141024 5.13563e-21)
(1.15649 0.134913 0)
(1.14914 0.129356 0)
(0.116839 0.00295322 1.54701e-20)
(0.362219 0.026154 -1.55361e-20)
(0.607608 0.0746078 -2.84925e-20)
(0.829246 0.130797 0)
(1.00839 0.182019 -1.19869e-20)
(1.13721 0.221432 -1.06925e-20)
(1.21858 0.246889 -1.83971e-20)
(1.26198 0.259637 0)
(1.27881 0.262646 0)
(1.27929 0.259165 0)
(1.27097 0.251889 0)
(1.25871 0.242698 0)
(1.24524 0.232739 -1.61507e-20)
(1.2319 0.222638 7.35674e-21)
(1.21924 0.212709 1.27851e-20)
(1.20746 0.203095 5.96191e-21)
(1.19657 0.19386 1.4779e-20)
(1.18653 0.185031 0)
(1.17727 0.176622 -3.54213e-21)
(1.1687 0.168631 -3.34116e-21)
(1.1607 0.161033 -5.85584e-21)
(1.15318 0.153803 -5.14378e-21)
(1.14601 0.147048 0)
(1.13907 0.140826 3.69271e-21)
(-0.00154164 -0.00769409 8.99187e-21)
(-0.00768834 -0.0293949 -9.34839e-21)
(-0.0192033 -0.0538826 -1.77174e-20)
(-0.0335308 -0.0783125 0)
(-0.0492962 -0.101115 -2.36707e-20)
(-0.0657713 -0.12185 7.38648e-21)
(-0.0823754 -0.140826 -1.41047e-20)
(-0.0986348 -0.158712 0)
(-0.114189 -0.176211 0)
(-0.12877 -0.193857 0)
(-0.14218 -0.211928 0)
(-0.154263 -0.230448 0)
(-0.164886 -0.249226 -8.42286e-23)
(-0.173916 -0.267904 -9.24726e-21)
(-0.181212 -0.285987 1.75947e-20)
(-0.186617 -0.302868 2.48001e-20)
(-0.189963 -0.317831 7.79931e-21)
(-0.191073 -0.330067 0)
(-0.189782 -0.338694 6.93783e-21)
(-0.185965 -0.342803 -1.93816e-20)
(-0.179503 -0.341518 -1.20748e-20)
(-0.17019 -0.334012 -1.13244e-20)
(-0.157999 -0.319494 0)
(-0.144143 -0.297586 0)
(-0.00189604 -0.00188005 -2.71714e-20)
(-0.00844679 -0.0160478 4.68289e-20)
(-0.0207157 -0.0357315 -1.78974e-20)
(-0.035934 -0.0571398 -3.38306e-20)
(-0.0526229 -0.0781654 4.76686e-20)
(-0.0700144 -0.0980399 -3.02087e-20)
(-0.0875014 -0.116848 4.25173e-20)
(-0.104605 -0.135092 2.72316e-20)
(-0.120981 -0.153352 0)
(-0.1364 -0.172075 -2.37149e-20)
(-0.150708 -0.191484 -1.38916e-22)
(-0.1638 -0.21158 2.09505e-20)
(-0.175594 -0.232176 3.02056e-20)
(-0.186014 -0.252933 3.76941e-20)
(-0.194976 -0.27339 -1.75995e-20)
(-0.20239 -0.292971 -4.97568e-20)
(-0.208151 -0.310994 1.55014e-20)
(-0.212149 -0.326668 -5.81737e-20)
(-0.214296 -0.33911 0)
(-0.214545 -0.347378 1.28562e-20)
(-0.212804 -0.350518 1.2063e-20)
(-0.208731 -0.347565 1.13134e-20)
(-0.202307 -0.33753 0)
(-0.196086 -0.319891 0)
(-0.00291121 0.00443715 0)
(-0.0103184 -0.00148821 9.63242e-20)
(-0.0229509 -0.0159257 -3.62892e-20)
(-0.0382028 -0.0340818 3.42035e-20)
(-0.0546745 -0.0532388 -9.80531e-20)
(-0.0716397 -0.0722224 0)
(-0.0885077 -0.0908209 -5.84325e-20)
(-0.104812 -0.109322 2.77546e-20)
(-0.120229 -0.128159 -5.27871e-20)
(-0.134553 -0.147684 2.5594e-20)
(-0.147661 -0.168077 1.39791e-19)
(-0.159483 -0.189327 -6.564e-20)
(-0.16998 -0.21126 -1.02279e-19)
(-0.179122 -0.233568 -3.87944e-20)
(-0.186886 -0.255825 3.61392e-22)
(-0.193251 -0.277501 1.34349e-19)
(-0.198191 -0.297953 -6.28234e-20)
(-0.201678 -0.316427 9.81626e-24)
(-0.203705 -0.332057 0)
(-0.204319 -0.34388 -4.86002e-20)
(-0.203485 -0.350859 0)
(-0.200727 -0.351893 -4.08399e-20)
(-0.195844 -0.345927 1.48837e-19)
(-0.19287 -0.332559 -1.83094e-21)
(-0.00453075 0.0105979 0)
(-0.0131735 0.0129452 9.50055e-22)
(-0.0256945 0.00391589 3.77066e-20)
(-0.0400339 -0.0108352 -3.5858e-20)
(-0.055058 -0.0280157 3.26213e-20)
(-0.0701635 -0.0460194 1.90439e-19)
(-0.084817 -0.0643006 -5.96327e-20)
(-0.0985785 -0.0829029 -5.7377e-20)
(-0.111137 -0.102093 1.07014e-19)
(-0.122294 -0.122124 -1.51021e-19)
(-0.131939 -0.143128 4.81481e-20)
(-0.140017 -0.165081 4.55132e-20)
(-0.146511 -0.187816 0)
(-0.151434 -0.211046 3.89511e-20)
(-0.154819 -0.234376 0)
(-0.15672 -0.25731 6.90116e-20)
(-0.157205 -0.279255 -1.24968e-19)
(-0.156352 -0.299518 3.18389e-20)
(-0.154256 -0.317296 1.07457e-19)
(-0.151062 -0.331667 4.85562e-20)
(-0.146855 -0.34155 0)
(-0.141161 -0.3457 -1.14513e-19)
(-0.13317 -0.342922 3.7429e-20)
(-0.127254 -0.332878 0)
(-0.00657766 0.015961 0)
(-0.0166959 0.0259339 -1.20463e-19)
(-0.0286042 0.0221868 -3.89222e-20)
(-0.0411014 0.01091 -7.25051e-20)
(-0.0534717 -0.00416096 6.82765e-20)
(-0.0652937 -0.0210295 -6.40145e-20)
(-0.0761298 -0.0388238 1.23235e-19)
(-0.0855807 -0.0573292 5.80724e-20)
(-0.0933413 -0.0766303 -1.63912e-19)
(-0.0992037 -0.0968735 1.04141e-19)
(-0.103045 -0.118131 -1.46296e-19)
(-0.104808 -0.140356 3.24721e-19)
(-0.104489 -0.163375 -1.73281e-19)
(-0.10213 -0.186901 8.19249e-20)
(-0.097822 -0.210544 2.25572e-19)
(-0.0917054 -0.233819 -7.14858e-20)
(-0.0839684 -0.256163 -6.76511e-20)
(-0.0748373 -0.276938 -5.98891e-20)
(-0.0645637 -0.295439 0)
(-0.053435 -0.310871 -9.18634e-20)
(-0.0417668 -0.322284 -7.55021e-20)
(-0.0294857 -0.328454 1.15902e-19)
(-0.0151404 -0.327832 1.22429e-19)
(0.000412777 -0.319298 -1.13583e-19)
(-0.00878665 0.0200168 0)
(-0.0204335 0.036367 -1.66582e-19)
(-0.0312616 0.0374711 -1.60822e-21)
(-0.04108 0.0296137 1.47915e-19)
(-0.0496881 0.0167595 0)
(-0.0569043 0.00119328 0)
(-0.0624064 -0.0159224 0)
(-0.0658362 -0.0341248 -5.9358e-20)
(-0.0668997 -0.0533111 -6.65027e-22)
(-0.0653738 -0.0735082 1.06527e-19)
(-0.0611104 -0.0947148 -1.49346e-19)
(-0.0540413 -0.116841 6.81456e-23)
(-0.0441712 -0.139688 0)
(-0.0315797 -0.162943 -8.18771e-20)
(-0.0164268 -0.186188 7.63665e-20)
(0.00104165 -0.208915 -2.14527e-19)
(0.0204938 -0.230539 2.57043e-19)
(0.0415205 -0.250426 5.17364e-20)
(0.0636599 -0.267921 -1.07596e-20)
(0.0864233 -0.282359 -1.92539e-19)
(0.109251 -0.293067 -8.10315e-20)
(0.131573 -0.29923 2.39147e-19)
(0.153759 -0.299273 -1.53399e-19)
(0.182825 -0.289349 0)
(-0.01086 0.022465 8.31407e-20)
(-0.0238666 0.0434823 8.37347e-20)
(-0.0332011 0.0486901 -8.12575e-20)
(-0.0396609 0.044006 -1.52426e-19)
(-0.0435714 0.0333679 1.43528e-19)
(-0.0450063 0.0192207 -1.36823e-19)
(-0.0437889 0.00295057 1.94003e-19)
(-0.0396192 -0.0147625 -5.95721e-20)
(-0.0322094 -0.0336496 1.15399e-19)
(-0.0213379 -0.0535945 0)
(-0.0068414 -0.0745076 1.04356e-19)
(0.0113427 -0.0962386 -1.95717e-19)
(0.0331711 -0.118542 1.80701e-19)
(0.0584867 -0.141062 -1.6972e-19)
(0.0870073 -0.163338 0)
(0.118323 -0.184817 1.43442e-19)
(0.151904 -0.204875 2.5712e-19)
(0.187115 -0.222848 -2.40988e-19)
(0.223254 -0.238074 -1.04888e-19)
(0.259607 -0.249929 -8.61884e-20)
(0.29539 -0.257915 2.48289e-19)
(0.330321 -0.261495 6.02427e-20)
(0.362035 -0.260228 -6.33293e-20)
(0.407296 -0.247475 4.6134e-20)
(-0.0125333 0.02325 -8.31518e-20)
(-0.0265019 0.0469497 2.62249e-19)
(-0.0339647 0.0552062 -8.29589e-20)
(-0.036525 0.0531963 1.5588e-19)
(-0.03497 0.044601 -1.46776e-19)
(-0.0296137 0.0318808 8.04331e-22)
(-0.020431 0.0165518 6.61966e-20)
(-0.007223 -0.000543054 2.52621e-19)
(0.010275 -0.0189653 1.20387e-21)
(0.032279 -0.0384617 -1.10237e-19)
(0.0589028 -0.0588441 0)
(0.090147 -0.0798818 -9.8835e-20)
(0.125852 -0.101265 1.84628e-19)
(0.165683 -0.122583 1.69676e-19)
(0.209119 -0.143331 -8.02971e-20)
(0.255462 -0.162921 1.86664e-22)
(0.303856 -0.180716 -6.55068e-20)
(0.353336 -0.196065 1.17289e-19)
(0.402887 -0.20835 1.04837e-19)
(0.451568 -0.216999 -9.20313e-20)
(0.498164 -0.221712 7.84139e-20)
(0.543679 -0.22152 -6.65961e-20)
(0.580017 -0.21868 0)
(0.638858 -0.203157 -4.60415e-20)
(-0.013629 0.0225463 8.64426e-20)
(-0.0279411 0.0468863 -8.80435e-20)
(-0.0331227 0.056891 8.48421e-20)
(-0.0312981 0.0567899 0)
(-0.0235957 0.0498454 0)
(-0.0105325 0.0384065 1.44422e-19)
(0.00776962 0.0240269 -1.33765e-19)
(0.0314099 0.00766433 1.28354e-19)
(0.0605623 -0.0100984 -5.99222e-19)
(0.0953641 -0.0288918 -3.43633e-23)
(0.135816 -0.0484066 1.06455e-19)
(0.181731 -0.0683187 0)
(0.232686 -0.0882413 -1.84297e-19)
(0.287998 -0.107709 3.43309e-19)
(0.346724 -0.126185 -2.38871e-19)
(0.407697 -0.143085 -3.55748e-19)
(0.469587 -0.15781 1.1124e-20)
(0.530994 -0.169795 2.37997e-19)
(0.590528 -0.178556 0)
(0.647082 -0.183629 0)
(0.698942 -0.18515 -7.83953e-20)
(0.748499 -0.18152 6.6581e-20)
(0.783985 -0.177391 -2.08338e-19)
(0.84355 -0.159971 1.95501e-19)
(-0.0140783 0.0206958 0)
(-0.0279055 0.043786 0)
(-0.0302471 0.0541097 -2.56334e-19)
(-0.023447 0.0549421 8.11846e-20)
(-0.00882758 0.0490642 -3.76377e-22)
(0.0129489 0.0386315 1.45456e-19)
(0.0416242 0.0251641 0)
(0.0771667 0.00967997 -1.2866e-19)
(0.119602 -0.00713678 1.20358e-19)
(0.168867 -0.0247916 -2.2791e-19)
(0.224683 -0.042863 4.49467e-22)
(0.286472 -0.0609334 1.9855e-19)
(0.35331 -0.0785522 -2.42467e-21)
(0.423917 -0.095229 1.66105e-19)
(0.496707 -0.110449 -2.40181e-19)
(0.569878 -0.123702 0)
(0.641547 -0.134519 2.51485e-19)
(0.709895 -0.142511 -3.51939e-19)
(0.773294 -0.147408 1.00356e-19)
(0.83058 -0.148957 0)
(0.880279 -0.147582 7.58047e-20)
(0.924585 -0.141752 2.48664e-19)
(0.954008 -0.136605 -2.33388e-19)
(1.00019 -0.119268 -2.21096e-19)
(-0.0139038 0.0181086 2.69819e-19)
(-0.0262012 0.0383759 -3.71169e-19)
(-0.0248437 0.0476318 3.11949e-22)
(-0.0121593 0.0483615 8.27877e-20)
(0.0104661 0.0428953 -1.55427e-19)
(0.0422802 0.0331698 -1.4477e-19)
(0.0828882 0.0206282 2.74497e-19)
(0.132062 0.00630754 -4.21836e-22)
(0.189543 -0.00903475 -2.42944e-19)
(0.254856 -0.0248092 4.5565e-19)
(0.327164 -0.0405118 -1.02093e-21)
(0.405182 -0.0556747 -1.99781e-19)
(0.48717 -0.0698464 0)
(0.570996 -0.082596 0)
(0.654281 -0.0935321 -7.81235e-20)
(0.734583 -0.102327 -1.39119e-19)
(0.809611 -0.108739 -2.46461e-19)
(0.877414 -0.112633 2.31362e-19)
(0.936554 -0.113967 -1.004e-19)
(0.986156 -0.112816 1.66923e-19)
(1.02589 -0.10947 -8.85626e-20)
(1.05695 -0.103338 1.11352e-19)
(1.07582 -0.0979583 -2.86019e-19)
(1.10062 -0.0831295 4.61897e-20)
(-0.0131514 0.0151562 9.12647e-20)
(-0.0226031 0.0314447 0)
(-0.0162209 0.0384859 1.77121e-19)
(0.00379428 0.0382284 -1.66848e-19)
(0.0360694 0.0326492 1.55564e-19)
(0.0797752 0.0234865 0)
(0.134315 0.0120918 0)
(0.199103 -0.000510229 -1.29838e-19)
(0.273326 -0.0135319 7.1932e-22)
(0.355741 -0.0263509 1.14401e-19)
(0.44455 -0.038462 -1.0493e-19)
(0.537393 -0.0494521 1.98699e-19)
(0.631451 -0.0589936 0)
(0.723663 -0.0668476 3.29683e-19)
(0.810992 -0.0728679 -6.08644e-19)
(0.890712 -0.077001 4.20023e-19)
(0.960649 -0.079275 2.40239e-19)
(1.01935 -0.0798007 -2.25536e-19)
(1.06617 -0.0786957 0)
(1.10119 -0.0762611 0)
(1.12542 -0.0724242 0)
(1.13986 -0.0678519 0)
(1.14635 -0.0627252 5.47268e-20)
(1.1512 -0.0530016 -1.78927e-19)
(-0.128247 -0.264725 -7.56243e-21)
(-0.0998087 -0.212579 7.58697e-21)
(-0.0670835 -0.145676 -2.19311e-22)
(-0.0292099 -0.0652478 0)
(0.0122594 0.0267043 -6.96727e-21)
(0.056557 0.126561 1.3291e-20)
(0.103275 0.230919 -3.77302e-22)
(0.150572 0.332199 -5.79258e-21)
(0.197041 0.423596 0)
(0.240497 0.498623 0)
(0.277997 0.553741 -2.09793e-22)
(0.305748 0.589598 -1.78422e-22)
(0.320282 0.611035 -2.59108e-21)
(0.321319 0.623018 2.36808e-21)
(0.315514 0.623291 0)
(0.316636 0.59847 0)
(0.338995 0.530225 2.40237e-21)
(0.387706 0.408783 2.69929e-22)
(0.455872 0.240172 -2.35674e-21)
(0.532353 0.0430834 -1.76655e-22)
(0.608025 -0.155771 0)
(0.674777 -0.324638 0)
(0.726322 -0.440706 0)
(0.759666 -0.501221 0)
(0.775348 -0.519939 0)
(0.778124 -0.512871 0)
(0.772737 -0.496297 2.79865e-22)
(0.755132 -0.489369 -4.50107e-22)
(0.719023 -0.499893 0)
(0.671621 -0.500396 0)
(0.63633 -0.439989 -5.22859e-22)
(0.632649 -0.29201 5.08172e-22)
(0.661124 -0.0835792 2.72292e-22)
(0.70666 0.122769 0)
(0.754611 0.281907 0)
(0.794371 0.371609 3.21407e-22)
(0.824735 0.411201 -3.1242e-22)
(0.836502 0.427823 0)
(0.82072 0.453487 2.2301e-22)
(0.780169 0.465381 -3.31041e-22)
(0.738586 0.420712 1.31826e-22)
(0.719997 0.291924 0)
(0.733677 0.0947324 -2.94434e-22)
(0.763719 -0.0884697 2.86298e-22)
(0.807907 -0.239565 0)
(0.834855 -0.307074 0)
(0.837168 -0.36733 -6.87646e-23)
(0.800773 -0.384672 1.90627e-22)
(0.76167 -0.36455 0)
(0.743773 -0.273118 0)
(0.767141 -0.0871047 -5.91778e-23)
(0.797304 0.0358208 5.14058e-24)
(0.823657 0.222505 -5.62245e-24)
(0.806932 0.284605 3.70637e-23)
(0.79466 0.360003 0)
(0.785963 0.335615 0)
(0.801805 0.14708 0)
(0.798295 0.0881818 0)
(0.812053 -0.219964 0)
(0.789206 -0.250668 0)
(-0.193217 -0.292054 -6.33559e-22)
(-0.175652 -0.246687 -2.68743e-20)
(-0.152768 -0.18575 3.23075e-22)
(-0.123412 -0.110659 2.49595e-20)
(-0.0878649 -0.0234439 3.40752e-22)
(-0.0459587 0.0735139 0)
(-0.000268752 0.17565 -2.0121e-20)
(0.0468961 0.278183 3.82043e-20)
(0.0953028 0.373326 -1.80853e-20)
(0.142519 0.454333 1.39606e-20)
(0.185578 0.518879 -1.33592e-20)
(0.220852 0.566788 1.03e-20)
(0.246371 0.600083 -9.9921e-21)
(0.264485 0.619076 -2.67652e-22)
(0.283569 0.617463 -8.94367e-21)
(0.315586 0.581871 8.69146e-21)
(0.369001 0.499276 -1.04975e-20)
(0.44196 0.36669 9.85174e-21)
(0.524974 0.193166 -1.20834e-20)
(0.608361 -0.00434659 2.33444e-20)
(0.684872 -0.199856 -1.12673e-20)
(0.746663 -0.361419 -6.07749e-22)
(0.788172 -0.466843 -6.85641e-21)
(0.809155 -0.515568 1.1922e-20)
(0.812669 -0.524336 -5.11092e-21)
(0.804173 -0.510779 2.21513e-22)
(0.789808 -0.488761 2.97778e-21)
(0.767069 -0.474207 1.28326e-23)
(0.727923 -0.477295 -5.47376e-21)
(0.675016 -0.477743 5.91243e-21)
(0.629695 -0.428173 -3.08028e-21)
(0.614872 -0.296493 4.47497e-22)
(0.635402 -0.101457 -2.72846e-22)
(0.678093 0.0990982 4.49029e-22)
(0.728037 0.259523 0)
(0.774239 0.354189 0)
(0.811876 0.401192 -1.0149e-21)
(0.82968 0.427636 7.56467e-22)
(0.817729 0.463009 7.05144e-22)
(0.782331 0.479648 2.46494e-22)
(0.74755 0.431807 -1.13767e-21)
(0.735388 0.294721 3.33038e-22)
(0.752823 0.0891366 0)
(0.781267 -0.0993643 0)
(0.822211 -0.250249 0)
(0.844657 -0.311479 0)
(0.846179 -0.3625 2.96543e-22)
(0.807441 -0.37435 -1.23861e-22)
(0.766795 -0.356763 0)
(0.746398 -0.273685 0)
(0.766667 -0.0942799 0)
(0.79582 0.028737 -8.77105e-23)
(0.818495 0.221106 1.51449e-23)
(0.803393 0.287432 -8.24662e-23)
(0.790274 0.362115 0)
(0.783871 0.335057 0)
(0.803621 0.145221 6.64572e-23)
(0.801863 0.0873507 2.113e-22)
(0.819006 -0.218633 0)
(0.793746 -0.249247 0)
(-0.200206 -0.310177 -9.3624e-22)
(-0.197736 -0.273305 -4.67009e-20)
(-0.188252 -0.220045 4.39012e-20)
(-0.171992 -0.152568 -4.11527e-20)
(-0.147747 -0.071791 -3.43146e-22)
(-0.115016 0.019899 0)
(-0.0744542 0.117782 -3.31853e-20)
(-0.0298925 0.219133 3.23869e-20)
(0.0158007 0.317943 2.43646e-22)
(0.0632882 0.403805 3.39683e-22)
(0.110778 0.476585 3.00294e-22)
(0.154621 0.534145 3.21423e-22)
(0.194282 0.575433 -1.72793e-20)
(0.233251 0.597261 1.70617e-20)
(0.279045 0.591574 0)
(0.339835 0.547003 5.71846e-22)
(0.418395 0.455791 -2.21516e-20)
(0.508781 0.319647 2.18728e-20)
(0.601176 0.147742 0)
(0.688136 -0.0453935 0)
(0.763657 -0.234344 -2.26633e-20)
(0.819308 -0.387099 4.07581e-20)
(0.850092 -0.482348 -3.19552e-20)
(0.858462 -0.521333 3.39661e-21)
(0.850297 -0.522507 1.85275e-20)
(0.831529 -0.50455 -1.48271e-20)
(0.808778 -0.479125 1.15408e-20)
(0.78141 -0.458332 -6.44955e-22)
(0.740586 -0.453931 -4.88734e-21)
(0.684108 -0.45346 0)
(0.629982 -0.41456 0)
(0.603684 -0.300411 2.64491e-21)
(0.615065 -0.120328 -3.37507e-21)
(0.653813 0.0729505 -6.20512e-23)
(0.704865 0.233706 2.66275e-21)
(0.756756 0.333224 -2.58773e-21)
(0.80095 0.388293 0)
(0.824536 0.425238 2.31003e-22)
(0.816881 0.470571 2.13539e-21)
(0.787276 0.492256 -4.55058e-21)
(0.759539 0.442038 2.13157e-21)
(0.753675 0.298103 3.78847e-22)
(0.774853 0.0856744 -3.53667e-21)
(0.801624 -0.107533 2.71217e-21)
(0.838812 -0.258721 5.34252e-22)
(0.856313 -0.314724 3.97324e-22)
(0.856899 -0.357088 -2.97284e-22)
(0.816072 -0.363785 0)
(0.774068 -0.348867 0)
(0.751183 -0.274519 -7.65795e-22)
(0.768127 -0.101606 3.81208e-22)
(0.796094 0.0215225 -3.29252e-22)
(0.815049 0.219483 4.85762e-22)
(0.801362 0.290093 6.03437e-22)
(0.787001 0.363966 -1.53907e-22)
(0.782838 0.334233 2.97938e-22)
(0.806671 0.1429 -2.91852e-22)
(0.806745 0.0862282 1.68384e-22)
(0.827113 -0.217183 0)
(0.799249 -0.247682 0)
(-0.140589 -0.314729 -8.25536e-20)
(-0.154786 -0.286946 5.31432e-21)
(-0.160017 -0.242581 7.29156e-20)
(-0.15972 -0.184269 -5.8495e-22)
(-0.150796 -0.112466 0)
(-0.132503 -0.0283647 0)
(-0.103937 0.0635974 -4.91353e-20)
(-0.0658416 0.161751 2.12585e-21)
(-0.0258484 0.258261 6.45051e-20)
(0.0176851 0.346804 -2.06698e-21)
(0.0681276 0.425152 -1.80742e-20)
(0.120201 0.488918 -1.50233e-20)
(0.174166 0.534648 1.50103e-20)
(0.233088 0.557003 0)
(0.30216 0.547699 -1.75298e-20)
(0.385463 0.49806 1.58943e-20)
(0.481482 0.404679 0)
(0.582268 0.271684 0)
(0.679387 0.106332 2.5929e-20)
(0.767969 -0.0792437 -2.79985e-23)
(0.841774 -0.260151 -2.36989e-20)
(0.891018 -0.403613 -1.9311e-20)
(0.911104 -0.48927 1.91619e-20)
(0.907049 -0.520158 -1.14159e-20)
(0.88777 -0.515574 2.67535e-21)
(0.859824 -0.494704 8.09463e-21)
(0.829376 -0.467731 7.04671e-22)
(0.797503 -0.442566 2.23431e-23)
(0.756014 -0.430734 0)
(0.698337 -0.427496 4.65379e-21)
(0.637377 -0.397952 -4.79491e-21)
(0.59972 -0.302303 3.81286e-22)
(0.600694 -0.139187 0)
(0.634123 0.0449989 -3.91927e-22)
(0.685272 0.204921 4.69395e-21)
(0.741888 0.309017 -8.07152e-21)
(0.791811 0.372524 -1.82517e-22)
(0.820901 0.420277 -5.7551e-23)
(0.817955 0.475634 3.04473e-21)
(0.79454 0.502798 5.02728e-22)
(0.773923 0.451344 -5.50562e-21)
(0.774239 0.302356 4.63303e-21)
(0.799101 0.0843652 -4.01535e-23)
(0.82431 -0.112923 2.52596e-21)
(0.857476 -0.264998 -2.99155e-21)
(0.869686 -0.316972 -2.65124e-21)
(0.869086 -0.351322 7.91113e-22)
(0.826369 -0.35303 8.60156e-22)
(0.783138 -0.340709 -1.59008e-21)
(0.757776 -0.275401 1.10789e-21)
(0.771258 -0.108989 -3.38855e-22)
(0.798002 0.0141481 3.43985e-22)
(0.813284 0.217604 2.80184e-22)
(0.800853 0.292635 -8.75508e-22)
(0.784931 0.365609 -7.55958e-24)
(0.782957 0.333161 -3.32397e-22)
(0.810969 0.140124 0)
(0.812945 0.0848092 -1.58072e-22)
(0.836348 -0.215598 3.87073e-22)
(0.805683 -0.245952 0)
(-0.0157529 -0.304417 7.1641e-20)
(-0.0454624 -0.284754 -1.32507e-19)
(-0.0647554 -0.249871 6.04596e-20)
(-0.0805446 -0.200981 4.81988e-20)
(-0.0882642 -0.139953 -8.96398e-20)
(-0.0868398 -0.0651977 4.1352e-21)
(-0.0729866 0.0191088 3.67086e-20)
(-0.0479235 0.109276 3.02259e-20)
(-0.0181875 0.197471 -2.96615e-20)
(0.0205329 0.285552 0)
(0.0699822 0.365474 -2.41791e-20)
(0.126854 0.431831 4.73862e-20)
(0.191191 0.479408 -2.33346e-20)
(0.264707 0.501672 0)
(0.349913 0.4908 0)
(0.447424 0.440563 5.6699e-22)
(0.552834 0.350601 -4.50166e-20)
(0.657771 0.225639 4.37231e-20)
(0.756316 0.0703154 0)
(0.845496 -0.105722 5.21852e-20)
(0.917337 -0.277178 -9.45013e-20)
(0.959919 -0.410526 8.17034e-20)
(0.969435 -0.487034 -6.70183e-20)
(0.953567 -0.511697 6.36197e-21)
(0.924075 -0.503654 3.88199e-20)
(0.888323 -0.481497 -1.66191e-20)
(0.851341 -0.454583 -3.49438e-22)
(0.815212 -0.427246 -3.94693e-21)
(0.773563 -0.409006 2.59751e-22)
(0.716777 -0.401429 3.74529e-21)
(0.651614 -0.378799 2.76208e-22)
(0.603372 -0.301291 -4.78381e-21)
(0.592847 -0.157172 9.59564e-21)
(0.619508 0.0159522 -5.35347e-21)
(0.669427 0.17359 0)
(0.729521 0.281744 -4.05143e-21)
(0.784218 0.353715 3.89411e-21)
(0.818491 0.412289 -3.06793e-21)
(0.820602 0.477695 3.81087e-21)
(0.803591 0.511009 -5.15559e-22)
(0.790068 0.459815 0)
(0.796253 0.307444 -7.81521e-22)
(0.824842 0.0852978 2.44865e-21)
(0.848895 -0.115443 0)
(0.877904 -0.268894 5.21097e-21)
(0.884578 -0.318121 -2.25469e-21)
(0.882527 -0.345216 6.03743e-22)
(0.838093 -0.342124 4.32072e-22)
(0.793672 -0.332256 0)
(0.765812 -0.27621 0)
(0.77576 -0.116381 -8.53299e-22)
(0.801373 0.0065661 1.30327e-21)
(0.813132 0.215426 -7.56062e-22)
(0.801872 0.29508 2.33089e-22)
(0.784155 0.367099 5.57519e-22)
(0.784314 0.33185 3.32717e-22)
(0.816515 0.136904 -6.91577e-22)
(0.820451 0.0830911 0)
(0.846664 -0.21384 -5.71163e-22)
(0.813008 -0.244029 -1.14308e-22)
(0.164305 -0.279139 6.39109e-20)
(0.12303 -0.264171 -6.33166e-20)
(0.0917254 -0.238617 4.12076e-22)
(0.0616649 -0.20183 -2.75319e-22)
(0.0378656 -0.152136 3.00414e-22)
(0.0232991 -0.0899638 -2.55679e-22)
(0.0183936 -0.0171279 2.71205e-22)
(0.0265071 0.0610439 0)
(0.0450486 0.142343 -1.8602e-22)
(0.0761234 0.225299 1.72584e-22)
(0.120222 0.302494 1.7631e-22)
(0.17646 0.367946 -3.10418e-22)
(0.244567 0.415305 0)
(0.324861 0.437478 0)
(0.417569 0.427226 3.9704e-22)
(0.520775 0.38005 0)
(0.628428 0.2973 -6.04721e-22)
(0.732856 0.183074 0)
(0.830866 0.0393001 -4.9678e-20)
(0.920013 -0.125741 9.79996e-20)
(0.98921 -0.286148 -9.18673e-20)
(1.02453 -0.408616 4.35644e-20)
(1.0237 -0.476664 2.93249e-20)
(0.997105 -0.496954 -2.84779e-20)
(0.958642 -0.487613 -1.71813e-20)
(0.916465 -0.465608 1.65551e-20)
(0.87424 -0.439839 0)
(0.834166 -0.412295 2.5355e-22)
(0.792421 -0.389334 0)
(0.738187 -0.376426 0)
(0.671804 -0.35766 6.52407e-21)
(0.61478 -0.296766 -6.6824e-21)
(0.592142 -0.172843 4.32124e-22)
(0.610396 -0.0130201 5.53368e-22)
(0.65742 0.140266 -3.99286e-22)
(0.719477 0.251602 -3.0876e-21)
(0.777891 0.33172 2.99802e-21)
(0.816979 0.40088 -3.68496e-21)
(0.824389 0.476301 3.19015e-21)
(0.813833 0.516651 1.03181e-21)
(0.807231 0.467456 -5.9059e-21)
(0.818993 0.313412 -1.75116e-21)
(0.851386 0.0883268 4.81089e-21)
(0.874783 -0.115126 0)
(0.899723 -0.270307 -2.39679e-21)
(0.900741 -0.31813 2.11509e-21)
(0.896972 -0.338835 -2.8785e-21)
(0.850995 -0.331095 -4.34805e-22)
(0.805352 -0.323415 0)
(0.774924 -0.276814 2.62959e-22)
(0.781301 -0.123773 -5.03982e-22)
(0.805984 -0.00130441 -4.22879e-23)