/*--------------------------------*- C++ -*----------------------------------*\
| =========                 |                                                 |
| \\      /  F ield         | OpenFOAM: The Open Source CFD Toolbox           |
|  \\    /   O peration     | Version:  2512                                  |
|   \\  /    A nd           | Website:  www.openfoam.com                      |
|    \\/     M anipulation  |                                                 |
\*---------------------------------------------------------------------------*/
FoamFile
{
    version     2.0;
    format      ascii;
    arch        "LSB;label=32;scalar=64";
    class       volVectorField;
    location    "174";
    object      U;
}
// * * * * * * * * * * * * * * * * * * * * * * * * * * * * * * * * * * * * * //

dimensions      [0 1 -1 0 0 0 0];

internalField   nonuniform List<vector> 
13248
(
(-0.0110005 0.010782 8.19425e-20)
(-0.0159271 0.0193893 0)
(-0.00562261 0.0202446 -1.55766e-19)
(0.0182036 0.0159654 1.46733e-19)
(0.0546498 0.00866982 1.38064e-19)
(0.103171 8.25118e-06 0)
(0.163224 -0.00880686 0)
(0.234011 -0.0168914 3.34558e-19)
(0.314267 -0.0236006 -2.81309e-21)
(0.402141 -0.0284829 -2.89985e-19)
(0.495196 -0.0312617 2.63254e-19)
(0.590536 -0.0318315 -1.6427e-19)
(0.685029 -0.0302511 0)
(0.775583 -0.0267269 -2.6107e-19)
(0.859428 -0.0215832 4.78954e-19)
(0.93434 -0.0152213 -1.13399e-19)
(0.998796 -0.00807259 -1.84274e-19)
(1.05203 -0.000564219 1.72997e-19)
(1.09404 0.00695435 0)
(1.12542 0.0140807 0)
(1.1474 0.0208961 0)
(1.16098 0.0263047 0)
(1.16916 0.0324334 4.26924e-20)
(1.17009 0.0337957 1.42419e-19)
(-0.00969788 0.0086959 -2.47487e-19)
(-0.00929083 0.0142885 1.68975e-19)
(0.00975026 0.0137551 -1.07229e-21)
(0.0454444 0.00928482 -2.23862e-19)
(0.0965609 0.00280397 -1.37912e-19)
(0.162074 -0.00409064 -1.30302e-19)
(0.240697 -0.010217 -2.40197e-19)
(0.330586 -0.0147493 2.26443e-19)
(0.429169 -0.0171689 0)
(0.533134 -0.0172432 2.11612e-21)
(0.638628 -0.0150063 4.18319e-21)
(0.741593 -0.0107247 1.63194e-19)
(0.83818 -0.0048413 0)
(0.925132 0.00209734 0)
(1.00008 0.00952027 1.7162e-19)
(1.0617 0.0169039 -3.22024e-19)
(1.10972 0.0238265 1.81313e-19)
(1.14481 0.0299968 -1.70228e-19)
(1.16838 0.0352685 -7.20535e-20)
(1.18233 0.0395858 -1.23461e-19)
(1.18873 0.043123 -4.7825e-20)
(1.1898 0.0455794 -8.75622e-20)
(1.18719 0.0485106 1.34831e-19)
(1.18201 0.0474694 3.73991e-20)
(-0.00729559 0.00621112 0)
(0.00103883 0.00806014 0)
(0.0315859 0.00581908 7.92273e-20)
(0.0819772 0.00132177 7.33597e-20)
(0.150449 -0.00369556 -1.42614e-21)
(0.235134 -0.00774856 -1.33196e-19)
(0.33349 -0.00981526 0)
(0.442055 -0.00932662 -1.12448e-19)
(0.556449 -0.00613648 1.04235e-19)
(0.671664 -0.000483806 -1.6917e-22)
(0.782567 0.00708201 -1.75e-19)
(0.884487 0.0158151 -1.56306e-19)
(0.973742 0.0249074 5.83734e-21)
(1.04798 0.0336156 -1.20537e-19)
(1.10628 0.0413595 2.95922e-19)
(1.14909 0.0477757 0)
(1.17793 0.0527261 -1.77844e-19)
(1.19506 0.0562659 8.69265e-20)
(1.20307 0.0585975 7.19902e-20)
(1.20454 0.0599659 0)
(1.2018 0.060744 5.55574e-20)
(1.19665 0.06087 -1.87752e-19)
(1.1904 0.0614635 1.76247e-19)
(1.18413 0.0592969 1.06236e-19)
(-0.00353815 0.00350309 -8.6906e-20)
(0.0158304 0.00137584 -8.96447e-20)
(0.0611201 -0.00230667 8.16028e-20)
(0.129293 -0.00609199 0)
(0.21764 -0.00850282 0)
(0.322869 -0.00830779 -1.85509e-21)
(0.440534 -0.00487627 0)
(0.565018 0.00181076 -3.38064e-19)
(0.689953 0.0112378 3.12555e-19)
(0.80895 0.0224896 -3.84223e-19)
(0.916416 0.0344454 8.71618e-20)
(1.00824 0.0459949 0)
(1.08219 0.0562227 1.38556e-19)
(1.13789 0.0645269 -2.54088e-19)
(1.17661 0.0706552 6.03654e-20)
(1.20076 0.0746692 1.46411e-19)
(1.21336 0.0768593 -1.04367e-20)
(1.21753 0.0776395 -1.61323e-19)
(1.21607 0.0774495 0)
(1.21129 0.076671 0)
(1.20486 0.0756489 -5.36338e-20)
(1.19784 0.0743568 4.72268e-20)
(1.19094 0.073689 1.62625e-19)
(1.1842 0.0706215 -1.52686e-19)
(0.00192778 0.000711593 -9.07489e-20)
(0.0359116 -0.00512079 -9.06788e-20)
(0.0994102 -0.00936952 2.55342e-19)
(0.188273 -0.0111306 -1.55522e-19)
(0.298212 -0.0093754 1.46387e-19)
(0.423784 -0.00338934 2.66623e-19)
(0.558034 0.00672971 -1.87675e-19)
(0.693024 0.0201241 -2.25986e-19)
(0.820854 0.0354121 6.0401e-21)
(0.934807 0.0510008 2.88418e-19)
(1.03024 0.0654097 0)
(1.10502 0.0775264 7.69844e-20)
(1.15935 0.0867374 0)
(1.19535 0.0929283 -1.2122e-19)
(1.21627 0.0963822 1.69874e-19)
(1.2258 0.097625 1.28643e-21)
(1.22743 0.0972687 -4.29657e-20)
(1.22411 0.0958872 7.81067e-20)
(1.21803 0.0939423 6.71371e-20)
(1.2107 0.0917574 -5.92504e-20)
(1.20303 0.0895396 5.36202e-20)
(1.19552 0.0872903 -4.72144e-20)
(1.18839 0.0854956 0)
(1.18178 0.0818846 -3.56925e-20)
(0.00949416 -0.00199258 9.0736e-20)
(0.0620203 -0.0107247 9.47156e-20)
(0.147081 -0.0140883 -8.54191e-20)
(0.258829 -0.0120533 1.5891e-19)
(0.390628 -0.00438547 -1.49568e-19)
(0.534193 0.00871587 1.35102e-19)
(0.679851 0.0260442 -6.46681e-20)
(0.81787 0.0456438 1.69856e-19)
(0.940058 0.0653099 -1.06231e-19)
(1.04097 0.0830764 1.85298e-19)
(1.11841 0.0975638 -4.25256e-19)
(1.17311 0.108123 1.55159e-19)
(1.20799 0.11478 -1.32957e-19)
(1.22711 0.118045 1.24889e-19)
(1.23475 0.118682 1.04963e-19)
(1.23479 0.117492 9.00425e-20)
(1.23024 0.115175 -2.50606e-19)
(1.22329 0.112259 1.54524e-19)
(1.21533 0.109098 -6.71385e-20)
(1.20717 0.105902 1.72568e-19)
(1.19924 0.102779 -5.57662e-20)
(1.19174 0.0997357 -1.32659e-19)
(1.18474 0.0970202 1.21948e-19)
(1.17821 0.0930303 3.56812e-20)
(0.0195157 -0.00435938 0)
(0.0946334 -0.0146058 5.58566e-22)
(0.204097 -0.0151425 1.76695e-19)
(0.339699 -0.00729128 -1.65964e-19)
(0.491709 0.00788795 -1.49676e-19)
(0.648677 0.0288196 2.7793e-19)
(0.79871 0.0529162 -1.28951e-19)
(0.931628 0.0771828 1.7089e-19)
(1.0407 0.0989743 -4.32427e-21)
(1.12331 0.116503 -9.60427e-20)
(1.18055 0.129008 2.06878e-19)
(1.21604 0.136628 -3.03856e-19)
(1.23467 0.140103 0)
(1.24136 0.140443 -5.83029e-20)
(1.24037 0.138653 -1.53482e-19)
(1.23494 0.135569 4.85733e-20)
(1.22727 0.131803 2.3099e-21)
(1.21873 0.127754 -1.01424e-19)
(1.2101 0.123655 7.93714e-21)
(1.20176 0.11963 1.16541e-19)
(1.19388 0.11573 -5.06269e-20)
(1.18652 0.111973 -1.89495e-20)
(1.17962 0.10842 5.94175e-20)
(1.17316 0.104105 0)
(0.0322359 -0.00604182 0)
(0.133811 -0.0157993 4.78187e-20)
(0.269606 -0.011211 -2.29196e-19)
(0.428415 0.00444428 8.33536e-20)
(0.596974 0.0282277 -7.84494e-20)
(0.76102 0.05681 -7.12551e-20)
(0.907779 0.0862431 -1.25913e-19)
(1.02849 0.112921 6.29854e-20)
(1.11955 0.134395 5.47438e-20)
(1.18202 0.149635 0)
(1.22016 0.158826 1.22121e-19)
(1.23967 0.162936 -1.80212e-19)
(1.24626 0.16325 1.33988e-19)
(1.24472 0.161015 5.83327e-20)
(1.23862 0.157246 -4.69485e-20)
(1.23031 0.152668 -3.83777e-20)
(1.22121 0.147744 -3.53478e-20)
(1.2121 0.142745 1.07632e-19)
(1.20334 0.137814 0)
(1.19509 0.133018 5.25625e-20)
(1.18738 0.128387 4.32458e-20)
(1.18018 0.123928 -1.08393e-19)
(1.17343 0.119603 -7.26307e-20)
(1.16705 0.114984 6.73233e-20)
(0.0477273 -0.00661097 -5.08835e-20)
(0.179086 -0.0132668 -1.5435e-21)
(0.341884 -0.00108749 4.64538e-20)
(0.521502 0.0240201 1.29172e-19)
(0.701285 0.0567093 3.73347e-20)
(0.865352 0.0918008 -7.22201e-20)
(1.00198 0.124407 6.6161e-20)
(1.10565 0.151028 -5.79698e-20)
(1.17682 0.170073 1.0311e-19)
(1.22015 0.181644 4.36184e-20)
(1.24222 0.186916 -1.23567e-19)
(1.24967 0.187498 3.62315e-20)
(1.24807 0.184951 6.11468e-20)
(1.24149 0.18053 -3.02e-20)
(1.23257 0.17512 0)
(1.22287 0.169281 4.39771e-20)
(1.21321 0.163335 7.35619e-20)
(1.20396 0.15745 1.19521e-20)
(1.19529 0.151711 -6.07884e-20)
(1.18721 0.146155 2.51554e-20)
(1.1797 0.140797 0)
(1.17268 0.135628 -1.94233e-20)
(1.16608 0.130584 -1.80535e-20)
(1.15979 0.125622 0)
(0.0658434 -0.00559603 0)
(0.229401 -0.00600987 2.65758e-20)
(0.418413 0.0161617 4.90715e-20)
(0.614853 0.0517552 -1.31031e-19)
(0.799609 0.0927373 4.21316e-20)
(0.957067 0.132409 0)
(1.07856 0.165715 6.31702e-20)
(1.16297 0.190044 -8.80565e-20)
(1.21491 0.205139 -5.13198e-20)
(1.24179 0.212318 2.3218e-20)
(1.25142 0.213566 -3.6435e-20)
(1.25041 0.210858 8.88476e-20)
(1.2436 0.205787 4.40392e-20)
(1.23412 0.199473 -3.08935e-20)
(1.22377 0.192616 -3.17416e-21)
(1.21348 0.185613 -8.25505e-20)
(1.20368 0.178671 3.74553e-20)
(1.19453 0.171893 -8.87275e-22)
(1.18604 0.165325 0)
(1.1782 0.158989 -2.51814e-20)
(1.17091 0.152887 0)
(1.16411 0.146993 5.59736e-20)
(1.15769 0.141276 -6.63441e-20)
(1.15152 0.135899 3.01043e-20)
(0.0861901 -0.00253346 -1.36523e-20)
(0.283128 0.00680622 -6.64686e-20)
(0.496066 0.0410589 7.53732e-20)
(0.704204 0.0873721 4.43289e-20)
(0.887656 0.135185 -2.12583e-20)
(1.03322 0.177049 3.54727e-20)
(1.1368 0.208677 -1.72975e-20)
(1.20202 0.228977 2.8682e-20)
(1.23695 0.239211 0)
(1.2507 0.241767 6.44246e-20)
(1.25129 0.239158 -2.78441e-21)
(1.24469 0.233461 -5.17318e-20)
(1.23476 0.226142 2.20274e-20)
(1.22374 0.218114 -2.46643e-20)
(1.21277 0.209891 -9.22768e-21)
(1.20234 0.201737 1.08158e-20)
(1.19263 0.193778 -8.25157e-21)
(1.18369 0.186072 -4.43612e-20)
(1.17547 0.178645 2.71645e-20)
(1.1679 0.171506 5.50873e-21)
(1.1609 0.164643 4.81632e-21)
(1.15434 0.158021 4.21139e-21)
(1.14814 0.151675 0)
(1.14214 0.145785 0)
(0.108194 0.00299435 1.36618e-20)
(0.33829 0.0257605 -1.36881e-20)
(0.571556 0.0736324 -2.50602e-20)
(0.785739 0.13004 0)
(0.962334 0.182598 -1.05119e-20)
(1.09246 0.224188 -9.38703e-21)
(1.17733 0.252142 -1.60901e-20)
(1.22494 0.267245 0)
(1.24576 0.272207 0)
(1.24959 0.27021 0)
(1.24397 0.264008 0)
(1.23389 0.255587 0)
(1.22226 0.246196 -1.37946e-20)
(1.21056 0.236533 6.27208e-21)
(1.19944 0.22695 1.08364e-20)
(1.18914 0.217612 5.04997e-21)
(1.17969 0.208588 1.24072e-20)
(1.17107 0.19991 0)
(1.16321 0.191586 -2.92756e-21)
(1.15601 0.183614 -2.76892e-21)
(1.14936 0.175971 -4.82396e-21)
(1.14314 0.168627 -4.2181e-21)
(1.13724 0.161686 0)
(1.13152 0.155184 2.97443e-21)
(6.45421e-05 -0.0390989 9.09917e-21)
(-0.00307668 -0.0985666 -9.44469e-21)
(-0.0115031 -0.143436 -1.78771e-20)
(-0.0232538 -0.175953 0)
(-0.0369989 -0.1986 -2.3967e-20)
(-0.051851 -0.213981 7.55583e-21)
(-0.0670822 -0.224457 -1.42121e-20)
(-0.0821308 -0.23189 0)
(-0.096607 -0.237531 0)
(-0.110258 -0.242045 0)
(-0.122922 -0.245615 0)
(-0.13449 -0.248075 0)
(-0.144869 -0.249041 2.09553e-22)
(-0.15396 -0.247997 -9.73162e-21)
(-0.161648 -0.244365 1.81552e-20)
(-0.167795 -0.237547 2.60181e-20)
(-0.17224 -0.226951 7.88943e-21)
(-0.17481 -0.212023 0)
(-0.175337 -0.19228 7.54739e-21)
(-0.173674 -0.16736 -2.06354e-20)
(-0.169669 -0.137055 -1.27123e-20)
(-0.16313 -0.101341 -1.18873e-20)
(-0.154107 -0.0603054 0)
(-0.14376 -0.0144702 0)
(0.00156769 -0.034327 -2.72084e-20)
(-0.000386593 -0.0870191 4.70328e-20)
(-0.00962586 -0.127196 -1.7562e-20)
(-0.0231418 -0.156577 -3.35892e-20)
(-0.0390406 -0.177328 4.75579e-20)
(-0.0561651 -0.1918 -2.9947e-20)
(-0.0736434 -0.202124 4.23789e-20)
(-0.0908571 -0.209952 2.65034e-20)
(-0.107421 -0.216367 0)
(-0.12312 -0.221917 -2.40441e-20)
(-0.137846 -0.226719 -1.92638e-22)
(-0.151541 -0.230589 2.13235e-20)
(-0.164163 -0.233154 2.98115e-20)
(-0.175659 -0.23394 3.76909e-20)
(-0.185951 -0.232419 -1.8053e-20)
(-0.194931 -0.228046 -5.04681e-20)
(-0.202458 -0.220278 1.51408e-20)
(-0.208368 -0.208592 -5.77087e-20)
(-0.212497 -0.192506 0)
(-0.214709 -0.171615 1.3537e-20)
(-0.214819 -0.145623 1.26996e-20)
(-0.212458 -0.114326 1.18754e-20)
(-0.207654 -0.0775163 0)
(-0.202951 -0.0353894 0)
(0.00233535 -0.0280252 0)
(0.0009074 -0.0723625 9.27903e-20)
(-0.00902133 -0.107253 -3.5051e-20)
(-0.0237032 -0.133471 3.33989e-20)
(-0.0408525 -0.152581 -9.39688e-20)
(-0.0591314 -0.166498 0)
(-0.0775743 -0.177002 -5.59315e-20)
(-0.0955269 -0.185483 2.6128e-20)
(-0.112606 -0.192843 -4.94158e-20)
(-0.128619 -0.199519 2.29137e-20)
(-0.143485 -0.205584 1.31526e-19)
(-0.157177 -0.21085 -6.16991e-20)
(-0.169681 -0.214974 -9.69742e-20)
(-0.180976 -0.217526 -3.53643e-20)
(-0.191017 -0.218035 4.47704e-22)
(-0.199729 -0.216014 1.26137e-19)
(-0.207009 -0.210973 -5.89487e-20)
(-0.212723 -0.202428 2.09502e-21)
(-0.216735 -0.189906 0)
(-0.218949 -0.172964 -4.37022e-20)
(-0.219201 -0.151194 0)
(-0.216959 -0.124217 -3.97631e-20)
(-0.212014 -0.0916812 1.39234e-19)
(-0.20815 -0.0537449 -1.94677e-21)
(0.00223171 -0.0207457 0)
(0.000611563 -0.0557552 -1.25377e-22)
(-0.00979438 -0.0850341 3.49376e-20)
(-0.0249138 -0.10814 -3.3056e-20)
(-0.04229 -0.125839 3.11235e-20)
(-0.0605111 -0.139478 1.76639e-19)
(-0.0785728 -0.150419 -5.54614e-20)
(-0.0958049 -0.159752 -5.222e-20)
(-0.111822 -0.168194 9.84606e-20)
(-0.126436 -0.176083 -1.38656e-19)
(-0.13957 -0.183452 4.30712e-20)
(-0.151203 -0.190122 4.02099e-20)
(-0.161332 -0.195777 0)
(-0.169947 -0.200031 3.56597e-20)
(-0.177023 -0.202465 0)
(-0.182514 -0.202646 5.87935e-20)
(-0.186349 -0.200139 -1.08745e-19)
(-0.188425 -0.194513 2.91508e-20)
(-0.188627 -0.185332 9.30281e-20)
(-0.18687 -0.172146 4.36648e-20)
(-0.183048 -0.154459 0)
(-0.176559 -0.13169 -9.96938e-20)
(-0.166511 -0.103257 3.32464e-20)
(-0.156902 -0.0692136 0)
(0.00124784 -0.0131132 0)
(-0.00124606 -0.0384531 -1.10644e-19)
(-0.0118397 -0.0620211 -3.53172e-20)
(-0.0265877 -0.0820798 -6.61424e-20)
(-0.0430977 -0.0985139 6.22864e-20)
(-0.0599935 -0.112041 -5.88529e-20)
(-0.0762876 -0.123564 1.10864e-19)
(-0.0913141 -0.133866 5.21277e-20)
(-0.104684 -0.143476 -1.47046e-19)
(-0.116201 -0.152637 9.14879e-20)
(-0.125777 -0.161351 -1.28543e-19)
(-0.133385 -0.169443 2.78408e-19)
(-0.139019 -0.176624 -1.4915e-19)
(-0.142676 -0.182542 6.79594e-20)
(-0.144348 -0.186815 1.86579e-19)
(-0.144016 -0.189051 -6.21754e-20)
(-0.141651 -0.188867 -5.51052e-20)
(-0.1372 -0.18589 -5.02631e-20)
(-0.130584 -0.179752 0)
(-0.121733 -0.170073 -7.25991e-20)
(-0.110627 -0.156382 -5.88434e-20)
(-0.0968853 -0.137956 9.20814e-20)
(-0.0788847 -0.113675 9.77534e-20)
(-0.0578664 -0.0827793 -8.86534e-20)
(-0.000493767 -0.0057491 0)
(-0.00440801 -0.0216935 -1.48438e-19)
(-0.0148279 -0.0396583 -6.58044e-22)
(-0.0283465 -0.0567301 1.32406e-19)
(-0.0428486 -0.0719445 0)
(-0.0570927 -0.0853877 0)
(-0.0701571 -0.0975038 0)
(-0.0813996 -0.108766 -5.19487e-20)
(-0.0904285 -0.119516 3.85076e-22)
(-0.0970297 -0.129903 9.19457e-20)
(-0.101099 -0.139894 -1.2714e-19)
(-0.102597 -0.149314 7.19599e-22)
(-0.101513 -0.15789 0)
(-0.0978592 -0.165292 -6.79291e-20)
(-0.0916553 -0.17116 5.88871e-20)
(-0.0829298 -0.17513 -1.69161e-19)
(-0.0717146 -0.176847 1.99169e-19)
(-0.0580363 -0.175987 3.62343e-20)
(-0.0418991 -0.17226 -1.03713e-20)
(-0.0232853 -0.165412 -1.43949e-19)
(-0.00221126 -0.155181 -5.81059e-20)
(0.0213498 -0.141103 1.73221e-19)
(0.0484277 -0.121909 -1.08985e-19)
(0.0836108 -0.0942916 0)
(-0.00275805 0.000790859 7.23164e-20)
(-0.00841667 -0.00659805 7.42807e-20)
(-0.0182261 -0.0192752 -7.12272e-20)
(-0.029623 -0.0334353 -1.34028e-19)
(-0.0409296 -0.0473925 1.26211e-19)
(-0.0511152 -0.0606542 -1.19177e-19)
(-0.0593622 -0.0732351 1.68525e-19)
(-0.0650649 -0.085307 -5.17205e-20)
(-0.0678288 -0.0970243 9.88648e-20)
(-0.0674192 -0.108434 0)
(-0.063711 -0.119457 8.46508e-20)
(-0.0566534 -0.129903 -1.60189e-19)
(-0.046249 -0.1395 1.44453e-19)
(-0.0325432 -0.147926 -1.35676e-19)
(-0.0156195 -0.154828 0)
(0.00440464 -0.159851 1.10086e-19)
(0.0273829 -0.162658 1.90016e-19)
(0.0531508 -0.162951 -1.7921e-19)
(0.0815451 -0.16049 -7.53106e-20)
(0.11242 -0.155113 -6.09258e-20)
(0.145609 -0.146762 1.76269e-19)
(0.181134 -0.135382 4.0004e-20)
(0.21832 -0.120457 -4.27074e-20)
(0.270114 -0.0974598 3.10869e-20)
(-0.00523313 0.00607502 -7.23261e-20)
(-0.0126682 0.00591404 2.28038e-19)
(-0.0213489 -0.00201454 -7.1783e-20)
(-0.0297093 -0.0133964 1.35676e-19)
(-0.0365939 -0.0260203 -1.2776e-19)
(-0.0412226 -0.0389304 8.06352e-22)
(-0.0429186 -0.0517472 5.70295e-20)
(-0.0411205 -0.06436 2.13646e-19)
(-0.0354353 -0.0767384 -1.21294e-21)
(-0.0256147 -0.0888155 -9.32105e-20)
(-0.0115271 -0.100448 0)
(0.00686027 -0.111411 -7.83094e-20)
(0.0294902 -0.121416 1.48321e-19)
(0.0562203 -0.130129 1.31572e-19)
(0.0868269 -0.137196 -6.28852e-20)
(0.121013 -0.142268 -2.5164e-22)
(0.158419 -0.145023 -4.87856e-20)
(0.198647 -0.145193 8.51893e-20)
(0.241281 -0.142582 7.52793e-20)
(0.285935 -0.137079 -6.49807e-20)
(0.332033 -0.128758 5.43597e-20)
(0.38056 -0.117398 -4.56425e-20)
(0.424688 -0.104487 0)
(0.49519 -0.0839626 -3.10263e-20)
(-0.00758884 0.00984237 7.42838e-20)
(-0.0165004 0.0152106 -7.63364e-20)
(-0.0234239 0.0112551 7.3418e-20)
(-0.02779 0.00238987 0)
(-0.0289989 -0.00888708 0)
(-0.0265224 -0.0212584 1.23771e-19)
(-0.0198155 -0.0340215 -1.14923e-19)
(-0.00840567 -0.0468243 1.07836e-19)
(0.00807285 -0.0594572 -5.04107e-19)
(0.029843 -0.0717263 8.75384e-22)
(0.0569816 -0.0834073 8.74521e-20)
(0.0894176 -0.0942251 0)
(0.126928 -0.10386 -1.45261e-19)
(0.169141 -0.111965 2.68247e-19)
(0.215541 -0.11819 -1.84446e-19)
(0.265495 -0.12221 -2.6618e-19)
(0.318282 -0.12375 1.16409e-20)
(0.373134 -0.122608 1.75352e-19)
(0.429271 -0.118682 0)
(0.48608 -0.111913 0)
(0.54215 -0.102717 -5.43437e-20)
(0.600564 -0.0901004 4.56289e-20)
(0.646997 -0.0778428 -1.42722e-19)
(0.728048 -0.0570069 1.33949e-19)
(-0.00952916 0.0120262 0)
(-0.0192794 0.0210017 0)
(-0.023689 0.02001 -2.21666e-19)
(-0.0230519 0.0132187 7.02583e-20)
(-0.0172568 0.00321225 -3.78382e-23)
(-0.00604531 -0.00845964 1.25497e-19)
(0.0109687 -0.0208702 0)
(0.0341484 -0.0334584 -1.09589e-19)
(0.0637548 -0.0458428 1.01342e-19)
(0.0998879 -0.0577027 -1.89068e-19)
(0.142431 -0.0687283 1.40844e-21)
(0.191039 -0.0785909 1.59821e-19)
(0.245123 -0.0869481 -4.27417e-21)
(0.303867 -0.0934627 1.27261e-19)
(0.366256 -0.0978277 -1.87374e-19)
(0.431135 -0.0997938 0)
(0.497276 -0.0991932 1.86912e-19)
(0.563458 -0.0959565 -2.60296e-19)
(0.628507 -0.0901429 7.39774e-20)
(0.691616 -0.0817837 0)
(0.750929 -0.0716346 5.51146e-20)
(0.810105 -0.0583227 1.77032e-19)
(0.853945 -0.0466081 -1.66142e-19)
(0.928088 -0.0265147 -1.61067e-19)
(-0.0108324 0.012739 2.31821e-19)
(-0.0204419 0.0233483 -3.19785e-19)
(-0.0213782 0.0241501 2.05265e-23)
(-0.0145902 0.0188431 7.15457e-20)
(-0.000373884 0.00993172 -1.34448e-19)
(0.0212853 -0.000928774 -1.24742e-19)
(0.0505686 -0.0126514 2.34922e-19)
(0.0876515 -0.0245125 -2.35603e-21)
(0.13256 -0.0359836 -2.06397e-19)
(0.185077 -0.0466391 3.80432e-19)
(0.244664 -0.056098 -3.59043e-21)
(0.310434 -0.0640066 -1.6425e-19)
(0.381164 -0.0700457 0)
(0.455341 -0.0739506 0)
(0.531261 -0.0755333 -6.074e-20)
(0.607137 -0.0747031 -1.08243e-19)
(0.681229 -0.0714767 -1.86724e-19)
(0.751958 -0.0659836 1.75276e-19)
(0.817997 -0.0584563 -7.40004e-20)
(0.878407 -0.0491578 1.23626e-19)
(0.932126 -0.0387283 -6.46731e-20)
(0.980906 -0.0264991 8.31155e-20)
(1.01669 -0.0160041 -2.13429e-19)
(1.06804 0.000761155 3.39396e-20)
(-0.0113547 0.0122231 7.84362e-20)
(-0.019492 0.0226206 0)
(-0.0156862 0.0240078 1.53282e-19)
(-0.00133407 0.0195283 -1.44398e-19)
(0.0229504 0.0115076 1.34563e-19)
(0.0569367 0.00162116 0)
(0.100529 -0.0089554 0)
(0.153555 -0.0193859 -1.10511e-19)
(0.21558 -0.0290461 2.3521e-21)
(0.285773 -0.0374473 9.74659e-20)
(0.362837 -0.0441983 -8.66705e-20)
(0.445014 -0.0489987 1.64531e-19)
(0.53017 -0.0516479 0)
(0.615938 -0.0520571 2.63221e-19)
(0.699902 -0.0502573 -4.83208e-19)
(0.779786 -0.0463963 3.29931e-19)
(0.853631 -0.0407225 1.86016e-19)
(0.919912 -0.0335733 -1.74621e-19)
(0.977641 -0.0253006 0)
(1.02629 -0.0163826 0)
(1.06605 -0.00704981 0)
(1.0973 0.00220353 0)
(1.11993 0.0105734 4.16535e-20)
(1.14342 0.0215567 -1.42977e-19)
(-0.132178 0.0426411 -7.73046e-21)
(-0.11173 0.11738 7.75433e-21)
(-0.0885166 0.198083 -2.0864e-22)
(-0.0626789 0.280631 0)
(-0.0353159 0.361213 -5.90674e-21)
(-0.00783001 0.435932 1.1002e-20)
(0.0181498 0.501227 -4.83951e-22)
(0.0413151 0.554563 -4.50021e-21)
(0.0617903 0.592829 0)
(0.0820714 0.61388 0)
(0.107141 0.612667 -1.93361e-22)
(0.143307 0.581891 -1.9213e-22)
(0.195401 0.514663 -3.37956e-21)
(0.263264 0.40892 3.09119e-21)
(0.341538 0.269359 0)
(0.422977 0.104958 0)
(0.50242 -0.0728423 3.22776e-21)
(0.576386 -0.246263 -2.86278e-22)
(0.639946 -0.391709 -2.6023e-21)
(0.688255 -0.490474 -1.33995e-22)
(0.719004 -0.539792 0)
(0.732857 -0.551119 0)
(0.734261 -0.53917 0)
(0.727344 -0.518922 0)
(0.708942 -0.508264 0)
(0.673588 -0.514533 0)
(0.628005 -0.51471 4.18963e-22)
(0.594484 -0.46032 -6.50519e-22)
(0.592968 -0.321371 0)
(0.624653 -0.117001 0)
(0.675575 0.0957848 -6.14789e-22)
(0.729646 0.267732 5.97492e-22)
(0.774472 0.376489 2.13024e-22)
(0.806688 0.425992 0)
(0.826721 0.439931 0)
(0.827388 0.449682 2.52587e-22)
(0.801786 0.474138 -2.45534e-22)
(0.758867 0.476295 0)
(0.722376 0.413364 3.36426e-22)
(0.714652 0.255198 -5.12606e-22)
(0.732589 0.0547707 1.89374e-22)
(0.768421 -0.136789 0)
(0.807465 -0.268219 -2.34333e-22)
(0.837255 -0.336401 2.2786e-22)
(0.841956 -0.381586 0)
(0.809032 -0.394168 0)
(0.763987 -0.397411 -7.25616e-23)
(0.735811 -0.289463 2.09659e-22)
(0.743186 -0.151665 0)
(0.779698 0.0314291 0)
(0.816206 0.175299 -5.66141e-23)
(0.819483 0.264093 3.48818e-24)
(0.802558 0.376143 -4.61709e-24)
(0.779271 0.319004 4.03548e-23)
(0.7826 0.298788 0)
(0.800664 0.105146 0)
(0.812529 -0.0644277 0)
(0.803971 -0.163163 0)
(0.806927 -0.387641 0)
(0.787546 -0.209496 0)
(-0.201828 0.0177724 -6.21062e-22)
(-0.185702 0.0887468 -2.55955e-20)
(-0.166518 0.165864 1.17188e-21)
(-0.14305 0.246114 2.29535e-20)
(-0.115761 0.325854 2.93236e-22)
(-0.0854097 0.401413 0)
(-0.0526652 0.469102 -1.6035e-20)
(-0.0186419 0.524313 3.04941e-20)
(0.0180552 0.563164 -1.44641e-20)
(0.0608668 0.581958 1.27751e-20)
(0.112563 0.574734 -1.22229e-20)
(0.176369 0.535348 1.28895e-20)
(0.253116 0.459875 -1.25253e-20)
(0.339314 0.34939 -4.50767e-22)
(0.428529 0.209718 -1.5099e-20)
(0.514756 0.0481994 1.46719e-20)
(0.594957 -0.125534 -1.40149e-20)
(0.665927 -0.293241 1.31983e-20)
(0.721917 -0.430005 -1.03034e-20)
(0.758283 -0.517179 1.79434e-20)
(0.775088 -0.554027 -7.73513e-21)
(0.775429 -0.55487 -3.31621e-22)
(0.764595 -0.535956 -3.91172e-21)
(0.74803 -0.509948 7.23226e-21)
(0.724123 -0.491515 -3.33413e-21)
(0.685453 -0.49022 1.89421e-22)
(0.633813 -0.490392 3.86011e-21)
(0.58865 -0.447775 7.93805e-22)
(0.573504 -0.327145 -8.93653e-21)
(0.595063 -0.138388 9.42746e-21)
(0.641713 0.0669986 -4.66967e-21)
(0.696667 0.240322 4.73034e-22)
(0.746787 0.355184 -2.13471e-22)
(0.787259 0.411962 3.13554e-22)
(0.815242 0.434254 0)
(0.821555 0.453896 0)
(0.800145 0.486797 -1.08674e-21)
(0.763535 0.491183 7.67131e-22)
(0.734479 0.422865 1.12202e-21)
(0.733858 0.255639 3.47288e-22)
(0.754989 0.0469751 -1.73575e-21)
(0.789964 -0.148544 3.62638e-22)
(0.823964 -0.279398 0)
(0.84864 -0.341622 0)
(0.850915 -0.377438 0)
(0.815509 -0.382697 0)
(0.769024 -0.386661 2.47826e-22)
(0.736197 -0.286383 -1.39215e-22)
(0.742569 -0.158083 0)
(0.776561 0.0215778 0)
(0.812235 0.169583 0)
(0.815047 0.265431 -8.82356e-23)
(0.79748 0.380645 7.43721e-24)
(0.776922 0.321132 -8.23592e-23)
(0.780254 0.296393 0)
(0.804084 0.10228 0)
(0.817828 -0.0652642 6.94646e-23)
(0.809954 -0.162216 1.96072e-22)
(0.813092 -0.385973 0)
(0.790772 -0.208169 0)
(-0.212927 -0.00555636 -1.23133e-21)
(-0.202337 0.059364 -4.31382e-20)
(-0.187836 0.131462 3.91742e-20)
(-0.167488 0.207657 -3.67359e-20)
(-0.140756 0.284229 -2.95292e-22)
(-0.107598 0.358704 0)
(-0.0689372 0.424752 -2.77597e-20)
(-0.02497 0.47803 2.71222e-20)
(0.0268473 0.515492 2.04031e-22)
(0.0883742 0.531205 3.59081e-22)
(0.1603 0.519278 3.73633e-22)
(0.243027 0.475061 3.99296e-22)
(0.334677 0.396917 -2.91466e-20)
(0.43036 0.287683 2.87752e-20)
(0.523859 0.153011 0)
(0.610609 -0.00164753 1.00105e-21)
(0.689203 -0.168229 -2.95233e-20)
(0.756 -0.328073 2.91077e-20)
(0.803583 -0.455126 0)
(0.827545 -0.53148 0)
(0.830418 -0.558264 -1.31019e-20)
(0.818044 -0.551431 2.27015e-20)
(0.796326 -0.528087 -1.72184e-20)
(0.770981 -0.498766 1.18151e-21)
(0.742141 -0.474205 1.22013e-20)
(0.701642 -0.465177 -1.19738e-20)
(0.64633 -0.463895 1.18801e-20)
(0.591382 -0.432319 6.66755e-22)
(0.562635 -0.331176 -7.09987e-21)
(0.572594 -0.160188 0)
(0.613226 0.0358966 0)
(0.66763 0.20931 2.40597e-21)
(0.72208 0.329668 -3.20181e-21)
(0.770064 0.39406 -2.89297e-23)
(0.805424 0.425621 2.09099e-21)
(0.817421 0.455742 -2.0321e-21)
(0.800873 0.497232 0)
(0.771166 0.504287 2.90448e-22)
(0.749548 0.431701 3.5088e-21)
(0.755744 0.257131 -7.35581e-21)
(0.78008 0.0419239 3.33021e-21)
(0.814074 -0.157084 4.08842e-22)
(0.842808 -0.287844 -2.69911e-21)
(0.861879 -0.345226 2.0368e-21)
(0.861629 -0.372619 3.33135e-22)
(0.824108 -0.37086 2.6136e-22)
(0.776668 -0.375752 -2.48445e-22)
(0.739383 -0.283562 0)
(0.744552 -0.164928 0)
(0.775516 0.0112472 -8.1546e-22)
(0.810103 0.163615 4.05249e-22)
(0.812382 0.266387 -3.49364e-22)
(0.793981 0.384952 5.24303e-22)
(0.775908 0.323185 7.24767e-22)
(0.779224 0.293636 -1.62016e-22)
(0.808888 0.0990818 3.60543e-22)
(0.82451 -0.0662323 -3.25454e-22)
(0.817126 -0.161068 1.71883e-22)
(0.820165 -0.383991 0)
(0.794857 -0.206713 0)
(-0.162362 -0.0256012 -7.10416e-20)
(-0.157938 0.0315849 4.33643e-21)
(-0.146919 0.0975753 6.29716e-20)
(-0.130159 0.168619 -5.11585e-22)
(-0.104522 0.23971 0)
(-0.0708605 0.308456 0)
(-0.0299018 0.369564 -4.56908e-20)
(0.0212134 0.420037 -4.12576e-22)
(0.0832053 0.454932 6.5458e-20)
(0.156091 0.467806 1.29599e-21)
(0.239415 0.453381 -2.29958e-20)
(0.331653 0.408225 -2.66168e-20)
(0.429392 0.332132 2.66331e-20)
(0.527311 0.228669 0)
(0.620033 0.102467 -3.29081e-20)
(0.705109 -0.0433225 2.99442e-20)
(0.781658 -0.201525 0)
(0.844125 -0.352762 0)
(0.883237 -0.469801 2.1741e-20)
(0.894969 -0.536007 -4.15684e-21)
(0.884379 -0.554567 -1.60337e-20)
(0.86016 -0.542203 -1.01552e-20)
(0.828953 -0.516193 1.00567e-20)
(0.795809 -0.485679 -6.49983e-21)
(0.762258 -0.457195 7.90433e-22)
(0.721009 -0.440566 5.34508e-21)
(0.664827 -0.435426 6.43677e-22)
(0.602862 -0.412658 7.0753e-23)
(0.561053 -0.331654 0)
(0.55789 -0.180783 6.91279e-21)
(0.590634 0.00411136 -7.10912e-21)
(0.642929 0.175383 4.16749e-22)
(0.700518 0.300344 0)
(0.755033 0.37248 -2.88217e-22)
(0.797085 0.413871 4.00146e-21)
(0.814787 0.454674 -7.53655e-21)
(0.803634 0.504803 -1.15955e-21)
(0.781128 0.515212 -1.07916e-21)
(0.7669 0.439981 4.66509e-21)
(0.779685 0.260021 8.63898e-22)
(0.807126 0.039355 -6.91093e-21)
(0.840159 -0.162512 5.93844e-21)
(0.863754 -0.293665 -2.50875e-23)
(0.876839 -0.347412 1.60695e-21)
(0.873862 -0.367403 -1.89649e-21)
(0.834482 -0.358843 -1.73476e-21)
(0.786542 -0.364569 5.19421e-22)
(0.745034 -0.280733 8.23852e-22)
(0.748815 -0.171972 -1.58097e-21)
(0.776378 0.000511244 1.15837e-21)
(0.809729 0.157365 -3.66977e-22)
(0.811485 0.266921 3.36526e-22)
(0.792146 0.389101 3.23242e-22)
(0.776376 0.32523 -1.12233e-21)
(0.779632 0.290566 -5.1345e-24)
(0.815084 0.0956045 -4.26634e-22)
(0.832528 -0.0673026 0)
(0.825469 -0.159707 -1.66912e-22)
(0.828111 -0.38168 2.45291e-22)
(0.79975 -0.205117 0)
(-0.0599082 -0.0423056 5.69201e-20)
(-0.0609957 0.0083262 -1.06506e-19)
(-0.0515989 0.0664206 4.91814e-20)
(-0.0385458 0.128259 4.24837e-20)
(-0.0176388 0.191689 -8.12814e-20)
(0.0143811 0.252983 1.07349e-21)
(0.0563982 0.309415 3.70495e-20)
(0.109968 0.356292 3.7856e-20)
(0.175194 0.387873 -3.71104e-20)
(0.251679 0.398606 0)
(0.338081 0.383879 -4.87635e-20)
(0.43181 0.340983 1.01644e-19)
(0.528829 0.270262 -5.27502e-20)
(0.623988 0.175191 0)
(0.713166 0.0591166 0)
(0.795757 -0.0768455 1.02953e-21)
(0.870408 -0.225904 -6.09109e-20)
(0.928416 -0.36719 5.91646e-20)
(0.958644 -0.473369 0)
(0.958343 -0.530084 3.54287e-20)
(0.93527 -0.542633 -5.93004e-20)
(0.900547 -0.527443 4.49803e-20)
(0.86157 -0.5007 -3.47943e-20)
(0.822132 -0.470707 2.6499e-21)
(0.784269 -0.440775 2.2156e-20)
(0.742712 -0.41799 -1.01068e-20)
(0.687987 -0.407212 -2.98531e-22)
(0.622422 -0.389767 -4.5889e-21)
(0.569182 -0.327699 -6.94966e-22)
(0.551971 -0.198902 5.30626e-21)
(0.574462 -0.027934 3.968e-22)
(0.622678 0.139048 -4.91571e-21)
(0.682187 0.267522 8.99901e-21)
(0.741997 0.347224 -4.54987e-21)
(0.789931 0.398638 0)
(0.81331 0.450093 -4.51456e-21)
(0.807963 0.508991 4.44404e-21)
(0.792792 0.523776 -5.12972e-21)
(0.78583 0.447874 6.37015e-21)
(0.804742 0.264256 -9.33663e-22)
(0.8354 0.0392496 0)
(0.8678 -0.164782 -8.46991e-22)
(0.886459 -0.296694 1.94848e-21)
(0.893294 -0.348042 0)
(0.887406 -0.361807 3.0312e-21)
(0.846361 -0.346777 -1.30457e-21)
(0.798264 -0.353154 4.23733e-22)
(0.752765 -0.277782 3.41911e-22)
(0.754987 -0.179065 0)
(0.778909 -0.0105815 0)
(0.810975 0.150764 -9.55426e-22)
(0.812321 0.266966 1.55406e-21)
(0.792047 0.393096 -9.71425e-22)
(0.778461 0.32733 3.38084e-22)
(0.781582 0.287219 7.93773e-22)
(0.822663 0.0918335 4.2704e-22)
(0.841828 -0.0684635 -7.86039e-22)
(0.834957 -0.158101 0)
(0.836877 -0.378994 -3.88998e-22)
(0.805393 -0.203366 -2.99832e-23)
(0.0842838 -0.0580154 4.87136e-20)
(0.0758274 -0.0131172 -4.82704e-20)
(0.0784719 0.0358893 3.40628e-22)
(0.0883304 0.0883328 -2.45235e-22)
(0.10639 0.144331 2.84047e-22)
(0.134923 0.199445 -2.68342e-22)
(0.174339 0.250357 4.31445e-22)
(0.225422 0.292344 0)
(0.288316 0.32047 -5.02082e-22)
(0.362305 0.329879 5.69347e-22)
(0.44559 0.316477 6.53044e-22)
(0.535257 0.277836 -7.87914e-22)
(0.627318 0.214211 0)
(0.717255 0.128344 0)
(0.802298 0.0219191 9.65933e-22)
(0.882692 -0.103848 0)
(0.955167 -0.242602 -9.46581e-22)
(1.00757 -0.372262 0)
(1.02802 -0.466927 -4.20218e-20)
(1.01607 -0.515187 7.52141e-20)
(0.982076 -0.523906 -5.84022e-20)
(0.938604 -0.50832 2.53489e-20)
(0.893518 -0.482527 1.49757e-20)
(0.849351 -0.454132 -1.4544e-20)
(0.80768 -0.424722 -9.7132e-21)
(0.765745 -0.397932 9.39264e-21)
(0.714085 -0.38081 0)
(0.648634 -0.364841 2.04381e-22)
(0.586789 -0.318711 0)
(0.555222 -0.213147 0)
(0.565453 -0.0596988 8.5604e-21)
(0.607561 0.10103 -8.8068e-21)
(0.667151 0.231582 4.16939e-22)
(0.730734 0.318318 4.52615e-22)
(0.783644 0.379636 -3.82038e-22)
(0.812599 0.441515 -3.8642e-21)
(0.813299 0.50934 3.75221e-21)
(0.80543 0.52979 -6.45892e-21)
(0.805525 0.455366 5.65418e-21)
(0.830208 0.269885 1.8952e-21)
(0.864194 0.0415457 -7.4985e-21)
(0.896321 -0.163976 1.53002e-22)
(0.910516 -0.296892 4.73152e-21)
(0.910966 -0.347072 0)
(0.902003 -0.355906 -1.3344e-21)
(0.859455 -0.33477 1.24356e-21)
(0.811423 -0.341479 -1.68353e-21)
(0.762152 -0.274561 -3.44076e-22)
(0.762652 -0.186069 0)
(0.782825 -0.0220278 3.00548e-22)