/*--------------------------------*- C++ -*----------------------------------*\
| =========                 |                                                 |
| \\      /  F ield         | OpenFOAM: The Open Source CFD Toolbox           |
|  \\    /   O peration     | Version:  2512                                  |
|   \\  /    A nd           | Website:  www.openfoam.com                      |
|    \\/     M anipulation  |                                                 |
\*---------------------------------------------------------------------------*/
FoamFile
{
    version     2.0;
    format      ascii;
    arch        "LSB;label=32;scalar=64";
    class       volScalarField;
    location    "91.75";
    object      p;
}
// * * * * * * * * * * * * * * * * * * * * * * * * * * * * * * * * * * * * * //

dimensions      [0 2 -2 0 0 0 0];

internalField   nonuniform List<scalar> 
13248
(
-0.421688
-0.419091
-0.416571
-0.414235
-0.412148
-0.410372
-0.40883
-0.407302
-0.405466
-0.402929
-0.399275
-0.394113
-0.387123
-0.378105
-0.366999
-0.353894
-0.339004
-0.322642
-0.305165
-0.286954
-0.268275
-0.249502
-0.230172
-0.210841
-0.430323
-0.427014
-0.423679
-0.420444
-0.417381
-0.414561
-0.411893
-0.409123
-0.405889
-0.40178
-0.396393
-0.389397
-0.380579
-0.369874
-0.357363
-0.343254
-0.327841
-0.311459
-0.294444
-0.277103
-0.259673
-0.242389
-0.225158
-0.208538
-0.440051
-0.435895
-0.431687
-0.427537
-0.423479
-0.419561
-0.41565
-0.411444
-0.406555
-0.400581
-0.393188
-0.384161
-0.373436
-0.361098
-0.347355
-0.332489
-0.316816
-0.300644
-0.284244
-0.267844
-0.251607
-0.235708
-0.220075
-0.20496
-0.451208
-0.446033
-0.440883
-0.435792
-0.430689
-0.425557
-0.420199
-0.414267
-0.407379
-0.399206
-0.389545
-0.37835
-0.365723
-0.351881
-0.337109
-0.321708
-0.305958
-0.2901
-0.274322
-0.258775
-0.243566
-0.228809
-0.214447
-0.200752
-0.463951
-0.457585
-0.451413
-0.445324
-0.439067
-0.432519
-0.425413
-0.417391
-0.408139
-0.397478
-0.385395
-0.372031
-0.357631
-0.342495
-0.32692
-0.311167
-0.295446
-0.279916
-0.26469
-0.249851
-0.235461
-0.221574
-0.208153
-0.195382
-0.478251
-0.470549
-0.463278
-0.456095
-0.448492
-0.440221
-0.430971
-0.420443
-0.408482
-0.395128
-0.380583
-0.365153
-0.349172
-0.332952
-0.316747
-0.300746
-0.285079
-0.269829
-0.255048
-0.24077
-0.227018
-0.213809
-0.201121
-0.189078
-0.493884
-0.484759
-0.476317
-0.46789
-0.458653
-0.44824
-0.436376
-0.422926
-0.407987
-0.391854
-0.374927
-0.357616
-0.34027
-0.323157
-0.306455
-0.290268
-0.274651
-0.259627
-0.245201
-0.231371
-0.21813
-0.205468
-0.193374
-0.181888
-0.510426
-0.499864
-0.49018
-0.480288
-0.469018
-0.455958
-0.440992
-0.424273
-0.406211
-0.387347
-0.368215
-0.349249
-0.330752
-0.312906
-0.295801
-0.279463
-0.263885
-0.249044
-0.234908
-0.221449
-0.208637
-0.196447
-0.184865
-0.173857
-0.527244
-0.515303
-0.504294
-0.492635
-0.478847
-0.462605
-0.444114
-0.423917
-0.402747
-0.381329
-0.360241
-0.339868
-0.320421
-0.301984
-0.284559
-0.268108
-0.252574
-0.237898
-0.224022
-0.210894
-0.198468
-0.186708
-0.175587
-0.165009
-0.54348
-0.530279
-0.517828
-0.504021
-0.487193
-0.467299
-0.44502
-0.421333
-0.397238
-0.373547
-0.350795
-0.329267
-0.30906
-0.29016
-0.272498
-0.255981
-0.240516
-0.226014
-0.212394
-0.199587
-0.187531
-0.176182
-0.165486
-0.15532
-0.558075
-0.54376
-0.529702
-0.513315
-0.492958
-0.469083
-0.442948
-0.415938
-0.38922
-0.36359
-0.339477
-0.317034
-0.296246
-0.277016
-0.259211
-0.242699
-0.227354
-0.213064
-0.199731
-0.187267
-0.175599
-0.164668
-0.15439
-0.144648
-0.569868
-0.554622
-0.538772
-0.519361
-0.495043
-0.46697
-0.437029
-0.406938
-0.377925
-0.350689
-0.325505
-0.302388
-0.281214
-0.26181
-0.243993
-0.227594
-0.212462
-0.198465
-0.185488
-0.173433
-0.162218
-0.151767
-0.141967
-0.132753
-0.325537
-0.328075
-0.329621
-0.330615
-0.331449
-0.332237
-0.333027
-0.333845
-0.334693
-0.335557
-0.336417
-0.337255
-0.338057
-0.338817
-0.339536
-0.340227
-0.340913
-0.34163
-0.342429
-0.343374
-0.344513
-0.345841
-0.347413
-0.34967
-0.330154
-0.333018
-0.33483
-0.336093
-0.337228
-0.338339
-0.339457
-0.340584
-0.341699
-0.342755
-0.343698
-0.344463
-0.344984
-0.345194
-0.345029
-0.344431
-0.343351
-0.341756
-0.339642
-0.337034
-0.333939
-0.330283
-0.32622
-0.322893
-0.336173
-0.339156
-0.34113
-0.342611
-0.344024
-0.345452
-0.346906
-0.348365
-0.349778
-0.351068
-0.35214
-0.352883
-0.353175
-0.352884
-0.351874
-0.35001
-0.347165
-0.343227
-0.338123
-0.331829
-0.324307
-0.315415
-0.305343
-0.296003
-0.343549
-0.346426
-0.348435
-0.350069
-0.351713
-0.353429
-0.355209
-0.356998
-0.358725
-0.360275
-0.361514
-0.362285
-0.362409
-0.361692
-0.359928
-0.356906
-0.352423
-0.34629
-0.338365
-0.328569
-0.316851
-0.303048
-0.287227
-0.271706
-0.352054
-0.354606
-0.356516
-0.358211
-0.36002
-0.361976
-0.364024
-0.366094
-0.368118
-0.369915
-0.371317
-0.372124
-0.372107
-0.371011
-0.368568
-0.364502
-0.358543
-0.350446
-0.340011
-0.327115
-0.311721
-0.293747
-0.273021
-0.251135
-0.36132
-0.363361
-0.365036
-0.366682
-0.368548
-0.370637
-0.372883
-0.375193
-0.377382
-0.379336
-0.380825
-0.381602
-0.381391
-0.379887
-0.376768
-0.371711
-0.364405
-0.354578
-0.342014
-0.326582
-0.308272
-0.287144
-0.263089
-0.236291
-0.370906
-0.372303
-0.373616
-0.375082
-0.376863
-0.378938
-0.381219
-0.383574
-0.385828
-0.387798
-0.389222
-0.389819
-0.389271
-0.387234
-0.383349
-0.377267
-0.368669
-0.357295
-0.34297
-0.325626
-0.305335
-0.282222
-0.256789
-0.227932
-0.380385
-0.381071
-0.381909
-0.383048
-0.384575
-0.386452
-0.388575
-0.390793
-0.392914
-0.394668
-0.395809
-0.396012
-0.394923
-0.392167
-0.387372
-0.380188
-0.370323
-0.357571
-0.341845
-0.323181
-0.301822
-0.277861
-0.252769
-0.223807
-0.389441
-0.389407
-0.389679
-0.390341
-0.391426
-0.392898
-0.394643
-0.396489
-0.398213
-0.399544
-0.400173
-0.399751
-0.397899
-0.394233
-0.388385
-0.38004
-0.368966
-0.355053
-0.338329
-0.318953
-0.297357
-0.273578
-0.249611
-0.222222
-0.39793
-0.397211
-0.396849
-0.396893
-0.397358
-0.398218
-0.399367
-0.400617
-0.401725
-0.402393
-0.402279
-0.401007
-0.398187
-0.393437
-0.386424
-0.376895
-0.364714
-0.349889
-0.33258
-0.313073
-0.291896
-0.269186
-0.246712
-0.221823
-0.405926
-0.404568
-0.403518
-0.402824
-0.402511
-0.402582
-0.402938
-0.403392
-0.403677
-0.403467
-0.402393
-0.400059
-0.396074
-0.390086
-0.38182
-0.371116
-0.357951
-0.342456
-0.324899
-0.305672
-0.285292
-0.264129
-0.243381
-0.221267
-0.413706
-0.411734
-0.409952
-0.408435
-0.407232
-0.406383
-0.405809
-0.40531
-0.404597
-0.403317
-0.401071
-0.397456
-0.392099
-0.384702
-0.375083
-0.363194
-0.349136
-0.333142
-0.315543
-0.296758
-0.277186
-0.257355
-0.237912
-0.21871
-0.353557
-0.359101
-0.36448
-0.368446
-0.369556
-0.366295
-0.357523
-0.341525
-0.319173
-0.290767
-0.258707
-0.226532
-0.197729
-0.175159
-0.160985
-0.156836
-0.163563
-0.179917
-0.201113
-0.219097
-0.225296
-0.213562
-0.187076
-0.153604
-0.122005
-0.0976901
-0.0822931
-0.0750549
-0.0745095
-0.0807591
-0.09528
-0.115671
-0.132604
-0.135691
-0.12323
-0.102181
-0.0823095
-0.0690137
-0.0622141
-0.0611648
-0.0678201
-0.0818196
-0.0935955
-0.0935861
-0.0823341
-0.06689
-0.0547275
-0.0460475
-0.0428443
-0.0442973
-0.0449867
-0.0429018
-0.0398302
-0.0348839
-0.0310306
-0.0274769
-0.0228181
-0.0225332
-0.0195652
-0.00710077
-0.320897
-0.31972
-0.31917
-0.318298
-0.316075
-0.3112
-0.302735
-0.289235
-0.272586
-0.250771
-0.226047
-0.201814
-0.180718
-0.165483
-0.158493
-0.161554
-0.175165
-0.197164
-0.221902
-0.241016
-0.245865
-0.231582
-0.201205
-0.163594
-0.12826
-0.100713
-0.0823482
-0.0722737
-0.0689749
-0.0721026
-0.0829263
-0.0999335
-0.115244
-0.119469
-0.109956
-0.0926475
-0.0764601
-0.0664399
-0.0623305
-0.0638749
-0.0732759
-0.0898788
-0.103231
-0.102778
-0.089782
-0.0713662
-0.0565327
-0.0455312
-0.0404222
-0.0397441
-0.0391874
-0.0373985
-0.0352146
-0.0321781
-0.0298035
-0.0284726
-0.025117
-0.0254814
-0.0225997
-0.00822451
-0.288308
-0.279611
-0.272345
-0.265648
-0.259112
-0.251766
-0.242559
-0.231414
-0.217488
-0.203272
-0.185817
-0.169772
-0.156761
-0.149511
-0.150412
-0.161062
-0.181288
-0.208088
-0.235476
-0.255363
-0.259598
-0.243644
-0.210724
-0.170302
-0.132306
-0.102329
-0.0815672
-0.0690062
-0.0631332
-0.0632922
-0.0704779
-0.0840141
-0.0975422
-0.102698
-0.095923
-0.082287
-0.0697843
-0.0630631
-0.0616955
-0.0658902
-0.0779857
-0.0970359
-0.111892
-0.111199
-0.0966184
-0.0754234
-0.0580188
-0.0448615
-0.038065
-0.0355028
-0.0337765
-0.0320947
-0.0306247
-0.0293791
-0.0284829
-0.0294972
-0.0274617
-0.0283694
-0.0255617
-0.00933115
-0.259186
-0.242844
-0.228727
-0.215751
-0.204153
-0.193605
-0.183052
-0.172157
-0.16104
-0.151679
-0.141599
-0.133239
-0.128262
-0.129159
-0.137957
-0.155723
-0.18159
-0.212105
-0.241405
-0.261958
-0.266203
-0.249602
-0.215501
-0.173668
-0.134192
-0.102668
-0.0801583
-0.0655738
-0.0574301
-0.0548703
-0.0586226
-0.0686698
-0.080176
-0.0857636
-0.0815361
-0.0714028
-0.0624545
-0.0589309
-0.0602309
-0.0669914
-0.0816265
-0.102969
-0.119322
-0.11858
-0.102695
-0.0790011
-0.0591859
-0.0440597
-0.0358029
-0.0316247
-0.0288111
-0.0270668
-0.0261148
-0.0265201
-0.02708
-0.0305494
-0.029844
-0.0311717
-0.0284212
-0.0104092
-0.236032
-0.212757
-0.19246
-0.173565
-0.156686
-0.142191
-0.129564
-0.116772
-0.108171
-0.104064
-0.0986241
-0.096659
-0.0988577
-0.107123
-0.122891
-0.146558
-0.17669
-0.209708
-0.240192
-0.261251
-0.26594
-0.249673
-0.215772
-0.173971
-0.134246
-0.102022
-0.0783561
-0.0622178
-0.0521752
-0.0472615
-0.0478685
-0.0544856
-0.0637414
-0.0693242
-0.0672332
-0.0602884
-0.0546239
-0.0540604
-0.0578411
-0.0669861
-0.0839609
-0.107442
-0.125281
-0.124676
-0.107878
-0.0820581
-0.0600539
-0.043156
-0.0336529
-0.0281258
-0.0243243
-0.0223836
-0.0217428
-0.0236331
-0.0256052
-0.0316251
-0.032252
-0.0338582
-0.0311457
-0.0114468
-0.219332
-0.190961
-0.165256
-0.141556
-0.120193
-0.102764
-0.0884003
-0.0730715
-0.0674262
-0.0635735
-0.0620331
-0.0646815
-0.0723466
-0.0862642
-0.107229
-0.135011
-0.167775
-0.202027
-0.232945
-0.254439
-0.259655
-0.244416
-0.211926
-0.171559
-0.132761
-0.100657
-0.0763801
-0.0591074
-0.0475354
-0.0406651
-0.0385717
-0.0419457
-0.0487779
-0.0539202
-0.0534527
-0.0492379
-0.04645
-0.0484972
-0.054497
-0.0657901
-0.0848442
-0.110287
-0.129581
-0.129319
-0.112068
-0.084556
-0.0606384
-0.0421731
-0.0316172
-0.0249965
-0.0203244
-0.0180999
-0.0175611
-0.0207473
-0.0240673
-0.0327139
-0.0346687
-0.0363987
-0.0337047
-0.0124323
-0.209318
-0.179713
-0.150211
-0.123388
-0.0990861
-0.0782284
-0.0620024
-0.0521967
-0.0397457
-0.0350856
-0.0351829
-0.040417
-0.0513536
-0.0686566
-0.0925875
-0.122455
-0.156197
-0.190489
-0.221054
-0.242511
-0.248397
-0.234745
-0.20468
-0.166925
-0.130065
-0.0988103
-0.0744114
-0.0563645
-0.0435935
-0.0351238
-0.0308042
-0.0312842
-0.0356622
-0.0399951
-0.0406168
-0.0385609
-0.0381326
-0.0423697
-0.0502582
-0.0633785
-0.0841959
-0.11141
-0.132126
-0.13243
-0.115194
-0.0864529
-0.0609456
-0.0411256
-0.029691
-0.022203
-0.0167912
-0.0142527
-0.0136141
-0.0178891
-0.0224714
-0.0338004
-0.0370727
-0.038765
-0.0360706
-0.0133546
-0.204601
-0.175776
-0.145345
-0.116871
-0.0908144
-0.0677272
-0.0485622
-0.0339811
-0.0230674
-0.0182575
-0.0186731
-0.0246874
-0.0367525
-0.0551786
-0.0798842
-0.109927
-0.143166
-0.176447
-0.205924
-0.226916
-0.233339
-0.221638
-0.194775
-0.160528
-0.126389
-0.0965878
-0.0725065
-0.0540133
-0.0403455
-0.0306087
-0.0245074
-0.0225239
-0.0245609
-0.0278559
-0.0291427
-0.0285463
-0.0299174
-0.0358552
-0.0452335
-0.0598127
-0.0820257
-0.110792
-0.132917
-0.133964
-0.117221
-0.0877183
-0.0609859
-0.040028
-0.0278725
-0.0197147
-0.0136879
-0.0108545
-0.00993461
-0.015082
-0.02082
-0.0348665
-0.0394382
-0.0409314
-0.038219
-0.0142046
-0.203138
-0.176371
-0.147604
-0.119524
-0.0929287
-0.0684921
-0.0469699
-0.0293538
-0.0179017
-0.0121923
-0.0116346
-0.0168231
-0.0281705
-0.0457907
-0.0694251
-0.0980526
-0.129536
-0.160896
-0.188719
-0.208796
-0.215616
-0.206127
-0.183032
-0.152908
-0.122029
-0.094149
-0.0707801
-0.0521494
-0.0378542
-0.0271466
-0.01965
-0.0156532
-0.0155269
-0.0176161
-0.0190246
-0.0194006
-0.0220528
-0.0291748
-0.0395725
-0.0551099
-0.0783772
-0.108534
-0.132054
-0.133952
-0.118175
-0.0883916
-0.0608439
-0.0389493
-0.026183
-0.0175277
-0.0110011
-0.0079097
-0.00653963
-0.0123456
-0.0191105
-0.0358925
-0.0417348
-0.0428761
-0.0401257
-0.0149753
-0.203227
-0.179168
-0.153737
-0.12797
-0.102515
-0.0783709
-0.0560588
-0.0349176
-0.0234476
-0.0153675
-0.0127218
-0.0157234
-0.0248902
-0.0402037
-0.0613323
-0.0872592
-0.115963
-0.144592
-0.169867
-0.188944
-0.196389
-0.189479
-0.170598
-0.144997
-0.117737
-0.0921236
-0.069787
-0.0512624
-0.0365109
-0.0250189
-0.0163866
-0.0107325
-0.0086222
-0.0093637
-0.0104581
-0.0113061
-0.0147369
-0.0225005
-0.0334649
-0.0495692
-0.0734484
-0.104654
-0.129668
-0.132708
-0.118121
-0.0885586
-0.0606684
-0.0380237
-0.0246687
-0.0156174
-0.00873251
-0.0054724
-0.00344301
-0.00969116
-0.0173459
-0.0368478
-0.0439237
-0.0445782
-0.0417621
-0.015657
-0.203364
-0.182387
-0.160646
-0.137404
-0.113572
-0.0907051
-0.069526
-0.0509172
-0.0346758
-0.0245115
-0.0193865
-0.0191722
-0.0250927
-0.0370847
-0.0547491
-0.0772469
-0.102692
-0.128216
-0.151161
-0.168282
-0.176252
-0.172104
-0.157801
-0.137058
-0.113719
-0.0906389
-0.0695714
-0.051341
-0.0362445
-0.0240839
-0.0145347
-0.00751705
-0.00358173
-0.00291424
-0.00359179
-0.00450308
-0.00825861
-0.0160854
-0.0269772
-0.0429677
-0.0672199
-0.0997049
-0.126028
-0.137471
-0.116913
-0.0879446
-0.0602422
-0.0371255
-0.0232566
-0.0138141
-0.00672789
-0.00353389
-0.000729959
-0.00713587
-0.0154874
-0.0377172
-0.0459649
-0.0460148
-0.0430958
-0.0162262
-0.203973
-0.187974
-0.170301
-0.14973
-0.128523
-0.108176
-0.0888344
-0.0710053
-0.052504
-0.0390975
-0.030968
-0.0279903
-0.0300318
-0.0376179
-0.0505722
-0.0681152
-0.0886826
-0.110038
-0.127965
-0.146925
-0.153869
-0.152028
-0.142021
-0.125854
-0.106353
-0.0859856
-0.0665902
-0.049204
-0.0343152
-0.0219804
-0.0120795
-0.0043206
0.00098539
0.00296229
0.00255281
0.000548129
-0.00272122
-0.0102773
-0.0208627
-0.0363313
-0.0602227
-0.0930661
-0.120058
-0.130525
-0.113394
-0.0855895
-0.0584665
-0.0353845
-0.0214972
-0.011789
-0.00463854
-0.00160729
0.0018047
-0.00473703
-0.013611
-0.0384253
-0.0478178
-0.0471537
-0.0441319
-0.0166521
-0.191637
-0.185351
-0.168663
-0.148535
-0.128781
-0.109957
-0.0916618
-0.0745653
-0.0586718
-0.046379
-0.0381508
-0.0339975
-0.0345208
-0.0402164
-0.0509996
-0.0662139
-0.0845117
-0.104214
-0.125028
-0.135344
-0.140565
-0.138242
-0.128727
-0.113911
-0.0962044
-0.0776789
-0.0598959
-0.0437555
-0.0296965
-0.0177974
-0.00804826
-0.000174376
0.00567941
0.0086552
0.00899296
0.00733644
0.00425741
-0.00251673
-0.0121134
-0.0269592
-0.0514986
-0.0869938
-0.116763
-0.128692
-0.110602
-0.0823952
-0.0554478
-0.0326374
-0.019284
-0.00967176
-0.0025781
0.000742428
0.00499923
-0.00185088
-0.0112531
-0.0388484
-0.0497834
-0.0480881
-0.0449512
-0.0169402
-0.179693
-0.175544
-0.160196
-0.141616
-0.123914
-0.107811
-0.092058
-0.077365
-0.0639048
-0.0529231
-0.0451068
-0.0409222
-0.0408738
-0.0452407
-0.0539237
-0.0663426
-0.0813633
-0.0974047
-0.112307
-0.121186
-0.124797
-0.12207
-0.113552
-0.100724
-0.0854151
-0.069217
-0.0533999
-0.0387545
-0.0257036
-0.0144176
-0.00501267
0.00280262
0.00897792
0.0125322
0.0131746
0.0113752
0.00880576
0.00304685
-0.00542298
-0.019377
-0.0440075
-0.0809733
-0.111597
-0.118243
-0.104872
-0.0775497
-0.0517503
-0.0298871
-0.0170744
-0.00761363
-0.000794742
0.00263901
0.00705273
0.00032234
-0.00938231
-0.0391799
-0.0515718
-0.0486441
-0.0452795
-0.017076
-0.167932
-0.164732
-0.151906
-0.135796
-0.120578
-0.106365
-0.0928485
-0.0800491
-0.0683364
-0.0585936
-0.0515229
-0.0475594
-0.0470181
-0.0500682
-0.0565861
-0.0660475
-0.0774956
-0.0895649
-0.100384
-0.107246
-0.109638
-0.107085
-0.0999176
-0.0891009
-0.0759713
-0.0617899
-0.0476418
-0.0342678
-0.0221131
-0.0113743
-0.00226031
0.0054202
0.0117079
0.0156789
0.0167575
0.0154044
0.0130376
0.00782005
-6.78958e-05
-0.0136671
-0.0381719
-0.0746163
-0.104388
-0.111034
-0.0979649
-0.0720598
-0.0477454
-0.0269929
-0.0147826
-0.00558205
0.000963636
0.00442306
0.00877301
0.00205236
-0.00798238
-0.039486
-0.0531168
-0.0488448
-0.0451709
-0.0171099
-0.155186
-0.153828
-0.143601
-0.129768
-0.116352
-0.104123
-0.0926422
-0.0817126
-0.0716578
-0.0631555
-0.0567872
-0.0529135
-0.051779
-0.0535035
-0.0579678
-0.0647516
-0.0731134
-0.0819218
-0.0897029
-0.0947512
-0.0963166
-0.0939558
-0.0878157
-0.0785662
-0.0672222
-0.0547866
-0.0421615
-0.0299999
-0.018744
-0.00859064
0.000196703
0.00767654
0.0139535
0.0182615
0.0199296
0.019167
0.0172659
0.012728
0.00529386
-0.00806936
-0.0318657
-0.0668249
-0.0958657
-0.102594
-0.089958
-0.0657998
-0.0432867
-0.0239176
-0.0124268
-0.0035666
0.0027115
0.00610317
0.0103835
0.00363212
-0.00663643
-0.0395147
-0.0543198
-0.0487042
-0.0446079
-0.0170116
-0.142838
-0.14309
-0.135034
-0.123325
-0.111749
-0.10129
-0.0915894
-0.0823578
-0.0737869
-0.0663759
-0.0606007
-0.0567874
-0.055144
-0.0557555
-0.0585261
-0.0631248
-0.0689448
-0.0751163
-0.0805124
-0.0839792
-0.0847511
-0.082418
-0.0770464
-0.0690876
-0.0592748
-0.0483729
-0.0371165
-0.0260686
-0.0156677
-0.00611197
0.00232636
0.00958517
0.0157679
0.0202891
0.0225148
0.0224436
0.0213449
0.0177763
0.0110776
-0.00163205
-0.0242605
-0.0577551
-0.0860999
-0.0927064
-0.0808902
-0.0588512
-0.0384545
-0.0207041
-0.0100278
-0.00157754
0.0044453
0.00767676
0.0118561
0.00516599
-0.0051073
-0.0390848
-0.0550493
-0.0481535
-0.0435161
-0.0167411
-0.13132
-0.132473
-0.126251
-0.116543
-0.106738
-0.0978834
-0.0897373
-0.0819854
-0.0747054
-0.0682621
-0.063051
-0.059361
-0.057364
-0.0571184
-0.0585441
-0.0613736
-0.0651191
-0.0691657
-0.0726493
-0.0747301
-0.0747681
-0.0724035
-0.0676241
-0.0607005
-0.0521486
-0.0425484
-0.0324991
-0.0224725
-0.0128852
-0.00393791
0.00411806
0.0111425
0.0171843
0.0218001
0.0244913
0.0251765
0.0250909
0.0227617
0.017186
0.00548778
-0.0159121
-0.0478201
-0.075099
-0.0815579
-0.0709648
-0.0513753
-0.0333265
-0.0173841
-0.00760314
0.000371156
0.00615668
0.00915843
0.0131658
0.00665758
-0.00337502
-0.0380546
-0.0550881
-0.047086
-0.0418366
-0.0162631
-0.120156
-0.121975
-0.117382
-0.109503
-0.101326
-0.0939105
-0.0871195
-0.0806521
-0.0745076
-0.0689463
-0.0642875
-0.0607755
-0.0585523
-0.0576595
-0.0580314
-0.0594611
-0.0616096
-0.0639406
-0.0658931
-0.0668274
-0.066235
-0.0637931
-0.0594361
-0.0533172
-0.0457969
-0.0373057
-0.0283232
-0.0192338
-0.0104144
-0.00207271
0.00556845
0.0123386
0.0182262
0.0228628
0.0259123
0.0272798
0.0282548
0.0273611
0.0232229
0.0126742
-0.00747098
-0.0374096
-0.0631641
-0.0694698
-0.0604589
-0.0435755
-0.0280133
-0.0140019
-0.00517343
0.00226788
0.00784012
0.0105738
0.0143127
0.00808953
-0.0014569
-0.036235
-0.0541764
-0.0454056
-0.0395401
-0.015548
-0.109336
-0.111796
-0.108592
-0.102298
-0.0955663
-0.0894257
-0.0838164
-0.0784639
-0.0733169
-0.068552
-0.0644185
-0.0611194
-0.0587739
-0.0574176
-0.056997
-0.057351
-0.0582486
-0.0592911
-0.0600532
-0.0600678
-0.0589386
-0.0563898
-0.0523352
-0.0468511
-0.0401812
-0.0326344
-0.0245891
-0.016355
-0.00825861
-0.000510261
0.00669202
0.0131783
0.0189033
0.023521
0.0268411
0.0287511
0.0306251
0.0311481
0.0286223
0.0193344
0.000548023
-0.0270285
-0.0507106
-0.0568385
-0.0497183
-0.0357
-0.0226498
-0.0106074
-0.00275715
0.004106
0.00949159
0.0119563
0.0153199
0.00947723
0.000690783
-0.0334213
-0.0520553
-0.0430315
-0.0366333
-0.0145769
-0.0992188
-0.102068
-0.0999491
-0.0949973
-0.0895288
-0.0845062
-0.0799221
-0.0755321
-0.0712536
-0.0671993
-0.0635603
-0.0605033
-0.0581294
-0.0564704
-0.0554876
-0.0550726
-0.0550236
-0.0550864
-0.0549369
-0.0542305
-0.0526654
-0.0500161
-0.0461909
-0.0412148
-0.0352475
-0.0285061
-0.021284
-0.0138289
-0.00641363
0.000758884
0.00751121
0.0136804
0.0192219
0.023796
0.0273134
0.0296202
0.0321099
0.0337491
0.0327049
0.0247641
0.00757819
-0.017109
-0.0381385
-0.0441416
-0.0391445
-0.0280164
-0.0173857
-0.00725657
-0.000371928
0.00588415
0.0111075
0.013346
0.0162484
0.0108913
0.00314036
-0.0294632
-0.0485086
-0.0399075
-0.0331716
-0.0133502
-0.0897809
-0.092766
-0.0914917
-0.0876742
-0.0832977
-0.0792428
-0.0755396
-0.0719747
-0.0684481
-0.0650254
-0.0618506
-0.059058
-0.0567327
-0.054903
-0.053543
-0.0525753
-0.0518591
-0.051204
-0.0503788
-0.049132
-0.0472373
-0.0445137
-0.0408738
-0.036313
-0.0309334
-0.024884
-0.0183876
-0.0116407
-0.00486631
0.00174954
0.00805025
0.0138756
0.0191957
0.023695
0.0273422
0.0299241
0.0327191
0.0349823
0.0349485
0.0283663
0.0132526
-0.00793315
-0.0259634
-0.0319752
-0.0291642
-0.0207822
-0.012369
-0.00401046
0.00196084
0.00760513
0.0126861
0.0147894
0.0172018
0.0124392
0.00593524
-0.0243172
-0.0434312
-0.036028
-0.0292643
-0.0118928
-0.0808449
-0.0838977
-0.0833008
-0.0804236
-0.0769685
-0.0737358
-0.0707807
-0.0679179
-0.0650388
-0.0621744
-0.0594305
-0.0569141
-0.0546961
-0.0528025
-0.0512175
-0.0498861
-0.0487106
-0.0475541
-0.0462524
-0.0446233
-0.0424986
-0.0397369
-0.0362615
-0.032053
-0.0271743
-0.0217254
-0.0158722
-0.00976913
-0.00359599
0.00248291
0.00833217
0.0137966
0.018855
0.0232347
0.0269394
0.0296797
0.032543
0.0349518
0.0353677
0.030114
0.0175093
0.00012132
-0.0149399
-0.021006
-0.0201683
-0.0142049
-0.00772378
-0.00093015
0.00421013
0.00926659
0.0142237
0.0163298
0.0183101
0.0142378
0.00907065
-0.0180919
-0.0369109
-0.0314596
-0.0250692
-0.0102563
-0.0724651
-0.0755281
-0.0754423
-0.0733204
-0.0706276
-0.0680833
-0.0657565
-0.0634859
-0.0611601
-0.0587851
-0.0564367
-0.0541991
-0.0521312
-0.0502572
-0.0485649
-0.0470202
-0.045555
-0.044073
-0.0424584
-0.0405805
-0.0383167
-0.0355591
-0.0322445
-0.0283473
-0.0239048
-0.018983
-0.0137039
-0.00818739
-0.00257702
0.00298571
0.00838519
0.0134769
0.0182387
0.022444
0.0261372
0.0289121
0.0316895
0.0339443
0.0344426
0.0303885
0.0203455
0.00655046
-0.00579648
-0.0117458
-0.0124078
-0.00841067
-0.00353466
0.00193012
0.00633783
0.0108506
0.0156981
0.0179793
0.0197011
0.0163935
0.0124894
-0.0110843
-0.0292865
-0.0263525
-0.0207743
-0.00851816
-0.0646983
-0.067665
-0.0679377
-0.066416
-0.0643495
-0.0623762
-0.0605716
-0.0587956
-0.0569388
-0.0549895
-0.0530003
-0.0510366
-0.0491459
-0.0473481
-0.0456442
-0.0440042
-0.0423834
-0.0407156
-0.0389202
-0.0369052
-0.0345829
-0.0318729
-0.028725
-0.0251135
-0.0210601
-0.0166074
-0.0118451
-0.00686435
-0.00178027
0.00328891
0.00824404
0.0129536
0.0173889
0.0213553
0.024871
0.0276681
0.0302764
0.0322527
0.0326758
0.029579
0.0217981
0.0110954
0.00116329
-0.00436232
-0.0059504
-0.00344109
0.000155302
0.00452544
0.00830647
0.0123292
0.0170554
0.0196747
0.0214472
0.0189481
0.0160633
-0.00376373
-0.0211384
-0.020946
-0.0165693
-0.0067704
-0.0574745
-0.0602848
-0.0608083
-0.0597616
-0.0582043
-0.0566987
-0.0553225
-0.0539555
-0.0524927
-0.0509109
-0.0492445
-0.0475439
-0.0458477
-0.0441734
-0.0425204
-0.040872
-0.039198
-0.037453
-0.0355821
-0.0335212
-0.031209
-0.0285869
-0.025617
-0.0222763
-0.018578
-0.014549
-0.0102554
-0.00576617
-0.00117352
0.00342591
0.00794537
0.0122697
0.0163591
0.0200404
0.0232643
0.0260476
0.0284418
0.0301186
0.0304267
0.0280469
0.0221232
0.0139712
0.0061365
0.00127659
-0.000732759
0.000722812
0.00333729
0.00682123
0.0100804
0.0136755
0.0182257
0.0212564
0.0233928
0.0217304
0.0195062
0.00328029
-0.0131441
-0.0155308
-0.0126127
-0.00510413
-0.0507553
-0.0533899
-0.0540813
-0.0534018
-0.0522514
-0.0511233
-0.0500947
-0.0490621
-0.0479273
-0.0466596
-0.0452801
-0.0438268
-0.0423305
-0.0408055
-0.0392521
-0.0376598
-0.0360091
-0.0342697
-0.0324046
-0.03037
-0.0281241
-0.0256252
-0.0228462
-0.0197684
-0.0164001
-0.012759
-0.00889411
-0.00485727
-0.000723078
0.00343089
0.00752808
0.0114702
0.0152074
0.0186006
0.0216151
0.024196
0.0263391
0.027747
0.0279657
0.0261386
0.0216989
0.0155881
0.00952842
0.00544756
0.00338073
0.00413276
0.00602198
0.00879755
0.0116255
0.0148582
0.0191491
0.0225229
0.0250506
0.0242311
0.0222925
0.00939728
-0.00585664
-0.010376
-0.00902506
-0.00359694
-0.0445439
-0.0469795
-0.0477671
-0.0473652
-0.0465361
-0.0457098
-0.0449599
-0.0441981
-0.0433338
-0.0423324
-0.0412049
-0.0399794
-0.0386804
-0.0373196
-0.0358968
-0.0344053
-0.0328327
-0.0311595
-0.0293609
-0.0274078
-0.0252722
-0.0229256
-0.0203495
-0.0175299
-0.0144732
-0.0111909
-0.00772109
-0.004102
-0.000395226
0.00333848
0.00703
0.0105979
0.0139885
0.0170893
0.0198621
0.022213
0.0241106
0.0253051
0.0254856
0.0241102
0.0208431
0.0163335
0.011732
0.00843482
0.00654116
0.00685691
0.00822972
0.0104483
0.012912
0.0158303
0.0197747
0.0233192
0.0260533
0.0258458
0.0238885
0.014019
0.000355145
-0.00571344
-0.00589221
-0.00230547
-0.0388142
-0.0410352
-0.0418657
-0.0416711
-0.0410939
-0.0405065
-0.0399778
-0.0394328
-0.0387895
-0.0380116
-0.0371033
-0.0360842
-0.0349738
-0.0337818
-0.0325076
-0.0311457
-0.0296883
-0.0281232
-0.0264346
-0.024603
-0.0226104
-0.0204381
-0.0180744
-0.0155094
-0.0127494
-0.00980213
-0.00669819
-0.00346581
-0.000156885
0.00318198
0.00648793
0.00969568
0.0127498
0.0155573
0.0180717
0.0201946
0.0218743
0.0229135
0.0231046
0.0221139
0.019768
0.0165
0.0130704
0.0104948
0.00889628
0.00897087
0.00998777
0.0117733
0.013916
0.0165451
0.0200509
0.0235276
0.0261259
0.0262594
0.0241453
0.0168646
0.00522863
-0.00174707
-0.00325787
-0.00126032
-0.033534
-0.0355399
-0.0363763
-0.0363332
-0.0359509
-0.0355505
-0.0351954
-0.0348222
-0.0343574
-0.0337655
-0.0330454
-0.0322109
-0.0312767
-0.0302508
-0.0291324
-0.0279161
-0.0265966
-0.0251668
-0.0236168
-0.0219338
-0.0201068
-0.0181236
-0.0159781
-0.0136638
-0.0111872
-0.00855423
-0.00579026
-0.00291629
2.34141e-05
0.00299315
0.00593626
0.00880123
0.0115313
0.0140536
0.0163155
0.0182226
0.0197175
0.0206511
0.02089
0.0202287
0.0185986
0.0162836
0.0137965
0.0118509
0.0105862
0.0105523
0.0113277
0.0127792
0.014626
0.0169686
0.0199752
0.0231429
0.02536
0.0256275
0.0233896
0.0180547
0.00860793
0.00138677
-0.00111367
-0.000463329
-0.0286823
-0.0304777
-0.0312926
-0.0313569
-0.0311237
-0.0308683
-0.0306479
-0.0304093
-0.0300877
-0.0296491
-0.0290895
-0.0284178
-0.0276441
-0.0267757
-0.0258126
-0.0247486
-0.0235789
-0.0222995
-0.0209047
-0.0193866
-0.0177383
-0.0159526
-0.0140269
-0.0119576
-0.00975173
-0.00741398
-0.00496619
-0.00242416
0.00017391
0.00280045
0.00540506
0.00794791
0.0103728
0.0126233
0.0146468
0.0163551
0.0176984
0.0185655
0.0188718
0.018489
0.0174145
0.0158289
0.0140852
0.0126709
0.011731
0.0116756
0.0122867
0.0134796
0.0150481
0.0170941
0.0195889
0.022284
0.0240231
0.0242956
0.0220704
0.0180017
0.0105641
0.00366725
0.000593169
0.000110147
-0.0242354
-0.0258285
-0.0266033
-0.0267415
-0.0266214
-0.0264774
-0.0263605
-0.0262263
-0.0260185
-0.0257053
-0.0252809
-0.024751
-0.024122
-0.0233991
-0.0225847
-0.0216719
-0.0206552
-0.0195319
-0.0182996
-0.0169534
-0.0154893
-0.0139032
-0.0121949
-0.0103629
-0.00841435
-0.0063536
-0.0041995
-0.00196451
0.000318611
0.00262887
0.00492081
0.00716369
0.0093053
0.0113011
0.0130994
0.014633
0.0158538
0.0166787
0.017057
0.0169085
0.0162636
0.015231
0.014062
0.0130819
0.0124358
0.0124086
0.012908
0.0138963
0.0152046
0.0169421
0.0189474
0.0211161
0.0223813
0.0225774
0.0204942
0.017182
0.0113781
0.00515391
0.00195438
0.000493962
-0.0201688
-0.0215719
-0.0222953
-0.0224822
-0.0224468
-0.0223876
-0.0223494
-0.0222954
-0.022177
-0.0219656
-0.0216541
-0.0212464
-0.0207464
-0.0201577
-0.0194798
-0.0187107
-0.0178437
-0.0168755
-0.0158054
-0.014631
-0.0133503
-0.0119606
-0.0104633
-0.00885834
-0.00715284
-0.00535089
-0.00346882
-0.00151661
0.000477608
0.00249741
0.00450312
0.00647016
0.00835111
0.010113
0.0117065
0.013084
0.0142025
0.0149984
0.0154438
0.0154853
0.0151666
0.0145512
0.013824
0.0131916
0.0127921
0.0128139
0.0132368
0.0140572
0.0151279
0.0165591
0.0181163
0.019777
0.0206237
0.0206946
0.0188245
0.0159744
0.0114017
0.00592187
0.00187417
0.000682163
-0.0164605
-0.0176875
-0.0183535
-0.0185702
-0.0185977
-0.0186023
-0.0186232
-0.0186301
-0.0185814
-0.0184519
-0.0182341
-0.01793
-0.0175427
-0.0170724
-0.0165197
-0.0158842
-0.0151595
-0.0143409
-0.0134278
-0.0124197
-0.0113159
-0.0101152
-0.00881922
-0.00742887
-0.00595089
-0.0043891
-0.00275771
-0.0010649
0.000665554
0.00242007
0.00416501
0.00588166
0.00752724
0.00907494
0.0104832
0.0117187
0.0127511
0.0135237
0.0140223
0.0142111
0.0141351
0.0138313
0.0134416
0.0130789
0.0128744
0.0129494
0.0133175
0.0139959
0.0148548
0.0159987
0.017163
0.018368
0.0188685
0.018794
0.017153
0.014624
0.0109589
0.00631002
0.00265736
0.000853865
-0.0130888
-0.0141549
-0.0147611
-0.0149943
-0.0150676
-0.0151199
-0.0151847
-0.0152372
-0.0152424
-0.0151782
-0.0150376
-0.014821
-0.0145305
-0.0141657
-0.013726
-0.01321
-0.0126155
-0.0119369
-0.0111723
-0.0103214
-0.00938474
-0.00836195
-0.00725487
-0.00606466
-0.00479746
-0.00345693
-0.00205506
-0.000598836
0.000891703
0.00240597
0.00391545
0.00540504
0.00683984
0.00819686
0.00943707
0.0105306
0.0114953
0.0122444
0.0127783
0.0130755
0.013177
0.0131004
0.0129567
0.0127989
0.012744
0.0128671
0.0131927
0.0137498
0.0144231
0.0153067
0.0161259
0.0169708
0.0171927
0.0169692
0.0155363
0.0132728
0.0102704
0.00639466
0.00310637
0.000974431
-0.0100329
-0.0109539
-0.0115009
-0.011741
-0.0118475
-0.011935
-0.012032
-0.0121183
-0.0121646
-0.0121523
-0.0120746
-0.0119313
-0.0117233
-0.0114505
-0.0111099
-0.0107004
-0.0102227
-0.00967209
-0.00904459
-0.00833936
-0.00755749
-0.00669922
-0.00576647
-0.00476044
-0.00368647
-0.0025479
-0.00135477
-0.000112975
0.00116117
0.00245873
0.00375658
0.00504241
0.00628769
0.00747753
0.00858247
0.00959436
0.0104387
0.011147
0.011697
0.0120676
0.0122935
0.0123782
0.0123976
0.0123965
0.0124523
0.0126138
0.0129038
0.0133569
0.01387
0.0145279
0.0150784
0.0156182
0.0156322
0.0152735
0.0140109
0.011995
0.00947668
0.00625232
0.00330918
0.00104077
-0.00727365
-0.00806524
-0.00855566
-0.008796
-0.0089261
-0.00903931
-0.00915947
-0.00927038
-0.00934801
-0.00937649
-0.00934976
-0.00926716
-0.00912892
-0.0089345
-0.00868194
-0.00836898
-0.00799286
-0.00755448
-0.00705015
-0.00647733
-0.00583638
-0.0051278
-0.00435356
-0.0035148
-0.00261597
-0.00165996
-0.000655017
0.000393954
0.00147373
0.0025769
0.00368487
0.0047878