/*--------------------------------*- C++ -*----------------------------------*\
| =========                 |                                                 |
| \\      /  F ield         | OpenFOAM: The Open Source CFD Toolbox           |
|  \\    /   O peration     | Version:  2512                                  |
|   \\  /    A nd           | Website:  www.openfoam.com                      |
|    \\/     M anipulation  |                                                 |
\*---------------------------------------------------------------------------*/
FoamFile
{
    version     2.0;
    format      ascii;
    arch        "LSB;label=32;scalar=64";
    class       volScalarField;
    location    "119";
    object      p;
}
// * * * * * * * * * * * * * * * * * * * * * * * * * * * * * * * * * * * * * //

dimensions      [0 2 -2 0 0 0 0];

internalField   nonuniform List<scalar> 
13248
(
-0.438138
-0.435453
-0.43185
-0.427667
-0.423356
-0.419412
-0.416229
-0.414041
-0.412897
-0.412652
-0.412977
-0.413398
-0.413352
-0.412258
-0.409596
-0.404965
-0.39813
-0.389026
-0.377737
-0.364472
-0.349335
-0.332675
-0.313377
-0.292433
-0.447062
-0.443752
-0.439599
-0.434929
-0.430148
-0.425692
-0.421871
-0.418814
-0.416458
-0.414558
-0.412725
-0.410486
-0.40736
-0.402929
-0.396889
-0.389087
-0.37951
-0.368259
-0.355507
-0.341439
-0.326208
-0.309963
-0.292517
-0.274761
-0.458295
-0.454055
-0.449183
-0.443945
-0.438628
-0.433568
-0.428948
-0.424758
-0.420818
-0.416819
-0.412387
-0.407149
-0.400804
-0.393158
-0.384144
-0.373804
-0.362258
-0.349667
-0.336189
-0.321973
-0.30711
-0.291755
-0.275766
-0.259738
-0.471785
-0.466354
-0.460604
-0.454684
-0.448695
-0.442824
-0.437094
-0.431352
-0.42534
-0.418766
-0.411371
-0.402978
-0.393512
-0.383
-0.371546
-0.359293
-0.346392
-0.33298
-0.31917
-0.305051
-0.290697
-0.276212
-0.261545
-0.247251
-0.487385
-0.480567
-0.473806
-0.467068
-0.460196
-0.453188
-0.4459
-0.43808
-0.429481
-0.419939
-0.409402
-0.397926
-0.385648
-0.372743
-0.35939
-0.345743
-0.33192
-0.318004
-0.304051
-0.290104
-0.276199
-0.262388
-0.248647
-0.235306
-0.50488
-0.49655
-0.488679
-0.480962
-0.472909
-0.464306
-0.454888
-0.444403
-0.432742
-0.419972
-0.406289
-0.39196
-0.377256
-0.362409
-0.347588
-0.332905
-0.318419
-0.304158
-0.29013
-0.27634
-0.262796
-0.249512
-0.236482
-0.223906
-0.523932
-0.514051
-0.504995
-0.496089
-0.486443
-0.47566
-0.463459
-0.449742
-0.434665
-0.418578
-0.401906
-0.385047
-0.368313
-0.351909
-0.335949
-0.320479
-0.305499
-0.29099
-0.276923
-0.263276
-0.250027
-0.237164
-0.224684
-0.212647
-0.544053
-0.532649
-0.522333
-0.511946
-0.500177
-0.486537
-0.470908
-0.453507
-0.434837
-0.41552
-0.396128
-0.377093
-0.358683
-0.341031
-0.324174
-0.30809
-0.292732
-0.278042
-0.263965
-0.250452
-0.237464
-0.22497
-0.212963
-0.201396
-0.564527
-0.551698
-0.540021
-0.527765
-0.513249
-0.496073
-0.476487
-0.455149
-0.432919
-0.410611
-0.388838
-0.367977
-0.348203
-0.329555
-0.311993
-0.295439
-0.279804
-0.265001
-0.250952
-0.237589
-0.224855
-0.212709
-0.201122
-0.189973
-0.584398
-0.570288
-0.557102
-0.542502
-0.524596
-0.503314
-0.47946
-0.454182
-0.428622
-0.403671
-0.379886
-0.357531
-0.336665
-0.317235
-0.299134
-0.282237
-0.266422
-0.251578
-0.237608
-0.224425
-0.211959
-0.200159
-0.188963
-0.178223
-0.602492
-0.587261
-0.572355
-0.554885
-0.533006
-0.507241
-0.479056
-0.450044
-0.421512
-0.394315
-0.368881
-0.345335
-0.323624
-0.30361
-0.28513
-0.268021
-0.252134
-0.237338
-0.223516
-0.210568
-0.198413
-0.186981
-0.176172
-0.165858
-0.61753
-0.601368
-0.584503
-0.563636
-0.537293
-0.506815
-0.474379
-0.441928
-0.410809
-0.381752
-0.355016
-0.330576
-0.308269
-0.287885
-0.26921
-0.252049
-0.236228
-0.221598
-0.208026
-0.195402
-0.183635
-0.172641
-0.162287
-0.152516
-0.362034
-0.36341
-0.364299
-0.365101
-0.366222
-0.367833
-0.370001
-0.372737
-0.376022
-0.37982
-0.38408
-0.388738
-0.3937
-0.398841
-0.403996
-0.408952
-0.413453
-0.417182
-0.419785
-0.420904
-0.4202
-0.417372
-0.412182
-0.40454
-0.373556
-0.374112
-0.374605
-0.375313
-0.376549
-0.37849
-0.381216
-0.384747
-0.389071
-0.394159
-0.399968
-0.406436
-0.413467
-0.420921
-0.428603
-0.436255
-0.443553
-0.450075
-0.455375
-0.458919
-0.460203
-0.458716
-0.453938
-0.44572
-0.384452
-0.384139
-0.384171
-0.38469
-0.385915
-0.388026
-0.391117
-0.395215
-0.400314
-0.406386
-0.413389
-0.421253
-0.429875
-0.439095
-0.448684
-0.458329
-0.467748
-0.476239
-0.483356
-0.48841
-0.49075
-0.489679
-0.484461
-0.474647
-0.394176
-0.393029
-0.392555
-0.39278
-0.393831
-0.395896
-0.399089
-0.403447
-0.408966
-0.415618
-0.423352
-0.432089
-0.441708
-0.452027
-0.462787
-0.473639
-0.484137
-0.493695
-0.501659
-0.507281
-0.509759
-0.508263
-0.502072
-0.490063
-0.402368
-0.400507
-0.399521
-0.399342
-0.400035
-0.401807
-0.404795
-0.409056
-0.414594
-0.421377
-0.429346
-0.438406
-0.448413
-0.45916
-0.470355
-0.481603
-0.492405
-0.502137
-0.510072
-0.51538
-0.517197
-0.514556
-0.507109
-0.492646
-0.408882
-0.406498
-0.405031
-0.404361
-0.404524
-0.405755
-0.408233
-0.412043
-0.417207
-0.423696
-0.431442
-0.440331
-0.450199
-0.46081
-0.471845
-0.482817
-0.493233
-0.50241
-0.509558
-0.513792
-0.514277
-0.509867
-0.500865
-0.483914
-0.413812
-0.411135
-0.409252
-0.408035
-0.40753
-0.408019
-0.409729
-0.41279
-0.417251
-0.423096
-0.430252
-0.43859
-0.447914
-0.457942
-0.468299
-0.478557
-0.488051
-0.49606
-0.501767
-0.504252
-0.502797
-0.496149
-0.485249
-0.46607
-0.417475
-0.414731
-0.412513
-0.410728
-0.409478
-0.409096
-0.409869
-0.411982
-0.415522
-0.420495
-0.426817
-0.434351
-0.442859
-0.452027
-0.461416
-0.470474
-0.47852
-0.484774
-0.48841
-0.488532
-0.484598
-0.475471
-0.46246
-0.44162
-0.420381
-0.417744
-0.415261
-0.412922
-0.410911
-0.409623
-0.409403
-0.410494
-0.41303
-0.417051
-0.422394
-0.428968
-0.436479
-0.444514
-0.452553
-0.459957
-0.465991
-0.469865
-0.470815
-0.468104
-0.461411
-0.449947
-0.435065
-0.413403
-0.423189
-0.420733
-0.418027
-0.415167
-0.412441
-0.410297
-0.409137
-0.409245
-0.410776
-0.413751
-0.418154
-0.423667
-0.429943
-0.436491
-0.442698
-0.447859
-0.451229
-0.452095
-0.449864
-0.444109
-0.434793
-0.421624
-0.405814
-0.384465
-0.426636
-0.42431
-0.421373
-0.418032
-0.414671
-0.411785
-0.409807
-0.409045
-0.409668
-0.411685
-0.414956
-0.419158
-0.423833
-0.428395
-0.43217
-0.434453
-0.434578
-0.432006
-0.426385
-0.417642
-0.405992
-0.391754
-0.376043
-0.356459
-0.431435
-0.42906
-0.42583
-0.422039
-0.418137
-0.414638
-0.411978
-0.410457
-0.410205
-0.411175
-0.413135
-0.415682
-0.418273
-0.42028
-0.421046
-0.419968
-0.416561
-0.41052
-0.401729
-0.390332
-0.37654
-0.36102
-0.344422
-0.326829
-0.393059
-0.374685
-0.352738
-0.328391
-0.303608
-0.280692
-0.261892
-0.24924
-0.244112
-0.246656
-0.254244
-0.262996
-0.268658
-0.266274
-0.252449
-0.226984
-0.193858
-0.15973
-0.130757
-0.110451
-0.0994931
-0.0968084
-0.101467
-0.114273
-0.136024
-0.16259
-0.183312
-0.186584
-0.170347
-0.142274
-0.112948
-0.0895816
-0.0746367
-0.0672239
-0.0660339
-0.0723649
-0.0868347
-0.102956
-0.109803
-0.10203
-0.0855703
-0.070135
-0.0593185
-0.0537763
-0.0547591
-0.062171
-0.0695001
-0.0683669
-0.0612245
-0.0525854
-0.0434345
-0.0382325
-0.0346783
-0.0329691
-0.0323568
-0.0304099
-0.0241234
-0.0181248
-0.00990761
-0.0025539
-0.433934
-0.411056
-0.383732
-0.352663
-0.320022
-0.288249
-0.259485
-0.236305
-0.220854
-0.214473
-0.215753
-0.219692
-0.22394
-0.223113
-0.213022
-0.193498
-0.167432
-0.140343
-0.117641
-0.102644
-0.0961087
-0.0971589
-0.105369
-0.122066
-0.147859
-0.177712
-0.199887
-0.202059
-0.182883
-0.151155
-0.118451
-0.092195
-0.074671
-0.064938
-0.0614295
-0.0650211
-0.0765119
-0.0904784
-0.0969649
-0.0908824
-0.0774059
-0.0652173
-0.0573606
-0.0543253
-0.0580405
-0.0679851
-0.077165
-0.0755293
-0.0669985
-0.0561309
-0.0446361
-0.0377012
-0.032059
-0.0290859
-0.0278157
-0.0260568
-0.0212283
-0.0163291
-0.00990763
-0.00313171
-0.461733
-0.436388
-0.404459
-0.367992
-0.328801
-0.28932
-0.252151
-0.219777
-0.194048
-0.18006
-0.174509
-0.172636
-0.174687
-0.175072
-0.16897
-0.155756
-0.137046
-0.117328
-0.101253
-0.0918456
-0.0898443
-0.0945944
-0.106209
-0.126409
-0.155616
-0.188178
-0.211702
-0.213461
-0.192205
-0.157697
-0.122311
-0.0937031
-0.0739849
-0.0621795
-0.0565384
-0.0575229
-0.0660432
-0.0778197
-0.0838999
-0.0794321
-0.0688482
-0.0598099
-0.0548791
-0.0544038
-0.0609204
-0.0734446
-0.0845266
-0.0821823
-0.0725315
-0.0593851
-0.0456146
-0.037085
-0.0295635
-0.0253766
-0.0233529
-0.0216982
-0.0182922
-0.0144987
-0.00991074
-0.00373217
-0.475937
-0.448996
-0.413994
-0.37348
-0.329382
-0.284188
-0.2407
-0.201613
-0.16941
-0.146344
-0.132367
-0.125408
-0.124664
-0.125466
-0.123301
-0.11569
-0.104116
-0.0916282
-0.0820885
-0.0781353
-0.0803854
-0.0884722
-0.103024
-0.126136
-0.158188
-0.193153
-0.218177
-0.220274
-0.197991
-0.161708
-0.124452
-0.0941352
-0.0727057
-0.0591515
-0.0516274
-0.0502253
-0.0558975
-0.0654686
-0.0710313
-0.0680089
-0.0601164
-0.0540254
-0.0518956
-0.0539241
-0.0632063
-0.0783022
-0.0913936
-0.0895512
-0.0777885
-0.0623076
-0.0463556
-0.036381
-0.0272033
-0.0218662
-0.0190198
-0.017378
-0.0153445
-0.012649
-0.0099167
-0.0043534
-0.477044
-0.4489
-0.412853
-0.370716
-0.32411
-0.275676
-0.228275
-0.184516
-0.146776
-0.116992
-0.0960601
-0.0834007
-0.0781743
-0.0776059
-0.0777653
-0.0750884
-0.0700435
-0.0641759
-0.0606338
-0.0615529
-0.0674848
-0.078398
-0.0953824
-0.120867
-0.155274
-0.192375
-0.219031
-0.222262
-0.200128
-0.1632
-0.124988
-0.0936265
-0.070976
-0.0560355
-0.0469255
-0.0434186
-0.0464215
-0.053822
-0.0587471
-0.0569317
-0.0514179
-0.0479659
-0.0484117
-0.0527913
-0.0647253
-0.0823207
-0.0974872
-0.0968484
-0.0826514
-0.0648637
-0.0468553
-0.0355887
-0.0249797
-0.0185724
-0.0148651
-0.0131409
-0.012414
-0.0107944
-0.00992327
-0.00499187
-0.466146
-0.43736
-0.402677
-0.36173
-0.31537
-0.266456
-0.217837
-0.171833
-0.130547
-0.0958215
-0.0689278
-0.0503238
-0.0397055
-0.0357362
-0.0357954
-0.0364212
-0.0361392
-0.0358048
-0.0373802
-0.0423442
-0.051325
-0.0645865
-0.0835774
-0.110945
-0.147182
-0.186108
-0.214531
-0.219514
-0.198617
-0.162226
-0.124044
-0.0923125
-0.0689182
-0.0529526
-0.0425623
-0.0372922
-0.0378861
-0.0431966
-0.0473885
-0.0464836
-0.0429428
-0.0417292
-0.0444478
-0.0509542
-0.0653436
-0.0852918
-0.102526
-0.10246
-0.0869751
-0.0670203
-0.0471116
-0.0347038
-0.0228817
-0.0155057
-0.0109331
-0.00902515
-0.00952633
-0.00894789
-0.00992549
-0.00564297
-0.445728
-0.416816
-0.385382
-0.348016
-0.304442
-0.257694
-0.210495
-0.164775
-0.122315
-0.0847518
-0.0533949
-0.0292098
-0.0126882
-0.00361426
-0.000657506
-0.00148345
-0.00370569
-0.007504
-0.0129645
-0.0210957
-0.0325244
-0.0477254
-0.0683837
-0.0972197
-0.134754
-0.175067
-0.205272
-0.21243
-0.193681
-0.158955
-0.121768
-0.0903262
-0.0666333
-0.0499802
-0.0386046
-0.0319044
-0.0304177
-0.0337831
-0.0371982
-0.0369079
-0.0348681
-0.0354398
-0.040071
-0.0484025
-0.0649677
-0.0870532
-0.106367
-0.107384
-0.0906643
-0.0687436
-0.0471225
-0.0337255
-0.0208889
-0.0126639
-0.00726098
-0.00506176
-0.00670297
-0.00712022
-0.00991701
-0.00630203
-0.418851
-0.390535
-0.363578
-0.331208
-0.29216
-0.249601
-0.205928
-0.162603
-0.121101
-0.0828545
-0.0490649
-0.0207553
0.00120598
0.0161982
0.0242723
0.0265317
0.0248758
0.0192051
0.0114853
0.00121594
-0.0120577
-0.0288649
-0.0509446
-0.0808982
-0.119235
-0.16043
-0.192151
-0.201659
-0.185716
-0.153605
-0.118285
-0.0877545
-0.0641807
-0.0471561
-0.0350774
-0.0272702
-0.0240461
-0.0256581
-0.028297
-0.0284455
-0.0273542
-0.0292479
-0.0353749
-0.0451787
-0.0635614
-0.0874942
-0.108909
-0.115175
-0.0936315
-0.0700097
-0.0468927
-0.0326632
-0.0189961
-0.0100403
-0.00387113
-0.00127259
-0.00396225
-0.00532087
-0.00989118
-0.00696464
-0.388945
-0.362385
-0.340368
-0.3132
-0.279376
-0.242097
-0.203149
-0.163535
-0.124507
-0.0873157
-0.0530218
-0.0225722
0.0031524
0.0232944
0.0371147
0.0445515
0.0472458
0.0418401
0.0340188
0.0230186
0.00869277
-0.00931737
-0.0325577
-0.0633321
-0.102013
-0.143473
-0.176231
-0.187981
-0.175275
-0.146537
-0.113845
-0.084801
-0.0617312
-0.0446142
-0.0320802
-0.023445
-0.0188114
-0.018859
-0.0206986
-0.0209003
-0.0205297
-0.0233139
-0.0304849
-0.041319
-0.0611162
-0.0865852
-0.109813
-0.117313
-0.0956035
-0.0708405
-0.0464666
-0.0315449
-0.0172297
-0.0076583
-0.000786129
0.00233232
-0.00131954
-0.00355798
-0.00984135
-0.00762669
-0.359723
-0.336333
-0.318809
-0.29595
-0.267132
-0.235305
-0.201347
-0.165856
-0.12997
-0.0948612
-0.0613835
-0.0304267
-0.00291552
0.0203481
0.038597
0.0508618
0.0560682
0.0570816
0.0520103
0.0420889
0.0277882
0.00921009
-0.0146938
-0.0457273
-0.0840732
-0.125168
-0.158438
-0.172124
-0.163085
-0.138423
-0.109035
-0.0819818
-0.0597254
-0.0426938
-0.0298554
-0.0205695
-0.0147618
-0.0133984
-0.0144427
-0.0145622
-0.0144954
-0.0177528
-0.0255059
-0.0369913
-0.057755
-0.0843147
-0.109104
-0.116585
-0.0965768
-0.0712935
-0.0459325
-0.030408
-0.015588
-0.0055577
0.00191749
0.00574627
0.00121355
-0.0018391
-0.0097597
-0.00828353
-0.334204
-0.315629
-0.301517
-0.281675
-0.257314
-0.230613
-0.20142
-0.170026
-0.137486
-0.104879
-0.072831
-0.0421275
-0.0136483
0.0117161
0.0329981
0.0492816
0.0604807
0.0645606
0.0634598
0.056561
0.0437994
0.0256155
0.00166784
-0.0292011
-0.0669708
-0.107033
-0.139631
-0.154888
-0.149256
-0.129166
-0.103723
-0.0791486
-0.0580027
-0.0412024
-0.0281786
-0.0184167
-0.0116261
-0.00897261
-0.00931144
-0.00943074
-0.00945202
-0.0128355
-0.0205694
-0.0320907
-0.0534249
-0.0809661
-0.107044
-0.114569
-0.096466
-0.071207
-0.0451994
-0.0291915
-0.0139149
-0.00363511
0.00420434
0.00893269
0.00362311
-0.000164046
-0.00964099
-0.00893035
-0.311469
-0.2999
-0.287376
-0.269
-0.248255
-0.226021
-0.201347
-0.174191
-0.145274
-0.115478
-0.0855849
-0.056365
-0.0286427
-0.00312061
0.0194335
0.0382944
0.0518816
0.0629668
0.0665278
0.0634587
0.0538457
0.0377507
0.0153604
-0.0138146
-0.0493745
-0.0870596
-0.118049
-0.133332
-0.131235
-0.116161
-0.0950585
-0.0734396
-0.054003
-0.0380098
-0.0252999
-0.0155886
-0.00832173
-0.00472093
-0.00444396
-0.00475566
-0.00606979
-0.00858505
-0.0160742
-0.0273091
-0.048561
-0.0763179
-0.103419
-0.111177
-0.0949169
-0.069995
-0.0436934
-0.0275809
-0.0119091
-0.0015967
0.00644713
0.0119803
0.00588112
0.00144342
-0.00947094
-0.00957337
-0.283585
-0.286215
-0.272415
-0.252668
-0.232353
-0.211482
-0.188758
-0.163797
-0.137116
-0.109523
-0.0817402
-0.0544209
-0.0282361
-0.00381022
0.0182437
0.0371903
0.0519092
0.06277
0.0682859
0.0679047
0.0606389
0.0461399
0.0246594
-0.00411299
-0.0399019
-0.0778249
-0.107953
-0.122354
-0.118748
-0.10425
-0.0848647
-0.065262
-0.0475998
-0.0329016
-0.0210165
-0.0117943
-0.0046142
-0.000628933
0.000242655
0.000163215
-0.000846727
-0.00285223
-0.00965997
-0.0204848
-0.0422381
-0.0714866
-0.100774
-0.110066
-0.0936813
-0.0681238
-0.0414082
-0.0255824
-0.00975135
0.000436651
0.0089978
0.0151579
0.00815113
0.00305173
-0.0092369
-0.0102386
-0.256195
-0.2626
-0.250296
-0.230905
-0.21149
-0.192512
-0.172361
-0.150225
-0.126413
-0.10167
-0.0766726
-0.0519805
-0.0281482
-0.00575841
0.0146565
0.0325453
0.0468679
0.0577388
0.0639627
0.0646854
0.0588522
0.045963
0.0261268
-0.00084656
-0.034176
-0.0685445
-0.0945768
-0.105736
-0.102264
-0.0898192
-0.0734263
-0.0567018
-0.0413055
-0.0281348
-0.0172245
-0.00861383
-0.00166798
0.00248869
0.00366857
0.00354167
0.00241908
0.000906991
-0.00508158
-0.0151991
-0.0368469
-0.0668322
-0.0967942
-0.106446
-0.0903905
-0.0651265
-0.0387396
-0.0232789
-0.00755592
0.00224255
0.0111691
0.0175205
0.0100335
0.00439598
-0.00896031
-0.0107455
-0.231738
-0.238338
-0.228317
-0.210869
-0.193053
-0.17597
-0.158166
-0.138623
-0.117449
-0.0953013
-0.0728257
-0.0505344
-0.0289132
-0.00847321
0.0103178
0.0270281
0.0406007
0.0508529
0.0568892
0.0578822
0.0528612
0.0413398
0.0234384
-0.000604142
-0.0293102
-0.0577647
-0.0789674
-0.0882503
-0.0858879
-0.076177
-0.062868
-0.0488035
-0.0354355
-0.0236594
-0.0136375
-0.00560785
0.00102592
0.00524135
0.00668984
0.00659283
0.00561696
0.00417825
-0.00151681
-0.0113233
-0.0326872
-0.0621626
-0.091156
-0.10119
-0.0859628
-0.0615056
-0.0357764
-0.0207823
-0.00532812
0.00405216
0.0131779
0.0195484
0.0116911
0.0055606
-0.0085857
-0.0111077
-0.209008
-0.21532
-0.207455
-0.192336
-0.176299
-0.160901
-0.145096
-0.127863
-0.109134
-0.089435
-0.0693596
-0.0493791
-0.0299118
-0.0113955
0.0057217
0.0208623
0.0335962
0.0431552
0.0489311
0.0501983
0.0461239
0.036298
0.0209343
0.00065585
-0.0229269
-0.0460468
-0.0634454
-0.0715692
-0.0705808
-0.0634025
-0.0528378
-0.0411914
-0.0297359
-0.0193326
-0.0102051
-0.0027715
0.00348559
0.00767997
0.00938752
0.00948594
0.00870024
0.00739776
0.0019323
-0.00764613
-0.0283239
-0.0564655
-0.0842853
-0.0947743
-0.080491
-0.057188
-0.032487
-0.0181004
-0.00304303
0.0058641
0.0149839
0.0213929
0.013222
0.00665986
-0.00807452
-0.0113343
-0.187697
-0.194004
-0.187867
-0.17489
-0.160663
-0.146906
-0.132935
-0.117826
-0.101387
-0.0840051
-0.0662021
-0.0484125
-0.0310077
-0.0143739
0.00106679
0.0148209
0.0264267
0.0352827
0.0408276
0.0424487
0.039495
0.0316534
0.0191549
0.00269387
-0.0163104
-0.034959
-0.0492499
-0.0565284
-0.0567156
-0.051729
-0.0435805
-0.0340887
-0.0243633
-0.0152485
-0.00698773
-0.000130471
0.00571963
0.00982698
0.0117513
0.0121291
0.0115692
0.0105533
0.00549965
-0.0035329
-0.0230211
-0.0496794
-0.0763341
-0.0870298
-0.0739329
-0.0521778
-0.0288944
-0.0152613
-0.000724751
0.0076693
0.0165508
0.023025
0.0146404
0.00773726
-0.00741534
-0.0114044
-0.168415
-0.174435
-0.169566
-0.158488
-0.146047
-0.13392
-0.121671
-0.108505
-0.0941743
-0.0789481
-0.0632722
-0.0475443
-0.0321021
-0.0172839
-0.00346612
0.00892536
0.01945
0.0276151
0.0329283
0.034895
0.0330299
0.027099
0.0173032
0.00429004
-0.0107109
-0.0254917
-0.0371337
-0.0436302
-0.0446676
-0.0414107
-0.035238
-0.0275704
-0.0193622
-0.0114335
-0.00400987
0.00229589
0.00773138
0.0116991
0.0137835
0.0144944
0.0142545
0.0136235
0.00918427
0.00103331
-0.0169761
-0.0420574
-0.0672856
-0.0780091
-0.0663459
-0.0465327
-0.025034
-0.0122993
0.00159782
0.00945997
0.0178551
0.0243863
0.0159175
0.00878215
-0.00658345
-0.0112769
-0.150916
-0.156381
-0.152541
-0.143177
-0.132434
-0.121873
-0.111226
-0.0998274
-0.0874153
-0.0741746
-0.0604762
-0.0466754
-0.0330763
-0.0199737
-0.00769576
0.00338676
0.0128781
0.0203617
0.0254233
0.0276697
0.0267449
0.0224846
0.0150731
0.00507695
-0.00649473
-0.0179956
-0.0273564
-0.0330194
-0.0345163
-0.0324862
-0.0278469
-0.0216863
-0.0147856
-0.00792407
-0.00129749
0.00448507
0.00952328
0.0133187
0.0155117
0.0165796
0.0167638
0.0165917
0.0129127
0.00581692
-0.0105013
-0.0337203
-0.0572678
-0.0676086
-0.0578735
-0.0403506
-0.0209583
-0.00925486
0.00389066
0.0112303
0.0188878
0.0254343
0.0170313
0.00979847
-0.00552812
-0.0109011
-0.134699
-0.139762
-0.136839
-0.128993
-0.119796
-0.110688
-0.101513
-0.0917153
-0.0810407
-0.0696126
-0.0577343
-0.0457154
-0.0338265
-0.0223252
-0.0114947
-0.00165339
0.00685407
0.0136771
0.0184727
0.0209304
0.0207917
0.0179541
0.012578
0.00512444
-0.00360799
-0.0123895
-0.0197694
-0.0245224
-0.0261348
-0.0249044
-0.0214102
-0.0164626
-0.0106678
-0.00474474
0.00113652
0.00642115
0.0110955
0.0147094
0.0169658
0.0183823
0.0190696
0.0194383
0.0166283
0.0107034
-0.00370065
-0.0248504
-0.0466106
-0.056586
-0.0487715
-0.0337786
-0.0167378
-0.00617297
0.00611761
0.0129758
0.0196667
0.0261568
0.0179964
0.0108286
-0.00418939
-0.0102201
-0.119876
-0.124611
-0.12243
-0.115889
-0.108074
-0.10029
-0.0924548
-0.0841011
-0.0749906
-0.0652028
-0.0549831
-0.0445968
-0.0342803
-0.0242587
-0.0147748
-0.00609201
0.00149378
0.00768946
0.0122133
0.0148214
0.0153255
0.0136623
0.00995996
0.00458589
-0.00182462
-0.00836292
-0.0140257
-0.0178466
-0.0193301
-0.0185682
-0.0158944
-0.0118984
-0.00702552
-0.00191268
0.00328675
0.00809645
0.0124393
0.0158867
0.0181773
0.0199059
0.0211109
0.0221341
0.0203428
0.0157194
0.00329552
-0.0158332
-0.0357657
-0.0453571
-0.0393628
-0.0270071
-0.0124583
-0.00310046
0.00824325
0.0146894
0.0202528
0.0265875
0.0188727
0.0119408
-0.00251151
-0.00917695
-0.106518
-0.110809
-0.109197
-0.103787
-0.0972076
-0.0906196
-0.0839904
-0.0769297
-0.0692182
-0.0609025
-0.0521798
-0.0432743
-0.0343895
-0.0257205
-0.0174754
-0.0098558
-0.00312378
0.00248017
0.00672649
0.00942317
0.0104296
0.00970628
0.00735882
0.00366612
-0.000880064
-0.00558683
-0.00975805
-0.0126814
-0.0138901
-0.0133541
-0.0112432
-0.00797552
-0.00386065
0.000563012
0.00515288
0.0095135
0.0135447
0.0168491
0.0191709
0.0211646
0.0228258
0.0246025
0.0240053
0.0207634
0.0101433
-0.00720065
-0.0252324
-0.0342791
-0.0300124
-0.0202595
-0.00821801
-8.45001e-05
0.0102383
0.016356
0.0207603
0.0268139
0.0197625
0.0132145
-0.000454951
-0.00773167
-0.0943353
-0.098187
-0.0970605
-0.0926449
-0.0871602
-0.0816341
-0.076076
-0.0701614
-0.0636894
-0.0566826
-0.0492975
-0.0417213
-0.0341258
-0.0266763
-0.0195561
-0.0129064
-0.00696237
-0.0019162
0.00204532
0.00477032
0.00615337
0.00616725
0.00489517
0.00255423
-0.000491385
-0.00375433
-0.00666653
-0.00875192
-0.00960216
-0.00912778
-0.00738559
-0.00466174
-0.00116115
0.00268232
0.00673754
0.0106816
0.0144107
0.0175857
0.0199467
0.0221607
0.024191
0.0266221
0.0272711
0.0253307
0.0162692
0.000555063
-0.0154322
-0.0237699
-0.0210941
-0.0137739
-0.00412338
0.00282575
0.0120824
0.0179506
0.021346
0.0269681
0.0208009
0.0147238
0.0019797
-0.00589081
-0.0832062
-0.0867103
-0.0859955
-0.0824216
-0.0778816
-0.0732853
-0.0686689
-0.063761
-0.0583778
-0.0525235
-0.0463214
-0.039926
-0.0334802
-0.0271161
-0.0209727
-0.0152319
-0.0100178
-0.00549795
-0.0018267
0.000873755
0.00252179
0.00309831
0.00266449
0.00138524
-0.000463273
-0.00256159
-0.00446123
-0.00580667
-0.00627495
-0.00575728
-0.00424166
-0.00191453
0.00109554
0.00445437
0.00804592
0.0116113
0.0150469
0.0180907
0.0204881
0.0228651
0.0251916
0.0280384
0.0296159
0.028664
0.021054
0.00712958
-0.00666799
-0.0142115
-0.0129567
-0.00777803
-0.000281644
0.00557583
0.0137588
0.0194357
0.0221676
0.0272026
0.0221249
0.0165007
0.0047132
-0.00373873
-0.0731696
-0.0763511
-0.075928
-0.0730474
-0.0693164
-0.0655305
-0.0617353
-0.0577021
-0.0532661
-0.0484185
-0.0432536
-0.0378963
-0.0324671
-0.0270782
-0.0218375
-0.0168795
-0.0123198
-0.00829
-0.00491158
-0.00228166
-0.000465574
0.000520973
0.000722473
0.000260317
-0.000665422
-0.0018303
-0.00291116
-0.00362946
-0.00373287
-0.00311438
-0.0017266
0.000316387
0.00293975
0.00589634
0.00908781
0.0123116
0.0154677
0.0183673
0.0207801
0.0232381
0.0256977
0.0286717
0.0306787
0.030309
0.0241514
0.0123534
0.000777622
-0.00594495
-0.00587664
-0.00245334
0.00321449
0.00810848
0.0152499
0.0207574
0.0233019
0.0276473
0.0238054
0.0184839
0.00755332
-0.00145483
-0.0641053
-0.0669418
-0.0667624
-0.0644724
-0.0614302
-0.0583378
-0.0552482
-0.0519666
-0.0483462
-0.0443683
-0.0401041
-0.0356541
-0.0311167
-0.0265904
-0.0221385
-0.0178803
-0.0139124
-0.0103385
-0.00725309
-0.00473298
-0.00283167
-0.00156335
-0.000897953
-0.000746928
-0.0009875
-0.00142408
-0.00184789
-0.00204542
-0.00182222
-0.00107923
0.000244915
0.0020867
0.00440747
0.00703089
0.0098789
0.0127946
0.0156874
0.0184245
0.0208143
0.0232684
0.0257136
0.028535
0.0305268
0.0304115
0.0256244
0.0161102
0.00665452
0.000777629
-3.21947e-06
0.00209775
0.00629993
0.0103729
0.0165419
0.0218537
0.0246494
0.0283458
0.0257721
0.0204826
0.0101991
0.000704502
-0.0558788
-0.0584106
-0.0584233
-0.0566419
-0.0541997
-0.0516941
-0.0491936
-0.0465444
-0.0436157
-0.0403805
-0.0368908
-0.0332325
-0.0294612
-0.0256602
-0.021914
-0.0182846
-0.0148546
-0.011705
-0.00891058
-0.00653207
-0.00461413
-0.0031722
-0.00218808
-0.00160314
-0.00132032
-0.00121425
-0.00112926
-0.000910232
-0.000410226
0.000457641
0.00175579
0.00345469
0.00553849
0.00788583
0.0104385
0.0130753
0.0157213
0.0182784
0.0205979
0.0229643
0.025294
0.0277771
0.0295092
0.0294582
0.0258212
0.0184471
0.0109244
0.0059311
0.00466067
0.00585636
0.00894039
0.0123314
0.0176321
0.022676
0.0259162
0.0291711
0.0277517
0.0221955
0.012319
0.00248393
-0.0484417
-0.050704
-0.0508594
-0.0494905
-0.0475457
-0.0455422
-0.043547
-0.0414327
-0.0390836
-0.0364701
-0.0336301
-0.0306211
-0.0275252
-0.0243795
-0.0212408
-0.018167
-0.0152204
-0.012463
-0.00995416
-0.00774198
-0.00586337
-0.00433478
-0.00314684
-0.00226089
-0.00161121
-0.00110846
-0.000643935
-0.00010521
0.000616649
0.00159436
0.00288452
0.0044787
0.00637477
0.00849195
0.0107891
0.0131725
0.0155845
0.0179477
0.0201524
0.0223609
0.0244946
0.0265886
0.0279886
0.0279243
0.0251881
0.0196309
0.0137818
0.00965651
0.00821937
0.00886434
0.0111282
0.0139604
0.0185081
0.023197
0.0267591
0.0297498
0.0292543
0.0232939
0.0136798
0.00373648
-0.0417464
-0.0437514
-0.0440031
-0.0429688
-0.0414387
-0.039855
-0.038282
-0.0366147
-0.0347532
-0.0326667
-0.0303808
-0.0279436
-0.0254057
-0.0228089
-0.0201946
-0.0176056
-0.015089
-0.0126919
-0.0104594
-0.00843021
-0.00663521
-0.0050907
-0.00379283
-0.00271652
-0.0018202
-0.00104163
-0.000306816
0.000465421
0.00135386
0.0024173
0.00370339
0.00521539
0.00695892
0.00888135
0.0109555
0.0131082
0.0152971
0.017456
0.01951
0.0215206
0.023418
0.0251446
0.026237
0.0261502
0.02411
0.0200062
0.0155217
0.0118698
0.010829
0.0111945
0.0128723
0.0152473
0.0191332
0.0233783
0.0269674
0.0296929
0.0297534
0.0235506
0.014231
0.00445983
-0.035709
-0.0374761
-0.0377932
-0.0370308
-0.035844
-0.0346083
-0.0333844
-0.0320869
-0.0306294
-0.028981
-0.0271578
-0.0251967
-0.0231357
-0.021008
-0.0188445
-0.0166773
-0.0145418
-0.0124724
-0.0105039
-0.00866746
-0.00699237
-0.00548443
-0.00414771
-0.00296787
-0.00192197
-0.000966744
-5.27183e-05
0.000877921
0.00188046
0.00300118
0.00427751
0.00571842
0.00733291
0.00908676
0.0109641
0.0129063
0.0148848
0.0168362
0.0187145
0.0205115
0.0221674
0.0235812
0.0244304
0.0243434
0.0228445
0.0198757
0.0165332
0.0138016
0.0127454
0.0129363
0.0141913
0.0161852
0.0194706
0.0231818
0.0264722
0.0287166
0.029003
0.0229445
0.0140805
0.00473906
-0.0302627
-0.0318184
-0.0321779
-0.0316337
-0.0307274
-0.0297771
-0.0288391
-0.0278441
-0.0267177
-0.0254301
-0.0239907
-0.0224267
-0.0207671
-0.0190367
-0.0172589
-0.015457
-0.0136572
-0.0118848
-0.0101666
-0.00852907
-0.00698799
-0.00555554
-0.00423545
-0.00302303
-0.00190478
-0.000852048
0.000166627
0.0011918
0.0022609
0.0034092
0.00466445
0.00603739
0.00753731
0.00914175
0.0108432
0.0125928
0.0143737
0.0161239
0.0178154
0.0194009
0.0208316
0.0219961
0.0226716
0.0226133
0.0215393
0.0194397
0.017008
0.0150185
0.0140683
0.0141646
0.0151129
0.0167772
0.019497
0.0226114
0.0253666
0.0269745
0.027194
0.0216348
0.0134035
0.00468193
-0.0253613
-0.0267257
-0.0271067
-0.0267345
-0.0260555
-0.0253374
-0.0246316
-0.0238816
-0.0230243
-0.0220315
-0.0209077
-0.0196726
-0.018348
-0.0169523
-0.0155024
-0.0140152
-0.0125095
-0.0110056
-0.00952714
-0.00807591
-0.00668172
-0.00535048
-0.00408998
-0.00289732
-0.0017659
-0.000677864
0.000385627
0.00145234
0.00254647
0.00369392
0.00491412
0.00621699
0.00761062
0.00907955
0.0106212
0.0121945
0.0137911
0.0153513
0.0168583
0.0182488
0.019482
0.0204545
0.0210152
0.021008
0.0202668
0.0188235
0.0170966
0.0156754
0.0148946
0.01495
0.01567
0.017036
0.019217
0.021738
0.0238454
0.0247996
0.0247367
0.0198551
0.0123898
0.00440073
-0.0209539
-0.0221444
-0.0225309
-0.0222934
-0.0217973
-0.0212668
-0.0207476
-0.0201946
-0.019554
-0.0188
-0.0179338
-0.0169694
-0.0159227
-0.014807
-0.0136344
-0.0124164
-0.0111661
-0.00989757
-0.00862469
-0.00736704
-0.00612821
-0.00491859
-0.00374633
-0.00261082
-0.00151032
-0.000434358
0.000627237
0.00169283
0.00277703
0.00389813
0.00506873
0.00629664
0.00758814
0.00893145
0.0103263
0.0117383
0.0131645
0.0145495
0.0158834
0.0171002
0.0181664
0.0189955
0.019485
0.0195391
0.0190582
0.0181043
0.0169096
0.0159238
0.0153212
0.0153622
0.0159011
0.0169845
0.0186571
0.0206844
0.0220811
0.0224644
0.0220267
0.0178355
0.011208
0.00399858
-0.0169918
-0.0180268
-0.0184079
-0.0182745
-0.0179244
-0.0175441
-0.0171739
-0.0167777
-0.0163102
-0.0157483
-0.0150909
-0.0143477
-0.0135302
-0.0126478
-0.0117088
-0.0107208
-0.00969305
-0.00863562
-0.00755919
-0.00647399
-0.00538737
-0.00430697
-0.00323983
-0.00218673
-0.00114845
-0.000119304
0.00090515
0.00193644
0.00298257
0.00405563
0.00516315
0.00631029
0.00750105
0.00872587
0.00998552
0.0112505
0.01252
0.0137462
0.0149234
0.015989
0.016917
0.0176396
0.0180864
0.0182027
0.0179238
0.0173282
0.0165292
0.0158719
0.0154304
0.0154641
0.0158524
0.0166618
0.0178257
0.0188649
0.0201614
0.0201459
0.0193482
0.0157618
0.00997907
0.00355382
-0.0134353
-0.0143318
-0.0146994
-0.0146451
-0.0144105
-0.0141494
-0.0138971
-0.0136246
-0.0132944
-0.0128859
-0.0123965
-0.011833
-0.0112035
-0.0105144
-0.00977104
-0.00897836
-0.00814234
-0.00727006
-0.00636908
-0.00544606
-0.00450698
-0.00355775
-0.00260476
-0.00164966
-0.000694422
0.000263704
0.00122568
0.00219808
0.0031845
0.00419238
0.00522533
0.00628599
0.00737652
0.00848836
0.00962212
0.0107533
0.0118812
0.012965
0.0140013
0.0149375
0.0157528
0.0163953
0.0168158
0.0169871
0.0168625
0.0165248
0.0160149
0.0155971
0.0152898
0.0153122
0.0155745
0.0161381
0.0169221
0.017603
0.0183026
0.0179546
0.0168657
0.0137634
0.00877928
0.00311492
-0.0102484
-0.0110216
-0.01137
-0.011375
-0.011231
-0.0110639
-0.010904
-0.0107285
-0.0105062
-0.0102192
-0.00986435
-0.00944591
-0.00896962
-0.00843979
-0.0078595
-0.00723163
-0.00655994
-0.00584864
-0.00510291
-0.00432887
-0.0035298
-0.00270963
-0.00187374
-0.00102454
-0.000164689
0.000706922
0.00158935
0.00248583
0.00339708
0.00432699
0.00527662
0.00624647
0.00723701
0.00824056
0.00925667
0.0102654
0.0112658
0.0122235
0.0131349
0.0139598
0.0146821
0.0152626
0.0156648
0.0158797
0.0158701
0.0157116
0.0154059
0.0151577
0.0149614
0.0149581
0.015116
0.0154657
0.0159459
0.0162838
0.016536
0.0159423
0.0146526
0.0119209
0.00765392
0.00270688
-0.00739842
-0.00806247
-0.00838824
-0.00843693
-0.00836341
-0.00826989
-0.00818196
-0.00808169
-0.00794361
-0.00775243
-0.00750455
-0.00720265
-0.00685062
-0.0064512
-0.00600606
-0.00551651
-0.00498461
-0.00441286
-0.00380522
-0.00316498
-0.00249503
-0.00179768
-0.00107712
-0.000335879
0.000423043
0.00119972
0.00199245
0.00280235
0.00362839
0.00447202
0.0053326
0.00620909