/*--------------------------------*- C++ -*----------------------------------*\
| =========                 |                                                 |
| \\      /  F ield         | OpenFOAM: The Open Source CFD Toolbox           |
|  \\    /   O peration     | Version:  2512                                  |
|   \\  /    A nd           | Website:  www.openfoam.com                      |
|    \\/     M anipulation  |                                                 |
\*---------------------------------------------------------------------------*/
FoamFile
{
    version     2.0;
    format      ascii;
    arch        "LSB;label=32;scalar=64";
    class       volVectorField;
    location    "119";
    object      U;
}
// * * * * * * * * * * * * * * * * * * * * * * * * * * * * * * * * * * * * * //

dimensions      [0 1 -1 0 0 0 0];

internalField   nonuniform List<vector> 
13248
(
(-0.0139579 0.0127993 9.29145e-20)
(-0.0244861 0.0269682 0)
(-0.017203 0.0346358 -1.75308e-19)
(0.0073427 0.0376555 1.65135e-19)
(0.048727 0.0374503 1.54363e-19)
(0.106505 0.0351351 0)
(0.179998 0.0315628 0)
(0.268079 0.0273837 3.74319e-19)
(0.368936 0.0230622 -3.98996e-22)
(0.479904 0.0188706 -3.29501e-19)
(0.597419 0.0148865 3.09572e-19)
(0.71718 0.0110101 -1.93904e-19)
(0.834462 0.00700556 0)
(0.944558 0.00256334 -3.40171e-19)
(1.04324 -0.0026267 6.36009e-19)
(1.12722 -0.00880429 -1.5239e-19)
(1.19441 -0.016084 -2.69743e-19)
(1.24414 -0.0244401 2.53257e-19)
(1.2771 -0.0336618 0)
(1.29507 -0.0436608 0)
(1.30077 -0.0534526 0)
(1.29628 -0.0654197 0)
(1.28566 -0.0715631 7.10738e-20)
(1.26651 -0.0961439 2.47046e-19)
(-0.013411 0.0109865 -2.80422e-19)
(-0.0178408 0.0202891 1.90977e-19)
(-0.000247008 0.0234852 -1.79526e-21)
(0.0381372 0.0229618 -2.52181e-19)
(0.0964443 0.0204851 -1.54196e-19)
(0.173661 0.017381 -1.4607e-19)
(0.268162 0.0145673 -2.68855e-19)
(0.377387 0.0126193 2.54387e-19)
(0.497647 0.0117939 0)
(0.624177 0.0120378 5.22628e-22)
(0.751454 0.0130201 9.39785e-22)
(0.873739 0.0142054 1.92895e-19)
(0.985703 0.0149627 0)
(1.08303 0.0146875 0)
(1.16283 0.0129136 2.29331e-19)
(1.2239 0.0093901 -4.31195e-19)
(1.26666 0.00410887 2.55969e-19)
(1.29291 -0.0027147 -2.4034e-19)
(1.30537 -0.0107097 -1.04335e-19)
(1.30718 -0.0194037 -1.89197e-19)
(1.30133 -0.0283056 -7.5842e-20)
(1.29044 -0.0371391 -1.42097e-19)
(1.27627 -0.0437983 2.11575e-19)
(1.25992 -0.0547109 5.89597e-20)
(-0.0116312 0.00879557 0)
(-0.00697826 0.0133367 0)
(0.0245497 0.0130081 8.92421e-20)
(0.0807085 0.0103786 8.22363e-20)
(0.159712 0.00738244 -1.87436e-21)
(0.2593 0.00543826 -1.51052e-19)
(0.376063 0.00537637 0)
(0.505169 0.00748793 -1.26668e-19)
(0.640491 0.0115743 1.19414e-19)
(0.775134 0.0170209 5.58033e-22)
(0.902246 0.0229301 -2.0541e-19)
(1.01589 0.0283049 -1.89123e-19)
(1.11174 0.0322402 3.06911e-21)
(1.18753 0.0340805 -1.57077e-19)
(1.24302 0.0335085 3.77185e-19)
(1.2798 0.0305549 0)
(1.3007 0.0255385 -2.43516e-19)
(1.30918 0.0189579 1.19072e-19)
(1.30868 0.0114039 1.04257e-19)
(1.30216 0.00337301 0)
(1.29196 -0.00443911 8.41435e-20)
(1.27941 -0.0123508 -2.83317e-19)
(1.2658 -0.0178045 2.65967e-19)
(1.25099 -0.0281664 1.62007e-19)
(-0.0080875 0.00611814 -9.88776e-20)
(0.0092577 0.00599673 -1.02216e-19)
(0.0585198 0.00324236 9.25508e-20)
(0.136073 0.000204767 0)
(0.238563 -0.00127663 0)
(0.361625 6.57431e-05 -3.32936e-21)
(0.499189 0.00467795 0)
(0.643597 0.0122404 -3.87514e-19)
(0.786369 0.0218204 3.60383e-19)
(0.919353 0.0321022 -4.45517e-19)
(1.03588 0.0416774 1.02532e-19)
(1.13163 0.0493291 0)
(1.20492 0.0542381 1.70617e-19)
(1.25652 0.0560709 -3.15974e-19)
(1.2891 0.0549471 7.54379e-20)
(1.30634 0.0513203 1.92779e-19)
(1.31222 0.0458201 -8.98888e-21)
(1.31032 0.0391103 -2.13029e-19)
(1.30347 0.0317769 0)
(1.29368 0.0243065 0)
(1.28221 0.0170633 -7.52811e-20)
(1.2698 0.0101324 6.7145e-20)
(1.25702 0.00478623 2.38319e-19)
(1.24372 -0.0039134 -2.23794e-19)
(-0.00231326 0.00304401 -1.03951e-19)
(0.0318347 -0.00140546 -1.03819e-19)
(0.102585 -0.00522002 2.91989e-19)
(0.204452 -0.0066972 -1.77621e-19)
(0.331704 -0.00445566 1.67179e-19)
(0.476958 0.00223336 3.04447e-19)
(0.630879 0.0130139 -2.15234e-19)
(0.783106 0.0266116 -2.62144e-19)
(0.923832 0.041216 5.10644e-21)
(1.04536 0.0549304 3.36042e-19)
(1.14314 0.0661798 0)
(1.21597 0.0739756 9.23162e-20)
(1.26553 0.0779897 0)
(1.29545 0.0784607 -1.51063e-19)
(1.31019 0.0759995 2.12679e-19)
(1.31417 0.0713727 2.40043e-21)
(1.31111 0.0653296 -5.55529e-20)
(1.30378 0.0584986 1.04432e-19)
(1.29404 0.0513584 8.94982e-20)
(1.28303 0.0442421 -8.01046e-20)
(1.2714 0.0374013 7.52635e-20)
(1.25949 0.0308852 -6.71282e-20)
(1.24754 0.0254032 0)
(1.23546 0.0176338 -5.04216e-20)
(0.00607664 -0.000167138 1.03936e-19)
(0.0614405 -0.00812867 1.09024e-19)
(0.157096 -0.011248 -9.78428e-20)
(0.285085 -0.00895152 1.82664e-19)
(0.436401 -0.000809756 -1.71917e-19)
(0.59996 0.0128496 1.55854e-19)
(0.763225 0.0304349 -7.47657e-20)
(0.914227 0.0495398 1.96742e-19)
(1.0437 0.0676405 -1.23589e-19)
(1.14643 0.0826949 2.18828e-19)
(1.22143 0.0934883 -5.048e-19)
(1.27113 0.0996882 1.85139e-19)
(1.30004 0.101669 -1.62481e-19)
(1.31342 0.100224 1.52626e-19)
(1.31616 0.0962827 1.31891e-19)
(1.31222 0.0907058 1.15865e-19)
(1.30443 0.0841824 -3.21924e-19)
(1.2946 0.0772131 1.99861e-19)
(1.2838 0.0701384 -8.95024e-20)
(1.27261 0.0631874 2.32681e-19)
(1.26131 0.0565076 -7.51511e-20)
(1.25004 0.0501917 -1.81871e-19)
(1.23885 0.044565 1.67741e-19)
(1.22767 0.0375347 5.04072e-20)
(0.0173682 -0.00312401 0)
(0.0983875 -0.0131217 9.3456e-22)
(0.221665 -0.0133642 2.04381e-19)
(0.376051 -0.00497664 -1.91684e-19)
(0.548516 0.0108963 -1.73385e-19)
(0.72418 0.0323264 3.22324e-19)
(0.888345 0.0562391 -1.49728e-19)
(1.02939 0.0792753 1.99572e-19)
(1.14074 0.098713 -4.38668e-21)
(1.2211 0.112971 -1.13001e-19)
(1.27343 0.121652 2.4679e-19)
(1.3031 0.125267 -3.63961e-19)
(1.3162 0.124823 0)
(1.31825 0.121458 -7.14807e-20)
(1.3136 0.116189 -1.91231e-19)
(1.30525 0.109801 6.00728e-20)
(1.29508 0.102847 2.43805e-21)
(1.28416 0.095687 -1.32259e-19)
(1.27303 0.0885524 8.35468e-21)
(1.26194 0.0815901 1.52919e-19)
(1.251 0.0748989 -6.81045e-20)
(1.24022 0.0685588 -2.57432e-20)
(1.2296 0.062639 7.97997e-20)
(1.21908 0.0560406 0)
(0.0317149 -0.00535283 0)
(0.142503 -0.0151762 5.53546e-20)
(0.295015 -0.0100118 -2.65712e-19)
(0.474248 0.00663769 9.69128e-20)
(0.662862 0.0313838 -9.12073e-20)
(0.843003 0.0603255 -8.32775e-20)
(0.999764 0.089044 -1.47423e-19)
(1.12415 0.1138 7.3497e-20)
(1.21382 0.132367 6.40929e-20)
(1.27185 0.144139 0)
(1.30437 0.149726 1.45944e-19)
(1.31845 0.150391 -2.17097e-19)
(1.32045 0.147544 1.61772e-19)
(1.31531 0.142426 7.15198e-20)
(1.30638 0.135975 -5.86636e-20)
(1.29573 0.128833 -4.92213e-20)
(1.28447 0.121403 -4.60079e-20)
(1.27316 0.113931 1.37383e-19)
(1.26205 0.106568 0)
(1.25121 0.0994144 6.90987e-20)
(1.24066 0.0925415 5.8094e-20)
(1.23037 0.0860056 -1.44252e-19)
(1.22029 0.0797731 -9.84705e-20)
(1.21034 0.0734507 9.11163e-20)
(0.0491005 -0.00633086 -5.91552e-20)
(0.19305 -0.013064 -2.03115e-21)
(0.374971 0.000190754 5.40159e-20)
(0.575644 0.0268195 1.50955e-19)
(0.773914 0.0606462 4.39136e-20)
(0.950734 0.0958083 -8.4792e-20)
(1.09337 0.127128 7.75859e-20)
(1.19726 0.151283 -6.81289e-20)
(1.26488 0.167159 1.21896e-19)
(1.30298 0.175365 5.20531e-20)
(1.31969 0.177441 -1.47497e-19)
(1.3225 0.175159 4.35981e-20)
(1.3172 0.170083 7.45695e-20)
(1.30773 0.163382 -3.66468e-20)
(1.29646 0.155838 0)
(1.28466 0.14793 5.49936e-20)
(1.27294 0.139937 9.32923e-20)
(1.26156 0.132022 1.61135e-20)
(1.2506 0.124283 -7.78922e-20)
(1.24004 0.11679 3.27217e-20)
(1.22985 0.109595 0)
(1.21998 0.102719 -2.57692e-20)
(1.21036 0.0961104 -2.42608e-20)
(1.20089 0.089821 0)
(0.0692852 -0.00552492 0)
(0.248689 -0.00567692 3.09399e-20)
(0.45858 0.0182424 5.73674e-20)
(0.675732 0.0558462 -1.53538e-19)
(0.876605 0.0979709 4.94654e-20)
(1.04335 0.1373 0)
(1.16752 0.168796 7.45444e-20)
(1.24987 0.190323 -1.04025e-19)
(1.29726 0.202232 -6.07809e-20)
(1.31896 0.20632 2.75415e-20)
(1.32386 0.204819 -4.4076e-20)
(1.31897 0.199745 1.0703e-19)
(1.30911 0.192615 5.38518e-20)
(1.29717 0.184434 -3.73224e-20)
(1.28469 0.175801 -3.40186e-21)
(1.27239 0.167054 -1.03141e-19)
(1.26056 0.158378 4.70265e-20)
(1.24929 0.149877 -1.11256e-21)
(1.23856 0.141618 0)
(1.22833 0.13365 -3.27556e-20)
(1.21854 0.126005 0)
(1.20909 0.118678 7.44512e-20)
(1.19994 0.111671 -8.87708e-20)
(1.19093 0.105241 4.04889e-20)
(0.0917753 -0.00243527 -1.59953e-20)
(0.30751 0.00785529 -7.78868e-20)
(0.542365 0.0446312 8.84958e-20)
(0.770073 0.093327 5.2174e-20)
(0.966907 0.142116 -2.49623e-20)
(1.11862 0.18318 4.1899e-20)
(1.22243 0.212591 -2.03759e-20)
(1.2843 0.229947 3.39596e-20)
(1.31444 0.237138 0)
(1.32342 0.236935 7.72022e-20)
(1.31994 0.231977 -3.05945e-21)
(1.31007 0.224294 -6.25258e-20)
(1.29751 0.215237 2.68956e-20)
(1.28425 0.205607 -3.04968e-20)
(1.27122 0.195838 -1.17443e-20)
(1.25879 0.186155 1.34026e-20)
(1.24706 0.176675 -1.0471e-20)
(1.23601 0.167466 -5.6825e-20)
(1.22559 0.15857 3.48696e-20)
(1.21573 0.15002 7.2047e-21)
(1.20635 0.141825 6.36511e-21)
(1.19735 0.133971 5.62441e-21)
(1.18864 0.126536 0)
(1.18007 0.119755 0)
(0.1159 0.00337094 1.60064e-20)
(0.367298 0.0280888 -1.60695e-20)
(0.622815 0.0792869 -2.94736e-20)
(0.85488 0.138299 0)
(1.04213 0.191551 -1.23734e-20)
(1.17585 0.231911 -1.1102e-20)
(1.25932 0.257383 -1.90614e-20)
(1.30297 0.269544 0)
(1.31917 0.271678 0)
(1.31875 0.267234 0)
(1.30961 0.258994 0)
(1.29668 0.248847 0)
(1.28266 0.23792 -1.69487e-20)
(1.26883 0.226815 7.73258e-21)
(1.25568 0.215828 1.34971e-20)
(1.24338 0.2051 6.30577e-21)
(1.2319 0.194701 1.5734e-20)
(1.2212 0.184671 0)
(1.21119 0.175034 -3.82169e-21)
(1.20178 0.165808 -3.6281e-21)
(1.19288 0.156983 -6.3752e-21)
(1.18439 0.148552 -5.63335e-21)
(1.17619 0.140675 0)
(1.16815 0.133389 4.10087e-21)
(-0.00231969 0.0493321 9.65142e-21)
(-0.00786796 0.116521 -9.97428e-21)
(-0.0164698 0.160699 -1.88397e-20)
(-0.0271468 0.187271 0)
(-0.0391036 0.200973 -2.51049e-20)
(-0.0517744 0.205825 7.8151e-21)
(-0.0646731 0.204943 -1.5052e-20)
(-0.0774046 0.200473 0)
(-0.0896723 0.19367 0)
(-0.101258 0.185072 0)
(-0.111997 0.174713 0)
(-0.121758 0.162318 0)
(-0.130425 0.147468 -2.03693e-22)
(-0.13789 0.129703 -1.02928e-20)
(-0.144043 0.108596 2.03147e-20)
(-0.148777 0.0837975 2.87879e-20)
(-0.151988 0.0550663 9.5928e-21)
(-0.153595 0.022283 0)
(-0.153442 -0.014554 7.97211e-21)
(-0.151367 -0.0551327 -2.31485e-20)
(-0.147385 -0.098943 -1.4714e-20)
(-0.141483 -0.14524 -1.37436e-20)
(-0.13369 -0.193002 0)
(-0.124292 -0.240743 0)
(-0.0050725 0.0507631 -2.92504e-20)
(-0.0131461 0.121244 5.0143e-20)
(-0.0213141 0.168706 -1.93206e-20)
(-0.0298772 0.198139 -3.60837e-20)
(-0.038765 0.214052 5.07632e-20)
(-0.0477869 0.220396 -3.23154e-20)
(-0.0566674 0.22033 4.54408e-20)
(-0.0651086 0.216106 2.93655e-20)
(-0.0728333 0.209098 0)
(-0.0796013 0.199953 -2.62084e-20)
(-0.0852128 0.188789 -7.67203e-22)
(-0.0895045 0.175388 2.30695e-20)
(-0.0923426 0.15936 3.44344e-20)
(-0.0936154 0.140256 4.40654e-20)
(-0.0932274 0.117648 -1.95375e-20)
(-0.0910955 0.091177 -5.89044e-20)
(-0.0871591 0.0606049 1.99789e-20)
(-0.0813854 0.0258223 -7.34111e-20)
(-0.0737335 -0.0131317 0)
(-0.0641233 -0.0559882 1.56392e-20)
(-0.0526292 -0.1022 1.46899e-20)
(-0.0393309 -0.150914 1.37208e-20)
(-0.0240256 -0.200809 0)
(-0.00655928 -0.249843 0)
(-0.0077285 0.0501773 0)
(-0.0183571 0.121634 1.0394e-19)
(-0.0260815 0.171262 -3.911e-20)
(-0.0323416 0.203176 3.66222e-20)
(-0.0377389 0.22133 -1.048e-19)
(-0.0424607 0.229386 0)
(-0.0464681 0.230405 -6.28808e-20)
(-0.0495938 0.226659 2.98081e-20)
(-0.0516113 0.21962 -5.72424e-20)
(-0.0522824 0.210055 2.80418e-20)
(-0.0513865 0.198194 1.56582e-19)
(-0.0487365 0.183917 -7.36968e-20)
(-0.0441825 0.166901 -1.19109e-19)
(-0.0376109 0.146745 -4.8122e-20)
(-0.0289408 0.123052 -1.87191e-21)
(-0.0180976 0.095482 1.67495e-19)
(-0.00505393 0.0637947 -7.94522e-20)
(0.0100966 0.027869 -1.75735e-21)
(0.0273219 -0.0122267 0)
(0.0466761 -0.0562054 -7.06917e-20)
(0.0679652 -0.103555 0)
(0.0909373 -0.153423 -5.94594e-20)
(0.115721 -0.204366 2.27035e-19)
(0.14402 -0.25413 -2.30759e-21)
(-0.0100149 0.0476993 0)
(-0.0230161 0.117724 8.83518e-22)
(-0.0303775 0.168133 4.02958e-20)
(-0.0343881 0.201841 -3.81333e-20)
(-0.0361905 0.222008 3.49061e-20)
(-0.0363058 0.231818 2.02352e-19)
(-0.034943 0.234085 -6.35252e-20)
(-0.032101 0.231014 -6.10694e-20)
(-0.0276454 0.224119 1.15395e-19)
(-0.0213781 0.214277 -1.66052e-19)
(-0.0130883 0.201846 5.24957e-20)
(-0.00258494 0.186825 5.10634e-20)
(0.0102875 0.168991 0)
(0.0256434 0.148016 4.61239e-20)
(0.0435558 0.123554 0)
(0.0640613 0.0952975 8.72026e-20)
(0.0871606 0.0630095 -1.67587e-19)
(0.112791 0.0265857 3.61981e-20)
(0.140867 -0.0138553 1.50349e-19)
(0.171284 -0.0580476 7.06005e-20)
(0.203764 -0.105488 0)
(0.238023 -0.155333 -1.8858e-19)
(0.273075 -0.206171 5.93178e-20)
(0.315083 -0.255154 0)
(-0.0117329 0.0436806 0)
(-0.0267406 0.110015 -1.2915e-19)
(-0.0338996 0.159631 -4.07373e-20)
(-0.0359427 0.194121 -7.65835e-20)
(-0.0343567 0.215744 7.21062e-20)
(-0.0299224 0.227083 -6.77215e-20)
(-0.0230821 0.230586 1.29988e-19)
(-0.0140227 0.228291 6.25002e-20)
(-0.0027421 0.22169 -1.74488e-19)
(0.0108751 0.21173 1.12928e-19)
(0.0269944 0.198887 -1.60669e-19)
(0.0457879 0.183283 3.61564e-19)
(0.0674073 0.164809 -1.9527e-19)
(0.0919731 0.143228 9.51539e-20)
(0.119567 0.11826 2.76401e-19)
(0.150233 0.0896362 -8.30985e-20)
(0.18398 0.0571773 -8.08793e-20)
(0.220764 0.0208093 -7.91107e-20)
(0.260457 -0.0193629 0)
(0.302851 -0.0630302 -1.46273e-19)
(0.347408 -0.109627 -1.37099e-19)
(0.394262 -0.158124 1.9361e-19)
(0.439094 -0.207734 2.34335e-19)
(0.497049 -0.253827 -2.19792e-19)
(-0.0128031 0.0386377 0)
(-0.0293276 0.0994037 -1.75775e-19)
(-0.0364691 0.146592 -2.74607e-22)
(-0.0369701 0.180578 1.55056e-19)
(-0.0324361 0.202753 0)
(-0.0238069 0.215068 0)
(-0.0117157 0.219538 0)
(0.00346584 0.217952 -6.2581e-20)
(0.0215873 0.211708 -1.64111e-21)
(0.0426538 0.201766 1.11579e-19)
(0.0667635 0.188681 -1.63603e-19)
(0.0940587 0.172682 -1.70069e-21)
(0.124692 0.153765 0)
(0.158813 0.131784 -9.50981e-20)
(0.196534 0.106535 9.3833e-20)
(0.237953 0.0778309 -2.61605e-19)
(0.283109 0.0455311 3.38673e-19)
(0.331909 0.00960311 8.44926e-20)
(0.384113 -0.0297921 3.45228e-21)
(0.43938 -0.072212 -2.89689e-19)
(0.496425 -0.117109 -1.35125e-19)
(0.556466 -0.162738 4.41416e-19)
(0.609621 -0.209977 -2.93025e-19)
(0.68248 -0.250845 0)
(-0.0132839 0.0331719 8.70758e-20)
(-0.0307932 0.0870516 8.82147e-20)
(-0.0380499 0.130278 -8.35602e-20)
(-0.0374322 0.162313 -1.56233e-19)
(-0.0304568 0.183846 1.47092e-19)
(-0.0181131 0.196259 -1.38788e-19)
(-0.00115772 0.20113 1.95996e-19)
(0.0198901 0.199953 -6.27034e-20)
(0.0447445 0.193971 1.17163e-19)
(0.0733092 0.184096 0)
(0.105627 0.170908 1.09175e-19)
(0.141827 0.154703 -2.02807e-19)
(0.182081 0.135562 1.99296e-19)
(0.226587 0.113433 -1.87172e-19)
(0.275532 0.0882037 0)
(0.328995 0.0597509 1.74056e-19)
(0.386915 0.0280014 3.35383e-19)
(0.449037 -0.00694563 -3.16014e-19)
(0.514725 -0.0448137 -1.49254e-19)
(0.583272 -0.0848991 -1.44503e-19)
(0.65214 -0.126881 4.02502e-19)
(0.723569 -0.167748 1.19294e-19)
(0.782324 -0.211024 -1.14286e-19)
(0.8638 -0.244013 9.9389e-20)
(-0.0133577 0.0278692 -8.70878e-20)
(-0.0313489 0.0741914 2.6838e-19)
(-0.0387051 0.112186 -8.47012e-20)
(-0.0371962 0.140838 1.57154e-19)
(-0.0281005 0.160393 -1.47958e-19)
(-0.0123585 0.171802 -3.87918e-23)
(0.00923572 0.176261 6.53379e-20)
(0.0360905 0.174972 2.48173e-19)
(0.0678484 0.16899 2.39469e-21)
(0.104363 0.15913 -1.10703e-19)
(0.145674 0.145938 0)
(0.191928 0.129753 -1.03212e-19)
(0.243332 0.110722 1.92994e-19)
(0.300081 0.0888668 1.88731e-19)
(0.362251 0.06415 -8.85377e-20)
(0.429726 0.0365541 -1.69461e-21)
(0.502063 0.00617364 -8.26606e-20)
(0.578417 -0.0267249 1.5327e-19)
(0.657342 -0.0617331 1.49218e-19)
(0.737336 -0.0978345 -1.40421e-19)
(0.814675 -0.135067 1.25581e-19)
(0.891374 -0.169213 -1.15296e-19)
(0.950626 -0.206683 0)
(1.02861 -0.229706 -9.93628e-20)
(-0.0132789 0.0232018 8.81047e-20)
(-0.0312983 0.0619132 -8.98657e-20)
(-0.0384631 0.0938018 8.47802e-20)
(-0.0358628 0.117857 0)
(-0.0244653 0.134179 0)
(-0.00508421 0.143463 1.39293e-19)
(0.0215465 0.146624 -1.30842e-19)
(0.0548686 0.144618 1.23857e-19)
(0.0945528 0.138309 -5.83387e-19)
(0.140466 0.128385 -1.11069e-21)
(0.192662 0.115377 1.04836e-19)
(0.251295 0.0996112 0)
(0.316438 0.0812626 -1.93867e-19)
(0.388022 0.0604245 3.67441e-19)
(0.465672 0.0371808 -2.62755e-19)
(0.548583 0.0116627 -4.22146e-19)
(0.635415 -0.0158917 -3.40623e-21)
(0.724273 -0.0450727 2.95241e-19)
(0.812651 -0.0753745 0)
(0.897991 -0.105694 0)
(0.976218 -0.13626 -1.25586e-19)
(1.04788 -0.16262 1.15304e-19)
(1.09975 -0.192876 -3.97107e-19)
(1.1599 -0.206 3.72068e-19)
(-0.0132868 0.0194456 0)
(-0.0308613 0.0509755 0)
(-0.037109 0.0763481 -2.5448e-19)
(-0.0325443 0.0950005 8.09689e-20)
(-0.017827 0.107159 8.81893e-22)
(0.00641024 0.113446 1.40177e-19)
(0.0395817 0.114618 0)
(0.0812513 0.111452 -1.23e-19)
(0.131172 0.104663 1.1641e-19)
(0.18926 0.0948583 -2.20221e-19)
(0.255434 0.0824939 -1.25353e-21)
(0.329523 0.0678622 2.00083e-19)
(0.411111 0.0511934 2.82232e-21)
(0.499336 0.0326541 1.84395e-19)
(0.592783 0.0124072 -2.56388e-19)
(0.689429 -0.00934028 0)
(0.786678 -0.0322933 3.09095e-19)
(0.881482 -0.0560504 -4.38205e-19)
(0.970571 -0.0801049 1.32088e-19)
(1.05083 -0.103682 0)
(1.11903 -0.126772 1.1166e-19)
(1.1747 -0.146169 4.12747e-19)
(1.21089 -0.169114 -3.87419e-19)
(1.24428 -0.175328 -4.08933e-19)
(-0.0135005 0.0166296 2.67525e-19)
(-0.0299756 0.0416804 -3.66797e-19)
(-0.0339854 0.0605981 1.27735e-21)
(-0.0257153 0.0735797 8.11638e-20)
(-0.00558336 0.0811837 -1.50489e-19)
(0.0259727 0.0841135 -1.39796e-19)
(0.0685451 0.0830857 2.61981e-19)
(0.121811 0.0787887 -2.33874e-22)
(0.1855 0.0718411 -2.31538e-19)
(0.259272 0.0627588 4.3873e-19)
(0.342552 0.0519218 2.48753e-21)
(0.43432 0.0396234 -1.95635e-19)
(0.532996 0.0260643 0)
(0.636344 0.0113886 0)
(0.741499 -0.00427691 -8.49625e-20)
(0.845107 -0.0207905 -1.558e-19)
(0.943567 -0.0379543 -2.96704e-19)
(1.03332 -0.0555405 2.78522e-19)
(1.1113 -0.0731472 -1.32172e-19)
(1.17505 -0.090551 2.33313e-19)
(1.22336 -0.107138 -1.18616e-19)
(1.25634 -0.122138 1.84209e-19)
(1.27307 -0.13883 -4.44231e-19)
(1.28192 -0.143078 8.15898e-20)
(-0.0138287 0.0145385 9.00673e-20)
(-0.0281543 0.0338559 0)
(-0.0279024 0.0467892 1.72934e-19)
(-0.0132605 0.0544135 -1.62902e-19)
(0.0154652 0.0577221 1.50631e-19)
(0.0579587 0.0576024 0)
(0.113868 0.0548175 0)
(0.182742 0.0500255 -1.23733e-19)
(0.263885 0.043775 -1.95385e-22)
(0.35616 0.0364907 1.0904e-19)
(0.4578 0.0284626 -1.03641e-19)
(0.566304 0.0198569 1.94547e-19)
(0.67845 0.0107308 0)
(0.790454 0.00106486 3.48338e-19)
(0.898235 -0.00919567 -6.54029e-19)
(0.997778 -0.0200989 4.62903e-19)
(1.08552 -0.031637 2.83459e-19)
(1.1587 -0.0437618 -2.66112e-19)
(1.21571 -0.0562165 0)
(1.25602 -0.0690974 0)
(1.28084 -0.0812878 0)
(1.29154 -0.0945668 0)
(1.29161 -0.105595 8.4498e-20)
(1.2851 -0.114675 -2.823e-19)
(-0.113011 -0.294557 -7.46998e-21)
(-0.105594 -0.359527 7.52954e-21)
(-0.0964112 -0.421871 -2.19468e-22)
(-0.0868839 -0.477881 0)
(-0.0769468 -0.524368 -5.27209e-21)
(-0.0654546 -0.557919 9.8863e-21)
(-0.0500199 -0.574569 -2.68921e-22)
(-0.0271697 -0.569568 -4.23783e-21)
(0.00628662 -0.538143 0)
(0.0520424 -0.47655 0)
(0.109477 -0.383612 -2.23575e-22)
(0.175711 -0.263532 -2.23163e-22)
(0.24736 -0.123135 -4.06797e-21)
(0.320701 0.0307874 3.73836e-21)
(0.393192 0.187791 0)
(0.462548 0.332633 0)
(0.52488 0.44824 2.27101e-21)
(0.575595 0.523897 -3.93761e-22)
(0.611716 0.559979 -1.668e-21)
(0.633786 0.565007 -7.83858e-23)
(0.642986 0.553563 0)
(0.6363 0.545053 0)
(0.611186 0.550361 0)
(0.576454 0.552799 0)
(0.553761 0.510159 0)
(0.562081 0.387787 0)
(0.601738 0.19231 6.60132e-22)
(0.659733 -0.0312721 -1.0932e-21)
(0.720209 -0.227775 0)
(0.771129 -0.364355 0)
(0.804489 -0.437414 -4.35859e-22)
(0.821699 -0.462072 4.23605e-22)
(0.82748 -0.458226 1.51499e-22)
(0.818659 -0.45518 0)
(0.787182 -0.468387 0)
(0.738246 -0.472058 2.96294e-22)
(0.695945 -0.415626 -2.88024e-22)
(0.682696 -0.267319 0)
(0.699677 -0.0696458 3.6287e-22)
(0.737466 0.12649 -5.13307e-22)
(0.780096 0.260384 1.31855e-22)
(0.819134 0.343301 0)
(0.836168 0.384472 -1.73133e-22)
(0.817841 0.418368 1.68356e-22)
(0.775314 0.428031 0)
(0.73684 0.359841 0)
(0.7277 0.229629 -9.43322e-23)
(0.754718 0.0232732 2.83259e-22)
(0.793818 -0.115875 0)
(0.828038 -0.250062 0)
(0.824857 -0.313276 -5.00729e-23)
(0.793938 -0.357669 1.69231e-24)
(0.772469 -0.357367 -3.06817e-24)
(0.772625 -0.204105 3.18504e-23)
(0.795011 -0.117699 0)
(0.808665 0.122162 0)
(0.803486 0.216337 0)
(0.791533 0.306835 0)
(0.793727 0.369642 0)
(0.782278 0.093781 0)
(0.00997872 -0.303411 -8.24934e-22)
(0.0164448 -0.367669 -3.12682e-20)
(0.0227767 -0.429546 2.45105e-21)
(0.0263094 -0.484638 2.69873e-20)
(0.0259226 -0.530449 3.66682e-22)
(0.0218624 -0.564761 0)
(0.0161236 -0.584863 -1.66914e-20)
(0.0125759 -0.586947 3.16986e-20)
(0.0164489 -0.565891 -1.49911e-20)
(0.0333875 -0.516794 1.35148e-20)
(0.0654794 -0.435699 -1.29122e-20)
(0.111215 -0.323063 1.30244e-20)
(0.169654 -0.186594 -1.25723e-20)
(0.236745 -0.033739 -3.48658e-22)
(0.308129 0.124186 -1.10824e-20)
(0.380557 0.273153 1.07698e-20)
(0.449886 0.396909 -7.92839e-21)
(0.510993 0.484351 7.50321e-21)
(0.559912 0.533378 -5.45123e-21)
(0.59527 0.5506 9.97846e-21)
(0.615259 0.551167 -4.56167e-21)
(0.615956 0.554493 -2.67153e-22)
(0.598186 0.567539 -4.92157e-21)
(0.575498 0.568315 1.04569e-20)
(0.570039 0.514244 -5.51397e-21)
(0.595428 0.376932 4.54618e-22)
(0.647089 0.169456 7.99435e-21)
(0.710649 -0.0601108 -8.51891e-23)
(0.770018 -0.255711 -1.3126e-20)
(0.814812 -0.385419 1.07147e-20)
(0.839304 -0.449412 -4.65157e-21)
(0.846397 -0.466663 3.88934e-22)
(0.842847 -0.456654 -1.51795e-22)
(0.828304 -0.445732 2.51198e-22)
(0.793856 -0.450843 0)
(0.740774 -0.452322 0)
(0.691191 -0.403129 -1.21073e-21)
(0.669496 -0.267357 8.80071e-22)
(0.681673 -0.0810297 9.79087e-22)
(0.718648 0.109487 3.10985e-23)
(0.765673 0.243554 -1.22436e-21)
(0.809274 0.332449 1.96985e-22)
(0.830359 0.38377 0)
(0.814398 0.427193 0)
(0.775773 0.440237 0)
(0.742808 0.367526 0)
(0.736588 0.22843 4.43e-22)
(0.765383 0.0150313 -1.91699e-22)
(0.802208 -0.125721 0)
(0.837114 -0.253872 0)
(0.83264 -0.309459 0)
(0.801263 -0.351065 -7.60394e-23)
(0.778536 -0.354906 1.90849e-23)
(0.775352 -0.206696 -7.00713e-23)
(0.796126 -0.121634 0)
(0.804586 0.121477 0)
(0.800396 0.217554 3.91686e-23)
(0.787621 0.307776 8.68161e-23)
(0.791232 0.370328 0)
(0.782644 0.0948502 0)
(0.164227 -0.307878 -2.6713e-21)
(0.172349 -0.370187 -7.1131e-20)
(0.177382 -0.429581 6.05019e-20)
(0.178104 -0.481278 -5.65907e-20)
(0.171879 -0.523052 -3.69094e-22)
(0.157867 -0.553911 0)
(0.136537 -0.573038 -3.27939e-20)
(0.110604 -0.579017 3.20558e-20)
(0.0849731 -0.56816 2.10831e-22)
(0.0678288 -0.534144 3.2234e-22)
(0.0672692 -0.470829 2.94514e-22)
(0.0846942 -0.374165 3.66093e-22)
(0.121297 -0.248035 -2.0309e-20)
(0.174974 -0.100458 2.00879e-20)
(0.24001 0.0553734 0)
(0.311605 0.206529 4.51664e-22)
(0.384461 0.337051 -1.31876e-20)
(0.453148 0.435448 1.30169e-20)
(0.512671 0.497657 0)
(0.559305 0.528742 0)
(0.588648 0.543351 -8.756e-21)
(0.597031 0.55908 1.77937e-20)
(0.588721 0.578615 -1.88692e-20)
(0.580364 0.576566 -1.75239e-21)
(0.592688 0.512467 2.53091e-20)
(0.634138 0.363985 -3.01537e-20)
(0.696756 0.14912 3.09859e-20)
(0.764914 -0.0832864 -1.74567e-21)
(0.822213 -0.276609 -1.48839e-20)
(0.859913 -0.399765 0)
(0.875175 -0.45581 0)
(0.872434 -0.467019 2.03934e-21)
(0.859788 -0.452555 -2.74528e-21)
(0.839719 -0.435172 -1.14984e-23)
(0.803162 -0.432599 1.76027e-21)
(0.747246 -0.431674 -1.71076e-21)
(0.691221 -0.389891 0)
(0.660948 -0.267629 2.98053e-22)
(0.667803 -0.0937477 2.5619e-21)
(0.703406 0.0901552 -4.66817e-21)
(0.754128 0.224224 1.93166e-21)
(0.801528 0.31962 1.62257e-22)
(0.826408 0.381664 -1.67212e-21)
(0.813219 0.434771 1.3065e-21)
(0.779103 0.451506 3.60678e-22)
(0.752016 0.375016 4.2871e-22)
(0.748839 0.228184 -4.44134e-22)
(0.778947 0.00827055 0)
(0.812877 -0.134488 0)
(0.847888 -0.257052 -1.14599e-21)
(0.842043 -0.305289 5.16762e-22)
(0.809968 -0.344083 -3.50994e-22)
(0.785682 -0.352377 4.06992e-22)
(0.779144 -0.209126 4.34017e-22)
(0.798612 -0.125343 -1.27245e-22)
(0.801949 0.120816 1.82135e-22)
(0.798554 0.21873 -1.51765e-22)
(0.784591 0.30849 5.16412e-23)
(0.789693 0.370714 0)
(0.78408 0.0957912 0)
(0.335187 -0.308795 -1.51404e-19)
(0.345337 -0.370728 1.1016e-20)
(0.350071 -0.427282 1.33398e-19)
(0.349462 -0.474119 -8.76745e-22)
(0.340679 -0.509507 0)
(0.322212 -0.532968 0)
(0.293173 -0.545274 -6.21233e-20)
(0.253648 -0.548097 9.21034e-21)
(0.206661 -0.541491 6.99475e-20)
(0.159448 -0.520555 -2.70153e-21)
(0.122717 -0.477615 -1.76213e-20)
(0.105089 -0.405035 -1.47031e-20)
(0.11121 -0.298708 1.46713e-20)
(0.142084 -0.164413 0)
(0.19339 -0.0145668 -1.32461e-20)
(0.259006 0.135308 1.20944e-20)
(0.331151 0.270501 0)
(0.403794 0.378559 0)
(0.470607 0.453841 7.91368e-21)
(0.525531 0.499763 -8.61709e-23)
(0.562528 0.529286 -7.13819e-21)
(0.578976 0.556909 -8.91958e-21)
(0.58195 0.581508 8.95952e-21)
(0.589441 0.576482 -1.24676e-20)
(0.61943 0.505064 -2.37336e-21)
(0.675849 0.350124 1.41477e-20)
(0.748209 0.131726 2.12294e-21)
(0.820382 -0.100952 -2.08826e-23)
(0.875523 -0.291181 0)
(0.90582 -0.408382 1.02947e-20)
(0.911727 -0.457516 -1.05453e-20)
(0.899586 -0.463685 3.97878e-22)
(0.878199 -0.446238 0)
(0.852579 -0.424073 -2.42591e-22)
(0.814502 -0.414332 3.16693e-21)
(0.757278 -0.410155 -5.92677e-21)
(0.696186 -0.375237 -8.20923e-22)
(0.657522 -0.267281 -4.33363e-22)
(0.658471 -0.107347 3.33172e-21)
(0.69184 0.0688903 4.96292e-22)
(0.745375 0.202683 -2.99014e-21)
(0.795782 0.304855 2.54394e-21)
(0.824217 0.377926 2.00032e-23)
(0.814204 0.440746 1.4055e-21)
(0.785052 0.461586 -1.72841e-21)
(0.764153 0.382333 -3.26573e-21)
(0.764113 0.22909 8.27839e-22)
(0.795174 0.00316321 1.79597e-21)
(0.825745 -0.142055 -3.20822e-21)
(0.860211 -0.259681 2.03815e-21)
(0.852907 -0.300848 -3.57334e-22)
(0.819906 -0.336679 5.35322e-22)
(0.793703 -0.349633 3.29084e-22)
(0.783789 -0.211376 -5.82289e-22)
(0.802344 -0.128883 -6.34114e-24)
(0.800704 0.120162 -1.30683e-22)
(0.797932 0.219921 0)
(0.782443 0.309008 -6.41983e-23)
(0.789146 0.370785 1.11852e-22)
(0.78662 0.0966 0)
(0.513649 -0.306134 1.53612e-19)
(0.523315 -0.367217 -2.90532e-19)
(0.527867 -0.420931 1.35192e-19)
(0.525489 -0.463359 1.06823e-19)
(0.513839 -0.49345 -1.94285e-19)
(0.492406 -0.510237 1.45306e-20)
(0.460494 -0.514221 7.17465e-20)
(0.416845 -0.508383 4.55328e-20)
(0.361223 -0.496519 -4.45893e-20)
(0.296556 -0.479557 0)
(0.231344 -0.452137 -2.2635e-20)
(0.178086 -0.404606 4.16483e-20)
(0.14718 -0.326406 -1.92355e-20)
(0.145969 -0.215885 0)
(0.173281 -0.0805921 0)
(0.224496 0.0628114 3.2484e-22)
(0.2907 0.1995 -1.42428e-20)
(0.362844 0.315319 1.38365e-20)
(0.432889 0.402906 0)
(0.492852 0.463647 1.28507e-20)
(0.536066 0.507886 -2.59374e-20)
(0.56114 0.546371 2.92839e-20)
(0.57691 0.575026 -3.52476e-20)
(0.601092 0.567944 -5.1717e-21)
(0.647965 0.492789 5.31359e-20)
(0.717661 0.336086 -2.92976e-20)
(0.798962 0.117865 -1.08302e-21)
(0.875447 -0.112907 -1.52049e-20)
(0.928702 -0.299152 2.19919e-21)
(0.951578 -0.410828 1.32089e-20)
(0.948164 -0.454327 5.49671e-22)
(0.927238 -0.456673 -5.64871e-21)
(0.897815 -0.437661 9.71945e-21)
(0.866776 -0.412552 -4.55149e-21)
(0.827575 -0.39668 0)
(0.770416 -0.388608 -3.09461e-21)
(0.705982 -0.359438 3.03822e-21)
(0.659446 -0.265925 -2.88817e-21)
(0.6539 -0.121227 3.59779e-21)
(0.684045 0.0461675 -3.50821e-22)
(0.739262 0.17918 0)
(0.791849 0.28807 -2.8723e-22)
(0.823599 0.372229 8.9001e-22)
(0.817137 0.444756 0)
(0.793279 0.470296 4.2138e-21)
(0.778745 0.389427 -1.47762e-21)
(0.781968 0.23124 1.04754e-21)
(0.813756 -2.1566e-05 1.0739e-21)
(0.840631 -0.148248 0)
(0.873896 -0.261684 0)
(0.865061 -0.296113 -1.27734e-21)
(0.830966 -0.328776 1.71461e-21)
(0.802432 -0.346575 -7.90361e-22)
(0.789073 -0.213469 1.88705e-22)
(0.807164 -0.132324 2.95409e-22)
(0.800777 0.119495 1.30808e-22)
(0.798496 0.221174 -1.8283e-22)
(0.781174 0.309351 0)
(0.789621 0.370517 -1.71026e-22)
(0.790292 0.0972672 -6.6481e-23)
(0.693356 -0.300607 1.52603e-19)
(0.699903 -0.358416 -1.51906e-19)
(0.702611 -0.407663 1.02556e-21)
(0.696842 -0.445635 -8.67693e-22)
(0.680532 -0.471803 7.60148e-22)
(0.654575 -0.484681 -6.2645e-22)
(0.619472 -0.483719 9.62205e-22)
(0.574752 -0.470759 0)
(0.519418 -0.450073 -5.36519e-22)
(0.452527 -0.426876 3.72222e-22)
(0.376206 -0.402465 2.44834e-22)
(0.298947 -0.371413 -2.59848e-22)
(0.233634 -0.32129 0)
(0.194282 -0.242116 0)
(0.187522 -0.132703 6.43585e-23)
(0.213627 -0.003485 0)
(0.264917 0.128456 -6.65214e-23)
(0.33 0.248272 0)
(0.398444 0.346038 -7.94915e-21)
(0.460444 0.420483 1.68021e-20)
(0.50894 0.478398 -1.98406e-20)
(0.543299 0.526544 1.079e-20)
(0.572916 0.558775 1.75775e-20)
(0.613878 0.551192 -1.70684e-20)
(0.676301 0.476144 -2.92116e-20)
(0.757747 0.322165 2.85564e-20)
(0.847392 0.107448 0)
(0.928459 -0.11945 1.05415e-21)
(0.98047 -0.300816 0)
(0.996317 -0.407402 0)
(0.983862 -0.446663 1.44023e-20)
(0.954884 -0.446411 -1.50512e-20)
(0.918324 -0.426991 5.70938e-22)
(0.882059 -0.400676 4.45733e-22)
(0.841905 -0.380019 -3.22263e-22)
(0.785981 -0.367612 -2.31942e-21)
(0.720098 -0.342694 2.25225e-21)
(0.666735 -0.263165 -2.9864e-21)
(0.654223 -0.134679 2.55767e-21)
(0.679915 0.0225205 6.40228e-22)
(0.735528 0.153948 -2.25646e-21)
(0.789477 0.269156 -2.46299e-22)
(0.824298 0.364236 1.58093e-21)
(0.821709 0.446471 0)
(0.803322 0.477445 -1.54214e-21)
(0.795222 0.396279 3.35051e-21)
(0.801833 0.23464 -4.18926e-21)
(0.834293 -0.00114386 -1.08072e-21)
(0.857336 -0.152895 0)
(0.888727 -0.263006 4.75917e-22)
(0.878305 -0.291102 -1.13631e-21)
(0.843034 -0.320309 -8.98902e-24)
(0.811737 -0.343064 -1.85804e-22)
(0.794787 -0.215423 1.87402e-22)
(0.812892 -0.135748 -2.34244e-22)
(0.802075 0.118786 0)
(0.800203 0.222523 1.82916e-22)
(0.780785 0.309539 0)
(0.791143 0.36988 0)
(0.795116 0.0977807 8.05417e-23)
(0.866455 -0.290396 -1.4905e-19)