/*--------------------------------*- C++ -*----------------------------------*\
| =========                 |                                                 |
| \\      /  F ield         | OpenFOAM: The Open Source CFD Toolbox           |
|  \\    /   O peration     | Version:  2512                                  |
|   \\  /    A nd           | Website:  www.openfoam.com                      |
|    \\/     M anipulation  |                                                 |
\*---------------------------------------------------------------------------*/
FoamFile
{
    version     2.0;
    format      ascii;
    arch        "LSB;label=32;scalar=64";
    class       volVectorField;
    location    "65";
    object      U;
}
// * * * * * * * * * * * * * * * * * * * * * * * * * * * * * * * * * * * * * //

dimensions      [0 1 -1 0 0 0 0];

internalField   nonuniform List<vector> 
13248
(
(-0.0117354 0.0110146 6.77474e-20)
(-0.0204182 0.0217649 0)
(-0.0157517 0.0256845 -1.28424e-19)
(0.00112388 0.0251384 1.20978e-19)
(0.0295625 0.0219836 1.13586e-19)
(0.0691572 0.017655 0)
(0.119546 0.0132194 0)
(0.180242 0.00945878 2.74096e-19)
(0.250466 0.00693411 -1.9678e-21)
(0.329016 0.00602052 -2.38263e-19)
(0.414208 0.00692302 2.18251e-19)
(0.503901 0.00968434 -1.36258e-19)
(0.595608 0.0141942 0)
(0.686661 0.0202065 -2.24476e-19)
(0.774423 0.0273671 4.15329e-19)
(0.856481 0.0352501 -9.82327e-20)
(0.930829 0.043403 -1.68061e-19)
(0.995988 0.0513743 1.57769e-19)
(1.05108 0.0588115 0)
(1.0958 0.0652476 0)
(1.13064 0.0709209 0)
(1.15557 0.0743111 0)
(1.17404 0.0787163 4.44521e-20)
(1.18225 0.0761666 1.57671e-19)
(-0.0112006 0.0094845 -2.04711e-19)
(-0.0156922 0.0175323 1.39723e-19)
(-0.00347845 0.0198338 -1.0609e-21)
(0.0239253 0.0186108 -1.84894e-19)
(0.0655786 0.0156845 -1.13463e-19)
(0.120728 0.0125072 -1.0729e-19)
(0.188485 0.0101451 -1.97243e-19)
(0.26759 0.00933819 1.8629e-19)
(0.356236 0.0105425 0)
(0.451986 0.013948 1.34958e-21)
(0.551842 0.0194928 2.83723e-21)
(0.65243 0.02689 1.3601e-19)
(0.750285 0.0356725 0)
(0.842157 0.0452564 0)
(0.925301 0.0550135 1.50818e-19)
(0.997683 0.0643438 -2.831e-19)
(1.0581 0.0727378 1.64918e-19)
(1.10622 0.0798181 -1.54829e-19)
(1.14247 0.0853679 -6.73483e-20)
(1.16798 0.0892909 -1.19656e-19)
(1.18418 0.0917655 -4.89686e-20)
(1.19321 0.0925025 -9.11588e-20)
(1.19635 0.09331 1.35617e-19)
(1.19553 0.0897008 3.88371e-20)
(-0.0096585 0.0075079 0)
(-0.00756761 0.0122455 0)
(0.0148721 0.0128168 6.54295e-20)
(0.0556628 0.0112617 6.04032e-20)
(0.113394 0.00932524 -1.35949e-21)
(0.186661 0.0084201 -1.10303e-19)
(0.273606 0.00950897 0)
(0.371664 0.0131321 -9.25331e-20)
(0.477472 0.0194356 8.63728e-20)
(0.586985 0.0281982 3.01744e-22)
(0.695789 0.0388857 -1.46102e-19)
(0.799535 0.0507413 -1.32196e-19)
(0.894385 0.062903 3.61129e-21)
(0.977385 0.0745257 -1.05844e-19)
(1.0467 0.0848893 2.5656e-19)
(1.10165 0.0934746 0)
(1.14269 0.100001 -1.61251e-19)
(1.17115 0.104418 7.83398e-20)
(1.18898 0.106885 6.72864e-20)
(1.19841 0.10765 0)
(1.20177 0.107198 5.40706e-20)
(1.20105 0.105507 -1.86526e-19)
(1.19782 0.104089 1.75097e-19)
(1.19421 0.0996973 1.1026e-19)
(-0.00682123 0.0051925 -7.23623e-20)
(0.00476829 0.00634445 -7.47497e-20)
(0.040544 0.00550011 6.77184e-20)
(0.0978138 0.00441252 0)
(0.17436 0.00465428 0)
(0.26763 0.00746695 -1.99113e-21)
(0.374191 0.0135102 0)
(0.489592 0.0228664 -2.80646e-19)
(0.608558 0.0350988 2.60062e-19)
(0.725462 0.0493514 -3.20317e-19)
(0.834966 0.0645066 7.29779e-20)
(0.932644 0.0793774 0)
(1.01544 0.0928951 1.19023e-19)
(1.08187 0.104252 -2.19472e-19)
(1.13198 0.112983 5.2099e-20)
(1.16712 0.118966 1.30773e-19)
(1.18952 0.12238 -7.13243e-21)
(1.20186 0.12361 -1.45424e-19)
(1.20686 0.123145 0)
(1.20699 0.121471 0)
(1.20421 0.119089 -5.08402e-20)
(1.19994 0.11608 4.545e-20)
(1.19516 0.113621 1.61545e-19)
(1.19036 0.108775 -1.5165e-19)
(-0.00233989 0.00266249 -7.60906e-20)
(0.0221626 0.000352973 -7.58098e-20)
(0.0746451 -0.00110677 2.13307e-19)
(0.151385 -0.000448735 -1.29488e-19)
(0.248832 0.00353471 1.21886e-19)
(0.36262 0.0116715 2.21486e-19)
(0.487099 0.0240075 -1.56249e-19)
(0.615572 0.0398441 -1.89154e-19)
(0.740983 0.0579197 4.36665e-21)
(0.856829 0.0766665 2.41582e-19)
(0.958008 0.0945079 0)
(1.04137 0.110127 6.57069e-20)
(1.10587 0.122644 0)
(1.15236 0.131685 -1.05572e-19)
(1.18308 0.137331 1.48162e-19)
(1.20108 0.140007 1.16454e-21)
(1.20961 0.140322 -3.84162e-20)
(1.2117 0.13893 7.09436e-20)
(1.20979 0.136422 6.14138e-20)
(1.2057 0.133259 -5.48654e-20)
(1.20062 0.129785 5.08278e-20)
(1.19526 0.126084 -4.54386e-20)
(1.18992 0.122827 0)
(1.18507 0.117792 -3.48769e-20)
(0.00416405 8.97846e-05 7.60797e-20)
(0.045385 -0.00507617 7.97081e-20)
(0.117931 -0.00583999 -7.14295e-20)
(0.21658 -0.00173726 1.32912e-19)
(0.335767 0.00775141 -1.25101e-19)
(0.468606 0.0226679 1.12967e-19)
(0.606831 0.0420604 -5.4195e-20)
(0.74169 0.0641756 1.42112e-19)
(0.865225 0.0868755 -8.92102e-20)
(0.971437 0.108089 1.57052e-19)
(1.05697 0.126187 -3.61705e-19)
(1.12117 0.140201 1.32624e-19)
(1.16566 0.149858 -1.15045e-19)
(1.19355 0.15546 1.0806e-19)
(1.20863 0.157681 9.23805e-20)
(1.21465 0.157346 8.04123e-20)
(1.2148 0.155253 -2.2398e-19)
(1.21152 0.152067 1.38644e-19)
(1.20651 0.148271 -6.14155e-20)
(1.2008 0.144184 1.59946e-19)
(1.19496 0.139998 -5.16335e-20)
(1.1893 0.135766 -1.25587e-19)
(1.18393 0.131851 1.1591e-19)
(1.179 0.126696 3.48651e-20)
(0.0130414 -0.002267 0)
(0.0749857 -0.00912166 6.04298e-22)
(0.170583 -0.00740509 1.48857e-19)
(0.292542 0.00210474 -1.39684e-19)
(0.432554 0.0187718 -1.25806e-19)
(0.580733 0.0413895 2.33696e-19)
(0.726368 0.0676777 -1.0847e-19)
(0.85963 0.094779 1.44209e-19)
(0.97321 0.119956 -3.31595e-21)
(1.06324 0.141139 -8.14961e-20)
(1.12928 0.157196 1.76917e-19)
(1.17365 0.167933 -2.60754e-19)
(1.20028 0.173867 0)
(1.21367 0.175929 -5.0775e-20)
(1.21804 0.175163 -1.34848e-19)
(1.21681 0.172516 4.25378e-20)
(1.21247 0.168734 1.76574e-21)
(1.20666 0.164338 -9.1866e-20)
(1.20035 0.159656 6.09966e-21)
(1.19404 0.154879 1.0611e-19)
(1.188 0.150108 -4.70262e-20)
(1.18231 0.145393 -1.80022e-20)
(1.17696 0.140867 5.53785e-20)
(1.172 0.13559 0)
(0.0245486 -0.00406515 0)
(0.111141 -0.0108256 4.03644e-20)
(0.232023 -0.0044608 -1.94085e-19)
(0.377232 0.0124448 7.04862e-20)
(0.535167 0.0375298 -6.63398e-20)
(0.693005 0.0679128 -6.04866e-20)
(0.838565 0.0998924 -1.06824e-19)
(0.962602 0.12982 5.33867e-20)
(1.06019 0.154947 4.6368e-20)
(1.13078 0.173827 0)
(1.17719 0.186263 1.04946e-19)
(1.20416 0.192978 -1.55761e-19)
(1.21696 0.195171 1.15853e-19)
(1.22037 0.194136 5.08006e-20)
(1.21814 0.191004 -4.1385e-20)
(1.21292 0.186633 -3.43019e-20)
(1.20637 0.181605 -3.1918e-20)
(1.19945 0.176281 9.60529e-20)
(1.19266 0.170864 0)
(1.18621 0.165464 4.7953e-20)
(1.18017 0.160137 4.02239e-20)
(1.17454 0.154916 -9.99896e-20)
(1.16926 0.1498 -6.83935e-20)
(1.1643 0.144388 6.32032e-20)
(0.0388008 -0.00488537 -4.35388e-20)
(0.153541 -0.00914587 -1.58777e-21)
(0.300818 0.00425422 3.94596e-20)
(0.467521 0.0302778 1.10054e-19)
(0.638671 0.0642798 3.19128e-20)
(0.799351 0.101501 -6.17343e-20)
(0.937599 0.137113 5.63948e-20)
(1.04662 0.167331 -4.9406e-20)
(1.12514 0.190102 8.83821e-20)
(1.17624 0.205081 3.75275e-20)
(1.20541 0.21315 -1.06499e-19)
(1.21878 0.215809 3.1301e-20)
(1.22188 0.214658 5.31905e-20)
(1.21897 0.211071 -2.62249e-20)
(1.21296 0.206072 0)
(1.20568 0.200342 3.87327e-20)
(1.19811 0.194291 6.52502e-20)
(1.19076 0.188148 1.09662e-20)
(1.18384 0.182034 -5.42547e-20)
(1.1774 0.17601 2.26023e-20)
(1.17144 0.170109 0)
(1.1659 0.16434 -1.77061e-20)
(1.16069 0.158656 -1.67773e-20)
(1.15574 0.153043 0)
(0.0557111 -0.00426283 0)
(0.201307 -0.00306219 2.28057e-20)
(0.374699 0.0197592 4.21147e-20)
(0.55949 0.0560719 -1.12136e-19)
(0.73794 0.098579 3.62094e-20)
(0.894639 0.140836 0)
(1.01983 0.177577 5.43009e-20)
(1.11062 0.205689 -7.57824e-20)
(1.1698 0.224387 -4.41143e-20)
(1.20353 0.234614 1.99291e-20)
(1.21895 0.238193 -3.16445e-20)
(1.22254 0.237114 7.69682e-20)
(1.21929 0.233092 3.83367e-20)
(1.21263 0.22739 -2.67874e-20)
(1.2046 0.220839 -2.63518e-21)
(1.19632 0.213927 -7.24235e-20)
(1.18834 0.206926 3.29265e-20)
(1.18088 0.199972 -8.63327e-22)
(1.17399 0.193136 0)
(1.16766 0.186454 -2.26258e-20)
(1.16183 0.179941 0)
(1.15641 0.173582 5.09679e-20)
(1.15131 0.167353 -6.05999e-20)
(1.1464 0.161453 2.75997e-20)
(0.0749538 -0.00173114 -1.18769e-20)
(0.252977 0.00830723 -5.73167e-20)
(0.450715 0.0426885 6.51668e-20)
(0.648883 0.0896964 3.82404e-20)
(0.828366 0.139401 -1.82755e-20)
(0.9753 0.184328 3.0644e-20)
(1.08384 0.219696 -1.48947e-20)
(1.15564 0.243789 2.47454e-20)
(1.19717 0.257372 0)
(1.21667 0.262578 5.58073e-20)
(1.22187 0.26189 -2.3863e-21)
(1.21883 0.25749 -4.48811e-20)
(1.21168 0.250998 1.91405e-20)
(1.20292 0.243469 -2.14887e-20)
(1.19389 0.235522 -8.0756e-21)
(1.18521 0.227487 9.45158e-21)
(1.17714 0.21953 -7.21519e-21)
(1.16973 0.211733 -3.91237e-20)
(1.16298 0.204135 2.39475e-20)
(1.15683 0.196756 4.86601e-21)
(1.15118 0.189594 4.2735e-21)
(1.14593 0.182621 3.75569e-21)
(1.14097 0.175875 0)
(1.13615 0.169582 0)
(0.09602 0.00314185 1.18851e-20)
(0.306698 0.0256143 -1.18742e-20)
(0.525643 0.0731977 -2.17022e-20)
(0.731738 0.130441 0)
(0.906452 0.185335 -9.06888e-21)
(1.03945 0.230392 -8.15563e-21)
(1.12984 0.262239 -1.3947e-20)
(1.18369 0.281006 0)
(1.21024 0.289002 0)
(1.21877 0.289287 0)
(1.21679 0.284687 0)
(1.20951 0.27734 0)
(1.20012 0.268653 -1.19817e-20)
(1.19032 0.259446 5.44693e-21)
(1.18089 0.250153 9.43587e-21)
(1.17216 0.240981 4.41151e-21)
(1.16419 0.232028 1.08347e-20)
(1.15699 0.223337 0)
(1.15048 0.214929 -2.56852e-21)
(1.14459 0.20681 -2.46228e-21)
(1.13921 0.198965 -4.2803e-21)
(1.13422 0.191365 -3.76168e-21)
(1.12949 0.184127 0)
(1.12486 0.177327 2.67046e-21)
(-0.000579894 -0.0190539 7.58793e-21)
(-0.00449287 -0.0469267 -7.8785e-21)
(-0.0127323 -0.0671797 -1.49192e-20)
(-0.0233181 -0.0812751 0)
(-0.0350924 -0.0906029 -1.99915e-20)
(-0.0474154 -0.0964595 6.2961e-21)
(-0.0598279 -0.0999548 -1.18267e-20)
(-0.0720076 -0.101952 0)
(-0.0837509 -0.103049 0)
(-0.0949386 -0.103597 0)
(-0.105505 -0.103741 0)
(-0.115416 -0.103471 0)
(-0.124652 -0.102675 9.17359e-23)
(-0.133195 -0.101177 -7.80299e-21)
(-0.141024 -0.0987731 1.44784e-20)
(-0.148111 -0.095245 2.0474e-20)
(-0.154418 -0.0903762 6.23421e-21)
(-0.159907 -0.0839582 0)
(-0.164544 -0.075796 5.69481e-21)
(-0.168318 -0.0657172 -1.57197e-20)
(-0.171227 -0.0535807 -9.66879e-21)
(-0.173264 -0.0392599 -8.9988e-21)
(-0.174555 -0.0225706 0)
(-0.17573 -0.00336684 0)
(7.60082e-05 -0.0150281 -2.27241e-20)
(-0.00323398 -0.0374243 3.92656e-20)
(-0.0115912 -0.054107 -1.46964e-20)
(-0.0226391 -0.0659831 -2.80656e-20)
(-0.0350065 -0.0740683 3.97195e-20)
(-0.0479396 -0.079387 -2.49687e-20)
(-0.0609076 -0.0828371 3.53093e-20)
(-0.0735477 -0.0851211 2.20504e-20)
(-0.0856375 -0.0867221 0)
(-0.0970521 -0.0879138 -1.97143e-20)
(-0.107727 -0.0887941 7.9385e-24)
(-0.117629 -0.0893308 1.74487e-20)
(-0.126741 -0.0894053 2.42982e-20)
(-0.135045 -0.0888485 3.04037e-20)
(-0.142519 -0.0874657 -1.4563e-20)
(-0.14913 -0.0850513 -4.02806e-20)
(-0.15484 -0.0813962 1.21261e-20)
(-0.159602 -0.0762897 -4.60558e-20)
(-0.163381 -0.0695187 0)
(-0.166169 -0.0608693 1.03608e-20)
(-0.167961 -0.0501313 9.65671e-21)
(-0.168649 -0.0370869 8.98735e-21)
(-0.168264 -0.0214594 0)
(-0.168231 -0.00301646 0)
(0.000212753 -0.0105671 0)
(-0.00300411 -0.0270452 7.7817e-20)
(-0.0114946 -0.0400116 -2.9383e-20)
(-0.0227191 -0.0497034 2.79368e-20)
(-0.0351997 -0.0566802 -7.86875e-20)
(-0.0481236 -0.0616377 0)
(-0.0609231 -0.0652268 -4.66407e-20)
(-0.0732132 -0.0679714 2.18384e-20)
(-0.0847606 -0.0702337 -4.11144e-20)
(-0.095436 -0.0722123 1.91062e-20)
(-0.105173 -0.0739654 1.08747e-19)
(-0.113937 -0.0754457 -5.10447e-20)
(-0.121709 -0.0765362 -7.96269e-20)
(-0.128467 -0.0770788 -2.91274e-20)
(-0.134185 -0.076894 4.39236e-22)
(-0.138823 -0.0757924 1.03313e-19)
(-0.142333 -0.0735773 -4.82672e-20)
(-0.144657 -0.0700428 8.84745e-22)
(-0.145735 -0.0649667 0)
(-0.145538 -0.0581017 -3.6987e-20)
(-0.144042 -0.0491644 0)
(-0.141048 -0.0378191 -3.22437e-20)
(-0.136265 -0.0236765 1.17118e-19)
(-0.131672 -0.00649583 -1.10696e-21)
(-0.000192172 -0.00596788 0)
(-0.00384038 -0.0164221 -4.81877e-23)
(-0.0124771 -0.025685 2.93422e-20)
(-0.023583 -0.0332859 -2.77228e-20)
(-0.0356862 -0.039291 2.61237e-20)
(-0.0479755 -0.0440389 1.47812e-19)
(-0.0598821 -0.047916 -4.638e-20)
(-0.0710198 -0.0512587 -4.35614e-20)
(-0.0811532 -0.0543064 8.1972e-20)
(-0.0901504 -0.0571845 -1.1523e-19)
(-0.0979419 -0.059915 3.59189e-20)
(-0.10449 -0.0624401 3.34834e-20)
(-0.109771 -0.0646475 0)
(-0.11376 -0.0663929 2.94769e-20)
(-0.116425 -0.0675155 0)
(-0.117725 -0.0678463 4.97972e-20)
(-0.117607 -0.0672102 -9.21304e-20)
(-0.116006 -0.0654217 2.35618e-20)
(-0.112844 -0.0622738 7.95678e-20)
(-0.108057 -0.0575173 3.69534e-20)
(-0.101603 -0.05082 0)
(-0.093268 -0.0417071 -8.95228e-20)
(-0.0824155 -0.0296094 2.89042e-20)
(-0.0703624 -0.0141824 0)
(-0.00110547 -0.00151208 0)
(-0.00567095 -0.00615235 -9.30543e-20)
(-0.01445 -0.0118695 -2.95707e-20)
(-0.0251317 -0.0175197 -5.54509e-20)
(-0.0363573 -0.0226833 5.22155e-20)
(-0.0473741 -0.0273404 -4.92413e-20)
(-0.0576481 -0.0316109 9.25379e-20)
(-0.0668106 -0.0356437 4.33845e-20)
(-0.0746325 -0.0395557 -1.2256e-19)
(-0.0809805 -0.0434003 7.6224e-20)
(-0.0857803 -0.0471634 -1.07158e-19)
(-0.088988 -0.0507773 2.32687e-19)
(-0.0905718 -0.0541338 -1.24692e-19)
(-0.0905017 -0.0571003 5.73856e-20)
(-0.0887443 -0.0595321 1.58906e-19)
(-0.0852597 -0.0612799 -5.16017e-20)
(-0.0800009 -0.0621926 -4.69219e-20)
(-0.0729111 -0.0621158 -4.30169e-20)
(-0.0639195 -0.0608842 0)
(-0.0529465 -0.0582999 -6.77632e-20)
(-0.0399352 -0.0540845 -5.88147e-20)
(-0.0248799 -0.0477992 8.73708e-20)
(-0.00740601 -0.0385859 9.9972e-20)
(0.0144389 -0.0242023 -9.28286e-20)
(-0.00244366 0.00255703 0)
(-0.00831943 0.00323935 -1.24695e-19)
(-0.0171955 0.000776592 -3.51875e-22)
(-0.0271204 -0.00310814 1.11003e-19)
(-0.0369367 -0.00755452 0)
(-0.0459995 -0.0122055 0)
(-0.0538384 -0.0169268 0)
(-0.0601179 -0.0216862 -4.32989e-20)
(-0.0646191 -0.0264808 3.27867e-22)
(-0.067203 -0.0312919 7.64968e-20)
(-0.0677872 -0.0360663 -1.0628e-19)
(-0.0663141 -0.0407244 4.70382e-22)
(-0.0627374 -0.0451546 0)
(-0.0570174 -0.0492288 -5.73622e-20)
(-0.0491172 -0.0528099 5.14319e-20)
(-0.039002 -0.0557578 -1.46454e-19)
(-0.0266402 -0.0579342 1.76973e-19)
(-0.0120026 -0.0592057 3.64694e-20)
(0.00494103 -0.0594446 -5.11558e-21)
(0.0242211 -0.0585258 -1.36162e-19)
(0.0458279 -0.0563142 -5.94013e-20)
(0.0697766 -0.0525417 1.85499e-19)
(0.096851 -0.0461032 -1.21036e-19)
(0.130119 -0.0338192 0)
(-0.0040852 0.00604662 6.07469e-20)
(-0.0115199 0.0113228 6.23947e-20)
(-0.0203682 0.0116993 -5.95013e-20)
(-0.0291417 0.00934577 -1.11818e-19)
(-0.0369451 0.00549133 1.05291e-19)
(-0.0432747 0.000791302 -9.90299e-20)
(-0.0477429 -0.00438887 1.39878e-19)
(-0.0500549 -0.00984822 -4.31654e-20)
(-0.0500015 -0.0154678 8.19605e-20)
(-0.0474293 -0.0211538 0)
(-0.0422331 -0.0268206 7.06297e-20)
(-0.034338 -0.0323576 -1.33379e-19)
(-0.0236732 -0.0376404 1.2212e-19)
(-0.0101877 -0.0425354 -1.147e-19)
(0.00615425 -0.0469007 0)
(0.0253698 -0.0505916 9.63882e-20)
(0.0474535 -0.0534656 1.73068e-19)
(0.072374 -0.0553878 -1.62806e-19)
(0.100075 -0.0562384 -7.22481e-20)
(0.130475 -0.05592 -6.29211e-20)
(0.163425 -0.0543768 1.79496e-19)
(0.198921 -0.0515341 4.87617e-20)
(0.235889 -0.0470205 -4.84273e-20)
(0.286123 -0.0371196 4.04513e-20)
(-0.00588285 0.00882115 -6.07551e-20)
(-0.0149349 0.017774 1.90336e-19)
(-0.0235081 0.0204605 -5.98954e-20)
(-0.0306253 0.019348 1.12741e-19)
(-0.0356846 0.0159489 -1.06159e-19)
(-0.0383386 0.0111664 5.37244e-22)
(-0.0382886 0.0055657 4.71094e-20)
(-0.0352779 -0.000499984 1.75873e-19)
(-0.0290988 -0.00680242 -9.25453e-22)
(-0.0195905 -0.013179 -7.70707e-20)
(-0.00661173 -0.0194884 0)
(0.00994707 -0.0255823 -6.566e-20)
(0.0301543 -0.031319 1.24049e-19)
(0.0540481 -0.0365466 1.1263e-19)
(0.0816229 -0.0411079 -5.34216e-20)
(0.11282 -0.0448447 -1.03478e-22)
(0.147523 -0.0476038 -4.38854e-20)
(0.185553 -0.0492442 7.93912e-20)
(0.226667 -0.0496446 7.22281e-20)
(0.270595 -0.0487039 -6.50432e-20)
(0.316756 -0.0464329 5.77887e-20)
(0.366119 -0.0424993 -5.14561e-20)
(0.411684 -0.0381793 0)
(0.482416 -0.0275355 -4.03867e-20)
(-0.00767758 0.0108025 6.19747e-20)
(-0.0181751 0.022377 -6.36785e-20)
(-0.0260523 0.0267432 6.08799e-20)
(-0.0308423 0.0265226 0)
(-0.0322375 0.0234229 0)
(-0.0300453 0.01854 1.01515e-19)
(-0.0240519 0.0126037 -9.46328e-20)
(-0.0140349 0.00609829 8.83571e-20)
(0.000212371 -0.000647782 -4.13995e-19)
(0.0188683 -0.00739347 5.62641e-22)
(0.0420733 -0.0139336 7.20758e-20)
(0.0699193 -0.0200886 0)
(0.102424 -0.0256823 -1.22462e-19)
(0.139519 -0.0305392 2.27774e-19)
(0.181038 -0.0344877 -1.58233e-19)
(0.226705 -0.0373648 -2.3689e-19)
(0.276136 -0.0390237 5.54339e-21)
(0.328842 -0.0393422 1.6109e-19)
(0.38423 -0.0382375 0)
(0.441792 -0.0355942 0)
(0.499983 -0.0317348 -5.77779e-20)
(0.56205 -0.0254158 5.14456e-20)
(0.612588 -0.0203882 -1.77282e-19)
(0.699375 -0.00698229 1.66381e-19)
(-0.00931077 0.0119686 0)
(-0.0208168 0.0250259 0)
(-0.0273493 0.0303616 -1.83461e-19)
(-0.0289121 0.0306315 5.82492e-20)
(-0.0254713 0.0276591 2.5935e-22)
(-0.0169752 0.0226801 1.02928e-19)
(-0.00328868 0.0165534 0)
(0.0157708 0.00987439 -8.96111e-20)
(0.0403861 0.00306483 8.30902e-20)
(0.0707008 -0.00355702 -1.5513e-19)
(0.106781 -0.00973118 7.9675e-22)
(0.148581 -0.015233 1.33045e-19)
(0.195905 -0.0198589 -2.16367e-21)
(0.248395 -0.0234246 1.10556e-19)
(0.305509 -0.0257698 -1.59714e-19)
(0.366537 -0.0267649 0)
(0.430617 -0.02632 1.71553e-19)
(0.496777 -0.0243896 -2.40205e-19)
(0.563932 -0.0210063 7.12651e-20)
(0.631282 -0.0160767 0)
(0.69645 -0.0103426 5.75252e-20)
(0.763863 -0.00186976 2.01094e-19)
(0.81462 0.00384676 -1.88721e-19)
(0.901549 0.0188791 -2.02927e-19)
(-0.0106312 0.0123462 1.91914e-19)
(-0.0224097 0.0257223 -2.64469e-19)
(-0.0266617 0.0312783 2.57949e-22)
(-0.0238054 0.0316197 5.90232e-20)
(-0.014045 0.0286193 -1.10451e-19)
(0.00254096 0.0236083 -1.02356e-19)
(0.0260015 0.0175439 1.92042e-19)
(0.0564418 0.0111127 -1.9312e-21)
(0.093943 0.00481739 -1.68644e-19)
(0.138487 -0.000958545 3.11934e-19)
(0.189887 -0.00591041 -2.14484e-21)
(0.247734 -0.00979168 -1.35555e-19)
(0.311362 -0.0124067 0)
(0.379842 -0.0136124 0)
(0.452004 -0.0133235 -5.24088e-20)
(0.526485 -0.0115193 -9.54327e-20)
(0.601806 -0.00824519 -1.71033e-19)
(0.676449 -0.00361423 1.60545e-19)
(0.748934 0.00219047 -7.12883e-20)
(0.81806 0.0090421 1.25322e-19)
(0.881949 0.0162677 -6.28012e-20)
(0.943016 0.0251273 9.61447e-20)
(0.988673 0.0311035 -2.35306e-19)
(1.05685 0.0447268 4.09913e-20)
(-0.0114903 0.0119973 6.48698e-20)
(-0.0224633 0.0245706 0)
(-0.0231388 0.0296279 1.26328e-19)
(-0.0143042 0.0296691 -1.19007e-19)
(0.0036248 0.0265703 1.10549e-19)
(0.0304388 0.021727 0)
(0.0660504 0.0161638 0)
(0.110382 0.0106322 -9.03434e-20)
(0.16324 0.00568987 1.67157e-21)
(0.224203 0.00175267 7.97091e-20)
(0.292532 -0.000875375 -7.19459e-20)
(0.367128 -0.00199013 1.35991e-19)
(0.446529 -0.00148491 0)
(0.528971 0.000648842 2.25559e-19)
(0.612481 0.00432319 -4.17815e-19)
(0.695007 0.00936033 2.88918e-19)
(0.774552 0.0155097 1.69975e-19)
(0.849298 0.0224515 -1.59558e-19)
(0.917754 0.0298833 0)
(0.978695 0.0373527 0)
(1.03158 0.0447429 0)
(1.07619 0.0515535 0)
(1.1105 0.0570865 4.614e-20)
(1.14848 0.0651491 -1.64074e-19)
(-0.178332 0.0215414 -5.68974e-21)
(-0.179837 0.0548255 5.70969e-21)
(-0.179657 0.0928288 -1.61255e-22)
(-0.177817 0.134842 0)
(-0.173938 0.179943 -4.8996e-21)
(-0.167695 0.226762 9.39265e-21)
(-0.158742 0.273416 -1.45375e-22)
(-0.146726 0.317655 -4.23378e-21)
(-0.131279 0.356844 0)
(-0.11175 0.387751 0)
(-0.0871881 0.407003 -2.19811e-22)
(-0.0565389 0.410941 -2.16925e-22)
(-0.0187646 0.395832 -3.68212e-21)
(0.0268777 0.358635 3.36673e-21)
(0.0797966 0.297274 0)
(0.13847 0.212654 0)
(0.200784 0.10763 3.56246e-21)
(0.263887 -0.0127392 -4.52907e-23)
(0.326545 -0.141048 -3.10667e-21)
(0.387487 -0.266332 -1.9102e-22)
(0.443347 -0.374437 0)
(0.489493 -0.453172 0)
(0.522227 -0.49788 0)
(0.53975 -0.513426 0)
(0.538216 -0.514635 0)
(0.511803 -0.519342 0)
(0.464743 -0.528701 3.83506e-22)
(0.420283 -0.514318 -5.98425e-22)
(0.407633 -0.437022 0)
(0.436155 -0.284712 0)
(0.494009 -0.0841991 -6.58062e-22)
(0.564225 0.11822 6.39538e-22)
(0.630778 0.283561 2.57743e-22)
(0.681703 0.393984 0)
(0.716224 0.448163 0)
(0.736817 0.462235 2.86252e-22)
(0.731173 0.472155 -2.78255e-22)
(0.691034 0.497084 0)
(0.636326 0.499125 3.20781e-22)
(0.605575 0.415285 -4.92326e-22)
(0.617405 0.230268 2.05631e-22)
(0.658683 -0.000316856 0)
(0.705237 -0.203932 -3.17301e-22)
(0.748357 -0.333284 3.08532e-22)
(0.779332 -0.389723 0)
(0.77969 -0.419724 0)
(0.737633 -0.443208 -7.8397e-23)
(0.681666 -0.431175 2.21797e-22)
(0.642395 -0.324942 0)
(0.641838 -0.145279 0)
(0.672725 0.0550013 -7.7774e-23)
(0.716696 0.199967 6.59291e-24)
(0.743462 0.289907 -9.5509e-24)
(0.73522 0.350198 4.39143e-23)
(0.68783 0.347308 0)
(0.66529 0.309904 0)
(0.669441 0.143794 0)
(0.692559 0.0315854 0)
(0.746522 -0.111231 0)
(0.772979 -0.156429 0)
(-0.171896 0.0209114 -4.92791e-22)
(-0.172974 0.0522775 -2.02565e-20)
(-0.17197 0.088153 5.26965e-22)
(-0.168971 0.127739 1.85309e-20)
(-0.163294 0.170242 2.61431e-22)
(-0.154424 0.214371 0)
(-0.141703 0.258067 -1.56713e-20)
(-0.124428 0.299258 3.06852e-20)
(-0.102205 0.335483 -1.50155e-20)
(-0.0743485 0.362766 1.43477e-20)
(-0.0399648 0.378241 -1.37254e-20)
(0.00139452 0.378147 1.41707e-20)
(0.0498788 0.358967 -1.37719e-20)
(0.105209 0.318106 -4.71454e-22)
(0.166045 0.254324 -1.55892e-20)
(0.230322 0.168793 1.51487e-20)
(0.29556 0.064149 -1.56458e-20)
(0.359589 -0.0553093 1.47123e-20)
(0.421524 -0.182217 -1.39213e-20)
(0.479735 -0.305133 2.54589e-20)
(0.530111 -0.408367 -1.16098e-20)
(0.567588 -0.479189 -5.57086e-22)
(0.589147 -0.5142 -6.20588e-21)
(0.595432 -0.518977 1.09428e-20)
(0.586538 -0.507079 -4.77359e-21)
(0.556797 -0.497889 2.20512e-22)
(0.503726 -0.500433 3.58434e-21)
(0.443468 -0.493843 4.47382e-22)
(0.407474 -0.436039 -7.74219e-21)
(0.415279 -0.303422 8.53887e-21)
(0.460485 -0.115291 -4.38638e-21)
(0.525562 0.0835483 5.08591e-22)
(0.59264 0.253183 -2.58282e-22)
(0.649191 0.371551 3.80754e-22)
(0.692946 0.433955 0)
(0.720906 0.458269 0)
(0.718392 0.480803 -1.12962e-21)
(0.681129 0.51442 8.09691e-22)
(0.633913 0.514526 1.08547e-21)
(0.614176 0.419759 4.52408e-22)
(0.635772 0.222946 -1.80787e-21)
(0.682998 -0.013933 4.50764e-22)
(0.729858 -0.218204 0)
(0.767242 -0.345058 0)
(0.792776 -0.394571 0)
(0.791079 -0.413755 0)
(0.74733 -0.4294 2.84379e-22)
(0.689421 -0.417763 -1.45681e-22)
(0.645407 -0.319221 0)
(0.641251 -0.149315 0)
(0.669874 0.0449838 0)
(0.71413 0.190925 -1.09604e-22)
(0.737684 0.287829 1.90937e-23)
(0.72619 0.356355 -9.76445e-23)
(0.680335 0.354574 0)
(0.658667 0.31192 0)
(0.672765 0.140597 7.09717e-23)
(0.696407 0.0239599 2.03781e-22)
(0.752103 -0.118881 0)
(0.781586 -0.15954 0)
(-0.133318 0.0162233 -5.97378e-22)
(-0.133264 0.0454741 -3.72961e-20)
(-0.13046 0.0790331 3.51414e-20)
(-0.125396 0.115908 -3.29021e-20)
(-0.117146 0.155483 -2.63224e-22)
(-0.105337 0.196929 0)
(-0.0890321 0.23709 -2.94596e-20)
(-0.0668946 0.274785 2.88311e-20)
(-0.039292 0.30713 2.23981e-22)
(-0.00535219 0.331024 4.22611e-22)
(0.0361401 0.343245 4.31565e-22)
(0.084593 0.34004 4.4492e-22)
(0.139662 0.318316 -3.08453e-20)
(0.200481 0.275894 3.04486e-20)
(0.265286 0.212018 0)
(0.331799 0.1277 1.05483e-21)
(0.39755 0.0252559 -3.34365e-20)
(0.46101 -0.0915002 3.29814e-20)
(0.521389 -0.21583 0)
(0.576098 -0.335387 0)
(0.619909 -0.433207 -2.15531e-20)
(0.647702 -0.496242 3.78097e-20)
(0.657582 -0.522593 -2.86113e-20)
(0.65186 -0.519316 2.89199e-21)
(0.63429 -0.498082 1.69061e-20)
(0.601873 -0.476449 -1.41913e-20)
(0.547247 -0.469304 1.19157e-20)
(0.477133 -0.466268 3.09256e-24)
(0.420509 -0.427305 -5.95807e-21)
(0.406208 -0.317697 0)
(0.4361 -0.145609 0)
(0.493508 0.0472998 2.67988e-21)
(0.559478 0.219538 -3.51219e-21)
(0.62084 0.344916 -4.65424e-23)
(0.672673 0.416162 2.40287e-21)
(0.706693 0.4522 -2.33515e-21)
(0.7072 0.487916 0)
(0.673916 0.529675 2.89577e-22)
(0.635214 0.527638 3.40852e-21)
(0.626185 0.422906 -7.44431e-21)
(0.656788 0.215965 3.49463e-21)
(0.709649 -0.0257374 5.16207e-22)
(0.757112 -0.229626 -3.74592e-21)
(0.788602 -0.354154 2.83183e-21)
(0.807891 -0.398119 4.66676e-22)
(0.80404 -0.407333 3.44353e-22)
(0.758892 -0.415334 -2.85087e-22)
(0.699335 -0.404248 0)
(0.651518 -0.313634 0)
(0.64452 -0.153711 -9.72961e-22)
(0.670314 0.0345719 4.93515e-22)
(0.713656 0.181981 -4.33862e-22)
(0.73312 0.286278 6.31407e-22)
(0.718394 0.362644 7.65881e-22)
(0.674377 0.36163 -1.83713e-22)
(0.653953 0.313076 3.61348e-22)
(0.677789 0.136567 -3.3677e-22)
(0.703046 0.0162096 1.88447e-22)
(0.759391 -0.126788 0)
(0.790578 -0.162899 0)
(-0.0679561 0.00802825 -7.00182e-20)
(-0.0668516 0.0349309 2.58117e-21)
(-0.0620453 0.0658511 6.38395e-20)
(-0.0546919 0.0998613 -4.97399e-22)
(-0.0432633 0.136303 0)
(-0.0288964 0.173593 0)
(-0.0102236 0.210273 -5.46699e-20)
(0.0152199 0.244562 -1.3356e-21)
(0.0468003 0.273309 7.9535e-20)
(0.0851325 0.294414 9.59262e-22)
(0.130641 0.304009 -2.72688e-20)
(0.182858 0.298787 -2.92288e-20)
(0.241075 0.276061 2.92751e-20)
(0.304062 0.233919 0)
(0.369898 0.17173 -3.46273e-20)
(0.436346 0.0903047 3.14899e-20)
(0.501408 -0.00862821 0)
(0.563899 -0.121676 0)
(0.622589 -0.242681 3.04058e-20)
(0.673626 -0.358238 -3.25305e-21)
(0.710279 -0.450242 -2.48068e-20)
(0.727618 -0.505645 -1.74258e-20)
(0.725634 -0.524031 1.7264e-20)
(0.708071 -0.514491 -9.95449e-21)
(0.680905 -0.48756 2.25767e-21)
(0.645271 -0.456573 7.13513e-21)
(0.5924 -0.438112 6.56057e-22)
(0.519152 -0.432976 6.31325e-23)
(0.446689 -0.409451 0)
(0.409739 -0.325275 5.9085e-21)
(0.421695 -0.1735 -6.07432e-21)
(0.469137 0.0105429 4.26558e-22)
(0.532319 0.183123 0)
(0.597165 0.314517 -3.38487e-22)
(0.655371 0.395141 4.49085e-21)
(0.694081 0.443898 -8.30825e-21)
(0.697626 0.492851 -9.68672e-22)
(0.669356 0.542179 -8.34086e-22)
(0.639822 0.538292 4.55991e-21)
(0.64117 0.425171 8.63302e-22)
(0.680074 0.209795 -8.18601e-21)
(0.738051 -0.0357843 6.98026e-21)
(0.786451 -0.238489 -4.15387e-23)
(0.81228 -0.360704 2.28992e-21)
(0.824549 -0.400485 -2.69438e-21)
(0.818252 -0.400747 -2.24084e-21)
(0.772063 -0.401148 6.85315e-22)
(0.711029 -0.390544 8.66578e-22)
(0.660229 -0.308117 -1.69769e-21)
(0.65122 -0.15835 1.2984e-21)
(0.673685 0.0240023 -4.55604e-22)
(0.715036 0.173327 4.30092e-22)
(0.729769 0.285283 3.82611e-22)
(0.711907 0.369004 -1.15818e-21)
(0.669987 0.368424 6.23327e-24)
(0.65138 0.313395 -4.24565e-22)
(0.684262 0.13168 0)
(0.712168 0.00840887 -1.68667e-22)
(0.768514 -0.13474 3.19394e-22)
(0.800055 -0.166377 0)
(0.0217516 -0.00324203 6.55257e-20)
(0.0218452 0.0210004 -1.25363e-19)
(0.0272752 0.0486602 5.92548e-20)
(0.0358439 0.0794072 5.5016e-20)
(0.0482728 0.112288 -1.06836e-19)
(0.0646478 0.145547 2.3044e-22)
(0.0859018 0.179205 5.05991e-20)
(0.113152 0.210341 5.11146e-20)
(0.146717 0.236434 -5.00857e-20)
(0.186967 0.254929 0)
(0.233997 0.2626 -5.71662e-20)
(0.287366 0.256474 1.16204e-19)
(0.346168 0.234075 -5.89495e-20)
(0.409032 0.193629 0)
(0.474149 0.13443 0)
(0.539451 0.0569306 1.10235e-21)
(0.60345 -0.0373413 -7.15378e-20)
(0.665143 -0.145973 6.94871e-20)
(0.722423 -0.262746 0)
(0.769617 -0.373138 5.5553e-20)
(0.798516 -0.458462 -9.6147e-20)
(0.804806 -0.506512 7.68914e-20)
(0.790985 -0.518253 -5.9902e-20)
(0.762679 -0.504185 5.97406e-21)
(0.72638 -0.47463 3.30758e-20)
(0.68645 -0.438511 -1.40454e-20)
(0.636477 -0.409932 -3.0859e-22)
(0.566072 -0.397972 -3.60894e-21)
(0.484695 -0.383707 -2.51247e-22)
(0.426619 -0.324454 3.90588e-21)
(0.418149 -0.19725 3.37159e-22)
(0.453196 -0.0260586 -4.84164e-21)
(0.511814 0.144419 9.21412e-21)
(0.578363 0.280764 -4.86023e-21)
(0.640789 0.371032 0)
(0.68283 0.432996 -4.83541e-21)
(0.689573 0.494885 4.73941e-21)
(0.667254 0.551349 -5.02314e-21)
(0.647311 0.546477 6.23626e-21)
(0.658713 0.427018 -9.60635e-22)
(0.7053 0.204717 0)
(0.767844 -0.044018 -1.08113e-21)
(0.817323 -0.244842 2.72159e-21)
(0.837945 -0.364514 0)
(0.842572 -0.401441 4.28228e-21)
(0.83344 -0.39404 -1.87885e-21)
(0.786701 -0.38696 5.02082e-22)
(0.724237 -0.376736 3.58711e-22)
(0.670916 -0.302762 0)
(0.66065 -0.163197 0)
(0.679483 0.0134543 -1.09519e-21)
(0.718004 0.165074 1.76423e-21)
(0.727606 0.284814 -1.07297e-21)
(0.706788 0.375354 3.48768e-22)
(0.667189 0.37489 7.71546e-22)
(0.651091 0.312923 4.24974e-22)
(0.691976 0.125951 -8.97921e-22)
(0.723368 0.000356596 0)
(0.779428 -0.142575 -4.89972e-22)
(0.810086 -0.169848 -1.02023e-22)
(0.137489 -0.0155782 6.25328e-20)
(0.135153 0.00635647 -6.20222e-20)
(0.137557 0.0303833 4.50632e-22)
(0.144486 0.057183 -4.00392e-22)
(0.155748 0.0862533 4.06774e-22)
(0.171636 0.116466 -3.94879e-22)
(0.192777 0.146587 7.31773e-22)
(0.219864 0.174511 0)
(0.253297 0.197926 -7.5397e-22)
(0.293297 0.214286 7.86825e-22)
(0.339811 0.220769 8.32726e-22)
(0.392365 0.214645 -9.12169e-22)
(0.450026 0.193581 0)
(0.511463 0.155817 0)
(0.575054 0.100372 1.06471e-21)
(0.639216 0.0270018 0)
(0.702531 -0.0616852 -1.11025e-21)
(0.763659 -0.165177 0)
(0.819349 -0.276487 -6.07649e-20)
(0.861909 -0.380245 1.13375e-19)
(0.88221 -0.458016 -9.54937e-20)
(0.877197 -0.499242 4.30601e-20)
(0.851952 -0.506128 2.59107e-20)
(0.814299 -0.489365 -2.51634e-20)
(0.770477 -0.459274 -1.41754e-20)
(0.725704 -0.421759 1.36472e-20)
(0.677826 -0.386013 0)
(0.614117 -0.364721 1.77205e-22)
(0.531741 -0.35255 0)
(0.457016 -0.314149 0)
(0.426136 -0.214601 6.64622e-21)
(0.445946 -0.0613453 -6.77664e-21)
(0.498049 0.104158 3.77937e-22)
(0.564075 0.244086 4.84556e-22)
(0.628441 0.343897 -3.95844e-22)
(0.672628 0.419049 -4.06299e-21)
(0.682795 0.493342 3.94522e-21)
(0.667197 0.556839 -6.37169e-21)
(0.657097 0.552298 5.57436e-21)
(0.678329 0.428807 1.9653e-21)
(0.732159 0.201064 -9.09064e-21)
(0.798704 -0.0502968 -6.65211e-22)
(0.849169 -0.248827 6.23539e-21)
(0.865211 -0.365599 0)
(0.861801 -0.400848 -1.95058e-21)
(0.849274 -0.387314 1.58966e-21)
(0.802546 -0.372891 -2.19269e-21)
(0.738737 -0.362753 -3.60979e-22)