/*--------------------------------*- C++ -*----------------------------------*\
| =========                 |                                                 |
| \\      /  F ield         | OpenFOAM: The Open Source CFD Toolbox           |
|  \\    /   O peration     | Version:  2512                                  |
|   \\  /    A nd           | Website:  www.openfoam.com                      |
|    \\/     M anipulation  |                                                 |
\*---------------------------------------------------------------------------*/
FoamFile
{
    version     2.0;
    format      ascii;
    arch        "LSB;label=32;scalar=64";
    class       volScalarField;
    location    "89.75";
    object      p;
}
// * * * * * * * * * * * * * * * * * * * * * * * * * * * * * * * * * * * * * //

dimensions      [0 2 -2 0 0 0 0];

internalField   nonuniform List<scalar> 
13248
(
-0.350839
-0.349538
-0.347963
-0.346168
-0.344133
-0.341789
-0.338996
-0.335569
-0.331306
-0.326017
-0.319547
-0.3118
-0.30276
-0.292495
-0.281154
-0.268954
-0.256157
-0.243038
-0.229863
-0.216884
-0.204258
-0.192233
-0.180586
-0.169791
-0.359106
-0.356852
-0.354383
-0.351731
-0.348856
-0.345698
-0.342115
-0.337903
-0.332843
-0.326733
-0.319427
-0.31086
-0.301061
-0.290151
-0.278329
-0.265842
-0.252958
-0.239938
-0.227016
-0.214386
-0.202181
-0.190532
-0.179352
-0.168944
-0.368252
-0.36497
-0.361532
-0.357952
-0.354157
-0.350092
-0.345601
-0.340454
-0.334409
-0.327268
-0.318912
-0.309327
-0.298608
-0.286939
-0.274561
-0.261744
-0.24875
-0.235811
-0.223117
-0.210816
-0.198992
-0.187737
-0.176962
-0.166816
-0.378541
-0.37413
-0.369663
-0.365109
-0.360331
-0.355254
-0.34969
-0.34338
-0.336074
-0.327602
-0.317911
-0.307073
-0.295264
-0.282731
-0.269752
-0.256595
-0.243494
-0.230637
-0.21816
-0.206157
-0.194678
-0.183776
-0.17336
-0.163631
-0.390185
-0.384531
-0.378981
-0.373413
-0.367572
-0.361329
-0.354456
-0.346672
-0.337759
-0.327628
-0.316335
-0.304063
-0.291074
-0.277663
-0.264109
-0.25065
-0.23747
-0.224698
-0.212415
-0.200669
-0.189482
-0.178869
-0.168764
-0.159321
-0.403269
-0.396265
-0.389589
-0.382953
-0.37592
-0.368276
-0.359757
-0.350109
-0.339208
-0.327106
-0.314007
-0.300206
-0.286029
-0.271777
-0.257698
-0.243973
-0.230721
-0.218013
-0.205884
-0.194345
-0.183393
-0.17302
-0.163177
-0.15398
-0.417701
-0.409272
-0.401432
-0.393639
-0.385201
-0.375814
-0.365222
-0.353277
-0.340032
-0.325728
-0.310723
-0.295398
-0.280094
-0.265078
-0.250533
-0.236571
-0.223248
-0.210583
-0.198573
-0.187202
-0.17645
-0.166288
-0.156685
-0.14769
-0.433178
-0.423307
-0.414265
-0.405161
-0.395003
-0.383428
-0.370284
-0.355633
-0.339775
-0.32316
-0.306265
-0.289502
-0.273176
-0.257483
-0.242529
-0.228354
-0.214959
-0.202321
-0.190408
-0.179184
-0.168612
-0.158654
-0.149285
-0.140483
-0.44917
-0.437906
-0.427612
-0.416965
-0.404671
-0.390404
-0.374251
-0.356587
-0.337995
-0.3191
-0.300435
-0.28238
-0.265162
-0.248888
-0.233584
-0.219227
-0.205772
-0.193164
-0.181349
-0.170271
-0.15988
-0.150135
-0.141003
-0.132401
-0.464911
-0.452364
-0.44074
-0.428231
-0.413321
-0.395879
-0.376373
-0.355564
-0.33429
-0.313278
-0.293042
-0.273878
-0.255911
-0.239156
-0.223568
-0.209073
-0.195588
-0.183034
-0.171334
-0.16042
-0.150229
-0.140714
-0.131822
-0.123438
-0.479419
-0.465735
-0.452652
-0.437892
-0.419883
-0.39888
-0.375855
-0.35195
-0.328187
-0.305306
-0.283736
-0.263658
-0.24509
-0.227965
-0.212176
-0.197607
-0.184148
-0.171695
-0.160157
-0.149449
-0.139503
-0.130256
-0.121626
-0.113505
-0.49159
-0.476956
-0.462263
-0.444835
-0.423274
-0.398422
-0.371826
-0.344968
-0.318962
-0.294481
-0.271822
-0.251037
-0.232038
-0.214681
-0.19881
-0.184273
-0.170933
-0.158669
-0.147374
-0.136955
-0.127333
-0.118436
-0.110151
-0.102423
-0.332154
-0.334184
-0.33538
-0.336159
-0.336929
-0.337836
-0.338945
-0.340275
-0.341824
-0.34357
-0.345491
-0.347558
-0.349738
-0.351989
-0.354254
-0.356464
-0.358527
-0.360331
-0.36175
-0.362641
-0.362828
-0.362107
-0.360373
-0.358169
-0.325922
-0.3285
-0.329979
-0.330859
-0.331599
-0.332335
-0.333107
-0.33392
-0.334748
-0.335552
-0.336283
-0.336886
-0.337304
-0.337473
-0.337322
-0.336772
-0.335738
-0.334131
-0.331867
-0.32887
-0.325032
-0.320196
-0.314459
-0.309025
-0.32082
-0.323796
-0.325479
-0.326422
-0.327112
-0.327665
-0.328101
-0.328404
-0.328529
-0.328415
-0.327988
-0.327172
-0.325886
-0.324047
-0.321572
-0.318378
-0.314388
-0.309535
-0.30377
-0.297075
-0.289413
-0.280653
-0.270987
-0.262223
-0.3172
-0.320405
-0.322204
-0.323173
-0.3238
-0.324176
-0.324299
-0.324134
-0.323616
-0.322663
-0.321182
-0.319076
-0.316248
-0.312601
-0.308045
-0.302501
-0.295906
-0.288215
-0.279419
-0.269553
-0.258676
-0.246761
-0.233885
-0.221904
-0.315278
-0.318537
-0.320361
-0.321317
-0.321869
-0.322081
-0.321927
-0.321352
-0.320273
-0.318591
-0.316196
-0.312977
-0.308824
-0.303634
-0.29732
-0.289811
-0.281064
-0.271068
-0.259848
-0.247487
-0.23415
-0.219985
-0.204847
-0.189487
-0.315136
-0.318275
-0.320029
-0.320931
-0.321394
-0.321452
-0.321058
-0.320137
-0.318591
-0.316304
-0.313154
-0.30902
-0.303785
-0.297348
-0.289628
-0.280575
-0.270173
-0.258451
-0.245485
-0.231411
-0.216437
-0.200778
-0.184417
-0.167996
-0.316726
-0.31958
-0.321157
-0.321964
-0.322315
-0.322223
-0.321621
-0.320415
-0.318493
-0.315725
-0.311981
-0.307132
-0.301062
-0.293673
-0.284902
-0.274721
-0.263153
-0.250272
-0.236212
-0.221166
-0.20539
-0.189165
-0.172819
-0.155842
-0.31989
-0.32232
-0.323666
-0.32427
-0.324458
-0.324199
-0.323404
-0.321957
-0.319731
-0.316588
-0.312386
-0.306997
-0.300305
-0.292227
-0.282719
-0.271784
-0.259489
-0.245958
-0.231381
-0.216003
-0.200141
-0.18395
-0.168539
-0.150961
-0.324375
-0.326237
-0.327205
-0.32757
-0.327547
-0.327088
-0.326078
-0.324397
-0.321899
-0.318436
-0.313861
-0.308044
-0.300879
-0.292299
-0.282287
-0.270887
-0.258212
-0.24444
-0.229815
-0.214612
-0.199262
-0.18363
-0.169728
-0.153195
-0.329912
-0.331098
-0.33159
-0.331603
-0.331269
-0.330524
-0.329245
-0.327286
-0.324492
-0.320702
-0.315768
-0.30956
-0.301987
-0.293006
-0.282636
-0.270966
-0.258158
-0.244441
-0.230103
-0.215433
-0.200922
-0.186344
-0.173769
-0.159392
-0.336255
-0.336675
-0.336579
-0.336111
-0.335338
-0.334187
-0.332522
-0.330188
-0.327014
-0.322831
-0.317486
-0.310859
-0.302878
-0.29353
-0.282877
-0.271054
-0.258268
-0.244781
-0.230899
-0.216929
-0.20327
-0.189939
-0.178248
-0.166016
-0.343244
-0.342828
-0.342031
-0.340942
-0.339583
-0.337878
-0.335693
-0.332857
-0.329187
-0.324505
-0.318657
-0.311535
-0.303089
-0.293345
-0.282407
-0.270451
-0.257716
-0.24448
-0.231031
-0.217668
-0.204639
-0.19221
-0.180877
-0.170237
-0.35473
-0.348312
-0.338657
-0.325487
-0.309112
-0.290431
-0.270963
-0.252731
-0.238024
-0.228979
-0.227195
-0.233002
-0.244978
-0.259714
-0.272173
-0.27674
-0.269108
-0.247215
-0.213732
-0.175684
-0.140746
-0.113842
-0.096551
-0.0881471
-0.0872461
-0.0937724
-0.108798
-0.13006
-0.148936
-0.154583
-0.144228
-0.122506
-0.0988309
-0.0802871
-0.0695002
-0.0652871
-0.0671592
-0.0771991
-0.0943363
-0.109172
-0.110214
-0.0976401
-0.07917
-0.0636826
-0.0530986
-0.0477981
-0.0493624
-0.0546057
-0.056583
-0.053349
-0.0465256
-0.0410214
-0.0363505
-0.0337502
-0.0334811
-0.0330386
-0.0293527
-0.0270306
-0.0180308
-0.00309716
-0.303447
-0.296236
-0.287336
-0.27661
-0.264507
-0.251801
-0.239951
-0.230625
-0.225539
-0.226331
-0.234019
-0.248016
-0.266125
-0.284543
-0.298452
-0.302758
-0.29309
-0.267802
-0.229988
-0.187374
-0.148183
-0.11745
-0.096575
-0.0847207
-0.0804481
-0.083257
-0.093974
-0.111226
-0.127956
-0.134691
-0.127455
-0.110082
-0.090573
-0.0757
-0.0680461
-0.0664648
-0.0709573
-0.0838895
-0.103654
-0.119992
-0.120481
-0.106011
-0.0846106
-0.0661622
-0.0530669
-0.0456294
-0.0449732
-0.0481199
-0.0494001
-0.0467976
-0.0421749
-0.0385654
-0.0360715
-0.0356745
-0.0369055
-0.0376051
-0.0332343
-0.0303505
-0.0201108
-0.00340173
-0.254836
-0.246715
-0.238487
-0.229812
-0.221597
-0.214431
-0.209403
-0.208713
-0.212055
-0.221423
-0.236935
-0.257235
-0.279675
-0.300471
-0.315216
-0.319415
-0.308619
-0.281215
-0.240631
-0.195017
-0.152898
-0.11937
-0.0956644
-0.0808235
-0.0733797
-0.0725865
-0.0790242
-0.0921293
-0.106485
-0.113875
-0.109651
-0.096481
-0.0811344
-0.0700102
-0.0655702
-0.0666936
-0.0738346
-0.0895373
-0.111708
-0.12945
-0.129608
-0.113455
-0.0894176
-0.0682125
-0.0527746
-0.0434071
-0.0407697
-0.0420052
-0.042602
-0.0404408
-0.0377914
-0.0359396
-0.0356918
-0.037617
-0.0403967
-0.0421723
-0.0370081
-0.0335166
-0.0221148
-0.00370666
-0.213375
-0.204351
-0.196957
-0.189817
-0.184178
-0.182526
-0.183261
-0.188427
-0.19874
-0.214636
-0.235634
-0.260089
-0.285242
-0.307462
-0.322673
-0.326881
-0.315682
-0.2874
-0.245629
-0.198669
-0.155067
-0.119851
-0.0941214
-0.07688
-0.0666769
-0.0625906
-0.0649683
-0.0738948
-0.0855441
-0.0929965
-0.0914052
-0.0821446
-0.070806
-0.0633568
-0.0620545
-0.0658075
-0.0754576
-0.0937145
-0.118112
-0.137269
-0.137323
-0.119801
-0.0934994
-0.0698277
-0.0522618
-0.0411889
-0.0368426
-0.0363825
-0.0363091
-0.0343741
-0.0334408
-0.0331762
-0.0352113
-0.0395549
-0.0439275
-0.0467071
-0.0406362
-0.0364936
-0.024018
-0.00400692
-0.181438
-0.172139
-0.165341
-0.15953
-0.156425
-0.157045
-0.161824
-0.171427
-0.186239
-0.206157
-0.230355
-0.257064
-0.28361
-0.306547
-0.321822
-0.32602
-0.314912
-0.286846
-0.245445
-0.198826
-0.155216
-0.119351
-0.0923135
-0.0732259
-0.0607187
-0.0538105
-0.052521
-0.0573532
-0.0659999
-0.0728886
-0.0733639
-0.0675136
-0.0598554
-0.0558425
-0.0574512
-0.0636372
-0.0755622
-0.0961254
-0.122595
-0.143173
-0.143369
-0.124915
-0.0968028
-0.071028
-0.0515834
-0.0390266
-0.0332385
-0.0313156
-0.0306073
-0.0286898
-0.0291881
-0.0303071
-0.034625
-0.0414577
-0.0474623
-0.0511646
-0.0440779
-0.0392454
-0.0257971
-0.00429761
-0.16078
-0.150239
-0.142747
-0.13806
-0.136572
-0.139079
-0.146087
-0.157993
-0.174948
-0.196615
-0.221998
-0.249349
-0.276227
-0.299728
-0.314187
-0.318192
-0.307467
-0.280469
-0.240797
-0.196072
-0.153794
-0.118255
-0.090567
-0.0701219
-0.0557466
-0.0464697
-0.0420926
-0.0431321
-0.04858
-0.0542915
-0.0561587
-0.0529933
-0.0485675
-0.0475956
-0.0517803
-0.0601323
-0.0740465
-0.096606
-0.124951
-0.146934
-0.147587
-0.12871
-0.0992856
-0.0718268
-0.050781
-0.0369521
-0.0299723
-0.0268257
-0.0255455
-0.0234566
-0.0250923
-0.027365
-0.0339218
-0.0432834
-0.0509531
-0.0554956
-0.0472957
-0.04174
-0.0274282
-0.00457267
-0.150793
-0.139188
-0.130265
-0.125474
-0.124566
-0.127803
-0.135506
-0.14797
-0.165235
-0.186853
-0.211788
-0.238365
-0.264463
-0.289519
-0.301129
-0.304754
-0.29467
-0.269512
-0.23273
-0.191152
-0.151283
-0.116889
-0.0891334
-0.0677592
-0.051903
-0.0406738
-0.0337371
-0.0314775
-0.0337448
-0.0378015
-0.0401516
-0.0390115
-0.037312
-0.0388529
-0.0451895
-0.055361
-0.0708867
-0.0950691
-0.125061
-0.148448
-0.149891
-0.131138
-0.100913
-0.0722246
-0.0498797
-0.0349823
-0.0270322
-0.0228887
-0.0211319
-0.0187461
-0.0212066
-0.0243847
-0.0330845
-0.0449786
-0.0543458
-0.0596493
-0.0502546
-0.0439496
-0.0288914
-0.00482507
-0.146323
-0.136496
-0.126502
-0.120668
-0.119328
-0.122217
-0.129394
-0.141087
-0.157292
-0.177516
-0.200757
-0.225287
-0.248373
-0.265246
-0.282518
-0.286837
-0.277823
-0.255213
-0.222234
-0.184697
-0.147992
-0.115363
-0.088043
-0.0661375
-0.0491615
-0.0363802
-0.027384
-0.0223835
-0.0216744
-0.0237731
-0.0258402
-0.0261285
-0.0264954
-0.0299201
-0.0378904
-0.0494605
-0.0661829
-0.0915352
-0.122905
-0.14773
-0.150209
-0.132181
-0.10167
-0.0722243
-0.0489015
-0.0331269
-0.0244028
-0.0194619
-0.017334
-0.0145848
-0.017572
-0.0214022
-0.0320922
-0.0464839
-0.0575835
-0.0635714
-0.0529199
-0.045851
-0.0301751
-0.00504916
-0.149576
-0.14092
-0.129732
-0.122429
-0.119932
-0.121447
-0.127019
-0.136877
-0.15097
-0.168799
-0.189468
-0.211553
-0.233114
-0.249441
-0.26254
-0.266211
-0.258416
-0.238861
-0.210283
-0.177291
-0.144178
-0.113729
-0.0872702
-0.0652187
-0.0474636
-0.0335015
-0.0228987
-0.0157098
-0.0123619
-0.0123495
-0.013699
-0.01473
-0.0164515
-0.0211104
-0.0301487
-0.0426116
-0.0599979
-0.0861081
-0.118641
-0.144902
-0.148542
-0.131894
-0.101634
-0.07192
-0.0479495
-0.0314418
-0.0220903
-0.016523
-0.0141234
-0.0109709
-0.0142166
-0.0184548
-0.0309149
-0.0477396
-0.0606065
-0.067206
-0.0552653
-0.0474269
-0.0312723
-0.00524322
-0.156016
-0.147736
-0.136673
-0.128525
-0.12461
-0.124071
-0.127294
-0.13456
-0.145761
-0.160444
-0.177838
-0.196902
-0.217825
-0.230809
-0.241115
-0.244367
-0.238138
-0.22208
-0.198225
-0.169976
-0.140648
-0.112648
-0.0873844
-0.0655172
-0.047245
-0.032348
-0.0204528
-0.0114916
-0.00586071
-0.00367267
-0.00388169
-0.004982
-0.00739379
-0.0126613
-0.0221992
-0.0350912
-0.0527617
-0.0791166
-0.112359
-0.140097
-0.145026
-0.13044
-0.10099
-0.0715031
-0.0472136
-0.0300511
-0.0201143
-0.0140309
-0.0115015
-0.00794104
-0.0111487
-0.0155761
-0.0295394
-0.0486801
-0.0633398
-0.0704895
-0.0572769
-0.0486679
-0.0321633
-0.00540271
-0.161445
-0.153505
-0.143787
-0.135801
-0.130677
-0.128268
-0.12898
-0.133248
-0.14107
-0.152194
-0.165872
-0.180836
-0.194833
-0.209105
-0.218694
-0.222189
-0.218022
-0.205831
-0.186884
-0.163472
-0.138046
-0.112669
-0.0888019
-0.0673304
-0.0487112
-0.0330111
-0.0200351
-0.00963349
-0.00204622
0.00233068
0.00359775
0.00296765
0.000433245
-0.00486025
-0.0142855
-0.0269491
-0.0442642
-0.0706738
-0.104892
-0.133774
-0.140531
-0.127647
-0.0994941
-0.070722
-0.0464755
-0.0288442
-0.0183564
-0.0117938
-0.00929195
-0.00553742
-0.00845979
-0.0128009
-0.0278685
-0.0492715
-0.0657358
-0.073335
-0.0589039
-0.0495613
-0.0328008
-0.00549883
-0.164533
-0.157759
-0.149968
-0.142263
-0.136201
-0.132634
-0.131577
-0.133082
-0.137415
-0.144525
-0.153882
-0.164827
-0.175271
-0.188025
-0.195548
-0.198681
-0.196162
-0.187318
-0.172682
-0.153611
-0.131864
-0.109194
-0.0870612
-0.0665072
-0.0481576
-0.0322453
-0.0188046
-0.00771225
0.00108324
0.00727276
0.0100728
0.00988581
0.00730655
0.00205259
-0.00695196
-0.0191589
-0.0357809
-0.0614585
-0.0955327
-0.125386
-0.130152
-0.122384
-0.0958988
-0.0681812
-0.0444475
-0.0269545
-0.0163335
-0.00948349
-0.00701587
-0.00325207
-0.00597989
-0.0102759
-0.026012
-0.0493944
-0.067656
-0.0757393
-0.0600452
-0.0500739
-0.0331484
-0.00547953
-0.160315
-0.1575
-0.150503
-0.143005
-0.13719
-0.133562
-0.131992
-0.13261
-0.135692
-0.141238
-0.14885
-0.157816
-0.166987
-0.176014
-0.182046
-0.184018
-0.180846
-0.172131
-0.158394
-0.140806
-0.120857
-0.100035
-0.0795819
-0.0603982
-0.0430455
-0.027741
-0.0145626
-0.00345461
0.00565072
0.012614
0.0166291
0.0174691
0.0158622
0.0106566
0.00267956
-0.00836852
-0.024297
-0.0506858
-0.0876207
-0.121646
-0.140277
-0.118884
-0.0914208
-0.0641404
-0.041054
-0.0241421
-0.0139696
-0.00723252
-0.00469358
-0.000396384
-0.00269019
-0.00682966
-0.0233156
-0.0490737
-0.0694339
-0.0782043
-0.0608961
-0.0502034
-0.0332716
-0.00538496
-0.155718
-0.154641
-0.148322
-0.141178
-0.135721
-0.132363
-0.130867
-0.131183
-0.133436
-0.137593
-0.143322
-0.150011
-0.156746
-0.162903
-0.166723
-0.167042
-0.163136
-0.154766
-0.14234
-0.126747
-0.109121
-0.0906141
-0.0722241
-0.0547183
-0.0386139
-0.024144
-0.0114792
-0.00061998
0.00857316
0.016021
0.0207624
0.022142
0.0204565
0.0164741
0.00981769
9.27802e-05
-0.0149661
-0.0416259
-0.0800891
-0.115255
-0.128001
-0.111535
-0.0849405
-0.0591358
-0.0375192
-0.0215504
-0.0117801
-0.00518293
-0.0027318
0.00167835
-0.000590228
-0.00429117
-0.0211703
-0.0487469
-0.0707008
-0.0798401
-0.0612202
-0.0497781
-0.0330834
-0.0053449
-0.149025
-0.149342
-0.144242
-0.137839
-0.132873
-0.129894
-0.128573
-0.128656
-0.130112
-0.132889
-0.136769
-0.141327
-0.14591
-0.149707
-0.151625
-0.150813
-0.146709
-0.139084
-0.128149
-0.114498
-0.0989673
-0.0824654
-0.0658324
-0.0497495
-0.0347228
-0.0210053
-0.00879247
0.00183901
0.0109648
0.018597
0.0238691
0.0259901
0.0249521
0.0216437
0.0159258
0.00694575
-0.00792237
-0.0346784
-0.0723691
-0.106126
-0.117445
-0.102831
-0.077846
-0.0538811
-0.0338645
-0.0188905
-0.00960932
-0.00319707
-0.000841933
0.00358759
0.00118677
-0.00238689
-0.0196249
-0.0484076
-0.0713566
-0.0807767
-0.0611241
-0.0489251
-0.0326515
-0.00533631
-0.140494
-0.142554
-0.138942
-0.13346
-0.129014
-0.126331
-0.125077
-0.124878
-0.125609
-0.127243
-0.129659
-0.132518
-0.135272
-0.137311
-0.137893
-0.136343
-0.132171
-0.125143
-0.11537
-0.103272
-0.0894891
-0.0747415
-0.0597217
-0.0450078
-0.031063
-0.0181431
-0.00644839
0.00389131
0.0128493
0.0205065
0.0261938
0.0291003
0.0289492
0.0266383
0.0220203
0.0137052
-0.00108466
-0.0273716
-0.0633227
-0.0955693
-0.106018
-0.0929373
-0.070026
-0.0481901
-0.0299779
-0.0161604
-0.00746854
-0.00126808
0.00100545
0.0054113
0.00291435
-0.000671697
-0.0180756
-0.0475459
-0.0712695
-0.0810224
-0.0605792
-0.0476639
-0.0319233
-0.00533452
-0.131463
-0.13486
-0.132586
-0.128051
-0.124133
-0.121699
-0.12048
-0.120064
-0.120272
-0.121061
-0.122337
-0.123844
-0.12521
-0.12596
-0.125526
-0.123376
-0.119119
-0.112563
-0.103764
-0.0930177
-0.0807879
-0.0676237
-0.0540813
-0.0406461
-0.0277372
-0.0156148
-0.00448293
0.00551307
0.0142555
0.0218208
0.027722
0.0312739
0.0321151
0.0310817
0.0279014
0.0206897
0.00645146
-0.0190766
-0.053444
-0.0839383
-0.0933879
-0.0819488
-0.061625
-0.0422163
-0.0259446
-0.0133921
-0.00536835
0.000600299
0.00281147
0.00712547
0.00458787
0.00103242
-0.0161391
-0.0459044
-0.0702992
-0.0803638
-0.0594829
-0.0459601
-0.0308708
-0.00532364
-0.122251
-0.126433
-0.125292
-0.121692
-0.118331
-0.11616
-0.115008
-0.114468
-0.114314
-0.114476
-0.114891
-0.115397
-0.11572
-0.115486
-0.114268
-0.111671
-0.107393
-0.101275
-0.0933298
-0.0837479
-0.0728624
-0.0610898
-0.048878
-0.0366331
-0.0247248
-0.0134037
-0.00287854
0.00670983
0.0151919
0.0225931
0.0285517
0.0325606
0.0342897
0.0345264
0.0329989
0.0273599
0.0140334
-0.0107526
-0.0433344
-0.0713517
-0.0797599
-0.0702225
-0.0528864
-0.036097
-0.0218259
-0.010606
-0.00331618
0.00239852
0.00457134
0.00873427
0.00621061
0.00274483
-0.0137703
-0.0433953
-0.0682163
-0.0785812
-0.0577444
-0.043806
-0.0294743
-0.00528395
-0.112799
-0.117509
-0.117319
-0.114589
-0.111789
-0.109905
-0.108851
-0.10825
-0.107854
-0.107579
-0.107386
-0.107164
-0.106715
-0.105762
-0.103992
-0.101111
-0.096881
-0.0911655
-0.0839539
-0.0753685
-0.0656501
-0.0551127
-0.044111
-0.0329784
-0.0220347
-0.0115114
-0.001621
0.00750011
0.0156691
0.0228669
0.0287903
0.0330809
0.0354682
0.0367315
0.0366836
0.0326674
0.0204331
-0.00320346
-0.0332348
-0.0580971
-0.0655541
-0.0581828
-0.0440772
-0.0299912
-0.0177058
-0.00783023
-0.00131736
0.00412089
0.00628833
0.0102555
0.00780048
0.00443922
-0.0110256
-0.0399083
-0.064808
-0.0755133
-0.0552948
-0.0412174
-0.0277284
-0.00519535
-0.103362
-0.108387
-0.108934
-0.10696
-0.104693
-0.103102
-0.102169
-0.101559
-0.101026
-0.100474
-0.0998673
-0.09914
-0.0981558
-0.0967159
-0.0945894
-0.0915513
-0.0874185
-0.0820786
-0.0755123
-0.0677981
-0.0591073
-0.0496727
-0.0397712
-0.029674
-0.0196553
-0.00992302
-0.000685567
0.00792321
0.0157215
0.0226682
0.0284932
0.032929
0.0357447
0.0376424
0.0385554
0.0357827
0.0248891
0.00335138
-0.02321
-0.0445609
-0.0513548
-0.0463372
-0.0354925
-0.0240599
-0.0136723
-0.00509584
0.000627113
0.00576841
0.007969
0.011709
0.00938292
0.00612432
-0.00789447
-0.0353463
-0.0599575
-0.0710736
-0.0520916
-0.0382335
-0.0256465
-0.00503891
-0.094168
-0.0992671
-0.100344
-0.0990036
-0.0972202
-0.0959161
-0.0951221
-0.0945481
-0.0939557
-0.0932435
-0.0923824
-0.0913349
-0.0900107
-0.0882675
-0.0859348
-0.0828442
-0.0788568
-0.0738837
-0.0679026
-0.0609619
-0.053182
-0.0447349
-0.0358357
-0.0267027
-0.0175687
-0.00861667
-4.23517e-05
0.00802122
0.0153983
0.0220418
0.0277021
0.0321645
0.0352263
0.0374079
0.0386964
0.0366726
0.0274244
0.00895666
-0.0134796
-0.0314229
-0.0379225
-0.0352286
-0.0274155
-0.0184457
-0.00981135
-0.00243947
0.00251549
0.00734679
0.0096199
0.0131232
0.0110073
0.00787785
-0.00433187
-0.0297198
-0.0536735
-0.0652653
-0.0481283
-0.0349169
-0.0232649
-0.00479971
-0.0852723
-0.0902823
-0.0917251
-0.0909001
-0.0895409
-0.0885056
-0.0878579
-0.0873484
-0.0867545
-0.0859748
-0.0849831
-0.083759
-0.0822451
-0.0803418
-0.0779255
-0.0748717
-0.0710756
-0.0664678
-0.0610262
-0.0547805
-0.0478158
-0.040259
-0.0322764
-0.0240419
-0.0157508
-0.00756289
0.000343545
0.00783922
0.0147577
0.0210443
0.026469
0.0308541
0.0340214
0.0362721
0.0375699
0.035969
0.028495
0.0135161
-0.00470413
-0.0196342
-0.0260034
-0.0253079
-0.0200704
-0.013258
-0.00619606
9.76477e-05
0.00433878
0.00886055
0.0112441
0.0145431
0.0127542
0.00981991
-0.00033934
-0.023187
-0.0461097
-0.0580659
-0.0434467
-0.0313521
-0.0206442
-0.00446927
-0.0767385
-0.081554
-0.0832242
-0.0828034
-0.0818037
-0.0810103
-0.0805066
-0.0800798
-0.0795262
-0.0787466
-0.0777154
-0.076423
-0.0748353
-0.0728849
-0.0704829
-0.0675376
-0.0639704
-0.059728
-0.0547914
-0.0491791
-0.0429517
-0.0362029
-0.0290607
-0.0216633
-0.0141727
-0.00672721
0.00051258
0.00742652
0.013858
0.0197415
0.0248725
0.029097
0.0322543
0.0344619
0.0356302
0.0343142
0.0284604
0.0167548
0.00236215
-0.00994585
-0.0160725
-0.0168245
-0.013589
-0.00856703
-0.00288094
0.0024738
0.00607919
0.0103028
0.0128302
0.0160194
0.0147154
0.012078
0.00401573
-0.0160657
-0.0375929
-0.0484893
-0.0381446
-0.0276382
-0.0178687
-0.00404742
-0.0686262
-0.0731658
-0.0749522
-0.0748388
-0.0741366
-0.0735548
-0.0731865
-0.0728507
-0.0723634
-0.07163
-0.0706248
-0.0693441
-0.06777
-0.0658579
-0.0635443
-0.0607619
-0.0574525
-0.0535761
-0.0491175
-0.044089
-0.0385342
-0.0325225
-0.0261529
-0.0195347
-0.0128018
-0.00607259
0.000510413
0.00683692
0.0127607
0.0182101
0.023005
0.027003
0.0300569
0.0321582
0.033174
0.0320808
0.0275412
0.018568
0.00741794
-0.00256095
-0.00819817
-0.00981093
-0.00801448
-0.00440926
9.93446e-05
0.00465002
0.00771667
0.0116523
0.0143358
0.0175597
0.0169474
0.0147566
0.00859936
-0.00882396
-0.0287472
-0.0396726
-0.0324828
-0.0238793
-0.0150416
-0.00354447
-0.0609577
-0.065175
-0.0669963
-0.0671101
-0.0666486
-0.0662462
-0.0660003
-0.0657571
-0.0653495
-0.0646896
-0.0637546
-0.0625429
-0.061045
-0.0592323
-0.0570604
-0.0544803
-0.0514493
-0.0479377
-0.0439343
-0.0394478
-0.0345103
-0.0291739
-0.0235157
-0.017622
-0.0116031
-0.00555987
0.000383291
0.00612595
0.0115339
0.0165307
0.020957
0.0246814
0.0275651
0.0295256
0.0304103
0.0295136
0.0260067
0.0192076
0.0107135
0.00277806
-0.00217313
-0.00416344
-0.00332765
-0.000796121
0.00272897
0.00659228
0.00922988
0.0128818
0.0156968
0.0190784
0.0193806
0.017816
0.0131553
-0.00202771
-0.0201514
-0.0308619
-0.0266607
-0.0201663
-0.0122727
-0.00298251
-0.0537612
-0.0576297
-0.0594227
-0.0596965
-0.0594253
-0.0591714
-0.0590314
-0.0588745
-0.0585524
-0.0579841
-0.0571472
-0.0560401
-0.0546594
-0.0529876
-0.0509938
-0.0486423
-0.0459015
-0.0427503
-0.0391805
-0.0351991
-0.0308305
-0.0261147
-0.0211117
-0.0158904
-0.0105411
-0.00514934
0.000176965
0.00534815
0.0102423
0.0147799
0.0188193
0.0222434
0.0249175
0.0267274
0.0275211
0.0268223
0.024144
0.0190538
0.0126786
0.00649224
0.00231459
0.000285073
0.000528025
0.0022774
0.00500627
0.00827825
0.0105894
0.0139578
0.0168601
0.0204126
0.0216703
0.0208543
0.0171985
0.0037703
-0.0123149
-0.0221948
-0.0208941
-0.0165751
-0.00966455
-0.00239311
-0.0470496
-0.0505535
-0.0522716
-0.0526522
-0.052529
-0.052396
-0.0523457
-0.0522675
-0.0520294
-0.0515585
-0.0508339
-0.0498534
-0.0486156
-0.0471102
-0.0453161
-0.0432074
-0.0407609
-0.0379613
-0.0348035
-0.0312933
-0.0274501
-0.0233048
-0.0189049
-0.0143057
-0.00958109
-0.00480309
-6.5077e-05
0.0045537
0.00894457
0.0130291
0.0166811
0.019795
0.0222432
0.0239098
0.0246548
0.024164
0.0221694
0.0184175
0.0137041
0.00897833
0.005581
0.00371412
0.00363008
0.00483054
0.00693704
0.00969732
0.0117626
0.0148387
0.0177709
0.0213885
0.0233627
0.0231782
0.0201174
0.0082199
-0.00562911
-0.0146508
-0.0154392
-0.0131733
-0.00730822
-0.00181159
-0.0408103
-0.0439535
-0.0455691
-0.0460167
-0.0460067
-0.04597
-0.0459933
-0.0459839
-0.0458251
-0.0454504
-0.0448427
-0.0439984
-0.0429161
-0.0415897
-0.0400051
-0.0381437
-0.0359882
-0.0335276
-0.0307588
-0.0276874
-0.0243288
-0.0207077
-0.0168619
-0.0128361
-0.00869071
-0.00448655
-0.000303448
0.00378899
0.00769481
0.0113411
0.0146159
0.0174247
0.0196495
0.0211883
0.0219195
0.0216411
0.0202155
0.0175126
0.014089
0.0105648
0.00789121
0.00629312
0.00606402
0.00689453
0.00853013
0.0108451
0.0127214
0.0154838
0.0183533
0.0218554
0.0241396
0.0242552
0.021555
0.0112685
-0.000301063
-0.00829936
-0.0105176
-0.0099668
-0.00527495
-0.00127278
-0.0350357
-0.0378341
-0.0393309
-0.0398147
-0.039889
-0.0399274
-0.0400096
-0.0400579
-0.0399706
-0.0396876
-0.0391955
-0.0384877
-0.0375631
-0.0364181
-0.0350434
-0.0334256
-0.0315516
-0.0294135
-0.0270095
-0.0243448
-0.021432
-0.0182912
-0.0149527
-0.0114529
-0.00784135
-0.00416918
-0.000503882
0.00309389
0.00654072
0.00977006
0.0126834
0.0152013
0.0172169
0.0186459
0.0193855
0.0193117
0.0183566
0.0164758
0.0140548
0.0114978
0.0094628
0.00817209
0.00791749
0.00850905
0.00979653
0.0117253
0.0134395
0.0158686
0.0185633
0.0217452
0.0239184
0.024066
0.0216437
0.0130731
0.00360006
-0.00328647
-0.0063076
-0.00712484
-0.00360207
-0.000809695
-0.0297193
-0.0321905
-0.0335588
-0.0340557
-0.0341913
-0.0342876
-0.0344161
-0.0345127
-0.0344904
-0.0342965
-0.0339064
-0.0333273
-0.0325558
-0.031588
-0.0304167
-0.0290326
-0.0274258
-0.0255903
-0.0235252
-0.0212351
-0.0187305
-0.0160279
-0.0131518
-0.0101318
-0.00700874
-0.00382522
-0.000638028
0.00250047
0.00551792
0.0083571
0.0109332
0.0131794
0.0150025
0.0163354
0.0170928
0.0172043
0.0166364
0.0153956
0.0137452
0.0119728
0.0104701
0.00948378
0.00927311
0.00971818
0.0107524
0.0123489
0.0139015
0.0159944
0.0184102
0.0211191
0.0229381
0.0229859
0.0208015
0.0138876
0.00619947
0.00039465
-0.00290093
-0.00463766
-0.00226903
-0.000446127
-0.0248409
-0.0270071
-0.0282449
-0.0287391
-0.0289184
-0.0290581
-0.029222
-0.0293566
-0.0293875
-0.0292646
-0.0289729
-0.0285159
-0.0278908
-0.0270915
-0.0261127
-0.0249479
-0.0235901
-0.0220348
-0.0202813
-0.0183335
-0.0162004
-0.0138954
-0.0114383
-0.00885337
-0.0061739
-0.00343543
-0.000685523
0.00203121
0.00465363
0.00713369
0.00939781
0.011393
0.01304
0.0142862
0.0150603
0.0153304
0.0150754
0.0143236
0.0132595
0.0121294
0.0110406
0.0103374
0.0102074
0.0105704
0.0114203
0.0127322
0.0141136
0.0158806
0.0179412
0.0201267
0.021517
0.0214234
0.0194479
0.0139976
0.00776984
0.00292883
-0.000303544
-0.00254948
-0.00121406
-0.000180714
-0.0203782
-0.0222662
-0.0233772
-0.0238582
-0.0240677
-0.0242393
-0.0244291
-0.0245928
-0.0246672
-0.0246101
-0.0244077
-0.0240582
-0.0235645
-0.0229202
-0.0221195
-0.021157
-0.0200278
-0.0187283
-0.0172582
-0.0156208
-0.0138231
-0.0118763
-0.00979638
-0.00760317
-0.00532378
-0.00298739
-0.000633361
0.00170149
0.00396523
0.0061163
0.00809423
0.00986265
0.0113462
0.0125097
0.0132938
0.0136885
0.0136749
0.0132911
0.0126424
0.0118289
0.0112493
0.0108243
0.0107913
0.0111142
0.011828
0.0128984
0.0140993
0.0155568
0.0172353
0.0189208
0.0198996
0.0196718
0.0178882
0.013651
0.00859087
0.00457251
0.00156534
-0.000877272
-0.000383583
1.10378e-05
-0.016312
-0.0179487
-0.0189392
-0.0194
-0.0196292
-0.0198236
-0.020032
-0.0202182
-0.020329
-0.0203285
-0.0202004
-0.0199453
-0.0195688
-0.0190655
-0.0184269
-0.0176479
-0.0167251
-0.0156562
-0.0144409
-0.0130818
-0.0115845
-0.00995799
-0.00821521
-0.00637215
-0.00445061
-0.00247433
-0.000475693
0.00151544
0.0034562
0.00531179
0.00703104
0.00858917
0.00991769
0.0110024
0.0117861
0.0122703
0.0124384
0.0123335
0.0120196
0.0115877
0.0112549
0.0110373
0.0110927
0.0113973
0.0120065
0.0128744
0.0138933
0.0150643
0.0163746
0.0175825
0.0182359
0.0179104
0.0163057
0.0130288
0.00890618
0.005558
0.00283295
0.000398641
0.000263018
0.000157159
-0.0126206
-0.0140321
-0.0149105
-0.0153473
-0.0155886
-0.0157988
-0.0160199
-0.0162224
-0.0163617
-0.0164074
-0.0163467
-0.0161782
-0.0159016
-0.0155194
-0.015024
-0.0144088
-0.0136701
-0.0128064
-0.0118176
-0.0107056
-0.00947485
-0.00813235
-0.00668842
-0.00515574
-0.00355183
-0.0018957
-0.000213341
0.00147054
0.00312111
0.00471236
0.00619898
0.00755684
0.00874268
0.00974907
0.0105209
0.0110636
0.011363
0.0114595
0.0113919
0.0112301
0.0111001
0.0110421
0.0111698
0.0114654
0.0119905
0.0126901
0.0135316
0.0144472
0.0154212
0.0162667
0.016632
0.0162402
0.0148001
0.0122569
0.00889192
0.00607556
0.00364007
0.00133369
0.000758341
0.000274187
-0.00928066
-0.0104928
-0.0112688
-0.01168
-0.0119278
-0.0121486
-0.0123777
-0.0125916
-0.0127533
-0.0128372
-0.0128325
-0.0127365
-0.0125495
-0.0122711
-0.0118998
-0.0114284
-0.0108521
-0.010169
-0.00937934
-0.00848456
-0.00748797
-0.00639498
-0.00521368
-0.00395402
-0.00262985
-0.00125611
0.000146251
0.0015581
0.0029514
0.00430467
0.00558292
0.00676736
0.00782341
0.00873445
0.00947743
0.0100503
0.0104374
0.0106725
0.0107737
0.0108029
0.0108289
0.0108911
0.0110732
0.0113612
0.0118153
0.012376
0.0130513
0.013747
0.0144475
0.0149972
0.0151397
0.0147084
0.0134198
0.0114157
0.00866873
0.00627193
0.00411696
0.00199778
0.00112624
0.000367043
-0.00627041
-0.00730767
-0.00799145
-0.00837684
-0.0086273
-0.00885443
-0.00908811
-0.00930935
-0.00948803
-0.00960285
-0.00964429
-0.00961003
-0.00949924
-0.00931126
-0.00904452
-0.00869621
-0.00826078
-0.0077352
-0.007119
-0.00641326
-0.00562045
-0.00474469
-0.00379223
-0.00277078
-0.00169108
-0.00056463
0.000592184
0.00176444
0.00292971
0.00407147
0.00516225
0.00618818
0.00711786
0.0079444
0.00863632
0.00920934
0.00965019
0.00997281
0.0101899
0.0103445
0.0104806
0.0106277
0.0108463
0.0111247
0.0115155
0.0119622
0.0124885
0.0129987
0.0134754
0.0138009
0.0137794
0.0133272
0.0121804
0.0105629
0.0083183
0.0062572
0.00435756
0.00244713
0.00138691
0.00043925
-0.00356863
-0.00445362
-0.00505534
-0.00541573
-0.00566596
-0.00589647
-0.00613197
-0.00635743
-0.00654849
-0.00668766
-0.00676691
-0.00678394
-0.00673794
-0.00662743
-0.00645027
-0.0062048
-0.00588844
-0.00549784
-0.00503107
-0.00448826
-0.00387119
-0.00318294
-0.00242815
-0.00161271
-0.000744877
0.00016668
0.00110933
0.00207161
0.00303608
0.00399023
0.0049123
0.00579154
0.00660398
0.00734479
0.00799226
0.00854935
0.00899705
0.009363
0.00964814
0.00988059