/*--------------------------------*- C++ -*----------------------------------*\
| =========                 |                                                 |
| \\      /  F ield         | OpenFOAM: The Open Source CFD Toolbox           |
|  \\    /   O peration     | Version:  2512                                  |
|   \\  /    A nd           | Website:  www.openfoam.com                      |
|    \\/     M anipulation  |                                                 |
\*---------------------------------------------------------------------------*/
FoamFile
{
    version     2.0;
    format      ascii;
    arch        "LSB;label=32;scalar=64";
    class       surfaceScalarField;
    location    "1";
    object      phi;
}
// * * * * * * * * * * * * * * * * * * * * * * * * * * * * * * * * * * * * * //

dimensions      [0 3 -1 0 0 0 0];

oriented        oriented;

internalField   nonuniform List<scalar> 
26232
(
0.000870703
-0.000288294
-0.000582409
0.00343699
-0.00887513
0.00630884
0.00756404
-0.0228628
0.0187358
0.0128874
-0.0391529
0.0338295
0.0188894
-0.0548854
0.0488835
0.0250639
-0.0680754
0.0619009
0.0310509
-0.0778677
0.0718807
0.036681
-0.0843576
0.0787275
0.0419437
-0.0881916
0.082929
0.0469221
-0.0901852
0.0852068
0.0517313
-0.0910734
0.0862642
0.0564776
-0.0914048
0.0866585
0.0612407
-0.0915353
0.0867722
0.0660722
-0.0916694
0.0868379
0.0710011
-0.0919113
0.0869824
0.0760422
-0.0923073
0.0872661
0.0812022
-0.092873
0.0877131
0.0864838
-0.0936105
0.0883289
0.0918893
-0.0945159
0.0891104
0.0974215
-0.0955839
0.0900517
0.10309
-0.0968088
0.0911403
0.108909
-0.09819
0.092371
0.114883
-0.0997204
0.0937466
-0.10128
0.0951067
0.121056
0.00100414
-0.00129243
0.00385908
-0.0117301
0.00829908
-0.0273028
0.0138276
-0.0446813
0.0198389
-0.0608968
0.0258076
-0.0740441
0.031412
-0.0834721
0.0365478
-0.0894934
0.0412671
-0.092911
0.0456974
-0.0946155
0.0499763
-0.0953523
0.0542163
-0.0956448
0.0584938
-0.0958128
0.062854
-0.0960296
0.0673203
-0.0963775
0.0719026
-0.0968896
0.0766046
-0.0975751
0.0814269
-0.0984328
0.086369
-0.099458
0.0914303
-0.100645
0.0966108
-0.101989
0.101913
-0.103492
0.107327
-0.105134
-0.106974
0.113021
0.00113226
-0.00242469
0.00424295
-0.0148408
0.00892351
-0.0319834
0.014546
-0.0503038
0.0204366
-0.0667874
0.0260794
-0.0796868
0.0312127
-0.0886055
0.0358047
-0.0940854
0.0399646
-0.0970709
0.0438522
-0.0985031
0.0476159
-0.099116
0.0513653
-0.0993942
0.0551695
-0.0996169
0.0590656
-0.0999257
0.0630711
-0.100383
0.0671926
-0.101011
0.071432
-0.101814
0.0757889
-0.10279
0.0802631
-0.103932
0.0848541
-0.105236
0.089561
-0.106696
0.0943772
-0.108308
0.0992972
-0.110054
-0.111947
0.10427
0.00125037
-0.00367506
0.00457294
-0.0181633
0.00941094
-0.0368214
0.015019
-0.0559119
0.0206824
-0.0724508
0.0259181
-0.0849224
0.0305344
-0.0932218
0.0345683
-0.0981193
0.0381759
-0.100679
0.0415381
-0.101865
0.0448053
-0.102383
0.0480801
-0.102669
0.0514219
-0.102959
0.0548605
-0.103364
0.0584082
-0.103931
0.0620689
-0.104672
0.0658429
-0.105588
0.069729
-0.106676
0.0737263
-0.107929
0.0778342
-0.109344
0.0820535
-0.110915
0.0863848
-0.112639
0.0908397
-0.114509
-0.116569
0.0954612
0.00135554
-0.00503061
0.00484011
-0.0216479
0.00974735
-0.0417286
0.0152318
-0.0613964
0.0205646
-0.0777836
0.0253161
-0.0896739
0.0293719
-0.0972776
0.0328336
-0.101581
0.0358938
-0.103739
0.0387439
-0.104715
0.0415288
-0.105168
0.0443398
-0.10548
0.047226
-0.105845
0.05021
-0.106348
0.0533001
-0.107021
0.0564981
-0.10787
0.0598034
-0.108894
0.0632151
-0.110087
0.0667316
-0.111446
0.070352
-0.112964
0.0740744
-0.114638
0.0778961
-0.116461
0.0818184
-0.118431
-0.120583
0.0858327
0.00144435
-0.00647495
0.00503382
-0.0252374
0.00991689
-0.0466117
0.0151721
-0.0666516
0.0200846
-0.0826961
0.0242958
-0.0938851
0.0277697
-0.100752
0.030663
-0.104474
0.0331922
-0.106268
0.0355489
-0.107072
0.0378667
-0.107486
0.040224
-0.107837
0.0426597
-0.108281
0.0451904
-0.108879
0.0478212
-0.109652
0.0505529
-0.110602
0.0533846
-0.111725
0.0563152
-0.113018
0.0593439
-0.114475
0.0624706
-0.116091
0.0656955
-0.117863
0.0690209
-0.119787
0.0724551
-0.121866
-0.124123
0.0759954
0.00151373
-0.00798869
0.00514587
-0.0288695
0.0099111
-0.0513769
0.0148399
-0.0715804
0.0192578
-0.087114
0.0228877
-0.097515
0.0257686
-0.103632
0.0281009
-0.106807
0.0301139
-0.108281
0.0319913
-0.108949
0.0338522
-0.109347
0.0357613
-0.109746
0.0377487
-0.110268
0.0398257
-0.110956
0.0419955
-0.111821
0.044258
-0.112864
0.0466122
-0.11408
0.0490572
-0.115463
0.0515921
-0.11701
0.0542165
-0.118715
0.0569301
-0.120576
0.0597343
-0.122591
0.0626313
-0.124763
-0.127104
0.065612
0.00156063
-0.00954932
0.00516951
-0.0324784
0.00972587
-0.0559333
0.0142426
-0.0760971
0.0181076
-0.0909791
0.0211312
-0.100539
0.0234197
-0.105921
0.0252053
-0.108592
0.0267188
-0.109794
0.0281304
-0.110361
0.0295423
-0.110759
0.0310066
-0.111211
0.0325454
-0.111807
0.0341665
-0.112577
0.0358715
-0.113526
0.0376599
-0.114653
0.039531
-0.115951
0.0414841
-0.117416
0.0435187
-0.119044
0.045635
-0.120832
0.0478337
-0.122775
0.0501171
-0.124874
0.0524862
-0.127132
-0.129547
0.0549293
0.00158211
-0.0111314
0.00510014
-0.0359964
0.00936272
-0.0601959
0.0133952
-0.0801296
0.0166654
-0.0942492
0.0190707
-0.102944
0.0207745
-0.107625
0.0220288
-0.109846
0.0230572
-0.110823
0.0240125
-0.111316
0.0249801
-0.111726
0.0260005
-0.112231
0.0270895
-0.112896
0.0282521
-0.11374
0.0294889
-0.114763
0.0307993
-0.115963
0.0321824
-0.117334
0.0336378
-0.118871
0.0351652
-0.120572
0.036765
-0.122432
0.0384385
-0.124449
0.0401881
-0.126624
0.042014
-0.128958
-0.131443
0.0439103
0.00157479
-0.0127062
0.00493425
-0.0393559
0.00882613
-0.0640878
0.0123164
-0.0836199
0.0149642
-0.096897
0.01675
-0.10473
0.017883
-0.108758
0.0186228
-0.110586
0.0191797
-0.11138
0.0196865
-0.111823
0.0202128
-0.112253
0.0207888
-0.112807
0.0214255
-0.113533
0.0221259
-0.11444
0.0228899
-0.115527
0.0237168
-0.11679
0.024606
-0.118223
0.0255571
-0.119823
0.02657
-0.121585
0.0276452
-0.123507
0.0287842
-0.125588
0.0299889
-0.127828
0.031259
-0.130228
-0.132776
0.0325922
0.001536
-0.0142422
0.00467108
-0.0424909
0.00812424
-0.0675409
0.0110276
-0.0865233
0.0130388
-0.0989082
0.0142139
-0.105905
0.0147943
-0.109338
0.0150377
-0.11083
0.0151354
-0.111477
0.0152001
-0.111888
0.015287
-0.112339
0.0154181
-0.112938
0.0156007
-0.113715
0.0158362
-0.114675
0.016124
-0.115815
0.0164634
-0.117129
0.0168536
-0.118613
0.0172943
-0.120263
0.0177854
-0.122076
0.0183278
-0.124049
0.0189228
-0.126183
0.0195714
-0.128477
0.0202729
-0.130929
-0.133532
0.0210287
0.00146924
-0.0157115
0.00431972
-0.0453414
0.00727618
-0.0704974
0.00956148
-0.0888086
0.0109346
-0.100281
0.0115154
-0.106486
0.011564
-0.109387
0.0113274
-0.110593
0.0109756
-0.111126
0.0106027
-0.111515
0.0102511
-0.111988
0.00993677
-0.112624
0.00966399
-0.113443
0.00943304
-0.114445
0.00924298
-0.115625
0.00909267
-0.116979
0.00898117
-0.118502
0.00890785
-0.12019
0.0088725
-0.122041
0.00887567
-0.124052
0.00891884
-0.126226
0.00900301
-0.128561
0.00912765
-0.131054
0.00930118
-0.133706
-0.000647241
0.000320344
0.000326898
-0.00135643
0.000211086
0.000498099
-0.00130222
-0.000373225
0.000319022
3.04902e-05
-0.00122613
-0.000106583
0.00288278
-0.0021784
-0.000673882
0.00727575
-0.00310345
-0.00128953
0.0130652
-0.00391385
-0.00187556
0.0200086
-0.00456363
-0.00237981
0.027827
-0.00504176
-0.00277659
0.0362514
-0.00536218
-0.00306229
0.0450531
-0.00555305
-0.0032486
0.054056
-0.00564753
-0.00335539
0.0631382
-0.00567724
-0.003405
0.0722252
-0.00566856
-0.00341839
0.0812794
-0.00564129
-0.00341296
0.0902902
-0.00560889
-0.00340186
0.0992639
-0.0055795
-0.00339418
0.108217
-0.00555755
-0.00339558
0.117171
-0.00554451
-0.0034093
0.126149
-0.00554114
-0.00343722
0.135172
-0.00554478
-0.00347846
0.144271
-0.00556323
-0.00353577
0.153441
-0.00556029
-0.00360905
-0.00564246
0.162765
-0.00368193
-0.000628218
0.000948562
-0.0012975
0.000880365
-0.00119111
-0.000479606
0.000198726
-0.00261597
0.00311018
-0.00508986
0.00755738
-0.00755065
0.0133905
-0.00974702
0.0203633
-0.0115363
0.0281944
-0.012873
0.0366158
-0.0137835
0.0454007
-0.0143379
0.0543767
-0.0146235
0.0634257
-0.0147262
0.0724765
-0.0147194
0.0814946
-0.0146594
0.0904711
-0.0145854
0.0994138
-0.0145222
0.10834
-0.0144835
0.117271
-0.0144753
0.12623
-0.0145005
0.135238
-0.0145532
0.144326
-0.0146512
0.153491
-0.0147246
-0.0149716
0.16282
-0.000571328
0.00151989
-0.00112556
0.0014346
-0.000875256
-0.000729909
0.000666532
-0.00415776
0.00372306
-0.00814639
0.0082928
-0.0121204
0.0142125
-0.0156668
0.0212269
-0.0185507
0.0290518
-0.0206979
0.0374221
-0.0221538
0.0461192
-0.023035
0.0549811
-0.0234855
0.0639008
-0.0236458
0.0728164
-0.023635
0.0817006
-0.0235436
0.0905493
-0.0234341
0.0993728
-0.0233457
0.108189
-0.0233
0.11702
-0.0233064
0.125889
-0.023369
0.134815
-0.023479
0.143825
-0.0236619
0.152916
-0.0238152
-0.02422
0.162164
-0.000479723
0.00199961
-0.000849254
0.00180413
-0.000370437
-0.00120873
0.00141078
-0.00593898
0.00468957
-0.0114252
0.0094392
-0.01687
0.015476
-0.0217036
0.0225321
-0.0256067
0.0303211
-0.0284868
0.0385851
-0.0304179
0.04712
-0.0315699
0.0557815
-0.032147
0.0644794
-0.0323437
0.0731665
-0.0323221
0.081826
-0.032203
0.0904604
-0.0320685
0.0990834
-0.0319687
0.107714
-0.0319308
0.116374
-0.0319662
0.125084
-0.0320791
0.133864
-0.0322585
0.142737
-0.0325356
0.151702
-0.0327804
-0.0333516
0.160834
-0.000359328
0.00235894
-0.000483994
0.00192879
0.000295548
-0.00198827
0.00239143
-0.00803486
0.00595532
-0.0149891
0.010926
-0.0218407
0.0170933
-0.0278709
0.0241754
-0.0326889
0.0318867
-0.0361981
0.0399826
-0.0385138
0.0482802
-0.0398676
0.0566592
-0.040526
0.0650518
-0.0407363
0.0734283
-0.0406987
0.0817844
-0.0405591
0.09013
-0.040414
0.098482
-0.0403208
0.10686
-0.0403092
0.115286
-0.0403914
0.123777
-0.0405706
0.132353
-0.0408343
0.141035
-0.0412174
0.149822
-0.0415675
-0.0423126
0.158783
-0.000218277
0.00257722
-5.41056e-05
0.00176462
0.00109038
-0.00313275
0.00355751
-0.010502
0.00744993
-0.0188815
0.0126624
-0.0270532
0.0189537
-0.0341623
0.0260293
-0.0397645
0.0336096
-0.0437783
0.0414709
-0.0463751
0.0494586
-0.0478553
0.0574819
-0.0485492
0.0654982
-0.0487526
0.0734971
-0.0486976
0.0814866
-0.0485486
0.0894832
-0.0484106
0.0975066
-0.0483442
0.105577
-0.0483792
0.113713
-0.0485274
0.121932
-0.0487901
0.130252
-0.0491537
0.138691
-0.0496572
0.147249
-0.0501257
-0.0510529
0.15599
-6.2397e-05
0.00263961
0.000430093
0.00127213
0.00197484
-0.0046775
0.00485013
-0.0133773
0.00909338
-0.0231247
0.0145464
-0.0325062
0.0209348
-0.0405507
0.0279554
-0.046785
0.0353424
-0.0511654
0.0429013
-0.0539339
0.0505124
-0.0554665
0.0581179
-0.0561547
0.0657018
-0.0563365
0.0732722
-0.056268
0.0808478
-0.0561242
0.0884501
-0.056013
0.0960999
-0.055994
0.103816
-0.0560953
0.111616
-0.056327
0.119515
-0.0566895
0.127529
-0.0571678
0.135679
-0.0578072
0.143962
-0.0584083
-0.0595295
0.152438
9.88838e-05
0.00254073
0.00093451
0.000436505
0.00290664
-0.00664964
0.00620886
-0.0166795
0.0108037
-0.0277196
0.0164743
-0.0381768
0.0229142
-0.0469905
0.0298184
-0.0536893
0.0369448
-0.0582918
0.044136
-0.0611251
0.0513125
-0.0626429
0.0584509
-0.0632932
0.0655612
-0.0634467
0.0726672
-0.0633741
0.079796
-0.0632529
0.0869716
-0.0631886
0.0942142
-0.0632367
0.101541
-0.0634216
0.108965
-0.0637514
0.116501
-0.0642256
0.124162
-0.0648288
0.13197
-0.0656148
0.139926
-0.0663649
-0.0676915
0.148088
0.000261875
0.00227886
0.00144303
-0.000744651
0.00385096
-0.00905757
0.00757852
-0.0204071
0.0125042
-0.0326452
0.0183489
-0.0440215
0.0247788
-0.0534204
0.0314972
-0.0604076
0.0382952
-0.0650898
0.0450598
-0.0678897
0.0517544
-0.0693375
0.0583899
-0.0699286
0.0649985
-0.0700554
0.0716169
-0.0699925
0.0782768
-0.0699128
0.0850027
-0.0699145
0.0918126
-0.0700466
0.0987204
-0.0703294
0.105737
-0.0707679
0.112873
-0.0713618
0.120139
-0.0720944
0.127545
-0.0730214
0.135115
-0.0739343
-0.0754392
0.142862
0.000418079
0.00186078
0.00194565
-0.00227222
0.00477899
-0.0118909
0.00890998
-0.0245381
0.0141243
-0.0378595
0.0200812
-0.0499785
0.0264278
-0.0597671
0.0328871
-0.0668669
0.0392932
-0.0714959
0.0455826
-0.0741791
0.0517614
-0.0755163
0.0578712
-0.0760385
0.0639627
-0.0761469
0.0700805
-0.0761102
0.076258
-0.0760903
0.0825177
-0.0761742
0.0888743
-0.0764031
0.0953374
-0.0767925
0.101914
-0.0773446
0.108612
-0.0780598
0.11544
-0.0789223
0.122392
-0.0799728
0.129519
-0.0810615
-0.0826249
0.136704
0.000567513
0.00129326
0.00242766
-0.00413236
0.00566509
-0.0151283
0.0101592
-0.0290321
0.0155995
-0.0432998
0.0215898
-0.0559688
0.0277714
-0.0659487
0.0338998
-0.0729953
0.0398601
-0.0774562
0.0456393
-0.0799582
0.0512833
-0.0811603
0.0568589
-0.0816141
0.0624293
-0.0817173
0.068043
-0.0817239
0.0737324
-0.0817797
0.079517
-0.0819588
0.0854074
-0.0822935
0.0914086
-0.0827938
0.0975229
-0.0834589
0.10375
-0.0842874
0.110095
-0.0852669
0.11654
-0.0864174
0.123163
-0.087685
-0.0891762
0.129714
0.000710853
0.00288733
0.00649477
0.0112921
0.0168758
0.0228078
0.0287399
0.0344721
0.0399448
0.0451934
0.0502974
0.0553418
0.0603966
0.0655106
0.0707133
0.0760205
0.0814402
0.0869753
0.0926267
0.0983911
0.104264
0.110218
0.11628
0.12221
0.166427
0.00146595
-0.00512774
0.169557
0.00211796
-0.00524839
0.172259
0.00252305
-0.00522472
0.174615
0.00287954
-0.00523577
0.176667
0.00334128
-0.00539313
0.178464
0.00380543
-0.00560199
0.180044
0.00421943
-0.00579949
0.18143
0.00462342
-0.00600991
0.182645
0.00503274
-0.00624793
0.183711
0.00543871
-0.00650476
0.184647
0.00584125
-0.00677638
0.185466
0.00624664
-0.00706568
0.186182
0.0066588
-0.00737482
0.186806
0.00708046
-0.00770476
0.187348
0.00751438
-0.00805659
0.187816
0.00796334
-0.00843165
0.188218
0.00842992
-0.0088314
0.188559
0.00891656
-0.00925739
0.188844
0.00942583
-0.00971144
0.18908
0.00996046
-0.0101956
0.189268
0.0105232
-0.0107121
0.189415
0.0111171
-0.0112635
0.189522
0.0117457
-0.0118529
0.189593
0.0124127
-0.0124836
0.18963
0.0131221
-0.0131592
0.189636
0.0138781
-0.0138835
0.189611
0.0146851
-0.014661
0.189559
0.0155482
-0.0154962
0.189481
0.0164728
-0.0163943
0.189377
0.0174646
-0.0173611
0.18925
0.0185301
-0.0184028
0.1891
0.0196764
-0.0195261
0.188928
0.020911
-0.0207388
0.188734
0.0222424
-0.022049
0.188521
0.0236798
-0.023466
0.188287
0.0252336
-0.0250001
0.188034
0.0269152
-0.0266625
0.187763
0.0287373
-0.0284659
0.187473
0.0307141
-0.0304244
0.187166
0.0328617
-0.032554
0.18684
0.0351978
-0.0348722
0.186496
0.0377417
-0.0373982
0.186135
0.0405144
-0.0401529
0.185755
0.0435389
-0.0431595
0.185358
0.0468408
-0.0464434
0.184942
0.0504481
-0.0500326
0.184509
0.0543917
-0.0539579
0.184056
0.0587055
-0.0582532
0.183586
0.0634264
-0.0629555
0.183095
0.0685948
-0.0681048
0.182586
0.0742541
-0.0737446
0.182057
0.0804508
-0.0799215
0.181507
0.0872346
-0.0866849
0.180936
0.0946572
-0.0940865
0.180344
0.102772
-0.10218
0.179729
0.111635
-0.11102
0.17909
0.121273
-0.120635
0.178426
0.131941
-0.131277
0.177736
0.142404
-0.141714
0.158469
-0.157742
0.166427
-0.00214122
0.169527
-0.000982117
0.17218
-0.000130418
0.174522
0.000537579
0.17657
0.00129359
0.178381
0.00199471
0.179982
0.00261839
0.181386
0.00321965
0.182617
0.00380179
0.1837
0.00435538
0.184654
0.00488733
0.185492
0.00540822
0.186227
0.00592362
0.18687
0.00643756
0.187431
0.00695403
0.187917
0.00747725
0.188336
0.00801094
0.188694
0.00855853
0.188996
0.0091234
0.189248
0.00970891
0.189453
0.0103183
0.189615
0.0109549
0.189738
0.011623
0.189824
0.0123267
0.189876
0.0130702
0.189896
0.013858
0.189886
0.014695
0.189848
0.0155862
0.189783
0.0165374
0.189693
0.0175545
0.189579
0.0186441
0.189442
0.0198135
0.189283
0.0210703
0.189102
0.0224231
0.188901
0.0238813
0.188679
0.0254552
0.188438
0.0271562
0.188178
0.0289972
0.187899
0.0309927
0.187602
0.0331587
0.187287
0.0355132
0.186953
0.0380755
0.186601
0.0408668
0.18623
0.04391
0.18584
0.0472308
0.185431
0.0508573
0.185002
0.0548204
0.184553
0.0591541
0.184084
0.0638956
0.183594
0.069085
0.183082
0.0747661
0.182547
0.0809856
0.181989
0.087793
0.181405
0.0952405
0.180796
0.103381
0.180159
0.112273
0.179492
0.12194
0.178793
0.13264
0.178058
0.143138
0.15925
0.165607
-0.00558339
0.168606
-0.00398145
0.171275
-0.00279953
0.173564
-0.00175135
0.175564
-0.000705994
0.177358
0.000200062
0.178967
0.00100908
0.18039
0.00179749
0.181642
0.00254939
0.182747
0.00325008
0.183724
0.00391078
0.184587
0.00454485
0.18535
0.00516104
0.186021
0.00576604
0.18661
0.00636513
0.187124
0.00696321
0.187571
0.00756442
0.187956
0.00817306
0.188286
0.00879346
0.188565
0.00942984
0.188798
0.0100858
0.188988
0.0107651
0.189138
0.0114725
0.189252
0.0122127
0.189332
0.0129902
0.18938
0.0138097
0.189399
0.0146764
0.189389
0.0155957
0.189353
0.0165733
0.189293
0.0176154
0.189208
0.0187289
0.1891
0.019921
0.188971
0.0211997
0.18882
0.0225738
0.188649
0.0240524
0.188458
0.0256461
0.188248
0.0273664
0.188019
0.0292261
0.187772
0.0312399
0.187507
0.0334242
0.187223
0.0357969
0.186921
0.0383777
0.1866
0.0411877
0.18626
0.0442499
0.185901
0.04759
0.185522
0.0512362
0.185123
0.0552196
0.184702
0.0595743
0.184261
0.0643374
0.183796
0.0695495
0.183308
0.0752543
0.182795
0.0814987
0.182255
0.0883326
0.181688
0.0958081
0.18109
0.103979
0.18046
0.112902
0.179796
0.122604
0.179093
0.133343
0.178347
0.143884
0.160054
0.164042
-0.0087917
0.166872
-0.00681105
0.169397
-0.00532472
0.171629
-0.00398363
0.173642
-0.00271902
0.175457
-0.00161425
0.177046
-0.000579868
0.178469
0.000374017
0.179741
0.00127739
0.18088
0.00211154
0.181889
0.00290193
0.182781
0.00365201
0.183573
0.00436911
0.184278
0.00506177
0.184903
0.00573985
0.185455
0.0064111
0.18594
0.00707972
0.186363
0.00774973
0.186731
0.00842567
0.187048
0.00911267
0.187319
0.00981477
0.187548
0.0105363
0.187738
0.0112826
0.187892
0.0120588
0.188012
0.0128696
0.188102
0.0137201
0.188163
0.0146159
0.188196
0.0155624
0.188203
0.0165658
0.188186
0.0176324
0.188146
0.0187691
0.188084
0.0199833
0.188
0.021283
0.187897
0.0226774
0.187773
0.0241756
0.187631
0.0257885
0.18747
0.0275273
0.187291
0.029405
0.187095
0.0314364
0.186881
0.0336381
0.186649
0.0360284
0.1864
0.0386271
0.186132
0.0414553
0.185846
0.0445362
0.185541
0.0478954
0.185216
0.0515613
0.18487
0.0555651
0.184503
0.0599411
0.184114
0.0647266
0.183701
0.0699623
0.183263
0.0756921
0.182799
0.0819632
0.182306
0.0888255
0.181782
0.0963317
0.181226
0.104536
0.180633
0.113495
0.180002
0.123236
0.179326
0.134019
0.178603
0.144608
0.160845
0.161698
-0.0117067
0.164305
-0.00941822
0.166674
-0.00769358
0.16882
-0.0061297
0.17078
-0.00467927
0.17258
-0.00341405
0.174226
-0.00222579
0.175674
-0.00107358
0.17694
1.13047e-05
0.178103
0.000947933
0.179149
0.00185606
0.180086
0.0027149
0.180921
0.0035341
0.181665
0.00431764
0.182331
0.00507457
0.182926
0.0058153
0.183458
0.00654792
0.18393
0.00727792
0.184347
0.00800923
0.184712
0.00874691
0.185032
0.00949475
0.185311
0.0102577
0.185551
0.0110421
0.185757
0.0118533
0.18593
0.0126964
0.186073
0.013577
0.186188
0.0145006
0.186277
0.0154733
0.186342
0.0165012
0.186383
0.017591
0.186403
0.0187497
0.186401
0.0199848
0.18638
0.0213047
0.186339
0.0227181
0.18628
0.0242345
0.186204
0.025865
0.18611
0.027621
0.185999
0.0295155
0.185873
0.0315632
0.18573
0.0337811
0.18557
0.0361876
0.185394
0.038803
0.185201
0.0416484
0.18499
0.044747
0.184761
0.0481245
0.184513
0.0518094
0.184245
0.0558333
0.183956
0.0602303
0.183644
0.0650382
0.183309
0.0702978
0.182948
0.0760533
0.182559
0.082352
0.18214
0.0892443
0.181689
0.0967829
0.181202
0.105022
0.180677
0.11402
0.180109
0.123804
0.179493
0.134634
0.178824
0.145277
0.161589
0.158588
-0.0143046
0.160929
-0.0117597
0.163097
-0.00986159
0.165128
-0.00816025
0.167042
-0.00659355
0.168821
-0.00519355
0.170441
-0.00384563
0.171922
-0.00255387
0.173288
-0.00135505
0.174457
-0.000221402
0.175542
0.000771804
0.176518
0.0017382
0.177402
0.00265021
0.178201
0.00351915
0.178917
0.00435774
0.179563
0.00517001
0.180146
0.00596451
0.180674
0.00675008
0.181149
0.00753373
0.181575
0.00832133
0.181955
0.00911481
0.182294
0.00991894
0.182595
0.0107405
0.182863
0.0115854
0.1831
0.0124594
0.183309
0.0133686
0.183491
0.0143187
0.183648
0.0153159
0.183783
0.0163667
0.183896
0.0174779
0.183989
0.0186567
0.184063
0.0199109
0.184118
0.021249
0.184157
0.0226798
0.184178
0.0242131
0.184184
0.0258593
0.184174
0.0276304
0.18415
0.0295395
0.184112
0.0316018
0.184059
0.0338342
0.183991
0.0362552
0.183909
0.0388855
0.183811
0.0417463
0.183697
0.044861
0.183566
0.0482553
0.183417
0.051958
0.18325
0.0560007
0.183062
0.060418
0.182853
0.0652476
0.18262
0.0705307
0.182362
0.0763117
0.182075
0.0826384
0.181758
0.0895613
0.181407
0.0971336
0.18102
0.10541
0.180591
0.114449
0.180117
0.124278
0.179593
0.135159
0.179011
0.145859
0.162253
0.154715
-0.0165812
0.156771
-0.0138153
0.158709
-0.0118004
0.160602
-0.0100524
0.162448
-0.00844002
0.164193
-0.00693808
0.165803
-0.00545648
0.167293
-0.00404328
0.168674
-0.00273673
0.169961
-0.00150761
0.171067
-0.000334183
0.172099
0.00070568
0.17304
0.00170929
0.173899
0.00266068
0.17468
0.00357617
0.17539
0.00446048
0.176032
0.00532225
0.176619
0.00616307
0.177159
0.00699404
0.177653
0.00782666
0.178104
0.00866368
0.178515
0.00950856
0.178889
0.0103667
0.17923
0.0112442
0.179541
0.0121478
0.179826
0.0130839
0.180086
0.0140586
0.180324
0.0150784
0.180541
0.01615
0.180738
0.0172804
0.180918
0.0184771
0.181081
0.019748
0.181228
0.0211018
0.18136
0.0225475
0.181478
0.0240952
0.181582
0.0257552
0.181673
0.0275393
0.181753
0.0294601
0.18182
0.0315342
0.181876
0.0337787
0.181919
0.0362119
0.18195
0.0388549
0.181967
0.0417289
0.181971
0.0448574
0.181959
0.0482665
0.181932
0.051985
0.181888
0.0560447
0.181826
0.0604805
0.181743
0.0653304
0.181638
0.070636
0.181508
0.0764418
0.18135
0.082796
0.181162
0.0897495
0.180939
0.0973559
0.180679
0.10567
0.180377
0.114751
0.180028
0.124627
0.179626
0.135561
0.179165
0.14632
0.1628
0.150057
-0.0185497
0.151847
-0.0156054
0.153548
-0.0135013
0.155272
-0.0117763
0.157019
-0.0101872
0.158707
-0.00862606
0.160303
-0.00705247
0.161813
-0.00555394
0.163228
-0.00415168
0.164541
-0.00282058
0.165768
-0.00156086
0.166841
-0.000367682
0.167851
0.000699929
0.168778
0.0017331
0.169635
0.00271935
0.170423
0.0036728
0.171142
0.00460295
0.1718
0.00550543
0.172406
0.00638793
0.172972
0.00726065
0.1735
0.0081352
0.173992
0.00901718
0.174449
0.00990971
0.174875
0.0108183
0.175272
0.0117501
0.175645
0.0127115
0.175994
0.013709
0.176323
0.0147492
0.176634
0.0158393
0.176928
0.0169864
0.177207
0.0181983
0.177471
0.0194832
0.177723
0.0208497
0.177964
0.0223074
0.178193
0.0238662
0.178411
0.0255369
0.178619
0.0273311
0.178818
0.0292615
0.179008
0.0313435
0.179191
0.0335965
0.179363
0.0360392
0.179526
0.0386922
0.179678
0.0415766
0.17982
0.0447162
0.179949
0.0481373
0.180065
0.0518689
0.180167
0.0559431
0.180252
0.0603951
0.180319
0.0652632
0.180366
0.0705893
0.180389
0.0764184
0.180386
0.0827989
0.180354
0.0897822
0.180287
0.0974222
0.180183
0.105774
0.180036
0.114898
0.179842
0.124821
0.179594
0.135809
0.179286
0.146628
0.163199
0.14452
-0.0202071
0.146122
-0.0172071
0.147644
-0.0150237
0.149186
-0.0133185
0.150798
-0.0117992
0.152405
-0.0102329
0.153978
-0.00862498
0.155505
-0.00708096
0.156957
-0.00560438
0.158318
-0.00418084
0.159587
-0.0028306
0.160782
-0.00156284
0.16184
-0.000357447
0.162848
0.00072506
0.163788
0.00177898
0.164663
0.00279828
0.165479
0.00378671
0.166235
0.00474918
0.166929
0.00569365
0.167575
0.00661511
0.168183
0.00752678
0.168759
0.00844181
0.169305
0.00936371
0.169824
0.0102996
0.170317
0.0112567
0.170788
0.0122409
0.171238
0.0132588
0.17167
0.0143172
0.172086
0.0154232
0.172488
0.0165844
0.172878
0.0178087
0.173256
0.0191044
0.173626
0.0204806
0.173986
0.0219467
0.174339
0.023513
0.174686
0.0251906
0.175026
0.0269911
0.17536
0.0289274
0.175689
0.0310147
0.176014
0.0332714
0.176334
0.0357188
0.176648
0.0383784
0.176954
0.0412701
0.177253
0.0444176
0.177543
0.0478474
0.177823
0.0515888
0.178092
0.0556744
0.178347
0.0601394
0.178587
0.0650229
0.17881
0.0703669
0.179011
0.076217
0.179188
0.0826218
0.179337
0.0896333
0.179454
0.0973057
0.179533
0.105695
0.179571
0.114861
0.179561
0.124831
0.179496
0.135874
0.179373
0.146751
0.163413
0.137966
-0.0214684
0.13945
-0.0186913
0.14091
-0.0164843
0.142328
-0.0147358
0.143815
-0.0132869
0.14535
-0.011767
0.146898
-0.0101733
0.148431
-0.0086138
0.149914
-0.00708793
0.151326
-0.00559272
0.152659
-0.00416328
0.153913
-0.00281696
0.155104
-0.00154838
0.156165
-0.000335682
0.157192
0.000751263
0.158162
0.00182885
0.159077
0.00287111
0.159937
0.00388962
0.16074
0.00489097
0.161484
0.00587118
0.162186
0.00682422
0.162855
0.00777266
0.163497
0.00872187
0.164115
0.00968196
0.164711
0.0106608
0.165287
0.0116646
0.165846
0.0126998
0.16639
0.0137733
0.166921
0.0148923
0.167441
0.0160645
0.167952
0.0172979
0.168455
0.018601
0.168953
0.019983
0.169446
0.0214537
0.169935
0.0230235
0.170422
0.0247035
0.170908
0.0265055
0.171393
0.0284426
0.171877
0.0305304
0.172361
0.0327876
0.172845
0.0352347
0.173327
0.0378962
0.173806
0.0407911
0.174281
0.0439426
0.174751
0.0473772
0.175216
0.0511246
0.175672
0.0552176
0.17612
0.059692
0.176556
0.0645872
0.176977
0.0699458
0.17738
0.0758136
0.177762
0.08224
0.178118
0.0892772
0.178444
0.09698
0.178734
0.105404
0.178983
0.114611
0.179186
0.124627
0.179335
0.135725
0.179429
0.146658
0.163411
0.130368
-0.0221223
0.131652
-0.0199751
0.133062
-0.0178936
0.13442
-0.0160942
0.135833
-0.0146995
0.137362
-0.0132966
0.138944
-0.0117547
0.140521
-0.0101909
0.142058
-0.008625
0.143533
-0.00706837
0.144936
-0.00556609
0.146263
-0.00414371
0.147522
-0.00280715
0.148734
-0.00154853
0.149862
-0.000376542
0.150919
0.000772305
0.151923
0.0018672
0.152875
0.0029372
0.153784
0.0039821
0.15465
0.00500471
0.15547
0.00600433
0.156255
0.0069882
0.15701
0.00796694
0.15774
0.00895165
0.15845
0.00995071
0.159143
0.0109714
0.159822
0.0120209
0.160489
0.0131062
0.161147
0.0142347
0.161797
0.0154141
0.162442
0.0166527
0.163084
0.0179592
0.163724
0.0193429
0.164364
0.0208137
0.165005
0.0223823
0.165649
0.02406
0.166296
0.0258582
0.166949
0.0277902
0.167606
0.0298728
0.168267
0.0321266
0.16893
0.0345717
0.169595
0.0372312
0.170261
0.0401247
0.170929
0.0432753
0.171596
0.0467098
0.172262
0.0504583
0.172926
0.0545539
0.173585
0.0590331
0.174237
0.0639355
0.174878
0.0693044
0.175506
0.0751861
0.176115
0.0816304
0.176702
0.0886901
0.177262
0.0964203
0.177789
0.104877
0.178277
0.114123
0.178722
0.124183
0.179112
0.135334
0.179453
0.146317
0.163159
0.122485
-0.022397
0.12357
-0.0210601
0.124782
-0.019106
0.125931
-0.0172434
0.127145
-0.015913
0.128541
-0.0146927
0.130092
-0.0133054
0.131706
-0.0118052
0.133322
-0.0102411
0.134904
-0.0086502
0.136426
-0.00708755
0.137874
-0.00559172
0.139249
-0.00418241
0.140553
-0.00285286
0.141778
-0.00160136
0.142932
-0.000382182
0.144053
0.000747043
0.14512
0.00186941
0.146146
0.00295649
0.147134
0.00401673
0.148083
0.00505502
0.148997
0.00607503
0.149879
0.00708455
0.150737
0.00809368
0.151576
0.00911188
0.152399
0.0101477
0.153212
0.0112088
0.154015
0.0123029
0.154812
0.0134375
0.155605
0.0146207
0.156397
0.0158608
0.15719
0.0171667
0.157985
0.0185479
0.158784
0.0200145
0.159589
0.0215772
0.160402
0.0232475
0.161223
0.0250366
0.162054
0.0269595
0.162892
0.0290352
0.163736
0.0312827
0.164586
0.033721
0.165445
0.0363724
0.166312
0.0392578
0.167186
0.0424009
0.168067
0.0458289
0.168953
0.0495723
0.169843
0.0536645
0.170733
0.0581426
0.171622
0.0630467
0.172506
0.0684205
0.173381
0.0743109
0.174243
0.0807684
0.175087
0.0878462
0.175907
0.0956
0.176698
0.104087
0.177453
0.113368
0.178167
0.123469
0.178828
0.134673
0.179446
0.145699
0.162625
0.162079
-0.0203903
-0.164086
0.160524
-0.019505
0.15941
-0.0179914
0.15844
-0.0162741
0.157512
-0.0149852
0.156722
-0.013902
0.156123
-0.0127065
0.1557
-0.0113821
0.155437
-0.00997809
0.155317
-0.00853105
0.155315
-0.00708535
0.155397
-0.0056739
0.155538
-0.00432338
0.155724
-0.00303805
0.155934
-0.00181228
0.156186
-0.00063383
0.156424
0.000509295
0.156672
0.00162082
0.156927
0.00270233
0.157182
0.00376158
0.157433
0.00480352
0.157679
0.00582966
0.157915
0.00684809
0.158141
0.00786734
0.158358
0.00889569
0.158564
0.00994127
0.158761
0.0110118
0.158949
0.0121148
0.159129
0.0132578
0.159301
0.0144488
0.159465
0.0156962
0.159623
0.0170089
0.159775
0.0183962
0.159921
0.0198683
0.160062
0.021436
0.160199
0.0231105
0.160332
0.0249041
0.160459
0.0268318
0.160583
0.0289114
0.160704
0.0311615
0.160824
0.0336016
0.160943
0.0362535
0.161061
0.039139
0.16118
0.042282
0.1613
0.0457097
0.161419
0.0494526
0.161539
0.0535444
0.16166
0.058022
0.161781
0.0629258
0.161902
0.0682996
0.162022
0.0741906
0.162141
0.0806494
0.162258
0.0877295
0.162371
0.0954871
0.162478
0.103979
0.162578
0.113268
0.162666
0.123381
0.162742
0.134597
0.162807
0.145635
0.162592
0.173132
-0.0183323
-0.17519
0.171303
-0.0176761
0.169847
-0.016535
0.168736
-0.0151637
0.167787
-0.0140352
0.166958
-0.013073
0.166271
-0.0120194
0.165729
-0.0108407
0.16534
-0.00958896
0.1651
-0.00829143
0.164988
-0.00697287
0.164978
-0.00566394
0.165048
-0.00439352
0.165175
-0.00316491
0.16534
-0.00197721
0.165529
-0.000823277
0.165738
0.000300348
0.165961
0.00139778
0.166193
0.00247073
0.16643
0.00352483
0.166668
0.00456535
0.166903
0.00559432
0.167133
0.00661806
0.167356
0.00764422
0.167572
0.0086803
0.167779
0.00973383
0.167979
0.0108122
0.168171
0.0119229
0.168355
0.0130733
0.168533
0.0142714
0.168703
0.0155254
0.168868
0.0168442
0.169027
0.0182371
0.169181
0.0197143
0.169331
0.0212864
0.169476
0.0229651
0.169617
0.024763
0.169754
0.0266948
0.169888
0.0287774
0.17002
0.0310297
0.170151
0.0334712
0.170281
0.0361235
0.170411
0.0390088
0.170541
0.0421513
0.170673
0.0455783
0.170805
0.0493205
0.170938
0.0534114
0.171072
0.0578882
0.171206
0.0627913
0.171341
0.0681648
0.171475
0.0740562
0.171609
0.0805163
0.171739
0.0875989
0.171866
0.0953605
0.171986
0.103859
0.172098
0.113156
0.172198
0.123281
0.172283
0.134512
0.172357
0.145561
0.162554
0.184521
-0.0160956
-0.186758
0.182523
-0.0156779
0.18089
-0.0149015
0.17963
-0.0139041
0.178587
-0.0129924
0.177685
-0.0121707
0.176927
-0.011262
0.176314
-0.0102274
0.175842
-0.00911655
0.175507
-0.00795725
0.1753