/*--------------------------------*- C++ -*----------------------------------*\
| =========                 |                                                 |
| \\      /  F ield         | OpenFOAM: The Open Source CFD Toolbox           |
|  \\    /   O peration     | Version:  2512                                  |
|   \\  /    A nd           | Website:  www.openfoam.com                      |
|    \\/     M anipulation  |                                                 |
\*---------------------------------------------------------------------------*/
FoamFile
{
    version     2.0;
    format      ascii;
    arch        "LSB;label=32;scalar=64";
    class       surfaceScalarField;
    location    "117.5";
    object      phi;
}
// * * * * * * * * * * * * * * * * * * * * * * * * * * * * * * * * * * * * * //

dimensions      [0 3 -1 0 0 0 0];

oriented        oriented;

internalField   nonuniform List<scalar> 
26232
(
0.000161261
0.00096131
-0.00112257
0.000841377
0.00160152
-0.00228164
0.00220302
0.00106939
-0.00243103
0.00439413
-0.000609
-0.00158211
0.00756113
-0.0034179
0.000250898
0.0118455
-0.00734108
0.00305668
0.0173684
-0.0123481
0.00682528
0.0242065
-0.0183773
0.0115393
0.0323645
-0.0253197
0.0171617
0.0417518
-0.0330096
0.0236223
0.0521714
-0.0412261
0.0308065
0.0633257
-0.0497059
0.0385517
0.074841
-0.0581666
0.0466512
0.0863066
-0.0663338
0.0548682
0.0973216
-0.0739694
0.0629544
0.107542
-0.0808946
0.0706739
0.116721
-0.0870034
0.0778251
0.124728
-0.0922675
0.0842604
0.131559
-0.0967264
0.0898953
0.137312
-0.100477
0.0947241
0.142155
-0.10362
0.0987763
0.146252
-0.106336
0.102239
0.149554
-0.108442
0.10514
-0.110696
0.108173
0.152077
0.000190842
0.000770468
0.00100778
0.000784588
0.00265922
-0.000582055
0.00533148
-0.00328126
0.00919411
-0.00728054
0.0143849
-0.0125318
0.020982
-0.0189453
0.028973
-0.0263683
0.0382293
-0.034576
0.0484991
-0.0432795
0.0594231
-0.05215
0.0705716
-0.0608545
0.0814981
-0.069093
0.0917958
-0.0766315
0.101149
-0.0833223
0.109365
-0.0891108
0.11639
-0.0940282
0.122294
-0.0981718
0.127246
-0.101678
0.131464
-0.104696
0.135204
-0.107359
0.138663
-0.109796
0.142227
-0.112006
-0.114438
0.14597
0.000254749
0.000515719
0.00128773
-0.000248395
0.00333939
-0.00263371
0.00661759
-0.00655946
0.0112875
-0.0119505
0.0174409
-0.0186852
0.0250586
-0.026563
0.0339833
-0.035293
0.043915
-0.0445077
0.0544375
-0.053802
0.0650721
-0.0627847
0.0753458
-0.0711282
0.0848576
-0.0786048
0.0933296
-0.0851035
0.100632
-0.0906247
0.10678
-0.0952589
0.111907
-0.0991548
0.116218
-0.102484
0.11995
-0.10541
0.123327
-0.108072
0.126538
-0.110571
0.12973
-0.112988
0.13303
-0.115305
-0.117806
0.136398
0.000350939
0.00016478
0.00167277
-0.00157023
0.00421779
-0.00517873
0.00818724
-0.0105289
0.0137002
-0.0174635
0.0207491
-0.025734
0.0291645
-0.0349785
0.0386119
-0.0447404
0.0486278
-0.0545235
0.0586902
-0.0638645
0.0683037
-0.0723982
0.0770745
-0.079899
0.08476
-0.0862903
0.0912823
-0.0916258
0.0967091
-0.0960514
0.10121
-0.0997603
0.105007
-0.102952
0.108325
-0.105801
0.111361
-0.108446
0.114271
-0.110982
0.117173
-0.113473
0.120147
-0.115962
0.123282
-0.11844
-0.121103
0.126578
0.000473131
-0.000308351
0.00213902
-0.00323612
0.00523545
-0.00827516
0.00991886
-0.0152123
0.0162119
-0.0237565
0.0239561
-0.0334782
0.0328008
-0.0438232
0.0422456
-0.0541852
0.0517275
-0.0640054
0.0607237
-0.0728607
0.0688384
-0.0805129
0.0758509
-0.0869115
0.0817184
-0.0921578
0.0865422
-0.0964496
0.0905131
-0.100022
0.0938548
-0.103102
0.0967796
-0.105877
0.0994636
-0.108485
0.102039
-0.111021
0.104599
-0.113542
0.107208
-0.116082
0.109908
-0.118662
0.112744
-0.121275
-0.124033
0.115673
0.000614056
-0.000922407
0.00265623
-0.00527829
0.00631733
-0.0119363
0.0116638
-0.0205588
0.018572
-0.0306647
0.0266991
-0.0416053
0.0355218
-0.0526459
0.044436
-0.0630994
0.0528813
-0.0724507
0.0604427
-0.0804221
0.066902
-0.0869722
0.0722329
-0.0922424
0.0765553
-0.0964801
0.0800708
-0.0999651
0.0830029
-0.102954
0.0855543
-0.105653
0.0878863
-0.108209
0.0901156
-0.110714
0.0923217
-0.113227
0.0945577
-0.115778
0.0968593
-0.118384
0.0992504
-0.121053
0.101758
-0.123783
-0.126634
0.104359
0.000766454
-0.00168886
0.00319168
-0.00770352
0.00738157
-0.0161262
0.0132661
-0.0264433
0.0205386
-0.0379372
0.0286727
-0.0497395
0.0370263
-0.0609994
0.0449874
-0.0710605
0.0520992
-0.0795624
0.0581216
-0.0864445
0.0630246
-0.0918752
0.066933
-0.0961507
0.0700534
-0.0996005
0.0726095
-0.102521
0.0747994
-0.105144
0.0767763
-0.10763
0.0786477
-0.11008
0.0804848
-0.112551
0.082333
-0.115075
0.0842222
-0.117667
0.0861724
-0.120334
0.0881973
-0.123078
0.090312
-0.125898
-0.128816
0.0924947
0.000922618
-0.00261148
0.00371057
-0.0104915
0.00834424
-0.0207598
0.0145783
-0.0326774
0.0219127
-0.0452715
0.0296781
-0.0575049
0.0371995
-0.0685208
0.0439517
-0.0778127
0.0496439
-0.0852546
0.0542188
-0.0910195
0.0577922
-0.0954486
0.060571
-0.0989295
0.0627813
-0.101811
0.0646217
-0.104362
0.0662436
-0.106766
0.0677512
-0.109138
0.0692113
-0.11154
0.0706655
-0.114006
0.0721398
-0.11655
0.0736523
-0.11918
0.0752154
-0.121897
0.0768393
-0.124702
0.0785336
-0.127592
-0.130569
0.0802864
0.00107374
-0.00368522
0.00417626
-0.013594
0.00912487
-0.0257084
0.0154779
-0.0390305
0.0225647
-0.0523583
0.029645
-0.0645852
0.0360999
-0.0749757
0.0415542
-0.083267
0.0458945
-0.089595
0.0492102
-0.0943351
0.0517017
-0.0979402
0.0535988
-0.100827
0.0551058
-0.103318
0.0563783
-0.105634
0.0575218
-0.10791
0.0586026
-0.110219
0.0596604
-0.112598
0.0607196
-0.115065
0.061796
-0.117626
0.0629011
-0.120285
0.0640436
-0.12304
0.0652306
-0.125889
0.0664676
-0.128829
-0.13185
0.0677489
0.00120972
-0.00489494
0.00455231
-0.0169366
0.0096546
-0.0308107
0.0158823
-0.0452581
0.0224471
-0.0589232
0.0286199
-0.0707579
0.0339045
-0.0802604
0.038096
-0.0874584
0.0412318
-0.0927309
0.0434948
-0.0965981
0.0451167
-0.099562
0.0463115
-0.102021
0.0472446
-0.104251
0.0480281
-0.106418
0.0487313
-0.108613
0.0493945
-0.110882
0.0500415
-0.113245
0.0506871
-0.11571
0.0513418
-0.118281
0.0520136
-0.120957
0.052709
-0.123735
0.0534333
-0.126613
0.0541904
-0.129586
-0.132641
0.0549806
0.00132055
-0.00621549
0.0048076
-0.0204236
0.00988574
-0.0358889
0.0157579
-0.0511303
0.0215887
-0.064754
0.0267307
-0.0758999
0.0308436
-0.0843734
0.0338782
-0.090493
0.0359789
-0.0948315
0.0373725
-0.0979917
0.0382846
-0.100474
0.0388953
-0.102632
0.0393285
-0.104684
0.0396607
-0.10675
0.0399355
-0.108888
0.0401773
-0.111124
0.0404007
-0.113468
0.0406154
-0.115925
0.0408289
-0.118495
0.0410473
-0.121175
0.0412753
-0.123963
0.0415165
-0.126854
0.0417723
-0.129842
-0.132914
0.0420454
0.00140052
-0.00761601
0.00492353
-0.0239466
0.00979897
-0.0407643
0.01512
-0.0564513
0.0200765
-0.0697105
0.0241498
-0.0799732
0.0271563
-0.0873799
0.0291686
-0.0925052
0.0303922
-0.0960552
0.0310609
-0.0986605
0.0313736
-0.100787
0.0314715
-0.10273
0.0314431
-0.104656
0.0313384
-0.106645
0.0311844
-0.108734
0.0309961
-0.110935
0.0307827
-0.113255
0.0305512
-0.115693
0.0303073
-0.118251
0.0300561
-0.120924
0.0298018
-0.123709
0.0295471
-0.126599
0.0292924
-0.129587
0.0290422
-0.132664
-0.000282096
0.00217254
-0.00189045
-0.000987279
0.00480054
-0.00409535
-0.0020293
0.00625471
-0.00521269
-0.00334257
0.00685326
-0.00553999
-0.00487649
0.00685456
-0.00532064
-0.00659277
0.00645479
-0.00473851
-0.0084624
0.00578419
-0.00391455
-0.0104625
0.00491159
-0.00291145
-0.0125741
0.00385618
-0.00174466
-0.0147812
0.00260292
-0.000395811
-0.0170603
0.00111718
0.00116199
-0.0193961
-0.000641047
0.0029768
-0.0217653
-0.00271586
0.00508507
-0.0241408
-0.00514425
0.00751977
-0.0264901
-0.00795526
0.0103046
-0.028775
-0.0111661
0.013451
-0.0309511
-0.014779
0.0169551
-0.0329687
-0.0187771
0.0207947
-0.0347738
-0.0231204
0.0249255
-0.0363107
-0.0277422
0.0292792
-0.0375255
-0.0325481
0.0337629
-0.038369
-0.0374176
0.0382611
-0.0388095
-0.0422
0.0426405
-0.0467007
-0.0388711
0.0467622
-0.000221695
0.00239424
-0.000805721
0.00538456
-0.00169817
0.00714716
-0.00284951
0.0080046
-0.00421439
0.00821944
-0.0057535
0.0079939
-0.00743422
0.0074649
-0.00923009
0.00670747
-0.0111199
0.00574597
-0.013086
0.00456901
-0.0151125
0.00314372
-0.017179
0.00142546
-0.0192738
-0.000621118
-0.0213771
-0.00304092
-0.0234655
-0.00586689
-0.0255131
-0.00911851
-0.0274915
-0.0128006
-0.02937
-0.0168986
-0.0311167
-0.0213737
-0.0327005
-0.0261584
-0.0340955
-0.0311531
-0.0352845
-0.0362286
-0.0362515
-0.041233
-0.0459269
-0.0370252
-0.000138372
0.00253261
-0.000545855
0.00579205
-0.00120692
0.00780823
-0.00209135
0.00888903
-0.00316057
0.00928866
-0.00437412
0.00920744
-0.00569395
0.00878474
-0.00708677
0.00810028
-0.00852456
0.00718376
-0.00998397
0.00602842
-0.011445
0.00460477
-0.012891
0.00287148
-0.0142935
0.000781369
-0.0156461
-0.0016883
-0.0169236
-0.00458944
-0.0181057
-0.0079364
-0.0191728
-0.0117335
-0.020107
-0.0159645
-0.0208933
-0.0205874
-0.0215212
-0.0255305
-0.0219889
-0.0306854
-0.0223176
-0.0358999
-0.0225473
-0.0410033
-0.0460512
-0.022423
-4.18019e-05
0.00257441
-0.000234826
0.00598507
-0.000603024
0.00817643
-0.00113707
0.00942308
-0.00180689
0.00995848
-0.00257163
0.00997218
-0.00338752
0.00960062
-0.00421262
0.00892539
-0.00500923
0.00798037
-0.0057442
0.00676339
-0.00638809
0.00524865
-0.00691422
0.00339761
-0.00729794
0.00116509
-0.00750893
-0.00147731
-0.00752486
-0.00457351
-0.00732206
-0.00813921
-0.0068799
-0.0121757
-0.00618364
-0.0166607
-0.00522647
-0.0215446
-0.00401048
-0.0267465
-0.00254345
-0.0321524
-0.000827608
-0.0376157
0.00111046
-0.0429414
-0.0476535
0.00271278
5.5467e-05
0.00251895
9.01224e-05
0.00595041
4.5469e-05
0.00822108
-8.88937e-05
0.00955744
-0.000291761
0.0101613
-0.000523646
0.0102041
-0.000736166
0.00981314
-0.000878947
0.00906817
-0.000903612
0.00800503
-0.000765305
0.00662508
-0.000422586
0.00490593
0.00016342
0.0028116
0.00102853
0.000299988
0.0022144
-0.00266318
0.0037534
-0.00611251
0.0056771
-0.0100629
0.00801049
-0.0145091
0.0107695
-0.0194197
0.0139563
-0.0247315
0.0175566
-0.0303467
0.0215375
-0.0361334
0.0258493
-0.0419276
0.0303869
-0.0474789
-0.0526499
0.0353833
0.00014038
0.00237857
0.000387833
0.00570296
0.000661577
0.00794734
0.000936408
0.00928261
0.00122461
0.00987315
0.00156332
0.00986535
0.00200381
0.00937264
0.00260356
0.00846842
0.00342113
0.00718747
0.00451367
0.00553254
0.00593613
0.00348347
0.00774152
0.00100622
0.00997954
-0.00193804
0.0127013
-0.00538493
0.01595
-0.00936121
0.0197626
-0.0138756
0.0241653
-0.0189117
0.0291675
-0.0244219
0.0347584
-0.0303223
0.0409034
-0.0364916
0.0475417
-0.0427717
0.0546025
-0.0489884
0.0619932
-0.0548696
-0.0604735
0.0698168
0.000202466
0.0021761
0.000624229
0.0052812
0.00117768
0.00739389
0.00183097
0.00862932
0.00259124
0.00911287
0.00349354
0.00896306
0.00459105
0.00827513
0.00594732
0.00711215
0.00763062
0.00550417
0.00971037
0.00345279
0.0122559
0.000937966
0.0153359
-0.00207377
0.0190135
-0.00561566
0.0233473
-0.00971874
0.0283849
-0.0143988
0.0341578
-0.0196485
0.040675
-0.0254288
0.0479168
-0.0316638
0.0558316
-0.0382372
0.0643347
-0.0449947
0.0733149
-0.0517519
0.0826372
-0.0583107
0.092175
-0.0644074
-0.0702385
0.10194
0.000235547
0.00194055
0.000776803
0.00473994
0.00154738
0.00662331
0.00251936
0.00765734
0.00370074
0.00793148
0.00512761
0.0075362
0.00685671
0.00654603
0.00895874
0.00501012
0.0115131
0.00294979
0.0145999
0.000366024
0.0183097
-0.00277184
0.0227182
-0.00648233
0.0278987
-0.0107961
0.0339078
-0.0157278
0.0407786
-0.0212696
0.0485118
-0.0273817
0.0570683
-0.0339853
0.0663643
-0.0409598
0.0762732
-0.048146
0.0866286
-0.0553501
0.0972509
-0.0623742
0.107929
-0.0689892
0.118529
-0.0750071
-0.0805721
0.128863
0.000239423
0.00170113
0.000842171
0.00413719
0.00176021
0.00570527
0.00298126
0.00643629
0.00452268
0.00639007
0.00642802
0.00563086
0.00876252
0.00421153
0.0116078
0.00216483
0.0150556
-0.000498016
0.0192073
-0.00378564
0.0241511
-0.00771567
0.0299734
-0.0123047
0.0367352
-0.0175579
0.0444641
-0.0234567
0.0531426
-0.0299482
0.0626997
-0.0369388
0.0730073
-0.0442928
0.0838832
-0.0518358
0.0951037
-0.0593665
0.106419
-0.0666654
0.117586
-0.0735414
0.128363
-0.079766
0.138657
-0.0853007
-0.0900462
0.148131
0.000220443
0.00148069
0.000838544
0.00351909
0.00184866
0.00469516
0.00326555
0.0050194
0.00512619
0.00452943
0.00749062
0.00326643
0.01044
0.00126211
0.0140718
-0.00146691
0.018492
-0.00491827
0.0238039
-0.00909748
0.0300952
-0.014007
0.0374244
-0.0196338
0.0458034
-0.0259369
0.0551843
-0.0328377
0.0654514
-0.0402153
0.07642
-0.0479074
0.0878456
-0.0557184
0.0994428
-0.0634331
0.110911
-0.070835
0.121971
-0.0777246
0.132378
-0.083949
0.141968
-0.0893557
0.150686
-0.0940189
-0.0976582
0.158298
0.000190917
0.00128977
0.00080427
0.00290574
0.00188613
0.0036133
0.00348811
0.00341741
0.00567702
0.00234052
0.00853794
0.000405511
0.0121742
-0.00237414
0.0166968
-0.00598947
0.0222133
-0.0104348
0.0288099
-0.0156941
0.0365316
-0.0217288
0.0453632
-0.0284654
0.0552145
-0.0357882
0.0659144
-0.0435376
0.0772155
-0.0515163
0.0888106
-0.0595025
0.10036
-0.067268
0.111527
-0.0746002
0.122013
-0.0813204
0.131598
-0.0873103
0.140151
-0.0925013
0.147706
-0.0969107
0.154278
-0.100592
-0.103337
0.159957
0.0001672
0.000791302
0.00197357
0.00380887
0.00640029
0.00986247
0.0143136
0.0198634
0.0265903
0.0345186
0.0435963
0.0536826
0.0645456
0.0758762
0.0873143
0.0984857
0.109043
0.118703
0.127278
0.134692
0.140967
0.146295
0.150844
0.15568
-0.0367812
-0.07088
0.0687902
-0.0335102
-0.0771541
0.073883
-0.0288406
-0.081451
0.0767814
-0.0225988
-0.083065
0.0768232
-0.0147139
-0.081162
0.0732771
-0.00527216
-0.0749891
0.0655474
0.00567408
-0.0641025
0.0531563
0.0176339
-0.0481331
0.0361733
0.0299442
-0.0268855
0.0145752
0.0423778
-0.00166222
-0.0107713
0.0546834
0.0269769
-0.0392826
0.066792
0.0570333
-0.0691418
0.0783075
0.086215
-0.0977305
0.0885549
0.111734
-0.121982
0.0968101
0.131343
-0.139598
0.102521
0.14424
-0.149951
0.105147
0.151677
-0.154302
0.104194
0.156926
-0.155974
0.100165
0.162994
-0.158965
0.0954384
0.16836
-0.163633
0.0935361
0.165012
-0.163109
0.0968184
0.142764
-0.146047
0.104999
0.0970982
-0.105279
0.116234
0.0326308
-0.0438662
0.12824
-0.0379329
0.0259277
0.139041
-0.100811
0.0900101
0.147038
-0.145813
0.137816
0.151586
-0.171851
0.167303
0.153281
-0.18329
0.181595
0.152795
-0.185636
0.186122
0.149549
-0.185733
0.18898
0.142808
-0.192268
0.199009
0.134116
-0.202419
0.211111
0.127371
-0.198314
0.205059
0.125799
-0.156698
0.15827
0.129801
-0.0769711
0.0729685
0.137241
0.0196109
-0.0270501
0.145584
0.105293
-0.113637
0.152745
0.162809
-0.169969
0.156589
0.198814
-0.202657
0.155227
0.222039
-0.220676
0.148857
0.249735
-0.243365
0.140792
0.255323
-0.247258
0.135748
0.225846
-0.220802
0.136012
0.134238
-0.134502
0.141282
0.0153555
-0.0206257
0.148164
-0.091808
0.0849264
0.152145
-0.17583
0.171849
0.150216
-0.213011
0.214939
0.144161
-0.268857
0.274912
0.138995
-0.251399
0.256565
0.138987
-0.221586
0.221594
0.142902
-0.103963
0.100047
0.146049
0.0335427
-0.0366896
0.145587
0.125067
-0.124606
0.143002
0.293946
-0.291361
0.141588
0.25926
-0.257845
0.141271
0.295757
-0.29544
0.140333
0.149923
-0.148985
-0.0944151
0.096223
-0.0376944
-0.0702109
-0.0375835
-0.0772649
-0.0362889
-0.0827456
-0.0334594
-0.0858945
-0.0287308
-0.0858906
-0.0218706
-0.0818493
-0.0129411
-0.073032
-0.00220972
-0.0588645
0.0108284
-0.0399236
0.0246369
-0.0154707
0.0387667
0.0128471
0.0529618
0.0428382
0.0667381
0.0724387
0.0793884
0.099084
0.0900755
0.120655
0.0979802
0.136335
0.10238
0.147278
0.103112
0.156194
0.101394
0.164712
0.0999351
0.169819
0.101585
0.163361
0.107412
0.136938
0.116371
0.0881391
0.126725
0.0222765
0.136797
-0.0480052
0.145149
-0.109163
0.150691
-0.151356
0.153052
-0.174212
0.152899
-0.183136
0.15108
-0.183817
0.147092
-0.181746
0.139835
-0.185011
0.130413
-0.192998
0.122826
-0.190727
0.120905
-0.154778
0.125348
-0.0814132
0.133976
0.0109826
0.14388
0.095389
0.152589
0.154099
0.157613
0.19379
0.157115
0.222536
0.151515
0.255335
0.1441
0.262738
0.139221
0.230725
0.138814
0.134645
0.142956
0.0112135
0.148768
-0.0976198
0.152209
-0.179271
0.150007
-0.21081
0.143805
-0.262654
0.138666
-0.246259
0.138718
-0.221639
0.142704
-0.107948
0.145732
0.0305141
0.145364
0.125436
0.14287
0.29644
0.141531
0.260598
0.141474
0.295814
0.140782
0.150615
-0.0927062
-0.0255594
-0.0670745
-0.0285102
-0.0743141
-0.0308485
-0.0804073
-0.0321088
-0.0846343
-0.031675
-0.0863243
-0.0289981
-0.0845262
-0.0235745
-0.0784556
-0.0151947
-0.0672444
-0.00453245
-0.0505858
0.00918389
-0.029187
0.0243734
-0.00234234
0.0401084
0.0271031
0.0558037
0.0567433
0.0705684
0.0843194
0.0833939
0.10783
0.0932996
0.126429
0.0996259
0.140951
0.102636
0.153184
0.103973
0.163375
0.106174
0.167618
0.111155
0.15838
0.118865
0.129228
0.12796
0.0790445
0.137038
0.0131986
0.144932
-0.0558998
0.150728
-0.114958
0.15381
-0.154438
0.154103
-0.174505
0.152281
-0.181314
0.149284
-0.18082
0.144768
-0.17723
0.137331
-0.177574
0.127467
-0.183133
0.119057
-0.182317
0.11655
-0.15227
0.121133
-0.0859969
0.130737
0.00137901
0.142055
0.0840712
0.152261
0.143892
0.158527
0.187524
0.159078
0.221986
0.154453
0.25996
0.147786
0.269404
0.143052
0.235459
0.141893
0.135804
0.144783
0.00832391
0.149427
-0.102264
0.152313
-0.182157
0.149904
-0.208401
0.143576
-0.256326
0.138428
-0.241111
0.138504
-0.221715
0.142576
-0.11202
0.145538
0.0275529
0.145272
0.125702
0.142832
0.29888
0.141561
0.261869
0.141816
0.295559
0.141417
0.151015
-0.0911108
-0.00177322
-0.0625885
-0.00692176
-0.0691656
-0.0122088
-0.0751203
-0.0172108
-0.0796322
-0.0212271
-0.0823081
-0.023704
-0.0820493
-0.0233693
-0.0787902
-0.019581
-0.0710327
-0.0121734
-0.0579934
-0.00172816
-0.0396323
0.0125774
-0.0166479
0.0287825
0.010898
0.0455393
0.0399865
0.0618197
0.0680391
0.0764164
0.0932332
0.0882671
0.114579
0.0968633
0.132355
0.102763
0.147284
0.107652
0.158487
0.113558
0.161712
0.121415
0.150522
0.130428
0.120215
0.139152
0.0703202
0.146653
0.00569764
0.152387
-0.0616337
0.15569
-0.118261
0.156384
-0.155132
0.154743
-0.172864
0.151436
-0.178007
0.147386
-0.176769
0.142472
-0.172316
0.135155
-0.170258
0.125224
-0.173202
0.116117
-0.17321
0.112787
-0.14894
0.117188
-0.0903975
0.127482
-0.00891553
0.14005
0.0715034
0.151685
0.132258
0.159262
0.179947
0.161045
0.220203
0.157578
0.263427
0.15174
0.275243
0.14714
0.240059
0.145196
0.137749
0.146706
0.00681384
0.150121
-0.105679
0.152432
-0.184467
0.14987
-0.20584
0.143431
-0.249887
0.138232
-0.235912
0.138296
-0.221779
0.142487
-0.116211
0.145451
0.0245889
0.145304
0.125849
0.14289
0.301294
0.141682
0.263077
0.142301
0.294941
0.142239
0.151076
-0.0896432
0.0299552
-0.0571605
0.023788
-0.0629984
0.0167504
-0.0680827
0.00897137
-0.0718532
0.000954467
-0.0742912
-0.0055731
-0.0755217
-0.0104184
-0.0739449
-0.0122799
-0.0691713
-0.0102018
-0.0600715
-0.0040789
-0.0457552
0.00639037
-0.0271171
0.0208832
-0.00359486
0.0370849
0.0237849
0.0538013
0.0513226
0.0695644
0.0774701
0.0832089
0.100934
0.0943017
0.121262
0.103413
0.138173
0.111952
0.149947
0.121277
0.152388
0.131483
0.140316
0.141298
0.1104
0.149411
0.0622078
0.15535
-0.000241521
0.158987
-0.0652711
0.159902
-0.119176
0.158307
-0.153538
0.154882
-0.169439
0.150306
-0.17343
0.145366
-0.171829
0.140152
-0.167102
0.133179
-0.163285
0.123567
-0.16359
0.114021
-0.163664
0.109741
-0.14466
0.113595
-0.0942516
0.124198
-0.0195179
0.137799
0.0579023
0.150762
0.119294
0.159714
0.170995
0.162905
0.217012
0.160764
0.265567
0.155822
0.280185
0.151342
0.244539
0.148588
0.140502
0.148726
0.00667568
0.150827
-0.107779
0.152533
-0.186174
0.14987
-0.203177
0.143336
-0.243353
0.138037
-0.230612
0.138045
-0.221788
0.142399
-0.120565
0.145452
0.0215359
0.145452
0.125848
0.143045
0.303701
0.141897
0.264225
0.142929
0.293909
0.143251
0.150754
-0.0883177
0.064302
-0.0516457
0.0581723
-0.0568686
0.0511711
-0.0610815
0.0432294
-0.0639115
0.0344398
-0.0655015
0.0248194
-0.0659013
0.0155918
-0.0647173
0.00803296
-0.0616124
0.00373771
-0.0557763
0.00418203
-0.0461995
0.00952366
-0.0324588
0.0194236
-0.0134948
0.0330432
0.0101652
0.0485633
0.0358026
0.0644092
0.0616241
0.0792976
0.0860458
0.0926454
0.107914
0.104751
0.126067
0.11653
0.138168
0.128634
0.140284
0.140518
0.128432
0.150733
0.100185
0.158274
0.0546672
0.162867
-0.00483481
0.164546
-0.0669499
0.16321
-0.11784
0.159497
-0.149824
0.154465
-0.164407
0.148835
-0.1678
0.143179
-0.166173
0.137728
-0.161651
0.131234
-0.156792
0.122299
-0.154654
0.112678
-0.154043
0.107451
-0.139433
0.11041
-0.097211
0.120907
-0.0300141
0.13523
0.0435786
0.149379
0.105146
0.159751
0.160622
0.164511
0.212252
0.163845
0.266233
0.159867
0.284163
0.155511
0.248895
0.151981
0.144032
0.150763
0.00789333
0.151507
-0.108523
0.15258
-0.187247
0.149865
-0.200461
0.143259
-0.236747
0.137808
-0.225161
0.137706
-0.221687
0.142268
-0.125127
0.145512
0.0182921
0.145704
0.125656
0.1433
0.306105
0.14221
0.265314
0.143702
0.292417
0.144449
0.150007
-0.0871488
0.0962777
-0.0459834
0.090187
-0.0507779
0.0834939
-0.0543884
0.0761044
-0.056522
0.0679405
-0.0573377
0.0588667
-0.0568275
0.0491275
-0.0549781
0.0394203
-0.0519052
0.0310335
-0.0473895
0.0255894
-0.0407555
0.0242406
-0.03111
0.0279288
-0.0171829
0.036653
0.00144105
0.0489077
0.0235479
0.0632468
0.047285
0.0782183
0.0710744
0.0929197
0.093213
0.107181
0.111806
0.121303
0.124047
0.135277
0.12631
0.148121
0.115588
0.158414
0.0898916
0.165387
0.0476949
0.168875
-0.00832338
0.168828
-0.0669029
0.16547
-0.114482
0.159868
-0.144222
0.153433
-0.157971
0.146962
-0.161329
0.140781
-0.159993
0.135141
-0.15601
0.129159
-0.150811
0.121171
-0.146666
0.111897
-0.144769
0.105898
-0.133434
0.107687
-0.0989997
0.117624
-0.0399518
0.132285
0.0289176
0.147423
0.0900077
0.159228
0.148817
0.165699
0.205781
0.166648
0.265285
0.163709
0.287101
0.159508
0.253097
0.155267
0.148273
0.15274
0.0104203
0.152124
-0.107907
0.152532
-0.187655
0.149809
-0.197739
0.143169
-0.230107
0.137522
-0.219514
0.137243
-0.221408
0.14205
-0.129934
0.1456
0.0147423
0.146047
0.12521
0.143656
0.308495
0.142624
0.266347
0.144619
0.290423
0.145833
0.148793
-0.0861518
0.122889
-0.0400102
0.116593
-0.0444818
0.109874
-0.0476693
0.102835
-0.0494828
0.0955644
-0.0500672
0.0879534
-0.0492165
0.0798253
-0.04685
0.0711292
-0.043209
0.0622634
-0.0385237
0.0542403
-0.0327324
0.0484408
-0.0253104
0.0464122
-0.0151544
0.0494303
-0.00157702
0.0567907
0.0161875
0.0678945
0.0361812
0.0813484
0.0576205
0.0959749
0.0785866
0.111079
0.096702
0.126322
0.108803
0.14112
0.111513
0.154218
0.102489
0.164309
0.0798007
0.170771
0.0412326
0.173307
-0.0108599
0.171724
-0.0653197
0.166573
-0.109331
0.159351
-0.137
0.15174
-0.15036
0.144624
-0.154213
0.13811
-0.153479
0.132337
-0.150236
0.126819
-0.145293
0.119921
-0.139768
0.111406
-0.136254
0.104951
-0.126979
0.10544
-0.0994895
0.114383
-0.0488942
0.128933
0.0143676
0.144804
0.0741362
0.158009
0.135612
0.166287
0.197504
0.168971
0.262601
0.167157
0.288915
0.163166
0.257088
0.158309
0.153131
0.154602
0.014127
0.152635
-0.10594
0.152344
-0.187364
0.149657
-0.195052
0.14304
-0.22349
0.137164
-0.213638
0.136625
-0.220868
0.1417
-0.135009
0.145679
0.0107631
0.146464
0.124425
0.144115
0.310844
0.14314
0.267322
0.145677
0.287886
0.147397
0.147074
-0.0853417
0.141993
-0.0338719
0.13555
-0.0380396
0.128738
-0.0408564
0.121838
-0.0425834
0.115088
-0.0433172
0.108529
-0.0426574
0.102091
-0.0404123
0.0956098
-0.0367275
0.0889122
-0.0318261
0.0820844
-0.0259046
0.0757326
-0.0189585
0.0711269
-0.0105487
0.0696026
-5.27102e-05
0.0720502
0.0137399
0.0788326
0.0293988
0.089238
0.047215
0.102196
0.0656283
0.116649
0.0822496
0.131692
0.0937592
0.146264
0.0969409
0.158963
0.0897903
0.168611
0.0701535
0.174545
0.0352985
0.176174
-0.012489
0.173147
-0.0622926
0.166399
-0.102584
0.157838
-0.128439
0.149301
-0.141823
0.141718
-0.14663
0.135048
-0.14681
0.129223
-0.144411
0.124085
-0.140155
0.118292
-0.133975
0.110866
-0.128828
0.104369
-0.120482
0.103625
-0.0987455
0.111212
-0.0564818
0.125184
0.000396227
0.141461
0.0578586
0.155962
0.121111
0.166124
0.187342
0.170679
0.258045
0.170066
0.289528
0.166342
0.260812
0.161015
0.158458
0.156248
0.0188942
0.15299
-0.102682
0.151964
-0.186338
0.149351
-0.192439
0.142839
-0.216978
0.13673
-0.207529
0.135832
-0.21997
0.141173
-0.14035
0.145709
0.00622706
0.146936
0.123198
0.144675
0.313106
0.143763
0.268233
0.146877
0.284772
0.149138
0.144813
-0.0847336
0.152413
-0.0279867
0.146117
-0.0317439
0.139457
-0.0341959
0.132869
-0.035996
0.126605
-0.037053
0.120775
-0.0368277
0.115506
-0.0351433
0.110791
-0.0320125
0.106435
-0.0274696
0.102206
-0.0216756
0.0980491
-0.0148019
0.0943241
-0.00682371
0.0915614
0.00271003
0.091455
0.0138462
0.0945856
0.0262682
0.101385
0.0404156
0.111466
0.0555473
0.123897
0.0698184
0.137507
0.0801493
0.150922
0.083526
0.162673
0.0780391
0.171643
0.061184
0.176915
0.0300264
0.177531
-0.0131052
0.173041
-0.0578029
0.164862
-0.0944043
0.15524
-0.118817
0.146033
-0.132616
0.138141
-0.138739
0.131468
-0.140137
0.125705
-0.138648
0.120864
-0.135314
0.116085
-0.129196
0.109962
-0.122705
0.103851
-0.11437
0.102096
-0.096991
0.108134
-0.0625198
0.121083
-0.0125528
0.137382
0.0415597
0.153002
0.105491
0.165021
0.175323
0.171511
0.251556
0.172217
0.288822
0.168886
0.264143
0.163269
0.164075
0.157639
0.0245238
0.153162
-0.098205
0.151358
-0.184535
0.148845
-0.189926
0.142543
-0.210676
0.136226
-0.201213
0.13486
-0.218604
0.140431
-0.145921
0.145649
0.00100874
0.147441
0.121407
0.145333
0.315213
0.144495
0.269072
0.148217
0.28105
0.151048
0.141982
-0.0843421
0.154773
-0.0228027
0.148909
-0.0258797
0.142678
-0.0279653
0.136629
-0.0299468
0.130934
-0.0313576
0.125781
-0.0316755
0.121408
-0.0307701
0.117914
-0.0285178
0.115249
-0.0248056
0.113248
-0.0196745
0.111713
-0.0132663
0.110646
-0.00575685
0.109883
0.00347309
0.10974
0.0139889
0.11146
0.024548
0.115863
0.036013
0.123119
0.0482914
0.132848
0.0600899
0.144105
0.0688914
0.155557
0.0720742
0.165847
0.0677492
0.173844
0.0531872
0.178092
0.025778
0.177555
-0.0125677
0.171647
-0.0518948
0.162284
-0.0850416
0.151925
-0.108457
0.142318
-0.123009
0.134244
-0.130665
0.127639
-0.133531
0.12201
-0.133019
0.117362
-0.130666
0.113374
-0.125208
0.108591
-0.117922
0.103215
-0.108995
0.100744
-0.0945196
0.105147
-0.0669232
0.116695
-0.0241004
0.132563
0.0256914
0.149066
0.0889887
0.162998
0.161391
0.171584
0.242969
0.173642
0.286764
0.170716
0.267069
0.165081
0.169711
0.158777
0.0308278
0.153206
-0.0926344
0.150578
-0.181907
0.14815
-0.187498
0.142162
-0.204688
0.135677
-0.194728
0.133756
-0.216683
0.139462
-0.151626
0.145453
-0.00498315
0.147948
0.118913
0.146088
0.317073
0.14534
0.269819
0.149693
0.276697
0.153122
0.138553
-0.0841815
0.15172
-0.0188422
0.146554
-0.020714
0.141329
-0.0227409
0.136201
-0.0248183
0.131287
-0.0264438
0.126837
-0.0272258
0.123049
-0.0269815
0.120118
-0.0255871
0.118219
-0.0229066
0.11737
-0.0188257
0.117424
-0.0133202
0.118072
-0.00640528
0.119419
0.00212652
0.121682
0.0117254
0.124581
0.0216493
0.128672
0.0319216
0.134552
0.0424123
0.142292
0.0523495
0.151336
0.0598476
0.160701
0.0627089
0.169268
0.0591823
0.175799
0.0466565
0.178779
0.0227976
0.176274
-0.0100629
0.168914
-0.0445348
0.158748
-0.0748756
0.148172
-0.0978809
0.138578
-0.113415
0.130512
-0.1226
0.124002
-0.127021
0.118528
-0.127545
0.113961
-0.126099
0.110443
-0.12169
0.106848
-0.114327
0.102428
-0.104574
0.0995602
-0.0916523
0.10243
-0.0697934
0.112248
-0.0339177
0.12725
0.0106896
0.14402
0.0722186
0.159437
0.145973
0.170186
0.23222
0.173893
0.283057
0.171667
0.269295
0.16617
0.175208
0.159632
0.0373658
0.153071
-0.0860742
0.149674
-0.17851
0.147298
-0.185121
0.141707
-0.199097
0.135083
-0.188104
0.132595
-0.214194
0.13834
-0.157371
0.145124
-0.011768
0.148435
0.115602
0.146927
0.318582
0.146297
0.270449
0.151303
0.271691
0.155358
0.134498
-0.084262
0.189981
-0.0144364
-0.194386
0.186384
-0.0171174
0.18264
-0.0189967
0.178532
-0.020711
0.174118
-0.0220295
0.169541
-0.0226487
0.164929
-0.0223694
0.160393
-0.0210512
0.156052
-0.0185657
0.152017
-0.0147907
0.148376
-0.00967867
0.145261
-0.00329087
0.14278
0.0046076
0.141008
0.0134976
0.139904
0.0227532
0.13983
0.031996
0.14139
0.0408522
0.145251
0.0484884
0.151736
0.0533624
0.160627
0.0538177
0.171472
0.0483372
0.18324
0.0348891
0.193348
0.0126888
0.199381
-0.0160956
0.20026
-0.0454131
0.196701
-0.0713173
0.190239
-0.0914183
0.182262
-0.105438
0.173775
-0.114113
0.165505
-0.118752
0.157538
-0.119578
0.149819
-0.11838
0.142749
-0.11462
0.135828
-0.107406
0.127805
-0.0965516
0.119564
-0.0834104
0.114804
-0.0650342
0.116068
-0.035181
0.121996
0.00476162
0.129295
0.0649195
0.135553
0.139715
0.140129
0.227644
0.144325
0.278861
0.150315
0.263305
0.157612
0.167912
0.16233
0.0326474
0.162974
-0.0867186
0.160819
-0.176355
0.156795
-0.181097
0.149446
-0.191748
0.140995
-0.179653
0.135128
-0.208327
0.134579
-0.156823
0.135791
-0.0129792
0.134519
0.116873
0.132155
0.320945
0.132641
0.269963
0.138711
0.265621
0.143599
0.12961
-0.0833724
0.199441
-0.0111502
-0.202727
0.196008
-0.0136845
0.192569
-0.0155581
0.188862
-0.0170035
0.184896
-0.0180638
0.180803
-0.018556
0.176712
-0.0182784
0.17274
-0.0170789
0.169013
-0.0148393
0.165686
-0.0114637
0.162917
-0.00690941
0.160782
-0.00115557
0.159519
0.00587009
0.1592
0.0138172
0.159819
0.022134
0.1615
0.0303151
0.164551
0.0378007
0.169347
0.0436927
0.176029
0.0466804
0.184377
0.0454697
0.193851
0.0388638
0.203193
0.0255466
0.210452
0.00543012
0.213664
-0.0193076
0.212534
-0.0442838
0.207738
-0.0665214
0.200553
-0.0842333
0.192198
-0.0970824
0.183508
-0.105423
0.175111
-0.110354
0.167123
-0.11159
0.159325
-0.110582
0.152061
-0.107357
0.145314
-0.100658
0.137861
-0.0890986
0.129716
-0.0752654
0.124144
-0.0594623
0.124207
-0.0352438
0.129539
-0.000571144
0.137025
0.0574341
0.144109
0.132631
0.149778
0.221975
0.155195
0.273444
0.162409
0.256091
0.170497
0.159824
0.175687
0.0274567
0.175693
-0.0867238
0.17255
-0.173212
0.167706
-0.176253
0.159825
-0.183868
0.150734
-0.170561
0.144033
-0.201627
0.143178
-0.155968
0.144608
-0.0144086
0.143664
0.117817
0.141392
0.323217
0.142022
0.269334
0.148922
0.25872
0.154317
0.124215
-0.0823424
0.209031
-0.00852679
-0.211654
0.205945
-0.0105987
0.202714
-0.0123271
0.199333
-0.0136226
0.195773