/*--------------------------------*- C++ -*----------------------------------*\
| =========                 |                                                 |
| \\      /  F ield         | OpenFOAM: The Open Source CFD Toolbox           |
|  \\    /   O peration     | Version:  2512                                  |
|   \\  /    A nd           | Website:  www.openfoam.com                      |
|    \\/     M anipulation  |                                                 |
\*---------------------------------------------------------------------------*/
FoamFile
{
    version     2.0;
    format      ascii;
    arch        "LSB;label=32;scalar=64";
    class       surfaceScalarField;
    location    "146";
    object      phi;
}
// * * * * * * * * * * * * * * * * * * * * * * * * * * * * * * * * * * * * * //

dimensions      [0 3 -1 0 0 0 0];

oriented        oriented;

internalField   nonuniform List<scalar> 
26232
(
-5.25674e-05
0.00103188
-0.00097931
8.46694e-05
0.00197366
-0.0021109
0.000651997
0.00198457
-0.0025519
0.00186534
0.00111621
-0.00232955
0.00392892
-0.000621423
-0.00144216
0.0070369
-0.0032383
0.000130327
0.0113699
-0.00674778
0.0024148
0.0170775
-0.011151
0.00544341
0.0242621
-0.0164202
0.00923553
0.0329577
-0.0224881
0.0137925
0.0431121
-0.0292436
0.0190892
0.0545776
-0.036535
0.0250695
0.0671115
-0.0441794
0.0316454
0.0803889
-0.0519774
0.0387
0.094025
-0.0597293
0.0460931
0.107606
-0.0672517
0.0536703
0.120727
-0.0743917
0.0612712
0.133023
-0.0810389
0.0687433
0.144211
-0.0871301
0.075942
0.154097
-0.0926666
0.0827798
0.162627
-0.0976494
0.0891201
0.169759
-0.10228
0.0951477
0.175458
-0.10619
0.100492
-0.110627
0.106466
0.179619
2.64526e-05
0.00100542
0.000394939
0.00160517
0.00136407
0.00101544
0.00317334
-0.000693062
0.00604766
-0.00349575
0.0101886
-0.00737921
0.0157563
-0.0123155
0.0228446
-0.0182392
0.0314561
-0.0250318
0.041485
-0.0325169
0.0527112
-0.0404699
0.0648134
-0.0486371
0.0773952
-0.0567612
0.0900246
-0.0646068
0.102278
-0.0719831
0.113786
-0.0787593
0.124266
-0.0848722
0.133553
-0.0903257
0.141605
-0.0951819
0.148483
-0.0995448
0.154366
-0.103532
0.15938
-0.107295
0.163981
-0.110791
-0.114654
0.168008
0.000126344
0.00087908
0.000787014
0.000944504
0.00225236
-0.000449905
0.00477481
-0.00321551
0.0085793
-0.00730024
0.01384
-0.0126399
0.020649
-0.0191245
0.0289853
-0.0265755
0.0386958
-0.0347423
0.0494964
-0.0433175
0.0609967
-0.0519703
0.0727447
-0.0603851
0.0842819
-0.0682984
0.0951998
-0.0755247
0.105186
-0.0819698
0.114057
-0.0876295
0.12176
-0.0925759
0.128369
-0.0969345
0.134043
-0.100856
0.138989
-0.104491
0.143415
-0.107958
0.147498
-0.111378
0.151394
-0.114688
-0.118335
0.155075
0.000241253
0.000637827
0.00123834
-5.25882e-05
0.00326624
-0.0024778
0.00657247
-0.00652174
0.0113506
-0.0120783
0.0177009
-0.0189903
0.0255914
-0.027015
0.0348345
-0.0358186
0.0450932
-0.045001
0.0559196
-0.0541438
0.0668178
-0.0628685
0.0773164
-0.0708838
0.0870335
-0.0780154
0.0957204
-0.0842116
0.103279
-0.0895283
0.109749
-0.0940998
0.115275
-0.0981015
0.120055
-0.101715
0.124299
-0.105099
0.128185
-0.108377
0.131856
-0.111629
0.135389
-0.114911
0.138891
-0.11819
-0.121746
0.142303
0.000368311
0.000269516
0.00173412
-0.0014184
0.00436432
-0.00510801
0.00847493
-0.0106323
0.0141858
-0.0177892
0.0214703
-0.0262747
0.0301231
-0.0356677
0.0397675
-0.0454631
0.0499067
-0.0551402
0.0600065
-0.0642436
0.069584
-0.072446
0.0782803
-0.0795802
0.0858993
-0.0856344
0.0924085
-0.0907208
0.0979084
-0.0950282
0.102581
-0.0987727
0.106638
-0.102158
0.110273
-0.10535
0.113641
-0.108468
0.116852
-0.111588
0.119974
-0.114751
0.123047
-0.117983
0.126119
-0.121262
-0.124746
0.129118
0.000507272
-0.000237756
0.00226435
-0.00317548
0.00550818
-0.00835183
0.0103867
-0.0155109
0.0168967
-0.0242992
0.0248366
-0.0342146
0.0338067
-0.0446379
0.0432694
-0.0549257
0.0526503
-0.0645212
0.0614473
-0.0730405
0.0693103
-0.0803091
0.0760763
-0.0863462
0.0817556
-0.0913138
0.0864853
-0.0954505
0.0904676
-0.0990104
0.0939141
-0.102219
0.0970076
-0.105251
0.0998854
-0.108228
0.102639
-0.111222
0.105327
-0.114275
0.107981
-0.117406
0.110619
-0.120621
0.113268
-0.123911
-0.127356
0.115878
0.000657391
-0.000895147
0.0028152
-0.00533329
0.00664858
-0.0121852
0.0121929
-0.0210552
0.0192752
-0.0313815
0.0274954
-0.0424348
0.0362851
-0.0534276
0.0450259
-0.0636664
0.0531799
-0.0726752
0.0603844
-0.080245
0.0664851
-0.0864098
0.0715129
-0.091374
0.0756243
-0.0954251
0.0790317
-0.0988579
0.0819465
-0.101925
0.0845438
-0.104816
0.0869508
-0.107658
0.0892501
-0.110527
0.0914912
-0.113463
0.093702
-0.116486
0.095898
-0.119602
0.0980871
-0.12281
0.100282
-0.126106
-0.129519
0.102445
0.000815059
-0.00171021
0.0033635
-0.00788173
0.00771901
-0.0165407
0.0137595
-0.0270957
0.0211138
-0.0387357
0.0291999
-0.050521
0.0373528
-0.0615804
0.0449796
-0.0712933
0.0516769
-0.0793725
0.057272
-0.08584
0.0617945
-0.0909323
0.0654072
-0.0949867
0.0683285
-0.0983464
0.0707713
-0.101301
0.072909
-0.104063
0.0748647
-0.106772
0.0767169
-0.109511
0.0785114
-0.112321
0.0802734
-0.115225
0.0820166
-0.118229
0.0837488
-0.121334
0.0854751
-0.124537
0.0872019
-0.127833
-0.131224
0.0889077
0.000973041
-0.00268325
0.00387649
-0.0107852
0.00864072
-0.021305
0.0149525
-0.0334075
0.0222451
-0.0460284
0.0298131
-0.0580889
0.0369908
-0.0687582
0.0433033
-0.0776057
0.0485279
-0.0845971
0.0526697
-0.0899818
0.0558851
-0.0941477
0.058395
-0.0974966
0.0604172
-0.100369
0.0621285
-0.103012
0.0636535
-0.105588
0.0650704
-0.108189
0.0664242
-0.110864
0.0677392
-0.113636
0.0690284
-0.116514
0.0702992
-0.1195
0.0715562
-0.122591
0.072803
-0.125783
0.0740421
-0.129072
-0.132445
0.0752624
0.00112127
-0.00380452
0.0043161
-0.01398
0.00933559
-0.0263244
0.0156635
-0.0397354
0.0225762
-0.0529411
0.0293277
-0.0648404
0.0353405
-0.074771
0.0403062
-0.0825714
0.0441769
-0.0884679
0.0470867
-0.0928916
0.0492541
-0.0963151
0.0509038
-0.0991463
0.0522208
-0.101686
0.0533362
-0.104127
0.0543321
-0.106584
0.0552554
-0.109112
0.0561307
-0.11174
0.0569712
-0.114477
0.0577842
-0.117327
0.0585743
-0.12029
0.0593447
-0.123361
0.0600981
-0.126537
0.0608357
-0.12981
-0.133163
0.0615543
0.00124893
-0.00505345
0.00464643
-0.0173775
0.00974156
-0.0314196
0.015831
-0.0458248
0.0220998
-0.05921
0.0278459
-0.0705865
0.032636
-0.0795611
0.0363332
-0.0862686
0.0390257
-0.0911603
0.0409197
-0.0947857
0.0422462
-0.0976416
0.0432028
-0.100103
0.0439322
-0.102415
0.0445245
-0.10472
0.0450309
-0.10709
0.0454783
-0.10956
0.0458806
-0.112142
0.0462452
-0.114842
0.0465772
-0.117659
0.0468797
-0.120592
0.047155
-0.123637
0.0474049
-0.126786
0.0476286
-0.130033
-0.133362
0.0478271
0.00134888
-0.00640233
0.00484269
-0.0208713
0.00982446
-0.0364014
0.0154474
-0.0514478
0.0208834
-0.0646459
0.0255388
-0.0752419
0.0291436
-0.0831658
0.0317054
-0.0888305
0.0333995
-0.0928544
0.0344574
-0.0958435
0.0350915
-0.0982757
0.0354612
-0.100473
0.0356692
-0.102623
0.0357746
-0.104825
0.0358081
-0.107124
0.035785
-0.109537
0.0357135
-0.11207
0.0355986
-0.114727
0.0354439
-0.117504
0.0352523
-0.120401
0.0350262
-0.123411
0.0347667
-0.126527
0.0344724
-0.129739
0.034147
-0.133036
-0.000280914
0.000238106
4.28079e-05
-0.000956547
0.00124868
-0.000573043
-0.00193549
0.00262659
-0.00164764
-0.0031573
0.00420563
-0.00298383
-0.00457765
0.00586241
-0.00444206
-0.0061598
0.00752928
-0.00594712
-0.00786931
0.00918821
-0.0074787
-0.00967138
0.0108566
-0.00905455
-0.01153
0.0125703
-0.0107117
-0.0134077
0.0143676
-0.0124899
-0.0152654
0.0162784
-0.0144208
-0.017061
0.0183177
-0.0165221
-0.0187483
0.0204835
-0.0187962
-0.020275
0.0227564
-0.0212297
-0.0215816
0.0251
-0.0237933
-0.022601
0.0274609
-0.0264415
-0.023258
0.0297679
-0.0291109
-0.0234714
0.0319324
-0.031719
-0.0231559
0.033848
-0.0341635
-0.0222248
0.0353941
-0.0363251
-0.0205949
0.0364417
-0.0380716
-0.0181958
0.0368628
-0.0392618
-0.0149778
0.036531
-0.039749
0.0354163
-0.0109633
-0.0394309
-0.000210326
0.000448432
-0.000716703
0.00175505
-0.00144865
0.00335853
-0.00235882
0.0051158
-0.00341148
0.00691508
-0.00457411
0.0086919
-0.00581184
0.0104259
-0.00708492
0.0121297
-0.00834828
0.0138336
-0.00955243
0.0155717
-0.0106443
0.0173703
-0.0115674
0.0192409
-0.0122618
0.0211779
-0.0126627
0.0231573
-0.0127007
0.0251379
-0.0123008
0.027061
-0.0113842
0.0288513
-0.0098706
0.0304188
-0.00768038
0.0316577
-0.00473777
0.0324515
-0.000972977
0.0326769
0.00367912
0.0322107
0.00925682
0.0309533
0.0288778
0.0157954
-0.000132822
0.000581254
-0.000451365
0.0020736
-0.000905009
0.00381217
-0.00145747
0.00566827
-0.00207979
0.0075374
-0.00274292
0.00935503
-0.00341219
0.0110952
-0.00404455
0.0127621
-0.00458825
0.0143773
-0.00498413
0.0159676
-0.00516744
0.0175536
-0.00506979
0.0191433
-0.00461964
0.0207277
-0.00374294
0.0222806
-0.00236369
0.0237586
-0.000405026
0.0251023
0.00220854
0.0262377
0.00555143
0.0270759
0.00969041
0.0275188
0.014683
0.0274589
0.0205757
0.0267842
0.0274003
0.025386
0.0351745
0.0231792
0.020031
0.0440213
-6.20865e-05
0.00064334
-0.000204077
0.00221559
-0.0003885
0.0039966
-0.000584967
0.00586473
-0.000767641
0.00772007
-0.000909172
0.00949656
-0.000975401
0.0111615
-0.000922214
0.0127089
-0.000694844
0.01415
-0.000229231
0.015502
0.000545483
0.0167788
0.00170542
0.0179833
0.0033286
0.0191045
0.00549359
0.0201156
0.00827801
0.0209742
0.0117568
0.0216236
0.0160003
0.0219942
0.0210706
0.0220056
0.0270201
0.0215692
0.0338886
0.0205904
0.0416997
0.0189731
0.0504779
0.0166078
0.060177
0.0134801
0.00915646
0.0710516
-9.84959e-06
0.00065319
-1.27872e-05
0.00221852
2.50374e-05
0.00395877
0.000135387
0.00575438
0.000346006
0.00750945
0.000685373
0.00915719
0.00118774
0.0106591
0.00189661
0.012
0.002866
0.0131806
0.00415983
0.0142082
0.00584976
0.0150889
0.00801199
0.0158211
0.0107248
0.0163917
0.014066
0.0167745
0.0181099
0.0169302
0.0229263
0.0168073
0.0285772
0.0163432
0.035116
0.0154668
0.0425854
0.0140998
0.0510186
0.0121572
0.0604316
0.0095601
0.070874
0.00616549
0.0822059
0.00214817
-0.00357574
0.0949381
1.70844e-05
0.000636106
9.65084e-05
0.0021391
0.00028124
0.00377404
0.000611584
0.00542404
0.00112223
0.00699881
0.00184611
0.00843331
0.00281918
0.00968601
0.00408412
0.0107351
0.00569229
0.0115724
0.00770379
0.0121967
0.0101859
0.0126068
0.0132108
0.0127962
0.0168524
0.01275
0.0211845
0.0124425
0.0262777
0.011837
0.0321984
0.0108865
0.0390075
0.00953414
0.0467608
0.00771358
0.0555069
0.00535375
0.0652882
0.00237587
0.0761366
-0.00128831
0.0881616
-0.00585951
0.10118
-0.0108705
-0.0182155
0.11582
1.5349e-05
0.000620757
0.000114578
0.00203987
0.000359592
0.00352903
0.000805464
0.00497817
0.00149811
0.00630617
0.00247819
0.00745323
0.00378587
0.00837833
0.00546485
0.00905608
0.00756504
0.00947222
0.0101435
0.00961825
0.013264
0.00948621
0.016996
0.0090643
0.0214123
0.00833367
0.0265883
0.00726653
0.0326003
0.00582507
0.0395246
0.00396212
0.0474353
0.00162348
0.0564109
-0.00126199
0.0665238
-0.00475923
0.0778518
-0.00895206
0.0904258
-0.0138623
0.10437
-0.0198042
0.119432
-0.0259322
-0.0349844
0.136201
-1.11534e-05
0.00063191
5.3687e-05
0.00197503
0.000282976
0.00329974
0.000751042
0.0045101
0.00151844
0.00553877
0.0026371
0.00633456
0.00415569
0.00685974
0.00612421
0.00708756
0.00859753
0.00699889
0.0116376
0.00657821
0.0153142
0.00580961
0.0197051
0.00467331
0.0248957
0.00314313
0.0309767
0.00118555
0.0380448
-0.00124306
0.0461984
-0.00419146
0.055536
-0.00771416
0.0661441
-0.0118701
0.0780979
-0.016713
0.091445
-0.0222992
0.106187
-0.0286041
0.12229
-0.0359071
0.139544
-0.0431866
-0.0534084
0.157968
-5.1338e-05
0.000683248
-5.13445e-05
0.00197504
0.000120549
0.00312785
0.000561479
0.00406917
0.00134993
0.00475032
0.00255469
0.0051298
0.00424057
0.00517385
0.006474
0.00485414
0.00932735
0.00414555
0.0128818
0.0030238
0.0172283
0.00146303
0.0224677
-0.000566017
0.0287076
-0.00309681
0.0360593
-0.00616619
0.0446297
-0.00981337
0.0545142
-0.0140761
0.0657867
-0.0189866
0.0784841
-0.0245675
0.0925954
-0.0308243
0.10804
-0.0377439
0.124685
-0.0452485
0.142207
-0.0534299
0.160497
-0.0614761
-0.0715954
0.178684
-8.98934e-05
0.000773141
-0.000148123
0.00203327
-2.08139e-05
0.00300054
0.000413512
0.00363485
0.00125841
0.00390543
0.00260747
0.00378074
0.00455228
0.00322905
0.00718825
0.00221817
0.0106182
0.000715604
0.0149532
-0.00131123
0.0203107
-0.00389444
0.026809
-0.00706434
0.0345593
-0.010847
0.0436545
-0.0152614
0.0541568
-0.0203156
0.0660839
-0.0260031
0.0793965
-0.0322992
0.093988
-0.039159
0.109674
-0.0465102
0.126194
-0.0542642
0.143221
-0.0622755
0.160262
-0.0704702
0.17716
-0.078375
-0.0869923
0.192557
-0.000109377
0.000882518
-0.000180056
0.00210394
-2.64178e-05
0.0028469
0.000500407
0.00310802
0.00153537
0.00287047
0.00320519
0.00211091
0.00563647
0.000797767
0.00895969
-0.00110504
0.0133079
-0.00363265
0.0188118
-0.00681514
0.0255902
-0.0106728
0.0337372
-0.0152114
0.0433081
-0.020418
0.0543046
-0.0262579
0.0666623
-0.0326733
0.0802426
-0.0395834
0.0948289
-0.0468856
0.110132
-0.0544616
0.125793
-0.0621719
0.141427
-0.0698983
0.156606
-0.0774545
0.170966
-0.0848296
0.184231
-0.0916409
-0.0982581
0.195497
-9.67914e-05
-0.000103744
0.000191258
0.000969726
0.00239803
0.00463927
0.00785184
0.0121902
0.0177931
0.0247705
0.0331869
0.043045
0.0542725
0.0667146
0.0801344
0.0942213
0.108607
0.122889
0.136659
0.14954
0.161206
0.171524
0.180376
0.188583
-0.0043894
0.0447098
-0.0512837
0.00297056
0.0387497
-0.0461097
0.0110338
0.0297526
-0.0378158
0.0196245
0.0176538
-0.0262445
0.0285351
0.00236986
-0.0112805
0.0375993
-0.0156875
0.00662343
0.0466656
-0.0364379
0.0273715
0.0555894
-0.0589812
0.0500574
0.0641754
-0.0819305
0.0733444
0.0721175
-0.103365
0.0954225
0.0789347
-0.121252
0.114435
0.0840559
-0.134135
0.129014
0.0868617
-0.141664
0.138858
0.0866685
-0.14495
0.145143
0.083209
-0.146535
0.149994
0.077641
-0.148728
0.154295
0.0728746
-0.150355
0.155122
0.0722669
-0.145229
0.145837
0.0774179
-0.12536
0.120209
0.0874854
-0.0869351
0.0768677
0.100478
-0.0332774
0.020285
0.114228
0.026911
-0.0406614
0.126908
0.083124
-0.0958039
0.136955
0.126845
-0.136892
0.143598
0.155456
-0.162099
0.147184
0.170788
-0.174374
0.148332
0.176971
-0.178119
0.146747
0.180861
-0.179276
0.14184
0.190337
-0.185431
0.134751
0.204215
-0.197126
0.128766
0.205783
-0.199798
0.127044
0.173631
-0.171909
0.13045
0.10097
-0.104376
0.137467
0.00601951
-0.0130363
0.14538
-0.0852294
0.0773162
0.15214
-0.151293
0.144534
0.156696
-0.189449
0.184893
0.158087
-0.204912
0.20352
0.154972
-0.215913
0.219028
0.147508
-0.228868
0.236332
0.138821
-0.232382
0.241069
0.133392
-0.204485
0.209914
0.133678
-0.124616
0.12433
0.139273
-0.0241027
0.0185074
0.146934
0.0855249
-0.0931861
0.152552
0.155793
-0.161411
0.152552
0.217879
-0.217879
0.147115
0.257142
-0.251704
0.140537
0.270781
-0.264203
0.13788
0.241834
-0.239177
0.140788
0.118405
-0.121313
0.146244
0.0248804
-0.0303368
0.148582
-0.123511
0.121173
0.146723
-0.193936
0.195795
0.143695
-0.274482
0.277509
0.142457
-0.314659
0.315897
0.142634
-0.175797
0.17562
0.142539
-0.143974
0.144069
0.140854
0.135136
-0.133451
0.229468
-0.227588
0.022937
0.0375681
0.0304625
0.0312243
0.0382379
0.0219772
0.0461049
0.00978675
0.0538301
-0.00535536
0.0614171
-0.0232745
0.0687188
-0.0437395
0.0756607
-0.0659232
0.0820702
-0.0883399
0.0876317
-0.108926
0.0919233
-0.125544
0.0945504
-0.136762
0.0952125
-0.142326
0.0934887
-0.143226
0.088773
-0.141819
0.0812232
-0.141178
0.072994
-0.142126
0.0679086
-0.140144
0.0691521
-0.126604
0.0771701
-0.0949531
0.0900507
-0.046158
0.105188
0.0117733
0.119979
0.0683334
0.132399
0.114425
0.141392
0.146463
0.147094
0.165086
0.149893
0.174172
0.149516
0.181238
0.14578
0.194074
0.140094
0.2099
0.135377
0.2105
0.134126
0.174881
0.136866
0.0982298
0.142503
0.000382871
0.148669
-0.091395
0.153591
-0.156216
0.156487
-0.192345
0.156732
-0.205156
0.152973
-0.212154
0.14506
-0.220955
0.135893
-0.223216
0.130266
-0.198858
0.13098
-0.12533
0.137604
-0.0307266
0.146381
0.0767475
0.152786
0.149388
0.153331
0.217334
0.14825
0.262223
0.141887
0.277144
0.139011
0.24471
0.141561
0.115855
0.14687
0.019571
0.149111
-0.125752
0.147109
-0.191933
0.143802
-0.271175
0.142501
-0.313358
0.142472
-0.175767
0.142155
-0.143658
0.140394
0.136898
0.231373
0.0510659
0.0305235
0.0582989
0.0239913
0.0654894
0.0147867
0.0723998
0.00287637
0.0789817
-0.0119373
0.0850869
-0.0293797
0.0906889
-0.0493415
0.0956981
-0.0709324
0.0999248
-0.0925666
0.103067
-0.112069
0.104783
-0.127259
0.104828
-0.136807
0.103201
-0.1407
0.0999218
-0.139947
0.0944817
-0.136379
0.0862113
-0.132907
0.0759782
-0.131893
0.0671562
-0.131322
0.0640761
-0.123524
0.06897
-0.099847
0.0806985
-0.0578865
0.0965135
-0.00404174
0.112929
0.051918
0.127518
0.0998361
0.138852
0.135129
0.146739
0.157198
0.151313
0.169599
0.152392
0.180159
0.150157
0.196308
0.146085
0.213972
0.142625
0.21396
0.141601
0.175905
0.143457
0.0963739
0.147454
-0.00361481
0.151767
-0.0957081
0.154851
-0.159299
0.156129
-0.193624
0.155315
-0.204342
0.151103
-0.207942
0.142986
-0.212837
0.13349
-0.21372
0.127624
-0.192992
0.128602
-0.126308
0.136056
-0.0381801
0.145822
0.0669817
0.153021
0.142189
0.154225
0.21613
0.149627
0.266821
0.143537
0.283234
0.140414
0.247834
0.142499
0.11377
0.147606
0.0144636
0.149756
-0.127902
0.147599
-0.189776
0.143965
-0.26754
0.142591
-0.311984
0.142417
-0.175593
0.141928
-0.143169
0.140104
0.138722
0.233295
0.0778055
0.0237695
0.0845462
0.0172507
0.0909799
0.00835297
0.0972355
-0.0033793
0.102719
-0.017421
0.107571
-0.034231
0.111687
-0.0534581
0.114902
-0.0741472
0.116979
-0.0946436
0.117651
-0.112741
0.116739
-0.126347
0.114249
-0.134316
0.110402
-0.136853
0.105545
-0.13509
0.0995989
-0.130433
0.0916252
-0.124934
0.0810836
-0.121351
0.0699689
-0.120207
0.0627974
-0.116352
0.0636282
-0.100678
0.0730295
-0.0672878
0.0883151
-0.0193274
0.105805
0.034428
0.122262
0.0833788
0.135857
0.121535
0.145957
0.147098
0.152425
0.16313
0.155195
0.177389
0.154729
0.196774
0.152429
0.216272
0.150176
0.216214
0.149225
0.176857
0.149986
0.0956131
0.152212
-0.00584139
0.154623
-0.0981193
0.155916
-0.160592
0.155636
-0.193344
0.153819
-0.202525
0.149296
-0.203419
0.14121
-0.204752
0.131575
-0.204084
0.125441
-0.186858
0.126498
-0.127366
0.134573
-0.046255
0.145204
0.0563507
0.153219
0.134174
0.155208
0.214141
0.151236
0.270792
0.145493
0.288977
0.142105
0.251222
0.143623
0.112252
0.148429
0.00965736
0.150499
-0.129972
0.148186
-0.187464
0.144177
-0.263531
0.142712
-0.310518
0.142458
-0.17534
0.141844
-0.142555
0.139977
0.14059
0.235221
0.10153
0.0171778
0.107923
0.0108572
0.11385
0.00242632
0.11942
-0.00894908
0.124152
-0.0221534
0.128032
-0.0381109
0.130859
-0.0562851
0.132365
-0.075653
0.132282
-0.094561
0.130452
-0.110911
0.12695
-0.122845
0.122097
-0.129463
0.116318
-0.131075
0.110068
-0.12884
0.103608
-0.123973
0.0963222
-0.117648
0.086887
-0.111916
0.0754333
-0.108754
0.0653672
-0.106286
0.0617952
-0.0971058
0.0675347
-0.0730273
0.0811083
-0.032901
0.0987738
0.0167625
0.116612
0.0655403
0.132241
0.105906
0.144486
0.134853
0.152923
0.154693
0.157576
0.172736
0.159101
0.195249
0.158706
0.216668
0.157653
0.217266
0.156675
0.177835
0.156238
0.0960501
0.156653
-0.00625646
0.157161
-0.0986279
0.156733
-0.160164
0.154981
-0.191592
0.152223
-0.199766
0.147498
-0.198694
0.139657
-0.196911
0.130086
-0.194512
0.123694
-0.180467
0.124633
-0.128305
0.133088
-0.0547093
0.144465
0.0449731
0.153326
0.125314
0.156236
0.211231
0.153042
0.273987
0.147736
0.294283
0.144073
0.254885
0.144917
0.111409
0.149341
0.00523317
0.151316
-0.131947
0.148858
-0.185006
0.144435
-0.259108
0.14285
-0.308934
0.14258
-0.175069
0.14189
-0.141865
0.140003
0.142477
0.237135
0.122224
0.0107738
0.128213
0.00486777
0.134203
-0.00356292
0.139086
-0.0138324
0.143116
-0.0261836
0.146043
-0.0410381
0.147544
-0.0577856
0.14728
-0.0753885
0.145021
-0.0923021
0.140779
-0.10667
0.134893
-0.116959
0.127966
-0.122536
0.120635
-0.123743
0.113369
-0.121574
0.106487
-0.11709
0.0998063
-0.110968
0.0920828
-0.104192
0.0820607
-0.0987316
0.0710809
-0.0953062
0.0637964
-0.0898213
0.0649693
-0.0742002
0.0753539
-0.0432855
0.0920655
5.08747e-05
0.110576
0.0470297
0.127839
0.0886429
0.142046
0.120647
0.152453
0.144285
0.159119
0.16607
0.162783
0.191585
0.164394
0.215057
0.164604
0.217056
0.16363
0.178809
0.161987
0.0976937
0.160641
-0.00491061
0.159297
-0.0972841
0.157243
-0.158109
0.154131
-0.18848
0.150491
-0.196127
0.145637
-0.193841
0.138218
-0.189492
0.128918
-0.185213
0.122314
-0.173863
0.122954
-0.128946
0.131533
-0.0632884
0.143528
0.0329787
0.153269
0.115573
0.157238
0.207262
0.15498
0.276245
0.150215
0.299048
0.146295
0.258805
0.146381
0.111322
0.150311
0.0013035
0.152179
-0.133815
0.149601
-0.182427
0.144733
-0.25424
0.142994
-0.307195
0.142768
-0.174843
0.142051
-0.141148
0.140173
0.144354
0.239014
0.141956
0.00501907
0.147611
-0.000787382
0.152789
-0.00874098
0.156866
-0.0179089
0.159877
-0.0291953
0.161498
-0.0426588
0.161333
-0.0576204
0.15906
-0.0731162
0.154574
-0.0878153
0.148094
-0.10019
0.140192
-0.109057
0.131648
-0.113992
0.123205
-0.115299
0.115339
-0.113708
0.108267
-0.110018
0.102003
-0.104704
0.0958401
-0.0980296
0.088181
-0.0910725
0.0784005
-0.0855257
0.0692238
-0.0806446
0.0658964
-0.0708728
0.0718447
-0.0492338
0.0860322
-0.0141366
0.104231
0.0288306
0.122533
0.0703411
0.138405
0.104775
0.150702
0.131988
0.159426
0.157346
0.16531
0.185701
0.168988
0.211378
0.170496
0.215549
0.169629
0.179676
0.16703
0.100293
0.164046
-0.00192716
0.160948
-0.0941856
0.157381
-0.154542
0.153043
-0.184143
0.148588
-0.191671
0.143646
-0.188898
0.136774
-0.182621
0.127942
-0.17638
0.121205
-0.167126
0.121393
-0.129134
0.129851
-0.0717458
0.142313
0.0205163
0.152961
0.104925
0.158126
0.202097
0.156967
0.277404
0.152857
0.303158
0.148711
0.262951
0.147991
0.112042
0.151318
-0.00202365
0.153057
-0.135554
0.150394
-0.179764
0.145063
-0.24891
0.143132
-0.305264
0.143005
-0.174716
0.142308
-0.14045
0.140476
0.146186
0.24083
0.16225
0.000737508
0.166636
-0.00517347
0.170182
-0.0122869
0.172677
-0.0204045
0.173977
-0.0304948
0.173693
-0.0423748
0.17143
-0.0553572
0.166973
-0.0686597
0.160379
-0.0812215
0.152051
-0.0918611
0.142699
-0.099706
0.133151
-0.104444
0.124121
-0.10627
0.116049
-0.105636
0.10906
-0.103029
0.103137
-0.098781
0.0980227
-0.0929155
0.0926179
-0.0856678
0.0853873
-0.0782951
0.076689
-0.0719463
0.0703611
-0.0645449
0.071363
-0.0502358
0.0813817
-0.0241552
0.0978255
0.0123867
0.11627
0.0518968
0.133369
0.0876765
0.147403
0.117954
0.158166
0.146583
0.166274
0.177593
0.172027
0.205625
0.174882
0.212694
0.174299
0.180258
0.170982
0.10361
0.166687
0.00236811
0.162005
-0.0895039
0.157071
-0.149608
0.151665
-0.178737
0.146471
-0.186477
0.141451
-0.183879
0.13521
-0.176379
0.127011
-0.168182
0.120252
-0.160367
0.119888
-0.12877
0.127973
-0.0798314
0.140748
0.00774195
0.152311
0.0933611
0.158793
0.195615
0.158889
0.277308
0.155558
0.306489
0.151252
0.267257
0.149705
0.113588
0.152338
-0.00465585
0.153914
-0.13713
0.151215
-0.177065
0.145416
-0.243111
0.143253
-0.303101
0.143276
-0.174739
0.142644
-0.139817
0.140899
0.147931
0.242549
0.181045
-0.00162392
0.183121
-0.00724896
0.184391
-0.013557
0.184667
-0.0206805
0.183741
-0.0295695
0.181208
-0.0398411
0.176765
-0.0509147
0.170343
-0.0622373
0.162131
-0.0730094
0.152624
-0.0823546
0.142547
-0.0896291
0.132658
-0.0945546
0.123562
-0.0971739
0.115617
-0.0976904
0.10891
-0.0963222
0.103367
-0.0932381
0.0988876
-0.088436
0.0950189
-0.0817991
0.0904675
-0.0737437
0.0840828
-0.0655616
0.0772348
-0.0576969
0.0742897
-0.0472907
0.079193
-0.0290585
0.0920835
-0.000503789
0.109271
0.0347091
0.126849
0.0700983
0.142326
0.102477
0.155055
0.133854
0.165423
0.167224
0.17331
0.197739
0.177572
0.208432
0.177383
0.180448
0.173706
0.107286
0.168366
0.00770824
0.162368
-0.0835051
0.156213
-0.143454
0.149904
-0.172428
0.144067
-0.18064
0.138967
-0.178778
0.133402
-0.170814
0.125978
-0.160757
0.119316
-0.153705
0.118353
-0.127807
0.125847
-0.0873258
0.138766
-0.00517687
0.151222
0.0809048
0.159131
0.187706
0.160634
0.275805
0.15821
0.308913
0.153822
0.271645
0.151486
0.115925
0.153333
-0.00650302
0.154715
-0.138513
0.152035
-0.174385
0.145781
-0.236857
0.143348
-0.300668
0.143568
-0.174959
0.143041
-0.139291
0.141431
0.149541
0.24413
0.193098
-0.00216497
0.193067
-0.00721763
0.192054
-0.0125435
0.190173
-0.0188001
0.187187
-0.0265837
0.182731
-0.0353848
0.176644
-0.0448279
0.168962
-0.0545554
0.159937
-0.0639837
0.15006
-0.0724781
0.139972
-0.0795414
0.130301
-0.0848826
0.121524
-0.0883975
0.113922
-0.0900881
0.107582
-0.0899821
0.102449
-0.0881051
0.0984381
-0.0844253
0.0954406
-0.0788016
0.0928525
-0.0711556
0.0893454
-0.0620545
0.0843011
-0.0526527
0.0798692
-0.0428587
0.0802935
-0.0294828
0.0882772
-0.0084875
0.102406
0.0205799
0.119171
0.0533341
0.135456
0.086192
0.149917
0.119393
0.162418
0.154724
0.172388
0.187768
0.178211
0.202609
0.178705
0.179954
0.175021
0.11097
0.169134
0.0135959
0.162004
-0.0763758
0.154739
-0.136188
0.147683
-0.165371
0.141325
-0.174283
0.13613
-0.173583
0.131251
-0.165935
0.124727
-0.154233
0.118281
-0.147259
0.116701
-0.126227
0.123417
-0.0940414
0.13632
-0.01808
0.149615
0.0676101
0.159017
0.178305
0.162049
0.272772
0.16067
0.310293
0.156328
0.275987
0.153277
0.118976
0.154273
-0.0074987
0.155425
-0.139665
0.152822
-0.171782
0.14615
-0.230185
0.143416
-0.297934
0.143871
-0.175413
0.143483
-0.138904
0.142061
0.150964
0.245529
0.195078
-0.00174581
0.193665
-0.00580436
0.191256
-0.0101348
0.188095
-0.0156393
0.183902
-0.0223905
0.178451
-0.0299332
0.171695
-0.0380724
0.163712
-0.0465719
0.154753
-0.0550251
0.145251
-0.062976
0.135724
-0.0700143
0.126662
-0.0758203
0.118438
-0.0801741
0.111281
-0.0829305
0.105286
-0.083988
0.100462
-0.0832811
0.0967686
-0.0807315
0.0941974
-0.0762304
0.092638
-0.0695962
0.0913579
-0.0607744
0.0891079
-0.0504027
0.0858209
-0.0395717
0.0840692
-0.0277311
0.0875286
-0.0119469
0.0971725
0.010936
0.111385
0.0391218
0.127267
0.07031
0.142941
0.103718
0.157591
0.140074
0.169893
0.175466
0.177292
0.195211
0.178454
0.178792
0.175311
0.114113
0.168996
0.0199111
0.161156
-0.0685363
0.152878
-0.127911
0.145204
-0.157697
0.138441
-0.167519
0.133092
-0.168234
0.128809
-0.161653
0.123255
-0.148679
0.117128
-0.141132
0.114905
-0.124005
0.120662
-0.0997983
0.13336
-0.0307776
0.147396
0.053574
0.158386
0.167314
0.163082
0.268076
0.162835
0.31054
0.158674
0.280148
0.155051
0.122598
0.155145
-0.00759306
0.156037
-0.140556
0.153557
-0.169302
0.146527
-0.223156
0.143475
-0.294883
0.144187
-0.176125
0.143954
-0.13867
0.14278
0.152138
0.246698
0.187747
-0.000909687
0.18575
-0.00380715
0.183133
-0.00751755
0.179798
-0.012305
0.175464
-0.0180562
0.170102
-0.0245709
0.163721
-0.0316919
0.156396
-0.0392468
0.148344
-0.0469727
0.139905
-0.0545375
0.131476
-0.0615849
0.123428
-0.0677731
0.116057
-0.0728026
0.109556
-0.0764294
0.104026
-0.0784584
0.0995074
-0.0787622
0.0960053
-0.0772294
0.0935234
-0.0737485
0.0921326
-0.0682055
0.091731
-0.0603727
0.0914989
-0.0501707
0.0903898
-0.0384625
0.088892
-0.0262334
0.0894333
-0.0124882
0.09482
0.00554933
0.105116
0.0288261
0.118743
0.0566829
0.133985
0.088476
0.149702
0.124357
0.163877
0.161291
0.173111
0.185977
0.175998
0.175905
0.174196
0.115915
0.168642
0.0254653
0.159891
-0.0597856
0.150764
-0.118784
0.142681
-0.149614
0.135657
-0.160495
0.130082
-0.162659
0.126203
-0.157774
0.121607
-0.144083
0.115889
-0.135413
0.113014
-0.12113
0.11777
-0.104554
0.130008
-0.043016
0.14457
0.0390123
0.156985
0.154899
0.163435
0.261627
0.16451
0.309465
0.16075
0.283909
0.156746
0.126602
0.15592
-0.00676734
0.15653
-0.141166
0.154218
-0.16699
0.146904
-0.215842
0.14353
-0.291508
0.14451
-0.177105
0.144452
-0.138612
0.14358
0.15301
0.247589
0.210016
-0.000246311
-0.210679
0.210055
-0.0038466
0.210004
-0.00746596
0.209592
-0.0118937
0.208668
-0.0171315
0.207108
-0.0230109
0.204816
-0.0294001
0.201704
-0.0361349
0.197738
-0.0430064
0.192957
-0.0497567
0.187461
-0.0560892
0.181385
-0.0616974
0.174878
-0.0662955
0.168091
-0.0696424
0.161169
-0.0715363
0.154244
-0.0718376
0.147438
-0.0704224
0.140836
-0.0671465
0.13454
-0.0619096
0.128718
-0.0545506
0.123253
-0.0447061
0.117406
-0.0326158
0.110622
-0.0194491
0.104011
-0.0058768
0.0994707
0.0100893
0.0987268
0.02957
0.101846
0.0535634
0.107879
0.0824437
0.115909
0.116327
0.125261
0.151939
0.136636
0.174602
0.151964
0.160577
0.169034
0.0988453
0.180642
0.0138573
0.184626
-0.0637697
0.1817
-0.115858
0.174958
-0.142871
0.166479
-0.152017
0.157969
-0.154149
0.150561
-0.150366
0.142877
-0.136399
0.133981
-0.126518
0.126721
-0.113869
0.124788
-0.102621
0.128553
-0.0467803
0.133846
0.0337191
0.138051
0.150694
0.140599
0.259078
0.143296
0.306769
0.146875
0.280329
0.150647
0.12283
0.154344
-0.0104637
0.156143
-0.142965
0.153184
-0.16403
0.145399
-0.208058
0.139063
-0.285172
0.136604
-0.174647
0.133198
-0.135206
0.130641
0.155568
0.24825
0.219783
0.000110882
-0.220141
0.219408
-0.00347131
0.219149
-0.00720638
0.218587
-0.0113325
0.217501
-0.0160454
0.215808
-0.0213181
0.213434
-0.0270253
0.210312
-0.0330133
0.206413
-0.0391071
0.201754
-0.045098
0.196407
-0.050742
0.190486
-0.0557762
0.184134
-0.0599434
0.177509
-0.0630178
0.170771
-0.0647982
0.164063
-0.0651298
0.157515
-0.0638738
0.151231
-0.0608629
0.145283
-0.0559613
0.139794
-0.0490617
0.134883
-0.0397949
0.13022
-0.0279532
0.12502
-0.0142495
0.118988
0.00015511
0.113637
0.0154407
0.110773
0.0324344
0.111749
0.0525873
0.116685
0.0775069
0.124832
0.10818
0.135438
0.141333
0.149473
0.160566
0.16752
0.14253
0.185317
0.0810484
0.196579
0.00259561
0.198854
-0.0660444
0.19434
-0.111345
0.186377
-0.134909
0.177133
-0.142772
0.167999
-0.145016
0.160232
-0.142599
0.152644
-0.128811
0.143817
-0.117691
0.135976
-0.106027
0.133292
-0.0999381
0.136679
-0.0501667
0.142267
0.0281305
0.147195
0.145766
0.150739
0.255534
0.154621
0.302886
0.159124
0.275827
0.163134
0.11882
0.166422
-0.0137518
0.167655
-0.144198
0.164251
-0.160627
0.155428
-0.199234
0.148282
-0.278026
0.145544
-0.171909
0.14185
-0.131512
0.13916
0.158257
0.248819
0.228935
0.000181033
-0.229005
0.228609
-0.00314572
0.228171
-0.00676841
0.227455
-0.0106166
0.22628
-0.0148702
0.224537
-0.0195746
0.222162
-0.0246502
0.21911
-0.0299621
0.215359
-0.0353554
0.210916