/*--------------------------------*- C++ -*----------------------------------*\
| =========                 |                                                 |
| \\      /  F ield         | OpenFOAM: The Open Source CFD Toolbox           |
|  \\    /   O peration     | Version:  2512                                  |
|   \\  /    A nd           | Website:  www.openfoam.com                      |
|    \\/     M anipulation  |                                                 |
\*---------------------------------------------------------------------------*/
FoamFile
{
    version     2.0;
    format      ascii;
    arch        "LSB;label=32;scalar=64";
    class       surfaceScalarField;
    location    "34.5";
    object      phi;
}
// * * * * * * * * * * * * * * * * * * * * * * * * * * * * * * * * * * * * * //

dimensions      [0 3 -1 0 0 0 0];

oriented        oriented;

internalField   nonuniform List<scalar> 
26232
(
2.82122e-05
0.000952004
-0.000980216
0.000271585
0.00189101
-0.00213438
0.000873204
0.0020193
-0.00262092
0.00196981
0.00139432
-0.00249092
0.00369799
5.02285e-05
-0.00177841
0.00619637
-0.00199565
-0.000502725
0.00960094
-0.00473318
0.00132861
0.0140386
-0.00815353
0.00371585
0.0196158
-0.0122381
0.00666086
0.0264057
-0.0169504
0.0101606
0.034435
-0.0222305
0.0142012
0.0436745
-0.0279933
0.0187537
0.0540339
-0.0341306
0.0237712
0.0653626
-0.0405172
0.0291886
0.077457
-0.0470194
0.034925
0.0900731
-0.0535038
0.0408877
0.102944
-0.0598474
0.0469769
0.115796
-0.065946
0.0530932
0.128374
-0.0717173
0.0591398
0.140454
-0.0771203
0.0650396
0.15185
-0.0821082
0.0707125
0.162449
-0.0867645
0.0761659
0.172144
-0.0909427
0.0812477
-0.0950922
0.0866931
0.180543
7.20776e-05
0.000879926
0.000472265
0.00149082
0.00137011
0.00112145
0.0029279
-0.000163469
0.00530576
-0.00232763
0.00865674
-0.00534663
0.0131183
-0.00919478
0.0187966
-0.0138318
0.0257492
-0.0191907
0.0339702
-0.0251714
0.0433796
-0.03164
0.053822
-0.0384357
0.0650742
-0.0453828
0.0768619
-0.0523049
0.0888821
-0.0590396
0.10083
-0.0654517
0.112425
-0.0714418
0.123431
-0.0769526
0.133682
-0.0819684
0.143078
-0.0865164
0.151611
-0.0906413
0.159314
-0.0944672
0.166312
-0.0979403
-0.101554
0.172774
0.000132099
0.000747827
0.0007339
0.000889019
0.00200008
-0.000144721
0.00411522
-0.00227861
0.00725287
-0.00546527
0.0115633
-0.00965705
0.0171543
-0.0147858
0.0240693
-0.0207468
0.0322685
-0.0273899
0.0416195
-0.0345224
0.0519013
-0.0419218
0.0628214
-0.0493558
0.0740447
-0.0566061
0.0852278
-0.063488
0.0960546
-0.0698664
0.106267
-0.075664
0.115687
-0.0808617
0.124228
-0.0854935
0.131894
-0.0896343
0.138765
-0.0933874
0.144984
-0.0968611
0.150702
-0.100185
0.156134
-0.103372
-0.106785
0.161364
0.000210289
0.000537538
0.00106121
3.81004e-05
0.00276693
-0.00185045
0.00552388
-0.00503556
0.00949973
-0.00944113
0.0148098
-0.0149671
0.021489
-0.021465
0.029469
-0.0287268
0.0385695
-0.0364904
0.0485086
-0.0444615
0.058932
-0.0523452
0.0694563
-0.0598801
0.0797156
-0.0668654
0.0894043
-0.0731766
0.0983079
-0.07877
0.106319
-0.0836747
0.113434
-0.0879769
0.119739
-0.0917989
0.125381
-0.0952766
0.130536
-0.0985418
0.135378
-0.101703
0.140052
-0.104859
0.144698
-0.108018
-0.111413
0.149325
0.000307296
0.000230242
0.00145266
-0.00110727
0.00365837
-0.00405615
0.00711346
-0.00849065
0.0119485
-0.0142762
0.0182007
-0.0212193
0.0257842
-0.0290484
0.0344797
-0.0374224
0.0439522
-0.045963
0.0537936
-0.0543028
0.0635811
-0.0621326
0.0729366
-0.0692357
0.0815748
-0.0755035
0.0893297
-0.0809315
0.0961593
-0.0855996
0.102128
-0.0896436
0.107376
-0.0932247
0.112079
-0.096502
0.116416
-0.0996138
0.120542
-0.102667
0.124575
-0.105737
0.128591
-0.108875
0.132653
-0.112079
-0.115502
0.136742
0.000422373
-0.000192131
0.00190022
-0.00258511
0.00464516
-0.00680109
0.00880969
-0.0126552
0.0144461
-0.0199126
0.0214668
-0.02824
0.0296283
-0.0372099
0.0385523
-0.0463464
0.0477827
-0.0551933
0.0568605
-0.0633807
0.0653968
-0.0706689
0.0731242
-0.0769631
0.0799179
-0.0822973
0.085787
-0.0868007
0.0908424
-0.090655
0.0952533
-0.0940545
0.0992048
-0.0971761
0.102865
-0.100162
0.106367
-0.103116
0.109806
-0.106106
0.113241
-0.109172
0.116704
-0.112338
0.120227
-0.115603
-0.119048
0.123774
0.00055309
-0.00074522
0.00238839
-0.00442041
0.00567997
-0.0100927
0.010506
-0.0174812
0.0167957
-0.0262024
0.0243006
-0.0357449
0.0326128
-0.045522
0.0412325
-0.0549661
0.0496619
-0.0636227
0.0574929
-0.0712117
0.0644641
-0.0776402
0.0704767
-0.0829756
0.075573
-0.0873936
0.0798921
-0.0911197
0.0836178
-0.0943808
0.0869352
-0.0973719
0.0900013
-0.100242
0.092934
-0.103095
0.0958123
-0.105995
0.0986853
-0.108979
0.101581
-0.112068
0.104513
-0.11527
0.107495
-0.118585
-0.12205
0.110497
0.000695021
-0.00144024
0.00289368
-0.00661907
0.00669864
-0.0138976
0.0120719
-0.0228545
0.0187829
-0.0329134
0.0264125
-0.0433744
0.0344232
-0.0535327
0.0422713
-0.0628143
0.0495143
-0.0708657
0.0558774
-0.0775748
0.0612679
-0.0830306
0.0657439
-0.0874517
0.0694597
-0.0911093
0.0726068
-0.0942669
0.0753694
-0.0971433
0.0778975
-0.0999
0.0802995
-0.102644
0.0826464
-0.105442
0.0849807
-0.108329
0.0873265
-0.111325
0.0896962
-0.114437
0.0920951
-0.117669
0.0945281
-0.121018
-0.124493
0.0969712
0.000841375
-0.00228162
0.00338524
-0.00916294
0.00762517
-0.0181376
0.0133698
-0.0285991
0.0202126
-0.0397563
0.0275902
-0.050752
0.0349065
-0.060849
0.0416644
-0.0695721
0.047551
-0.0767524
0.0524567
-0.0824805
0.0564387
-0.0870125
0.0596563
-0.0906693
0.0623064
-0.0937594
0.0645744
-0.0965348
0.0666082
-0.0991771
0.0685125
-0.101804
0.0703539
-0.104486
0.0721715
-0.107259
0.073987
-0.110144
0.0758118
-0.113149
0.077651
-0.116277
0.0795066
-0.119524
0.081379
-0.12289
-0.126367
0.0832523
0.000983169
-0.00326479
0.00382728
-0.0120071
0.00838103
-0.0226913
0.0142765
-0.0344946
0.0209452
-0.0464249
0.0277385
-0.0575453
0.0340848
-0.0671954
0.0396046
-0.0750919
0.0441444
-0.0812921
0.0477411
-0.0860772
0.0505501
-0.0898216
0.0527717
-0.0928909
0.0545955
-0.0955832
0.0561725
-0.0981118
0.0576081
-0.100613
0.0589682
-0.103164
0.060291
-0.105808
0.0615969
-0.108565
0.062897
-0.111444
0.0641968
-0.114449
0.0654985
-0.117578
0.0668024
-0.120828
0.0681065
-0.124194
-0.127662
0.0694014
0.00111049
-0.00437527
0.00418441
-0.015081
0.00889787
-0.0274048
0.0147054
-0.0403021
0.0209195
-0.052639
0.0268813
-0.0635071
0.0321143
-0.0724283
0.0363892
-0.0793668
0.0396989
-0.0846018
0.042182
-0.0885604
0.0440387
-0.0916783
0.0454655
-0.0943177
0.046621
-0.0967387
0.0476159
-0.0991067
0.0485189
-0.101516
0.0493692
-0.104015
0.0501877
-0.106627
0.0509854
-0.109363
0.051768
-0.112227
0.0525385
-0.11522
0.0532979
-0.118338
0.0540454
-0.121576
0.0547773
-0.124926
-0.128373
0.0554884
0.00121629
-0.00559157
0.00442951
-0.0182942
0.00912941
-0.0321047
0.0146179
-0.0457906
0.0201527
-0.0581738
0.0251354
-0.0684898
0.0292247
-0.0765176
0.0323376
-0.0824797
0.0345761
-0.0868404
0.0361325
-0.0901167
0.0372105
-0.0927563
0.0379801
-0.0950874
0.0385622
-0.0973208
0.0390323
-0.0995767
0.0394329
-0.101916
0.0397863
-0.104368
0.040104
-0.106945
0.0403919
-0.109651
0.0406538
-0.112489
0.0408913
-0.115457
0.0411053
-0.118552
0.0412946
-0.121765
0.0414555
-0.125087
0.0415867
-0.128504
-0.000207177
-1.72527e-05
0.00022443
-0.000723082
-1.52065e-06
0.000517425
-0.00148139
5.82224e-05
0.000700081
-0.00243144
0.000152572
0.000797484
-0.00353385
0.000271256
0.000831156
-0.0047583
0.000405623
0.000818821
-0.00608175
0.000549584
0.000773866
-0.00748685
0.000699913
0.000705191
-0.00896049
0.000856105
0.000617531
-0.0104925
0.00101989
0.000512121
-0.0120746
0.00119455
0.000387552
-0.0136994
0.00138424
0.000240505
-0.0153596
0.00159335
6.6862e-05
-0.0170482
0.00182615
-0.000137491
-0.0187572
0.00208686
-0.000377878
-0.0204783
0.00237932
-0.000658259
-0.0222033
0.00270732
-0.000982318
-0.0239252
0.0030749
-0.00135296
-0.02564
0.0034868
-0.00177204
-0.0273486
0.00394899
-0.00224037
-0.0290596
0.00446875
-0.00275768
-0.0307921
0.00505516
-0.00332272
-0.0325813
0.00572357
-0.00393434
0.00649604
-0.0344858
-0.00459156
-0.000199702
0.000182449
-0.000697071
0.000495848
-0.00142673
0.000787878
-0.00233803
0.00106387
-0.00339115
0.00132438
-0.00455507
0.00156954
-0.00580577
0.00180029
-0.00712465
0.00201879
-0.00849702
0.00222847
-0.00991084
0.00243371
-0.0113556
0.00263933
-0.0128215
0.00285012
-0.0142986
0.00307044
-0.0157765
0.00330403
-0.0172437
0.00355409
-0.0186878
0.00382347
-0.0200957
0.00411515
-0.0214537
0.00443297
-0.0227496
0.00478269
-0.023974
0.00517339
-0.0251239
0.00561858
-0.0262055
0.00613681
-0.0272405
0.0067586
0.00754118
-0.0282857
-0.000182337
0.000364786
-0.000637617
0.000951128
-0.00130445
0.00145471
-0.00213367
0.00189309
-0.00308559
0.00227631
-0.00412845
0.00261239
-0.00523676
0.0029086
-0.00638986
0.0031719
-0.00757052
0.00340913
-0.00876369
0.00362688
-0.00995551
0.00383115
-0.0111324
0.00402702
-0.0122804
0.00421845
-0.0133846
0.0044082
-0.0144285
0.00459797
-0.0153937
0.0047887
-0.0162597
0.00498114
-0.0170034
0.0051767
-0.0175996
0.00537883
-0.0180215
0.00559534
-0.0182446
0.00584166
-0.0182517
0.00614386
-0.0180384
0.0065453
0.00713259
-0.0176298
-0.000157961
0.000522748
-0.00055373
0.0013469
-0.00113149
0.00203248
-0.0018443
0.00260589
-0.00265284
0.00308485
-0.00352436
0.00348392
-0.00443144
0.00381567
-0.00535062
0.00409108
-0.00626124
0.00431975
-0.00714425
0.00450988
-0.00798128
0.00466818
-0.00875388
0.00479962
-0.00944281
0.00490738
-0.0100275
0.00499292
-0.0104856
0.00505603
-0.0107921
0.00509519
-0.0109189
0.00510796
-0.0108338
0.00509165
-0.0104995
0.00504451
-0.00987219
0.00496802
-0.00890209
0.00487156
-0.00753801
0.00477978
-0.00574115
0.00474844
0.00493414
-0.0035427
-0.000130158
0.000652905
-0.000456476
0.00167322
-0.000928631
0.00250463
-0.00150171
0.00317897
-0.00213645
0.00371959
-0.00279868
0.00414615
-0.00345839
0.00447538
-0.0040886
0.0047213
-0.00466427
0.00489542
-0.00516123
0.00500684
-0.00555533
0.00506228
-0.00582172
0.00506601
-0.0059343
0.00501996
-0.00586518
0.0049238
-0.00558427
0.00477512
-0.00505876
0.00456968
-0.00425248
0.00430167
-0.00312489
0.00396407
-0.00162958
0.00354921
0.000288347
0.00305009
0.00269569
0.00246422
0.0056717
0.00180376
0.00930769
0.00111245
0.000545756
0.0136961
-0.000102538
0.000755443
-0.000356991
0.00192767
-0.000716725
0.00286436
-0.00113768
0.00359993
-0.00157971
0.00416161
-0.00200638
0.00457282
-0.0023842
0.00485321
-0.00268163
0.00501872
-0.00286796
0.00508175
-0.00291239
0.00505127
-0.00278313
0.00493302
-0.00244674
0.00472962
-0.00186761
0.00444083
-0.00100754
0.00406372
0.000174541
0.00359304
0.0017228
0.00302142
0.00368476
0.00233971
0.00611156
0.00153727
0.00905858
0.000602186
0.0125869
-0.000478257
0.0167674
-0.00171627
0.0216889
-0.00311774
0.02744
-0.00463863
-0.00634307
0.0343288
-7.80468e-05
0.00083349
-0.000264246
0.00211387
-0.000512365
0.00311248
-0.000777068
0.00386463
-0.0010157
0.00440024
-0.00118811
0.00474523
-0.00125584
0.00492093
-0.00118102
0.00494391
-0.000925316
0.00482604
-0.000448832
0.00457479
0.000290705
0.00419348
0.00133862
0.0036817
0.00274375
0.0030357
0.00455866
0.00224882
0.00683965
0.00131205
0.00964657
0.000214501
0.0130423
-0.001056
0.017092
-0.0025124
0.021862
-0.00416789
0.0274191
-0.00603535
0.0338267
-0.0081239
0.0411779
-0.0104689
0.0494525
-0.0129132
-0.0161126
0.059222
-5.83176e-05
0.000891807
-0.000182939
0.00223849
-0.00032369
0.00325323
-0.000430992
0.00397193
-0.000457234
0.00442649
-0.000356206
0.0046442
-8.19501e-05
0.00464668
0.000412527
0.00444943
0.00117653
0.00406204
0.00226269
0.00348863
0.00372777
0.0027284
0.00563311
0.00177637
0.00804464
0.000624167
0.0110326
-0.000739098
0.0146705
-0.00232587
0.0190341
-0.00414915
0.0241996
-0.00622146
0.030241
-0.00855376
0.0372275
-0.0111544
0.0452227
-0.0140305
0.0542641
-0.0171653
0.0644463
-0.0206512
0.0755772
-0.0240441
-0.0289292
0.0883939
-4.32095e-05
0.000935017
-0.000111972
0.00230725
-0.000147272
0.00328853
-9.15759e-05
0.00391624
0.000110974
0.00422394
0.000516189
0.00423898
0.00118135
0.00398152
0.0021668
0.00346399
0.0035372
0.00269164
0.00536239
0.00166344
0.00771752
0.000373265
0.0106826
-0.00118874
0.0143414
-0.00303458
0.0187791
-0.00517681
0.0240801
-0.00762686
0.0303243
-0.0103934
0.0375839
-0.013481
0.0459189
-0.0168887
0.0553729
-0.0206084
0.065973
-0.0246307
0.0777048
-0.028897
0.0906093
-0.0335557
0.104405
-0.0378397
-0.0441889
0.119665
-3.06762e-05
0.000965693
-4.39256e-05
0.0023205
3.30319e-05
0.00321158
0.000269625
0.00367964
0.000734662
0.0037589
0.00149804
0.00347561
0.00263313
0.00284642
0.0042184
0.00187873
0.00633805
0.00057198
0.00908174
-0.00108024
0.012543
-0.00308797
0.0168164
-0.00546221
0.0219942
-0.0082123
0.0281608
-0.0113434
0.0353882
-0.0148543
0.0437305
-0.0187357
0.053219
-0.0229695
0.0638583
-0.0275281
0.075624
-0.0323741
0.0884603
-0.0374669
0.102281
-0.0427179
0.116977
-0.0482518
0.132367
-0.0532296
-0.0602418
0.14842
-1.71018e-05
0.000982795
3.38509e-05
0.00226955
0.000243585
0.00300184
0.000698613
0.00322462
0.00148491
0.0029726
0.00269149
0.00226903
0.00441235
0.00112556
0.00674702
-0.000455945
0.0097996
-0.0024806
0.0136753
-0.00495595
0.0184758
-0.00788847
0.0242928
-0.0112792
0.0312006
-0.0151201
0.039249
-0.0193919
0.048457
-0.0240622
0.0588073
-0.029086
0.0702444
-0.0344066
0.0826744
-0.0399581
0.0959685
-0.0456682
0.109966
-0.0514648
0.124506
-0.0572576
0.139334
-0.0630793
0.154478
-0.068374
-0.0748882
0.169124
2.57857e-06
0.000137748
0.000518671
0.00125236
0.00244655
0.00421286
0.00666703
0.00992693
0.0141072
0.0193118
0.0256246
0.0330992
0.0417502
0.0515469
0.0624097
0.0742113
0.0867817
0.0999168
0.113388
0.126963
0.140418
0.153505
0.166378
0.178183
-0.0355461
0.00833676
-0.00727644
-0.0366144
0.00966379
-0.0085955
-0.0376679
0.0110282
-0.00997472
-0.0387142
0.0124147
-0.0113684
-0.0397552
0.0137646
-0.0127236
-0.0407885
0.015005
-0.0139717
-0.0418073
0.0160472
-0.0150285
-0.0428004
0.0167873
-0.0157941
-0.0437509
0.0171043
-0.0161538
-0.0446359
0.016865
-0.01598
-0.0454268
0.0159286
-0.0151377
-0.0460902
0.0141546
-0.0134912
-0.0465888
0.011413
-0.0109145
-0.0468804
0.00759258
-0.00730091
-0.0469234
0.00259739
-0.00255443
-0.0466849
-0.00337841
0.00313995
-0.046146
-0.0103792
0.0098403
-0.0452719
-0.0181731
0.017299
-0.0440276
-0.0264138
0.0251694
-0.0423694
-0.0346445
0.0329864
-0.0402311
-0.0422998
0.0401615
-0.0375009
-0.0487334
0.0460032
-0.0339992
-0.0532579
0.0497563
-0.029486
-0.055177
0.0506638
-0.0237042
-0.0538778
0.0480959
-0.0164381
-0.0490807
0.0418146
-0.00756428
-0.0408395
0.0319657
0.00281547
-0.0295743
0.0191945
0.0142814
-0.0164425
0.00497663
0.0263084
-0.0028165
-0.00921056
0.0383251
0.00986353
-0.0218802
0.0497475
0.0204138
-0.0318362
0.0602344
0.02784
-0.038327
0.0697044
0.0318832
-0.0413532
0.0782833
0.0325028
-0.0410817
0.0862119
0.0302471
-0.0381758
0.0937366
0.0254668
-0.0329915
0.101
0.0191273
-0.0263903
0.108019
0.0116826
-0.0187022
0.114697
0.00430257
-0.01098
0.120887
-0.00274551
-0.00344526
0.126468
-0.00840352
0.00282331
0.131377
-0.0129326
0.00802365
0.135638
-0.0154751
0.0112132
0.139349
-0.0168163
0.0131058
0.142643
-0.0161004
0.0128066
0.145666
-0.0145391
0.011516
0.14852
-0.0111212
0.00826672
0.151271
-0.00751286
0.00476229
0.153891
-0.00252085
-9.90359e-05
0.156367
0.0017097
-0.00418534
0.158607
0.00664897
-0.0088892
0.160646
0.00993024
-0.0119698
0.162372
0.0135993
-0.0153251
0.16393
0.0152973
-0.0168551
0.165162
0.0174338
-0.0186658
0.166367
0.0178156
-0.0190213
0.16732
0.0188993
-0.0198516
0.168385
0.0189108
-0.0199762
0.0198293
-0.0207148
-0.0289357
0.00898682
-0.0295934
0.0103215
-0.0302137
0.0116484
-0.0308013
0.0130023
-0.0313565
0.0143198
-0.031875
0.0155236
-0.0323468
0.016519
-0.032763
0.0172034
-0.0331089
0.0174502
-0.0333669
0.017123
-0.0335168
0.0160784
-0.0335369
0.0141747
-0.0334075
0.0112837
-0.0331106
0.00729567
-0.0326178
0.00210455
-0.0319221
-0.00407412
-0.0310155
-0.0112858
-0.0299046
-0.019284
-0.0285972
-0.0277212
-0.0271013
-0.0361405
-0.0254144
-0.0439866
-0.0235046
-0.0506432
-0.0212676
-0.0554949
-0.0184916
-0.0579531
-0.0149207
-0.0574486
-0.0101861
-0.0538154
-0.00400193
-0.0470236
0.0038519
-0.0374281
0.0131988
-0.0257894
0.0235584
-0.0131761
0.0345148
-0.00109283
0.0454921
0.00943657
0.0561404
0.0171917
0.0663112
0.0217124
0.0759976
0.0228164
0.0852709
0.0209738
0.0941878
0.01655
0.102712
0.0106031
0.110733
0.00366171
0.118087
-0.00305124
0.124619
-0.0092782
0.130242
-0.014026
0.134947
-0.0176378
0.138815
-0.0193428
0.141993
-0.0199949
0.144667
-0.0187743
0.147034
-0.0169057
0.149248
-0.0133359
0.151427
-0.00969166
0.153583
-0.00467636
0.155721
-0.000428539
0.157752
0.0046177
0.159699
0.00798308
0.161418
0.0118808
0.163035
0.0136805
0.164353
0.0161156
0.165672
0.0164961
0.166733
0.0178388
0.167921
0.0177231
0.0188347
-0.0177501
0.00910716
-0.0178599
0.0104313
-0.0179208
0.0117094
-0.0179209
0.0130024
-0.0178617
0.0142605
-0.0177415
0.0154034
-0.0175417
0.0163192
-0.0172662
0.0169279
-0.0169041
0.0170881
-0.0164454
0.0166644
-0.0158798
0.0155128
-0.0151962
0.0134912
-0.0143838
0.0104712
-0.0134405
0.00635235
-0.012385
0.00104907
-0.0111711
-0.00528799
-0.00981854
-0.0126383
-0.00834907
-0.0207535
-0.00679135
-0.0292789
-0.00518628
-0.0377456
-0.0035772
-0.0455957
-0.00198938
-0.0522311
-0.000434167
-0.0570501
0.0011613
-0.0595486
0.00319458
-0.0594819
0.00597317
-0.056594
0.00986332
-0.0509138
0.0151699
-0.0427347
0.0219848
-0.0326043
0.0301928
-0.0213841
0.0394317
-0.0103318
0.0494582
-0.000589917
0.0597048
0.00694515
0.0700141
0.0114031
0.0802061
0.0126244
0.0901617
0.0110181
0.099751
0.00696064
0.108785
0.00156871
0.117088
-0.00464096
0.12446
-0.0104234
0.130786
-0.0156042
0.136028
-0.0192682
0.140232
-0.0218417
0.143517
-0.0226273
0.146055
-0.0225332
0.148048
-0.0207677
0.149713
-0.0185703
0.151232
-0.0148552
0.15276
-0.0112194
0.154346
-0.00626203
0.156029
-0.00211222
0.157724
0.00292336
0.159456
0.00625043
0.16106
0.010277
0.162642
0.0120986
0.163974
0.0147836
0.165343
0.0151275
0.166465
0.0167162
0.167728
0.0164608
0.0177616
-0.00300007
0.00856453
-0.00257658
0.0100078
-0.00208113
0.0112139
-0.0014726
0.0123939
-0.00076215
0.0135501
3.83223e-05
0.014603
0.000894889
0.0154626
0.0018406
0.0159822
0.00287239
0.0160563
0.00398857
0.0155482
0.00518825
0.0143131
0.00647132
0.0122081
0.00783846
0.00910409
0.00929089
0.00489993
0.0108039
-0.000463929
0.0124197
-0.00690381
0.0141204
-0.014339
0.0158966
-0.0225297
0.017729
-0.0311113
0.0195838
-0.0396004
0.0214091
-0.047421
0.0231307
-0.0539527
0.0246841
-0.0586035
0.0260871
-0.0609515
0.0274332
-0.060828
0.0290221
-0.0581829
0.0312411
-0.0531327
0.0344804
-0.0459741
0.0390518
-0.0371757
0.0450855
-0.0274177
0.0524607
-0.017707
0.0609149
-0.00904411
0.0702417
-0.00238162
0.0799872
0.00165759
0.089884
0.00272757
0.0996602
0.00124202
0.109045
-0.00242382
0.117781
-0.0071674
0.125619
-0.0124789
0.132407
-0.0172113
0.138068
-0.0212656
0.142618
-0.0238184
0.146141
-0.0253644
0.148773
-0.0252592
0.150684
-0.0244448
0.152063
-0.0221463
0.153112
-0.019619
0.154013
-0.0157561
0.154936
-0.0121429
0.15596
-0.00728561
0.157157
-0.00330961
0.158456
0.00162432
0.159898
0.00480899
0.161307
0.00886756
0.162775
0.010631
0.164054
0.0135043
0.165407
0.0137744
0.166544
0.0155794
0.167829
0.0151754
0.0166444
0.0145401
0.00772055
0.0153472
0.00920062
0.0162364
0.0103247
0.0172703
0.0113599
0.0184266
0.0123939
0.0196839
0.0133456
0.021053
0.0140936
0.0225189
0.0145163
0.024075
0.0145002
0.0257104
0.0139128
0.027414
0.0126095
0.0291755
0.0104466
0.030988
0.00729159
0.032836
0.00305192
0.0347281
-0.00235604
0.0366612
-0.00883687
0.0386344
-0.0163123
0.0406457
-0.0245409
0.0426836
-0.0331493
0.0447188
-0.0416356
0.0466975
-0.0493997
0.0485484
-0.0558036
0.0502084
-0.0602635
0.0516442
-0.0623873
0.0528838
-0.0620676
0.054089
-0.059388
0.055545
-0.0545888
0.0576075
-0.0480365
0.0606484
-0.0402166
0.0649449
-0.0317142
0.0705899
-0.0233521
0.0774714
-0.0159255
0.0853697
-0.0102799
0.0939465
-0.00691923
0.102833
-0.00615878
0.111671
-0.00759613
0.12011
-0.0108628
0.127858
-0.0149154
0.134682
-0.0193028
0.140465
-0.0229943
0.145178
-0.0259782
0.148875
-0.0275157
0.151661
-0.0281501
0.15367
-0.0272687
0.155053
-0.0258278
0.155963
-0.0230559
0.156566
-0.0202222
0.157018
-0.0162084
0.157484
-0.0126083
0.158052
-0.00785445
0.158823
-0.00408019
0.159747
0.000700717
0.160881
0.00367419
0.162062
0.00768661
0.163368
0.00932565
0.164549
0.0123226
0.165837
0.0124865
0.16695
0.0144664
0.168215
0.0139106
0.015513
0.0350685
0.00698092
0.0358625
0.00840662
0.0368073
0.0093799
0.0379699
0.0101973
0.0393137
0.0110501
0.0408085
0.0118508
0.0424477
0.0124544
0.0442174
0.0127466
0.0460977
0.0126198
0.0480668
0.0119438
0.0501017
0.0105745
0.0521786
0.00836975
0.0542842
0.00518597
0.056382
0.000954158
0.0584986
-0.00447264
0.0605912
-0.0109295
0.0626644
-0.0183854
0.064713
-0.0265895
0.0667272
-0.0351634
0.0686854
-0.0435938
0.070554
-0.0512682
0.0722948
-0.0575444
0.0738749
-0.0618436
0.0752654
-0.0637778
0.0764801
-0.0632823
0.077613
-0.0605209
0.0788486
-0.0558243
0.0804438
-0.0496318
0.0827049
-0.0424777
0.0859099
-0.0349192
0.0902227
-0.0276649
0.0956483
-0.0213511
0.102049
-0.0166811
0.109147
-0.0140164
0.116585
-0.0135976
0.123993
-0.0150042
0.131017
-0.0178867
0.137383
-0.0212808
0.142897
-0.0248167
0.147484
-0.0275819
0.151153
-0.0296475
0.153981
-0.0303437
0.156076
-0.0302443
0.157557
-0.0287502
0.158546
-0.0268171
0.159156
-0.0236654
0.159507
-0.0205733
0.159714
-0.0164156
0.159916
-0.0128102
0.160199
-0.00813702
0.16067
-0.00455187
0.161306
6.51944e-05
0.162179
0.00280064
0.163149
0.00671722
0.164286
0.00818894
0.165356
0.0112517
0.166555
0.0112879
0.167625
0.0133965
0.168842
0.0126931
0.0143862
0.0592874
0.00691553
0.0595554
0.0081386
0.0600828
0.00885247
0.0609252
0.00935502
0.0620254
0.00994983
0.0633546
0.0105215
0.0649025
0.0109065
0.0666442
0.0110049
0.0685465
0.0107175
0.0705762
0.00991409
0.0726966
0.00845414
0.0748632
0.00620321
0.0770173
0.00303187
0.0792493
-0.00127789
0.0813543
-0.00657766
0.0834
-0.0129752
0.0853536
-0.020339
0.0872018
-0.0284377
0.0889334
-0.036895
0.0905366
-0.0451971
0.092001
-0.0527326
0.0933231
-0.0588665
0.0945125
-0.063033
0.0955889
-0.0648541
0.0966003
-0.0642938
0.0976297
-0.0615503
0.0987949
-0.0569896
0.10025
-0.0510864
0.102184
-0.0444123
0.104791
-0.037526
0.10821
-0.0310837
0.112483
-0.0256239
0.11753
-0.0217285
0.123142
-0.0196288
0.129021
-0.0194766
0.134842
-0.0208248
0.140303
-0.0233479
0.145186
-0.026163
0.149349
-0.0289805
0.15276
-0.0309922
0.15545
-0.0323376
0.157503
-0.032397
0.159019
-0.0317601
0.160097
-0.0298283
0.160829
-0.0275495
0.161291
-0.0241269
0.16156
-0.0208428
0.161708
-0.0165635
0.161838
-0.0129399
0.162017
-0.00831624
0.162349
-0.00488333
0.162826
-0.000411609
0.163529
0.0020977
0.164347
0.00589829
0.16535
0.00718687
0.16633
0.0102711
0.167445
0.0101729
0.168476
0.0123653
0.169643
0.0115267
0.0132661
0.0873616
0.00794776
0.0866738
0.0088265
0.0863608
0.0091654
0.0864305
0.00928539
0.086825
0.00955523
0.0875397
0.00980685
0.088562
0.00988425
0.0898543
0.00971258
0.0913764
0.00919544
0.0930873
0.00820318
0.0949362
0.0066052
0.0968773
0.00426213
0.0988153
0.00109385
0.10078
-0.00324249
0.102646
-0.00844328
0.10439
-0.0147198
0.105976
-0.0219248
0.107376
-0.0298375
0.108571
-0.0380899
0.109553
-0.046179
0.11033
-0.0535103
0.110937
-0.0594734
0.111439
-0.0635347
0.111926
-0.0653416
0.112495
-0.064862
0.113237
-0.062293
0.114241
-0.0579931
0.115588
-0.0524331
0.117364
-0.0461891
0.119655
-0.0398166
0.122521
-0.0339495
0.125972
-0.0290754
0.129942
-0.0256986
0.134273
-0.023959
0.138736
-0.02394
0.143086
-0.0251752
0.147102
-0.0273636
0.150634
-0.0296952
0.153602
-0.0319482
0.156003
-0.033393
0.157884
-0.0342189
0.159325
-0.033838
0.16041
-0.0328455
0.161217
-0.0306354
0.161814
-0.0281462
0.162246
-0.0245592
0.16256
-0.0211569
0.162789
-0.0167922
0.163
-0.013151
0.163236
-0.0085518
0.16358
-0.00522772
0.164039
-0.000870326
0.164684
0.00145279
0.165442
0.00514052
0.166374
0.00625454
0.167313
0.00933179
0.168379
0.00910708
0.169399
0.011345
0.170535
0.010391
0.0121367
0.117499
0.0101137
0.115768
0.010557
0.114452
0.0104819
0.113498
0.0102389
0.11291
0.0101433
0.112711
0.0100063
0.112875
0.00971937
0.113364
0.00922362
0.114142
0.00841729
0.115167
0.00717899
0.116378
0.0053938
0.117702
0.00293861
0.119147
-0.000351366
0.120505
-0.00460101
0.121807
-0.00974486
0.122953
-0.0158658
0.123889
-0.0228606
0.124569
-0.0305175
0.124964
-0.0384855
0.125071
-0.0462857
0.124919
-0.0533579
0.124581
-0.0591356
0.124178
-0.0631314
0.123871
-0.0650352
0.123812
-0.0648032
0.12411
-0.0625909
0.124832
-0.0587154
0.126012
-0.0536128
0.127658
-0.047835
0.129759
-0.0419177
0.132288
-0.0364786
0.135194
-0.0319814
0.138389
-0.0288937
0.14174
-0.0273099
0.145082
-0.0272812
0.148247
-0.0283406
0.151098
-0.0302145
0.153555
-0.0321527
0.155592
-0.0339851
0.157231
-0.0350314
0.158524
-0.035512
0.159541
-0.0348553
0.160352
-0.0336562
0.161013
-0.0312968
0.161575
-0.0287081
0.162064
-0.0250482
0.162505
-0.0215982
0.162905
-0.0171919
0.163301
-0.0135472
0.163711
-0.00896107
0.164194
-0.00571084
0.164756
-0.00143285
0.165457
0.000751812
0.166253
0.0043452
0.167197
0.00531043
0.168162
0.00836617
0.169234
0.0080352
0.17029
0.0102894
0.171436
0.00924516
0.0109655
0.145542
0.0129913
0.14311
0.0129899
0.140982
0.0126096
0.139125
0.0120957
0.137638
0.0116307
0.13654
0.0111044
0.135796
0.0104629
0.135382
0.00963776
0.135273
0.00852635
0.135426
0.00702575
0.135789
0.00503105
0.136319
0.00240799
0.13691
-0.000942039
0.137458
-0.00514907
0.137927
-0.0102134
0.138221
-0.0161603
0.138262
-0.0229018
0.137991
-0.0302457
0.137373
-0.0378684
0.136418
-0.0453298
0.135181
-0.0521212
0.133782
-0.0577363
0.132392
-0.0617422
0.131234
-0.0638768
0.130498
-0.0640669
0.130302
-0.0623953
0.130698
-0.0591109
0.131679
-0.0545943
0.133198
-0.0493542
0.135174
-0.043893
0.137504
-0.0388095
0.140078
-0.0345548
0.142773
-0.0315893
0.145463
-0.0299996
0.148024
-0.0298424
0.150355
-0.0306714
0.152387
-0.0322465
0.154098
-0.0338631
0.155503
-0.0353908
0.156644
-0.0361718
0.157573
-0.0364416
0.15835
-0.0356322
0.159031
-0.034337
0.159657
-0.0319229
0.160266
-0.0293174
0.160874
-0.0256554
0.161493
-0.0222175
0.162114
-0.0178133
0.162755
-0.0141881
0.163411
-0.00961737
0.164121
-0.00642042
0.164881
-0.00219255
0.165735
-0.000102413
0.16666
0.00342004
0.1677
0.00427054
0.168766
0.00730013
0.169911
0.00689016
0.17106
0.0091406
0.172272
0.00803339
0.00970689
0.166314
0.0158021
0.163792
0.0155116
0.16139
0.0150112
0.159168
0.014318
0.15724
0.0135584
0.15561
0.0127343
0.154262
0.0118113
0.153189
0.0107112
0.152372
0.00934341
0.151776
0.00762176
0.151352
0.0054542
0.151028
0.00273219
0.150759
-0.000673211
0.150444
-0.00483367
0.149987
-0.00975687
0.149311
-0.0154836
0.148331
-0.0219223
0.146993
-0.0289072
0.145274
-0.0361496
0.143207
-0.0432629
0.140888
-0.0498023
0.138478
-0.0553258
0.136187
-0.0594514
0.134258
-0.0619477
0.132914
-0.0627234
0.132271
-0.0617521
0.132361
-0.0592007
0.133152
-0.0553858
0.13456
-0.0507617
0.136455
-0.0457881
0.138686
-0.0410403
0.141091
-0.0369601
0.143518
-0.0340167
0.145834
-0.0323156
0.14794
-0.031948
0.149776
-0.0325069
0.151323
-0.033794
0.1526
-0.0351398
0.15365
-0.0364415
0.154529
-0.0370501
0.15529
-0.0372028
0.155983
-0.0363253
0.156655
-0.0350094
0.157337
-0.032605
0.15806
-0.0300395
0.15883
-0.0264261
0.159659
-0.0230462
0.160528
-0.0186824
0.161443
-0.0151027
0.162385
-0.0105595
0.163373
-0.00740896
0.164391
-0.00321027
0.165478
-0.00118911
0.166605
0.00229257
0.167817
0.00305891
0.169054
0.00606282
0.170342
0.00560251
0.171646
0.00783654
0.172987
0.00669248
0.00830742
0.176346
0.0176393
0.17441
0.0174477
0.172522
0.0168993
0.170671
0.0161688
0.168915
0.0153149
0.167298
0.0143512
0.165841
0.0132682
0.164541
0.0120111
0.163382
0.0105024
0.162329
0.00867475
0.161337
0.00644576
0.160382
0.00368748
0.159491
0.000217687
0.158375
-0.00371703
0.15708
-0.00846256
0.155509
-0.0139125
0.153606
-0.0200195
0.151338
-0.0266385
0.148717
-0.0335285
0.145816
-0.0403621
0.142769
-0.0467558
0.139759
-0.0523159
0.136993
-0.0566852
0.13465
-0.0596049
0.132877
-0.0609502
0.131802
-0.0606771
0.131525
-0.0589236
0.132029
-0.0558898
0.133217
-0.0519501
0.134944
-0.0475148
0.137034
-0.04313
0.139296
-0.0392229
0.141556
-0.0362767
0.143668
-0.0344269
0.145538
-0.0338181
0.147126
-0.0340948
0.148441
-0.0351095
0.149522
-0.0362209
0.15043
-0.0373495
0.151224
-0.0378435
0.151961
-0.0379399
0.152685
-0.0370491
0.153438
-0.0357624
0.154243
-0.03341
0.155126
-0.0309225
0.156091
-0.0273919
0.157149
-0.0241034
0.158277
-0.0198107
0.159476
-0.0163015
0.160719
-0.0118029
0.162012
-0.00870205
0.163328
-0.00452618
0.164693
-0.00255377
0.166081
0.000904637
0.167527
0.00161315
0.168996
0.00459312
0.170491
0.00410734
0.17201
0.00631754
0.173545
0.00515808
0.00671129
0.192118
0.0190303
-0.193509
0.191145
0.0184207
0.190157
0.017887
0.189189
0.0171374
0.188302
0.016201
0.187524
0.0151301
0.186874
0.0139173
0.186374
0.0125116
0.186029
0.0108471
0.18585
0.00885372
0.185853
0.00644357
0.185992
0.00354842
0.186043
0.000166643
0.186262
-0.00393658
0.186374
-0.00857385
0.186308
-0.0138472
0.185958
-0.0196694
0.185215
-0.0258949
0.183996
-0.03231
0.182265
-0.0386311
0.180041
-0.0445316
0.1774
-0.0496751
0.174475
-0.0537598
0.171424
-0.0565541
0.168418
-0.0579441
0.165627
-0.0578863
0.163197
-0.0564936
0.161247
-0.0539396
0.159849
-0.0505519
0.159017
-0.0466832
0.158709
-0.042822
0.158827
-0.0393407
0.159234
-0.0366834
0.159773
-0.0349661
0.160297
-0.0343421
0.160689
-0.0344867
0.160876
-0.035297
0.160833
-0.0361773
0.160571
-0.0370873
0.160129
-0.0374022
0.159564
-0.0373743
0.158932
-0.0364172
0.15829
-0.0351208
0.157685
-0.0328054
0.157158
-0.0303953
0.156735
-0.0269683
0.156433
-0.023802
0.156252
-0.0196297
0.15619
-0.0162396
0.156229
-0.0118413
0.156357
-0.00883037
0.156548
-0.0047171
0.156793
-0.00279845
0.157067
0.000630342
0.15737
0.00130992
0.157683
0.00428045
0.157981
0.00380943
0.158268
0.0060303
0.158519
0.0049068
0.00645421
0.20566
0.0192295
-0.205859
0.205483
0.0185972
0.205367
0.0180036
0.20521
0.0172941
0.205013
0.0163981
0.204816
0.0153273
0.20465
0.0140833
0.204531
0.01263
0.204465
0.0109133