/*--------------------------------*- C++ -*----------------------------------*\
| =========                 |                                                 |
| \\      /  F ield         | OpenFOAM: The Open Source CFD Toolbox           |
|  \\    /   O peration     | Version:  2512                                  |
|   \\  /    A nd           | Website:  www.openfoam.com                      |
|    \\/     M anipulation  |                                                 |
\*---------------------------------------------------------------------------*/
FoamFile
{
    version     2.0;
    format      ascii;
    arch        "LSB;label=32;scalar=64";
    class       volScalarField;
    location    "71";
    object      p;
}
// * * * * * * * * * * * * * * * * * * * * * * * * * * * * * * * * * * * * * //

dimensions      [0 2 -2 0 0 0 0];

internalField   nonuniform List<scalar> 
13248
(
-0.356796
-0.35475
-0.351915
-0.34854
-0.344945
-0.341477
-0.33842
-0.335974
-0.334242
-0.333227
-0.332833
-0.332874
-0.333089
-0.333173
-0.332802
-0.331665
-0.329497
-0.326101
-0.321349
-0.315221
-0.307596
-0.298691
-0.287419
-0.274719
-0.364435
-0.361786
-0.358378
-0.354464
-0.350353
-0.346379
-0.342794
-0.339745
-0.337271
-0.335305
-0.333685
-0.332179
-0.330514
-0.328411
-0.325618
-0.321935
-0.31723
-0.31144
-0.30456
-0.296619
-0.287634
-0.277663
-0.266452
-0.254893
-0.374005
-0.370498
-0.366371
-0.36185
-0.35718
-0.352652
-0.348456
-0.344656
-0.341205
-0.337966
-0.334741
-0.331301
-0.327427
-0.322936
-0.317704
-0.311669
-0.304827
-0.297217
-0.288894
-0.279923
-0.270317
-0.260174
-0.249324
-0.238392
-0.385561
-0.380958
-0.375974
-0.37076
-0.365447
-0.360247
-0.355251
-0.350419
-0.345626
-0.3407
-0.33546
-0.329757
-0.323488
-0.316609
-0.309131
-0.301104
-0.292598
-0.283683
-0.274419
-0.264848
-0.254995
-0.244923
-0.234539
-0.224434
-0.399064
-0.393171
-0.387209
-0.381207
-0.375119
-0.369037
-0.362934
-0.356675
-0.350092
-0.343048
-0.335462
-0.327321
-0.31867
-0.309595
-0.3002
-0.290584
-0.280827
-0.270984
-0.261086
-0.251152
-0.241186
-0.231216
-0.221188
-0.211483
-0.414399
-0.407075
-0.400047
-0.393149
-0.38609
-0.37881
-0.371168
-0.36298
-0.354123
-0.344583
-0.33444
-0.323843
-0.312964
-0.301969
-0.290989
-0.280115
-0.269401
-0.258864
-0.248504
-0.238311
-0.228274
-0.218388
-0.208624
-0.19923
-0.431339
-0.422513
-0.414357
-0.406424
-0.398108
-0.389186
-0.379458
-0.368793
-0.35722
-0.344921
-0.332164
-0.319231
-0.306363
-0.293738
-0.281464
-0.26959
-0.258125
-0.24705
-0.236337
-0.225951
-0.215866
-0.206054
-0.196501
-0.187314
-0.449506
-0.439177
-0.429843
-0.420675
-0.410701
-0.399577
-0.38716
-0.373504
-0.358891
-0.343732
-0.328448
-0.313391
-0.2988
-0.284811
-0.271478
-0.258795
-0.246729
-0.235227
-0.224238
-0.213711
-0.203602
-0.193874
-0.184513
-0.175512
-0.468316
-0.456554
-0.445981
-0.435292
-0.423148
-0.409202
-0.393528
-0.376503
-0.358709
-0.340756
-0.32315
-0.30623
-0.290179
-0.275062
-0.260864
-0.24753
-0.234986
-0.223155
-0.211965
-0.201351
-0.191254
-0.181633
-0.172458
-0.163641
-0.48695
-0.47388
-0.461973
-0.44938
-0.434491
-0.417135
-0.397785
-0.377223
-0.356311
-0.335779
-0.316129
-0.297627
-0.280365
-0.264326
-0.249433
-0.235585
-0.222678
-0.210612
-0.199298
-0.188655
-0.178617
-0.169131
-0.160144
-0.151526
-0.504364
-0.490142
-0.476743
-0.461789
-0.443583
-0.422356
-0.399117
-0.375063
-0.351255
-0.328448
-0.307061
-0.287251
-0.26901
-0.252242
-0.236815
-0.222591
-0.209439
-0.197242
-0.185894
-0.175301
-0.165387
-0.156086
-0.147308
-0.138933
-0.519383
-0.504201
-0.489125
-0.471324
-0.449276
-0.423837
-0.396641
-0.369253
-0.342835
-0.318073
-0.295255
-0.27441
-0.255426
-0.238134
-0.222354
-0.207915
-0.194664
-0.182464
-0.171198
-0.160763
-0.151073
-0.142049
-0.133571
-0.125578
-0.302534
-0.304129
-0.305142
-0.305866
-0.306589
-0.307415
-0.30839
-0.309541
-0.310874
-0.312386
-0.314068
-0.315911
-0.317899
-0.320013
-0.322222
-0.324485
-0.326749
-0.328943
-0.330984
-0.332775
-0.334217
-0.335203
-0.335642
-0.335419
-0.308504
-0.309591
-0.31033
-0.310939
-0.311649
-0.312565
-0.313746
-0.315225
-0.317017
-0.319128
-0.321562
-0.324319
-0.327398
-0.330788
-0.334464
-0.338387
-0.342493
-0.346692
-0.350863
-0.354858
-0.358507
-0.361622
-0.363984
-0.365419
-0.314577
-0.315102
-0.315519
-0.315961
-0.3166
-0.31754
-0.31885
-0.32057
-0.322723
-0.325323
-0.328384
-0.331914
-0.33592
-0.340398
-0.345327
-0.350664
-0.356334
-0.362222
-0.368169
-0.373965
-0.379359
-0.384059
-0.387759
-0.390019
-0.320403
-0.320361
-0.320425
-0.320646
-0.321138
-0.322008
-0.323333
-0.325164
-0.32753
-0.330454
-0.333951
-0.338038
-0.342723
-0.348005
-0.353859
-0.360236
-0.367044
-0.374146
-0.381343
-0.388373
-0.394921
-0.400601
-0.404736
-0.407069
-0.325702
-0.325143
-0.324843
-0.32479
-0.325045
-0.325725
-0.326922
-0.328697
-0.331088
-0.334124
-0.337823
-0.342201
-0.347266
-0.353009
-0.359399
-0.366374
-0.373824
-0.381583
-0.389418
-0.397018
-0.403993
-0.40985
-0.414057
-0.415472
-0.330302
-0.329321
-0.32867
-0.328289
-0.328214
-0.328574
-0.329482
-0.331016
-0.333227
-0.336147
-0.339798
-0.344194
-0.349332
-0.355197
-0.361744
-0.36889
-0.376502
-0.384383
-0.392262
-0.399785
-0.406528
-0.411856
-0.415694
-0.415463
-0.334163
-0.332888
-0.331912
-0.331161
-0.330667
-0.330583
-0.331049
-0.332165
-0.333998
-0.336591
-0.339968
-0.344137
-0.34909
-0.354792
-0.361181
-0.368142
-0.375514
-0.383066
-0.390487
-0.397364
-0.403312
-0.40742
-0.410397
-0.40807
-0.337394
-0.335959
-0.334693
-0.33354
-0.332556
-0.331928
-0.331826
-0.332381
-0.333681
-0.335783
-0.338715
-0.34248
-0.347058
-0.352386
-0.358376
-0.364887
-0.371703
-0.378545
-0.385065
-0.390784
-0.395414
-0.397761
-0.39924
-0.394714
-0.340254
-0.338767
-0.337239
-0.335662
-0.334143
-0.332908
-0.332164
-0.332075
-0.332752
-0.334269
-0.33666
-0.339908
-0.343979
-0.348793
-0.354197
-0.359998
-0.365933
-0.371669
-0.376832
-0.380911
-0.3837
-0.383983
-0.383351
-0.37681
-0.343136
-0.341646
-0.339863
-0.337848
-0.335778
-0.33392
-0.332518
-0.331767
-0.331803
-0.332706
-0.334505
-0.337182
-0.340647
-0.344765
-0.349337
-0.354101
-0.358736
-0.362874
-0.366139
-0.368104
-0.368627
-0.366843
-0.363993
-0.35594
-0.346525
-0.344998
-0.342933
-0.340469
-0.337854
-0.335394
-0.333365
-0.331983
-0.331397
-0.331689
-0.332864
-0.334861
-0.337545
-0.340714
-0.344099
-0.347377
-0.350185
-0.352161
-0.352967
-0.352351
-0.350239
-0.346427
-0.341784
-0.333355
-0.350932
-0.349243
-0.346832
-0.343904
-0.340763
-0.337746
-0.335147
-0.333189
-0.332013
-0.331674
-0.332141
-0.333294
-0.334934
-0.33679
-0.33854
-0.339833
-0.340318
-0.339688
-0.337679
-0.334185
-0.329107
-0.322759
-0.315597
-0.307411
-0.334278
-0.330611
-0.324629
-0.316051
-0.304858
-0.291346
-0.276182
-0.260449
-0.245813
-0.233829
-0.22597
-0.223272
-0.225789
-0.232323
-0.239175
-0.243315
-0.241278
-0.230219
-0.209468
-0.181676
-0.152
-0.125799
-0.106608
-0.0955163
-0.0922855
-0.0974834
-0.112375
-0.134934
-0.15674
-0.166042
-0.157562
-0.134907
-0.1076
-0.0838324
-0.0678383
-0.0596499
-0.0576559
-0.0629077
-0.0765719
-0.0925857
-0.0995771
-0.0928316
-0.0774821
-0.0631182
-0.0536444
-0.0487568
-0.0509201
-0.0597412
-0.0665814
-0.0644826
-0.0555746
-0.0453494
-0.0369426
-0.0306921
-0.028562
-0.0278555
-0.0247269
-0.0226796
-0.0145453
-0.00230594
-0.366473
-0.363242
-0.356955
-0.347008
-0.333274
-0.315992
-0.295749
-0.273347
-0.2513
-0.230986
-0.214245
-0.202717
-0.197585
-0.197506
-0.200304
-0.202726
-0.201611
-0.193781
-0.178398
-0.157264
-0.13458
-0.114861
-0.10115
-0.0944947
-0.0952091
-0.104651
-0.124149
-0.150737
-0.174679
-0.1831
-0.171877
-0.145213
-0.114034
-0.0869105
-0.0679104
-0.0570841
-0.0526814
-0.0551527
-0.0658535
-0.0798125
-0.0867762
-0.0818474
-0.0697667
-0.0590045
-0.0525975
-0.0504536
-0.0554687
-0.067094
-0.0754388
-0.0725372
-0.061121
-0.0480854
-0.0371967
-0.0285632
-0.0242677
-0.0219376
-0.0190234
-0.0179547
-0.0116005
-0.00167092
-0.393381
-0.390108
-0.383314
-0.372043
-0.356004
-0.335451
-0.311069
-0.281722
-0.253385
-0.225635
-0.200645
-0.180456
-0.168009
-0.160978
-0.158565
-0.158419
-0.158202
-0.153633
-0.143823
-0.129472
-0.113867
-0.100666
-0.0924081
-0.0901933
-0.0949708
-0.108758
-0.132708
-0.162942
-0.188781
-0.197416
-0.183257
-0.153228
-0.118817
-0.0889098
-0.0673677
-0.054181
-0.0475703
-0.0474329
-0.055194
-0.0669903
-0.0737215
-0.070557
-0.0616812
-0.054435
-0.0510779
-0.0517716
-0.0597415
-0.0742127
-0.0840989
-0.080402
-0.0664318
-0.0505581
-0.0372911
-0.0264874
-0.0202559
-0.016395
-0.0136109
-0.0133061
-0.00869553
-0.0010685
-0.411652
-0.40908
-0.401428
-0.388965
-0.370992
-0.347482
-0.319006
-0.286285
-0.252006
-0.217895
-0.185791
-0.156916
-0.13981
-0.125297
-0.116942
-0.113339
-0.113322
-0.111708
-0.106579
-0.0986962
-0.0898821
-0.0829172
-0.0798927
-0.0819844
-0.0908042
-0.10885
-0.137
-0.17057
-0.198199
-0.206918
-0.19122
-0.158752
-0.121881
-0.0898435
-0.0663059
-0.0511188
-0.0425516
-0.0400495
-0.0450032
-0.0545736
-0.0608436
-0.0592701
-0.0534072
-0.0494893
-0.0490799
-0.0526076
-0.0635339
-0.0808576
-0.09233
-0.0879178
-0.0714292
-0.0527383
-0.0372168
-0.0244664
-0.0165348
-0.0112342
-0.00851144
-0.00876103
-0.00585828
-0.000507541
-0.420707
-0.41865
-0.41042
-0.397018
-0.37771
-0.352209
-0.321086
-0.285492
-0.247362
-0.208738
-0.171726
-0.138584
-0.112645
-0.0923829
-0.0785533
-0.0709065
-0.0690455
-0.068855
-0.067583
-0.0654221
-0.0626882
-0.0614428
-0.0632727
-0.0695497
-0.0824093
-0.104593
-0.136641
-0.173205
-0.202557
-0.211805
-0.195577
-0.161755
-0.123322
-0.0898406
-0.0648446
-0.0480529
-0.0378118
-0.0332369
-0.0355742
-0.0429368
-0.0485522
-0.0482914
-0.0451224
-0.0442351
-0.046578
-0.052843
-0.0666551
-0.0867836
-0.0998664
-0.094905
-0.0760363
-0.0546083
-0.0369735
-0.0224974
-0.0130993
-0.00645149
-0.00372147
-0.00434324
-0.00311332
4.2812e-06
-0.420349
-0.418034
-0.409693
-0.396153
-0.376406
-0.350164
-0.318055
-0.281192
-0.24123
-0.200174
-0.160147
-0.123346
-0.0918615
-0.0662611
-0.0472883
-0.035305
-0.0297225
-0.028691
-0.0291783
-0.0311211
-0.033201
-0.0367608
-0.0429992
-0.0533782
-0.0702582
-0.096343
-0.131803
-0.170926
-0.201909
-0.212108
-0.196301
-0.162254
-0.12325
-0.0890356
-0.0630909
-0.0450871
-0.0334608
-0.0271347
-0.0271205
-0.0323692
-0.0371934
-0.0378953
-0.0369999
-0.0387368
-0.0435595
-0.0523905
-0.0689421
-0.0917503
-0.106466
-0.10121
-0.080182
-0.0561525
-0.0365588
-0.0205702
-0.00993379
-0.00203628
0.000756149
-7.27016e-05
-0.000479713
0.000460511
-0.411108
-0.407763
-0.400013
-0.387372
-0.368205
-0.342518
-0.311071
-0.274783
-0.235054
-0.193702
-0.152665
-0.113867
-0.0790446
-0.0493623
-0.0257997
-0.0090459
0.000996827
0.00490246
0.00420797
0.00144347
-0.00344061
-0.0105473
-0.0205678
-0.0347935
-0.0554555
-0.0849484
-0.123103
-0.164191
-0.19666
-0.208098
-0.193506
-0.160344
-0.121803
-0.0875579
-0.0611323
-0.0422816
-0.0295513
-0.0217787
-0.0197232
-0.0230199
-0.0270022
-0.0283169
-0.0291996
-0.0330866
-0.0400464
-0.0511904
-0.070266
-0.0955858
-0.111953
-0.106684
-0.083793
-0.0573544
-0.0359719
-0.0186742
-0.00701128
0.00203109
0.00492759
0.00403476
0.0020297
0.000855433
-0.394629
-0.389623
-0.382961
-0.371979
-0.354297
-0.330399
-0.301123
-0.267084
-0.229404
-0.189666
-0.149537
-0.110633
-0.0744336
-0.0421795
-0.0149741
0.00624678
0.0210123
0.0291819
0.0314389
0.0293179
0.023707
0.0146428
0.00184975
-0.0155938
-0.0394469
-0.0715679
-0.111516
-0.153832
-0.18743
-0.200299
-0.187545
-0.15623
-0.119094
-0.0854922
-0.0590208
-0.0396593
-0.0260995
-0.0171719
-0.0133847
-0.0149218
-0.0180771
-0.0197222
-0.021877
-0.0273939
-0.0360892
-0.0492341
-0.0705444
-0.0981875
-0.11619
-0.111192
-0.0868098
-0.0582114
-0.0352245
-0.0168142
-0.00431426
0.00577667
0.0088085
0.00796746
0.00440846
0.00118367
-0.372857
-0.366049
-0.360851
-0.351824
-0.336204
-0.315085
-0.289131
-0.258557
-0.224238
-0.187519
-0.149785
-0.112354
-0.0764689
-0.0432776
-0.0138566
0.0107952
0.0298593
0.0426626
0.0490152
0.0496589
0.0453984
0.0362059
0.0220608
0.00246996
-0.0236276
-0.0573983
-0.0981704
-0.140885
-0.175109
-0.189375
-0.178928
-0.150267
-0.115368
-0.0830446
-0.0569328
-0.037351
-0.0232068
-0.0133653
-0.00812816
-0.00808071
-0.0104282
-0.0121858
-0.0151518
-0.0217843
-0.0317511
-0.046482
-0.0697552
-0.0995344
-0.119088
-0.114665
-0.089223
-0.0587755
-0.034368
-0.0150208
-0.00185834
0.00920595
0.0124215
0.0117185
0.00665709
0.00144073
-0.348161
-0.340399
-0.336826
-0.329383
-0.315984
-0.298217
-0.276185
-0.249683
-0.219395
-0.186419
-0.151883
-0.116879
-0.082487
-0.0496885
-0.0194988
0.00706092
0.0291542
0.045869
0.0563596
0.0613279
0.0598518
0.0522443
0.0383176
0.0179397
-0.00915899
-0.0433749
-0.0838919
-0.126167
-0.160531
-0.176061
-0.168361
-0.143104
-0.111203
-0.0807395
-0.0553261
-0.0357006
-0.0211248
-0.0105138
-0.00400125
-0.00246917
-0.00404201
-0.00576812
-0.00909487
-0.016328
-0.0271194
-0.0430658
-0.0679119
-0.0995573
-0.120593
-0.117086
-0.0910373
-0.0591308
-0.0334729
-0.0133143
0.000353802
0.0122877
0.0157759
0.0152842
0.00878183
0.00162279
-0.323674
-0.316766
-0.314352
-0.307628
-0.2964
-0.282155
-0.264154
-0.241903
-0.215878
-0.186891
-0.155843
-0.123715
-0.091429
-0.0596918
-0.0294423
-0.00169065
0.0225811
0.0423285
0.0568052
0.0651751
0.0667822
0.0621712
0.0500976
0.0303785
0.003421
-0.0303494
-0.0699225
-0.110954
-0.144696
-0.160899
-0.155901
-0.134692
-0.106513
-0.0784454
-0.0540479
-0.0345021
-0.0196244
-0.00842372
-0.000788029
0.00221092
0.00135422
-0.000425547
-0.00388838
-0.0112054
-0.0221796
-0.0387722
-0.0650356
-0.0985671
-0.120764
-0.118302
-0.092012
-0.0591102
-0.0324165
-0.0115789
0.00246422
0.015079
0.0188568
0.0186433
0.0107997
0.0017267
-0.301025
-0.29738
-0.294306
-0.286756
-0.277016
-0.265623
-0.251204
-0.233132
-0.211581
-0.187001
-0.159979
-0.131239
-0.101607
-0.0719012
-0.0430057
-0.0157685
0.00895104
0.0302507
0.0472568
0.0606535
0.0663705
0.0647984
0.0558896
0.0386917
0.0137893
-0.0178131
-0.0548287
-0.0933948
-0.125701
-0.142067
-0.139682
-0.122787
-0.0985516
-0.0732532
-0.0504644
-0.0315734
-0.0169111
-0.00569409
0.00249956
0.00666327
0.00650645
0.00454571
0.000742224
-0.00651975
-0.0174068
-0.0341557
-0.0612058
-0.0960458
-0.119481
-0.117851
-0.0916064
-0.0580177
-0.0306635
-0.00948584
0.00476066
0.0178941
0.0217767
0.0218175
0.0127055
0.0017454
-0.277838
-0.285421
-0.280116
-0.270379
-0.26016
-0.249076
-0.235597
-0.218905
-0.199006
-0.176316
-0.151394
-0.124867
-0.0974196
-0.0697494
-0.0425991
-0.0167293
0.00714642
0.0284855
0.0473947
0.0587304
0.0652758
0.0657918
0.0588533
0.0431887
0.0193511
-0.0113004
-0.0474725
-0.0852801
-0.116037
-0.131269
-0.127717
-0.11127
-0.0886117
-0.0652644
-0.0442431
-0.0266138
-0.0127041
-0.00190175
0.00620029
0.0108372
0.0114132
0.00990396
0.00780575
-8.25156e-05
-0.010479
-0.0273859
-0.0559293
-0.0935335
-0.119379
-0.118809
-0.0907178
-0.0559789
-0.028239
-0.00713489
0.00711911
0.0207809
0.0247208
0.0249806
0.0145222
0.00166599
-0.253217
-0.264088
-0.259734
-0.249305
-0.238633
-0.227969
-0.21564
-0.200545
-0.182578
-0.162154
-0.139792
-0.116001
-0.0913169
-0.0663207
-0.0416474
-0.0179674
0.00406699
0.0239293
0.0407344
0.0525471
0.0594764
0.0606247
0.0546867
0.0405249
0.0185748
-0.00981767
-0.0430951
-0.0771524
-0.103867
-0.115896
-0.112002
-0.0972389
-0.0773742
-0.0568589
-0.0381098
-0.0219887
-0.00901267
0.00121725
0.00920965
0.0142097
0.0152259
0.0137569
0.010933
0.00453253
-0.00502462
-0.0216785
-0.0511821
-0.0906651
-0.117634
-0.116599
-0.0882242
-0.053203
-0.0255362
-0.00470803
0.00941664
0.0233219
0.0271551
0.0277841
0.0160438
0.00154869
-0.230413
-0.241779
-0.2387
-0.228862
-0.218426
-0.208368
-0.197226
-0.18377
-0.167762
-0.149552
-0.129609
-0.108359
-0.0862415
-0.0637491
-0.0414435
-0.0199355
0.000180366
0.0183551
0.033682
0.044938
0.0515403
0.0527147
0.0473903
0.0346771
0.0150074
-0.0102261
-0.0391104
-0.0677013
-0.0895748
-0.0992629
-0.0959321
-0.083622
-0.0668043
-0.0490085
-0.0323499
-0.017641
-0.00550203
0.0042084
0.0119995
0.0172132
0.0186857
0.0173669
0.0139919
0.00865583
-0.000535359
-0.0173077
-0.0475041
-0.0872652
-0.114066
-0.11284
-0.0847531
-0.0499397
-0.0225692
-0.00216177
0.0117678
0.0258064
0.0295525
0.0304392
0.0173854
0.0014085
-0.209651
-0.220154
-0.218145
-0.209476
-0.199747
-0.19037
-0.18029
-0.16833
-0.154136
-0.137966
-0.12024
-0.10134
-0.0816326
-0.0615338
-0.0415288
-0.0221545
-0.00395177
0.0125115
0.0263967
0.0367918
0.0429998
0.0443128
0.0398562
0.0289735
0.0120973
-0.00937871
-0.0335039
-0.0569901
-0.0748371
-0.0828751
-0.0805141
-0.0706115
-0.0566118
-0.0413567
-0.0267082
-0.013415
-0.00212699
0.00704838
0.0145611
0.0198933
0.021864
0.0209529
0.0180992
0.0130389
0.00402502
-0.013023
-0.0434446
-0.0826692
-0.109157
-0.107807
-0.0802274
-0.0460824
-0.0192987
0.000521148
0.0141748
0.0282262
0.031924
0.0329884
0.0186171
0.00124823
-0.18964
-0.199552
-0.19845
-0.190997
-0.182169
-0.173562
-0.164488
-0.153908
-0.141408
-0.127149
-0.111494
-0.0947872
-0.0773425
-0.0595078
-0.0416965
-0.0243809
-0.00806845
0.00667738
0.0191857
0.0286963
0.0345563
0.0361347
0.0327536
0.0239546
0.0101156
-0.00753736
-0.0272504
-0.0462963
-0.0607952
-0.0676036
-0.0661835
-0.0584814
-0.0470621
-0.0341381
-0.0213428
-0.00940405
0.00104675
0.00970775
0.0168991
0.0222685
0.0247108
0.0243896
0.022201
0.0177225
0.00907982
-0.00794308
-0.0381765
-0.0768221
-0.102852
-0.101276
-0.0745566
-0.0416272
-0.015757
0.00331339
0.0166184
0.03056
0.0342185
0.0354237
0.0197563
0.00106714
-0.170961
-0.18027
-0.179795
-0.173431
-0.165583
-0.157838
-0.149759
-0.140467
-0.12954
-0.117062
-0.103332
-0.0886568
-0.0733122
-0.0575917
-0.0418485
-0.0264968
-0.0119954
0.00114255
0.0123516
0.0210165
0.0265515
0.0284198
0.026116
0.0193328
0.00837899
-0.00572609
-0.0214547
-0.0365897
-0.048248
-0.0540383
-0.0533969
-0.0475464
-0.0383269
-0.0274384
-0.0163
-0.00563289
0.00399052
0.0121609
0.0190129
0.0243438
0.0271861
0.0275781
0.0262373
0.0226203
0.0146703
-0.00194649
-0.0317955
-0.0697183
-0.0949609
-0.0931738
-0.0677493
-0.0365933
-0.0119803
0.00618537
0.0190728
0.0327823
0.0364
0.0377074
0.02078
0.000873957
-0.153841
-0.162332
-0.16222
-0.156841
-0.149992
-0.143155
-0.136053
-0.12796
-0.118478
-0.107637
-0.0956795
-0.0828756
-0.069467
-0.0557053
-0.0418912
-0.0283799
-0.015575
-0.00392793
0.00607997
0.0139393
0.0191529
0.0212788
0.0199453
0.0149598
0.00658136
-0.00436256
-0.0165973
-0.0283519
-0.0376166
-0.0424785
-0.0423432
-0.0379062
-0.0304701
-0.0213181
-0.0116386
-0.002139
0.00667453
0.0143744
0.0209012
0.0261325
0.029285
0.0304272
0.0301097
0.0275912
0.0206417
0.00468292
-0.0245148
-0.0612837
-0.0854479
-0.0835478
-0.0598749
-0.031035
-0.00802205
0.00909671
0.0215056
0.0348652
0.0384316
0.0397939
0.0216671
0.000690588
-0.137864
-0.145526
-0.145771
-0.141308
-0.135413
-0.129462
-0.123296
-0.116312
-0.108148
-0.0988004
-0.0884655
-0.0773745
-0.0657398
-0.0537765
-0.0417374
-0.0299269
-0.0186943
-0.0084244
0.000474069
0.0075777
0.0124766
0.0148142
0.014319
0.0108805
0.00471834
-0.00352053
-0.0128161
-0.0217082
-0.028953
-0.0328915
-0.0329774
-0.0295519
-0.0235141
-0.0158111
-0.00739818
0.0010517
0.00908327
0.0163185
0.0225555
0.0276518
0.0310231
0.0328513
0.033671
0.0324403
0.0267587
0.0117115
-0.0163995
-0.0515658
-0.0744142
-0.0725545
-0.0510869
-0.0250494
-0.00394927
0.0120004
0.0238802
0.0367791
0.0402722
0.0416422
0.0224252
0.000552705
-0.123017
-0.130006
-0.130551
-0.126854
-0.121823
-0.116707
-0.111417
-0.105451
-0.0984838
-0.0904914
-0.0816298
-0.072096
-0.0620738
-0.0517469
-0.041327
-0.0310733
-0.0212819
-0.0122719
-0.0043899
0.0020147
0.00660849
0.00910838
0.00931496
0.00716725
0.00284906
-0.00314479
-0.0100328
-0.0168021
-0.0220827
-0.0250776
-0.0251567
-0.0224143
-0.0174415
-0.0109243
-0.00360195
0.00391746
0.0112101
0.0179744
0.0239509
0.0289078
0.0324298
0.0348094
0.0367421
0.0369348
0.0327977
0.0189976
-0.00762488
-0.0408346
-0.0621176
-0.0604878
-0.0416327
-0.0187776
0.000159152
0.0148459
0.0261581
0.0384949
0.0418903
0.0432234
0.0230991
0.000510346
-0.109411
-0.115717
-0.116445
-0.113432
-0.109179
-0.104833
-0.100356
-0.0953174
-0.0894291
-0.0826566
-0.0751227
-0.0669929
-0.0584249
-0.0495753
-0.0406212
-0.0317769
-0.0232925
-0.0154232
-0.00846661
-0.00270546
0.00159077
0.00419828
0.00497001
0.00387201
0.00105435
-0.00309906
-0.00798929
-0.0128399
-0.0166508
-0.0187725
-0.0186983
-0.0163886
-0.0122097
-0.00664823
-0.000258036
0.00644208
0.0130529
0.0193405
0.0250586
0.0298868
0.0335192
0.0363122
0.0391438
0.0407879
0.0384391
0.0262095
0.00133792
-0.0295571
-0.0489682
-0.0477752
-0.0318464
-0.0124014
0.00421609
0.0175828
0.0283042
0.0399904
0.0432685
0.0445291
0.0237725
0.00062741
-0.0969434
-0.102568
-0.103425
-0.101015
-0.0974671
-0.0938123
-0.0900603
-0.0858545
-0.0809314
-0.0752497
-0.0689033
-0.0620295
-0.0547626
-0.0472351
-0.0395929
-0.032011
-0.0247029
-0.0178627
-0.0117439
-0.00657475
-0.00257212
8.82098e-05
0.00129633
0.00103483
-0.00057803
-0.00324908
-0.00650773
-0.0097909
-0.0123758
-0.0137195
-0.0134133
-0.0113573
-0.00776114
-0.00296085
0.00263878
0.00861785
0.0146105
0.0204259
0.0258631
0.0305639
0.0342745
0.0373891
0.0408082
0.0436633
0.0430652
0.0326246
0.00984015
-0.0182006
-0.0354619
-0.0349543
-0.0221268
-0.00613096
0.00812998
0.0201633
0.0302876
0.0412602
0.044417
0.045582
0.0245731
0.000976657
-0.0854795
-0.0905031
-0.0914584
-0.0895699
-0.086656
-0.083615
-0.0804907
-0.0770183
-0.0729438
-0.0682339
-0.062942
-0.0571822
-0.0510693
-0.0447132
-0.0382343
-0.0317753
-0.025496
-0.0195926
-0.0142334
-0.00961118
-0.0058997
-0.00323656
-0.00170698
-0.00132131
-0.00198695
-0.00347902
-0.00543173
-0.00745898
-0.00902823
-0.0096931
-0.00912409
-0.00720108
-0.00402861
0.000169664
0.00510358
0.0104475
0.0158825
0.0212418
0.0263676
0.030919
0.0346732
0.0380249
0.0417159
0.0453087
0.0459845
0.0374305
0.0173487
-0.0071677
-0.0222161
-0.0226519
-0.0129017
-0.000182856
0.0118091
0.0225433
0.0320778
0.0423169
0.0453851
0.0464483
0.0256664
0.0016293
-0.0750045
-0.0794874
-0.0805001
-0.0790469
-0.0766824
-0.0742041
-0.0716674
-0.0688015
-0.0654125
-0.0615844
-0.0572208
-0.0524379
-0.0473383
-0.0420124
-0.036559
-0.0311007
-0.0257412
-0.0206518
-0.0159719
-0.0118529
-0.00842988
-0.00581089
-0.00406233
-0.00319079
-0.00312652
-0.0036972
-0.00465777
-0.00568434
-0.00641697
-0.00649965
-0.00567028
-0.00380432
-0.000939499
0.00278283
0.00715859
0.0119433
0.0168727
0.0217974
0.0265884
0.0309524
0.0346984
0.0381162
0.0418962
0.0456597
0.0469447
0.0402693
0.0234972
0.00295234
-0.0100447
-0.0115087
-0.0045615
0.0052526
0.0151709
0.0246777
0.0336394
0.0431767
0.0462542
0.0472404
0.0272286
0.00263594
-0.0654794
-0.0694492
-0.0704796
-0.0693902
-0.0675002
-0.065509
-0.0634827
-0.0612236
-0.0585773
-0.0553575
-0.0517469
-0.0477966
-0.0435748
-0.0391448
-0.0345829
-0.0299764
-0.0254413
-0.0210794
-0.0170117
-0.0133561
-0.0102184
-0.00768349
-0.00580367
-0.00458623
-0.00397702
-0.0038519
-0.00404465
-0.00430786
-0.00437267
-0.00397513
-0.0029094
-0.00105817
0.00158059
0.00492396
0.00883139
0.0131246
0.0175927
0.0221027
0.0265483
0.0306847
0.0343543
0.0377529
0.0414046
0.0449103
0.046276
0.0412793
0.0279697
0.0113921
0.000284263
-0.00200979
0.00262987
0.0100392
0.0181532
0.0265191
0.0349206
0.0438364
0.0471175
0.0480869
0.0293764
0.00398971
-0.0568074
-0.0603087
-0.0613351
-0.0605481
-0.0590612
-0.0574815
-0.0558779
-0.0540837
-0.0519429
-0.0493901
-0.0464699
-0.0432438
-0.0397708
-0.0361133
-0.0323301
-0.0284846
-0.0246582
-0.0209386
-0.0174184
-0.0141889
-0.0113323
-0.00891473
-0.00697878
-0.00553249
-0.00453517
-0.00391201
-0.00352574
-0.00320707
-0.0027569
-0.00197988
-0.000715838
0.00113821
0.00360539
0.00664215
0.0101544
0.0140151
0.018061
0.0221757
0.0262699
0.0301424
0.0336658
0.0369479
0.0403165
0.0433419
0.0445115
0.0408151
0.0306299
0.0176616
0.00838098
0.00566438
0.00858098
0.0141045
0.0207109
0.0280294
0.0358507
0.0442257
0.0479678
0.0489669
0.0319888
0.00561696
-0.0489202
-0.0520059
-0.0530115
-0.0524707
-0.0513214
-0.0500884
-0.0488416
-0.0474435
-0.0457607
-0.0437417
-0.0414062
-0.0388025
-0.03598
-0.032985
-0.0298634
-0.026667
-0.0234566
-0.0202997
-0.0172668
-0.0144281
-0.0118468
-0.00957367
-0.00764299
-0.00606611
-0.00481899
-0.00383923
-0.00303863
-0.00229324
-0.00146096
-0.000397679
0.00101953
0.00287675
0.00520594
0.00798838
0.0111634
0.0146419
0.0183006
0.0220393
0.0257798
0.029364
0.0326776
0.0357506
0.0387451
0.0412341
0.0421189
0.0393541
0.031748
0.0218599
0.014353
0.0116008
0.0133324
0.0174343
0.0228079
0.029175
0.0363696
0.0442002
0.0484484
0.0494283
0.0344832
0.00740393
-0.0417716
-0.0444811
-0.045449
-0.0451052
-0.0442365
-0.0432942
-0.0423464
-0.0412808
-0.0399831
-0.0384057
-0.0365594
-0.0344804
-0.0322075
-0.0297758
-0.0272205
-0.0245808
-0.0219024
-0.0192361
-0.0166358
-0.0141545
-0.0118407
-0.00973245
-0.00785665
-0.00622588
-0.00482887
-0.00362126
-0.00253963
-0.00149868
-0.000397792
0.000867755
0.00239066
0.00424013
0.00644923
0.00901399
0.0118964
0.0150348
0.0183379
0.0217207
0.0251108
0.0283879
0.0314438
0.0342476
0.0368394
0.0388373
0.0394633
0.0373754
0.0318004
0.0244303
0.018538
0.0160154
0.0169892
0.0200496
0.0244269
0.0299116
0.0364222
0.0436126
0.0480569
0.0487175
0.0359004
0.00911567
-0.0352987
-0.0376681
-0.0385871
-0.0383995
-0.0377622
-0.0370608
-0.03636
-0.0355684
-0.0345882
-0.0333755
-0.0319351
-0.030294
-0.0284818
-0.026525
-0.0244496
-0.0222843
-0.0200629
-0.0178232
-0.0156057
-0.0134504
-0.0113933
-0.00946507
-0.00768505
-0.00606477
-0.00459711
-0.00325714
-0.00200251
-0.000773318
0.000500983
0.00189504
0.00347728
0.00530148
0.00739752
0.00976902
0.0123926
0.0152256
0.0182014
0.0212485
0.0242999
0.0272604
0.0300302
0.0325383
0.0347485
0.0363467
0.0367878
0.0352208
0.031201
0.0258224
0.0213234
0.019166
0.0196862
0.0219876
0.02556
0.0302065
0.035939
0.042324
0.0464732
0.0464221
0.0354856
0.0103409
-0.0294392
-0.0315064
-0.0323706
-0.0323049
-0.0318559
-0.0313514
-0.0308516
-0.0302826
-0.0295608
-0.0286462
-0.0275396
-0.0262604
-0.0248311
-0.0232713
-0.0215994
-0.0198359
-0.0180052
-0.0161347
-0.0142544
-0.0123945
-0.0105844
-0.0088562
-0.00718375
-0.00561741
-0.00414573
-0.00275359
-0.00141225
-8.10941e-05
0.00128812
0.00274746
0.00434618
0.00612463
0.00810747
0.0103011
0.0126913
0.0152478
0.0179214
0.0206536
0.0233835
0.0260305
0.0285009
0.0307179
0.0325961
0.0338901
0.0342256
0.0330819
0.0302349
0.0263869
0.0230456
0.0212882
0.0215614
0.0233029
0.0262025
0.0300504
0.0349059
0.0402776
0.0436277
0.0426998
0.0331716
0.0107416
-0.0241433
-0.0259423
-0.0267472
-0.0267742
-0.0264762
-0.0261306
-0.0257921
-0.0254012
-0.0248871
-0.0242138
-0.0233788
-0.0223963
-0.0212827
-0.020052
-0.0187172
-0.0172921
-0.0157936
-0.0142412
-0.0126559
-0.0110584
-0.00946823
-0.00789795
-0.00639453
-0.00492776
-0.00350543
-0.00212268
-0.00076201
0.000602656
0.00200329
0.00347513
0.00505247
0.00676439
0.00862976
0.0106547
0.0128304
0.0151347
0.0175299
0.0199684
0.0223971
0.0247464
0.0269319
0.0288703
0.0304712
0.031545
0.0318405
0.0310466
0.0290759
0.0263781
0.0239648
0.0225886
0.0227505
0.02406
0.026375
0.0294673
0.0333841
0.0375815
0.0398793
0.0381545
0.0295814
0.0103066
-0.0193634
-0.0209237
-0.0216667
-0.0217624
-0.021584
-0.0213648
-0.0211542
-0.020904
-0.0205547
-0.0200743
-0.0194584
-0.0187167
-0.0178613
-0.0169019
-0.0158469
-0.0147055
-0.0134888
-0.0122102
-0.0108845
-0.00952694
-0.00815295
-0.00677586
-0.00540995
-0.00405493
-0.00271343
-0.00138284
-5.28042e-05
0.001293
0.00267521
0.00411686
0.00564084
0.00726705
0.00900884
0.0108707
0.0128463
0.0149186
0.0170581
0.0192257
0.0213756
0.0234476
0.0253682
0.0270576
0.0284335
0.0293532
0.0296518
0.0291446
0.0278247
0.025977
0.0242819
0.0232635
0.0233766
0.0243305
0.0261214
0.0285109
0.0314829
0.0343567
0.0356927
0.0333741
0.0255037
0.00930283
-0.015053
-0.0164021
-0.0170829
-0.0172279
-0.017143
-0.0170233
-0.0169122
-0.0167716
-0.0165515
-0.0162236
-0.0157827
-0.015235
-0.0145891
-0.0138516
-0.0130278
-0.012123
-0.0111443
-0.0101004
-0.00900159
-0.00785864
-0.00668257
-0.00548291
-0.004267
-0.0030389
-0.00180119
-0.000553446
0.000709659
0.00199775
0.00332371
0.00470184
0.00614672
0.00767095
0.00928309
0.0109854
0.0127726
0.01463
0.0165349
0.0184548
0.0203502
0.0221694
0.0238515
0.025325
0.0265206
0.027332
0.0276545
0.0273791
0.0265368
0.02531
0.0241606
0.0234574
0.0235432
0.0241817
0.0255007
0.0272628
0.0293154
0.0311093
0.0314769
0.0287538
0.0215098
0.00804548
-0.0111716
-0.0123345
-0.0129542
-0.0131329
-0.01312
-0.0130772
-0.0130428
-0.0129861
-0.0128658
-0.0126573
-0.0123547
-0.0119619
-0.0114849
-0.0109278
-0.0102937
-0.00958527
-0.00880654
-0.00796281
-0.00706077
-0.00610784
-0.00511164
-0.00408019
-0.00301237
-0.00191847
-0.000799278
0.000344874
0.00151597
0.00271891
0.00396121
0.00525118
0.00659742
0.00800703
0.00948472
0.0110304
0.0126387
0.0142973
0.0159874
0.0176817
0.0193473
0.0209401
0.0224113
0.0236997
0.0247501
0.0254828
0.0258349
0.0257405
0.0252433
0.0244595
0.0237042
0.0232253
0.0233605
0.0236721
0.0245758
0.0258281
0.027038
0.0279097
0.0274835
0.02452
0.0179068
0.00676666
-0.007683
-0.00868191
-0.00924251
-0.00944275
-0.00948427
-0.00950026
-0.00952366
-0.00953036
-0.00948616
-0.00936995
-0.00917574
-0.00890574
-0.00856382
-0.00815255
-0.0076732
-0.00712683
-0.00651522
-0.00584119
-0.00510844
-0.00432148
-0.00348461
-0.00260161
-0.00168484
-0.000729058
0.000263452
0.00129129
0.00235431
0.0034541
0.00459434
0.00577922
0.0070132
0.00829945
0.00963964
0.0110318
0.0124705
0.0139447
0.0154384
0.0169286
0.018388
0.0197795
0.0210657
0.0221957
0.0231265
0.0237984
0.0241754
0.0242151
0.0239614
0.0234847
0.0229924
0.0226146
0.0224407
0.0228257
0.0233839
0.0239662
0.0246995
0.0248641
0.0238465
0.0207791
0.0148123
0.0055977
-0.00455418
-0.00540927
-0.0059137
-0.00612612
-0.00620812
-0.00626831
-0.00633465
-0.00638828
-0.00640122
-0.00635557
-0.00624554
-0.00607212
-0.00583769
-0.00554359
-0.00519001
-0.00477682
-0.00430434
-0.00377378
-0.00318698
-0.00254653
-0.00185529
-0.00111623
-0.000333179
0.000491751
0.00135776
0.00226437
0.00321104
0.0041975
0.00522486
0.0062945
0.00740811
0.00856619
0.0097684
0.0110113
0.0122895
0.0135923
0.0149064
0.016212
0.0174874
0.0187008
0.0198256
0.0208185
0.0216477
0.0222677
0.0226586
0.022791
0.0227027
0.0224333
0.022121
0.0218424