/*--------------------------------*- C++ -*----------------------------------*\
| =========                 |                                                 |
| \\      /  F ield         | OpenFOAM: The Open Source CFD Toolbox           |
|  \\    /   O peration     | Version:  2512                                  |
|   \\  /    A nd           | Website:  www.openfoam.com                      |
|    \\/     M anipulation  |                                                 |
\*---------------------------------------------------------------------------*/
FoamFile
{
    version     2.0;
    format      ascii;
    arch        "LSB;label=32;scalar=64";
    class       surfaceScalarField;
    location    "142";
    object      phi;
}
// * * * * * * * * * * * * * * * * * * * * * * * * * * * * * * * * * * * * * //

dimensions      [0 3 -1 0 0 0 0];

oriented        oriented;

internalField   nonuniform List<scalar> 
26232
(
0.000130836
0.00099585
-0.00112669
0.000763836
0.00169505
-0.00232805
0.00208976
0.00122197
-0.00254789
0.00427555
-0.000401044
-0.00178475
0.00748031
-0.00316736
-3.74058e-05
0.0118551
-0.00707051
0.00269575
0.0175263
-0.0120886
0.00641742
0.0245732
-0.0181656
0.0111187
0.0329985
-0.0251944
0.0167691
0.0427044
-0.0330084
0.0233025
0.0534802
-0.0413822
0.0306065
0.0650081
-0.0500459
0.038518
0.0768888
-0.058708
0.0468273
0.0886827
-0.0670848
0.0552909
0.0999606
-0.0749288
0.0636509
0.110355
-0.0820535
0.071659
0.119603
-0.0883481
0.0791004
0.12757
-0.0937833
0.0858157
0.13426
-0.0984011
0.0917114
0.139784
-0.102303
0.0967799
0.144329
-0.105594
0.101049
0.148062
-0.108463
0.10473
0.150923
-0.110684
0.107824
-0.113124
0.111148
0.152899
0.000167707
0.000828143
0.000948974
0.000913786
0.00257694
-0.000405995
0.00525664
-0.00308075
0.0091713
-0.00708201
0.0144676
-0.0123668
0.0212273
-0.0188483
0.0294351
-0.0263734
0.0389535
-0.0347128
0.0495146
-0.0435695
0.0607376
-0.0526052
0.0721684
-0.0614768
0.0833363
-0.0698758
0.0938138
-0.0775623
0.103271
-0.0843862
0.111512
-0.0902941
0.118485
-0.0953214
0.124273
-0.0995711
0.129057
-0.103185
0.13307
-0.106316
0.136573
-0.109098
0.139764
-0.111653
0.143054
-0.113974
-0.116535
0.146465
0.000241075
0.000587068
0.00125629
-0.000101433
0.00330617
-0.00245587
0.00661495
-0.00638953
0.0113594
-0.0118264
0.0176366
-0.018644
0.025426
-0.0266377
0.0345608
-0.0355082
0.0447247
-0.0448766
0.0554805
-0.0543254
0.0663275
-0.0634522
0.0767728
-0.0719221
0.0864021
-0.0795051
0.0949314
-0.0860917
0.102233
-0.0916881
0.108332
-0.0963925
0.113371
-0.10036
0.117568
-0.103768
0.121164
-0.106782
0.124386
-0.109538
0.127421
-0.112133
0.130411
-0.114644
0.133476
-0.11704
-0.119627
0.136568
0.000345984
0.000241084
0.00166813
-0.00142357
0.00423408
-0.00502182
0.00825764
-0.0104131
0.0138652
-0.017434
0.0210492
-0.025828
0.0296322
-0.0352208
0.0392642
-0.0451402
0.049462
-0.0550744
0.059684
-0.0645474
0.0694192
-0.0731873
0.0782653
-0.0807683
0.0859793
-0.0872191
0.0924895
-0.0926018
0.0978729
-0.0970716
0.102309
-0.100829
0.106026
-0.104077
0.109251
-0.106993
0.11218
-0.109711
0.114965
-0.112323
0.117721
-0.114889
0.120525
-0.117447
0.12347
-0.119985
-0.122711
0.126554
0.000474839
-0.000233755
0.00215602
-0.00310475
0.00529244
-0.00815824
0.0100486
-0.0151692
0.0164488
-0.0238342
0.0243284
-0.0337075
0.0333226
-0.044215
0.0429128
-0.0547305
0.0525181
-0.0646797
0.061603
-0.0736323
0.0697667
-0.081351
0.0767908
-0.0877924
0.0826404
-0.0930686
0.087426
-0.0973874
0.0913462
-0.100992
0.0946289
-0.104112
0.0974867
-0.106935
0.100093
-0.109599
0.102578
-0.112195
0.10503
-0.114776
0.107513
-0.117372
0.110069
-0.120002
0.112742
-0.122658
-0.125454
0.115485
0.00062043
-0.000854185
0.00268913
-0.00517345
0.00640427
-0.0118734
0.0118353
-0.0206002
0.0188542
-0.0308532
0.0271061
-0.0419594
0.0360501
-0.053159
0.0450653
-0.0637457
0.0535798
-0.0731942
0.0611752
-0.0812277
0.0676373
-0.087813
0.0729479
-0.0931031
0.0772359
-0.0973566
0.0807096
-0.100861
0.0835954
-0.103878
0.0860958
-0.106612
0.0883697
-0.109209
0.0905307
-0.111761
0.092656
-0.11432
0.0947966
-0.116916
0.0969876
-0.119563
0.0992532
-0.122268
0.101622
-0.125028
-0.127902
0.10407
0.000776195
-0.00163038
0.00323601
-0.00763327
0.0074891
-0.0161265
0.0134632
-0.0265743
0.0208413
-0.0382313
0.029081
-0.050199
0.037523
-0.061601
0.0455438
-0.0717665
0.052683
-0.0803335
0.058705
-0.0872497
0.0635878
-0.0926958
0.0674647
-0.09698
0.0705487
-0.100441
0.0730664
-0.103379
0.0752152
-0.106026
0.0771464
-0.108543
0.0789648
-0.111027
0.0807392
-0.113535
0.0825135
-0.116094
0.0843165
-0.118719
0.0861682
-0.121415
0.0880831
-0.124183
0.0900773
-0.127022
-0.129953
0.0921282
0.000934972
-0.00256535
0.00376309
-0.0104614
0.00846465
-0.020828
0.0147869
-0.0328965
0.0222147
-0.0456592
0.0300618
-0.0580461
0.0376399
-0.0691791
0.0444191
-0.0785457
0.0501118
-0.0860262
0.0546685
-0.0918064
0.0582134
-0.0962407
0.0609596
-0.0997263
0.0631363
-0.102617
0.0649419
-0.105184
0.0665264
-0.107611
0.0679914
-0.110008
0.0694017
-0.112438
0.0707972
-0.114931
0.0722035
-0.117501
0.0736381
-0.120154
0.075114
-0.122891
0.076642
-0.125711
0.0782327
-0.128612
-0.131595
0.0798751
0.00108819
-0.00365355
0.00423432
-0.0136075
0.00925143
-0.0258451
0.0156857
-0.0393308
0.0228493
-0.0528228
0.029987
-0.0651838
0.0364724
-0.0756645
0.0419313
-0.0840046
0.0462574
-0.0903523
0.0495479
-0.0950969
0.0520101
-0.0987028
0.053877
-0.101593
0.0553535
-0.104094
0.056594
-0.106425
0.0577022
-0.108719
0.0587423
-0.111048
0.0597529
-0.113448
0.0607573
-0.115935
0.0617712
-0.118515
0.0628061
-0.121189
0.0638712
-0.123956
0.0649742
-0.126814
0.0661215
-0.12976
-0.132782
0.0673081
0.00122576
-0.0048793
0.00461335
-0.0169951
0.00978116
-0.031013
0.0160794
-0.045629
0.022703
-0.0594464
0.0289117
-0.0713925
0.0342075
-0.0809603
0.0383902
-0.0881873
0.0415052
-0.0934672
0.043742
-0.0973337
0.0453364
-0.100297
0.0465038
-0.102761
0.0474089
-0.104999
0.0481622
-0.107178
0.0488314
-0.109388
0.0494557
-0.111673
0.050058
-0.114051
0.0506527
-0.11653
0.0512503
-0.119112
0.0518591
-0.121797
0.0524859
-0.124583
0.0531371
-0.127465
0.053817
-0.13044
-0.133492
0.0545271
0.00133759
-0.00621689
0.0048691
-0.0205266
0.0100069
-0.0361508
0.015937
-0.0515591
0.0218093
-0.0653188
0.0269703
-0.0765534
0.0310817
-0.0850717
0.0341007
-0.0912063
0.0361787
-0.0955452
0.0375474
-0.0987024
0.0384345
-0.101184
0.0390201
-0.103346
0.039427
-0.105406
0.0397303
-0.107481
0.0399724
-0.10963
0.0401772
-0.111877
0.0403585
-0.114232
0.0405263
-0.116697
0.040688
-0.119274
0.0408499
-0.121959
0.0410173
-0.12475
0.0411944
-0.127642
0.0413834
-0.130629
-0.133696
0.0415875
0.00141796
-0.00763485
0.00498316
-0.0240918
0.00991056
-0.0410782
0.0152765
-0.056925
0.0202599
-0.0703022
0.0243399
-0.0806334
0.0273373
-0.0880691
0.0293311
-0.0932002
0.0305326
-0.0967467
0.0311784
-0.0993483
0.0314682
-0.101474
0.0315427
-0.103421
0.0314892
-0.105352
0.0313567
-0.107349
0.0311715
-0.109445
0.0309481
-0.111654
0.0306956
-0.113979
0.030421
-0.116423
0.0301303
-0.118983
0.0298287
-0.121658
0.0295209
-0.124442
0.0292103
-0.127331
0.0288978
-0.130316
0.0285887
-0.133387
-0.000227952
0.00272975
-0.00250179
-0.000828582
0.00633554
-0.00573491
-0.00174699
0.00864673
-0.00772832
-0.00293245
0.00996962
-0.00878416
-0.00433884
0.0105688
-0.00916238
-0.00592676
0.0106621
-0.00907421
-0.007664
0.0104095
-0.00867227
-0.00952444
0.00990948
-0.00804904
-0.0114863
0.00920554
-0.00724369
-0.0135302
0.00829816
-0.00625421
-0.0156377
0.00715868
-0.00505124
-0.0177889
0.00574158
-0.0035904
-0.0199697
0.00399451
-0.00181367
-0.0221343
0.0018597
0.000304926
-0.0242694
-0.00068841
0.00282352
-0.0263396
-0.00370648
0.00577666
-0.0283043
-0.00721964
0.00918434
-0.0301201
-0.0112361
0.0130519
-0.0317414
-0.0157433
0.0173646
-0.0331228
-0.020702
0.0220834
-0.0342227
-0.0260426
0.0271426
-0.0350084
-0.0316646
0.0324503
-0.0354714
-0.0374316
0.0378946
-0.0431344
-0.0356707
0.0433337
-0.000138721
0.00286847
-0.000549902
0.00674672
-0.00122287
0.0093197
-0.00213154
0.0108783
-0.00324039
0.0116776
-0.00451111
0.0119328
-0.00590719
0.0118056
-0.00739617
0.0113985
-0.00895026
0.0107596
-0.0105457
0.00989364
-0.0121617
0.00877465
-0.0137788
0.00735871
-0.015378
0.00559367
-0.0169412
0.00342294
-0.0184235
0.000793845
-0.0198279
-0.00230208
-0.0211143
-0.00593318
-0.0222546
-0.0100958
-0.0232211
-0.0147768
-0.023989
-0.0199342
-0.0245407
-0.0254909
-0.0248738
-0.0313316
-0.0250061
-0.0372992
-0.0431594
-0.024981
-3.54908e-05
0.00290396
-0.000218267
0.0069295
-0.000582809
0.00968424
-0.00112851
0.011424
-0.00183199
0.0123811
-0.00265679
0.0127576
-0.00356181
0.0127106
-0.00450674
0.0123434
-0.00545497
0.0117079
-0.00637451
0.0108132
-0.0072375
0.00963763
-0.00801892
0.00814014
-0.00869493
0.00626967
-0.00924427
0.00397229
-0.00964531
0.00119489
-0.00986412
-0.00208328
-0.00988432
-0.00591298
-0.00968367
-0.0102964
-0.0092439
-0.0152165
-0.00855265
-0.0206254
-0.00760621
-0.0264374
-0.00641655
-0.0325212
-0.00501976
-0.038696
-0.0447498
-0.00342938
6.93208e-05
0.00283464
0.000130109
0.00686871
0.000108388
0.00970596
-2.02416e-05
0.0115526
-0.000244404
0.0126053
-0.000531403
0.0130446
-0.000837175
0.0130164
-0.00111419
0.0126204
-0.00131655
0.0119102
-0.00140245
0.0108991
-0.00133468
0.00956986
-0.00107981
0.00788527
-0.000607148
0.00579702
0.000112286
0.00325285
0.00110586
0.000201308
0.00240843
-0.00338584
0.00404319
-0.00754774
0.00603157
-0.0122848
0.00838891
-0.0175739
0.0111206
-0.0233571
0.0142205
-0.0295373
0.0176715
-0.0359722
0.0214199
-0.0424445
-0.0487296
0.0253997
0.000162337
0.0026723
0.000453312
0.00657773
0.000771268
0.009388
0.00107341
0.0112505
0.00135815
0.0123205
0.00165288
0.0127499
0.00200215
0.0126671
0.00245837
0.0121642
0.00307529
0.0112933
0.00390423
0.0100701
0.00499265
0.00848144
0.00638432
0.00649359
0.00812039
0.00406095
0.0102399
0.00113332
0.0127771
-0.0023359
0.0157749
-0.00638357
0.0192604
-0.0110333
0.0232582
-0.0162826
0.0277805
-0.0220962
0.0328228
-0.0283995
0.0383582
-0.0350727
0.0443431
-0.041957
0.0506915
-0.0487929
-0.0554918
0.0574536
0.000232114
0.00244019
0.0007136
0.00609625
0.00133187
0.00876973
0.00203349
0.0105489
0.00280808
0.0115459
0.00367713
0.0118809
0.00468334
0.0116609
0.00588139
0.0109661
0.00733088
0.0098438
0.00909189
0.00830913
0.0112225
0.0063508
0.0137778
0.0039383
0.0168119
0.00102685
0.020379
-0.0024338
0.0245249
-0.00648179
0.0292935
-0.0111522
0.034717
-0.0164568
0.0408117
-0.0223773
0.0475709
-0.0288553
0.0549584
-0.0357869
0.0629041
-0.0430184
0.0713062
-0.0503591
0.0800401
-0.0575268
-0.0645639
0.0891122
0.00027098
0.00216921
0.000883192
0.00548404
0.00173203
0.00792089
0.00276483
0.00951606
0.00396811
0.0103426
0.00535965
0.0104893
0.00698036
0.0100402
0.00888643
0.00906006
0.011143
0.00758726
0.0138196
0.00563253
0.0169881
0.00318224
0.0207079
0.000218594
0.0250695
-0.00333483
0.0301224
-0.00748669
0.0359255
-0.0122849
0.0425192
-0.0177459
0.0499201
-0.0238577
0.0581113
-0.0305685
0.0670357
-0.0377797
0.0765889
-0.0453402
0.0866315
-0.053061
0.0969671
-0.0606947
0.107423
-0.0679824
-0.0749899
0.117849
0.000276715
0.00189249
0.00095146
0.00480929
0.00194588
0.00692647
0.00322033
0.00824162
0.00476653
0.00879644
0.00660412
0.00865174
0.00877597
0.00786834
0.0113427
0.0064933
0.0143776
0.0045524
0.0179621
0.00204803
0.0221811
-0.00103681
0.0271329
-0.0047332
0.032878
-0.00907995
0.0394946
-0.0141033
0.0470259
-0.0198161
0.055481
-0.026201
0.0648227
-0.0331994
0.0749587
-0.0407045
0.0857391
-0.0485601
0.0969569
-0.056558
0.10838
-0.0644843
0.119721
-0.0720359
0.130808
-0.0790687
-0.0854535
0.141271
0.000253353
0.00163914
0.000928684
0.00413396
0.00198913
0.00586602
0.00341986
0.00681089
0.00522802
0.00698829
0.00744404
0.00643571
0.0101209
0.00519152
0.0133309
0.00328321
0.0171607
0.000722638
0.0217097
-0.00250094
0.0270764
-0.0064035
0.0333534
-0.0110102
0.0406109
-0.0163375
0.0488887
-0.0223811
0.0581769
-0.0291043
0.0684039
-0.036428
0.0794289
-0.0442245
0.0910427
-0.0523182
0.102978
-0.0604951
0.114928
-0.0685084
0.126584
-0.0761403
0.137639
-0.0830908
0.147956
-0.0893862
-0.0945987
0.157102
0.000211229
0.00142791
0.000846936
0.00349825
0.00192247
0.00479049
0.00345822
0.00527514
0.00548779
0.00495872
0.00806368
0.00385981
0.0112592
0.00199599
0.015166
-0.000623576
0.0198902
-0.00400152
0.0255364
-0.00814713
0.0322013
-0.0130684
0.0399516
-0.0187605
0.0488068
-0.0251927
0.0587223
-0.0322965
0.0695765
-0.0399586
0.0811674
-0.0480188
0.0932191
-0.0562762
0.105403
-0.0645017
0.117364
-0.0724562
0.128768
-0.0799128
0.139317
-0.0866897
0.148823
-0.0925967
0.157185
-0.0977475
-0.101619
0.164205
0.00016588
0.00126203
0.000756258
0.00290788
0.00184414
0.00370261
0.00349336
0.00362592
0.00577421
0.00267787
0.00877116
0.000862858
0.0125851
-0.00181797
0.0173276
-0.00536609
0.0231084
-0.00978229
0.0300181
-0.0150568
0.0381066
-0.0211569
0.0473611
-0.0280151
0.0576882
-0.0355199
0.068905
-0.0435133
0.0807416
-0.0517952
0.092858
-0.0601352
0.104873
-0.0682912
0.116404
-0.0760324
0.127107
-0.0831599
0.136734
-0.0895395
0.14513
-0.0950858
0.152355
-0.0998216
0.158401
-0.103794
-0.106719
0.163501
0.000135343
0.000715168
0.00186989
0.00371106
0.00635153
0.00991013
0.0145096
0.0202622
0.027249
0.0354947
0.0449442
0.0554471
0.0667546
0.0785322
0.090388
0.101912
0.112721
0.122504
0.131056
0.138296
0.144259
0.149167
0.153197
0.157627
-0.0345648
-0.0676976
0.0665917
-0.0327398
-0.0771815
0.0753566
-0.0298808
-0.0856658
0.0828067
-0.0256918
-0.0923273
0.0881383
-0.0198564
-0.0962845
0.0904491
-0.0121587
-0.0965078
0.0888101
-0.00253805
-0.0919881
0.0823674
0.00909739
-0.0820439
0.0704084
0.0218781
-0.0657916
0.0530109
0.0352709
-0.0435768
0.0301841
0.0487701
-0.016111
0.00261173
0.0621106
0.015186
-0.0285265
0.0751779
0.0488123
-0.0618795
0.0875419
0.0818897
-0.0942537
0.0984422
0.110954
-0.121854
0.107067
0.133181
-0.141806
0.112994
0.147479
-0.153406
0.11608
0.15485
-0.157936
0.115983
0.158635
-0.158537
0.112556
0.163337
-0.159911
0.10712
0.170193
-0.164758
0.102804
0.172751
-0.168435
0.102834
0.158662
-0.158692
0.10822
0.11884
-0.124226
0.117702
0.0551228
-0.0646045
0.128973
-0.0195396
0.00826879
0.139758
-0.0887882
0.0780028
0.14813
-0.140138
0.131767
0.153163
-0.170767
0.165733
0.155287
-0.185094
0.182969
0.155141
-0.188457
0.188603
0.152149
-0.189469
0.192461
0.145593
-0.196151
0.202707
0.136971
-0.207252
0.215874
0.130058
-0.201923
0.208836
0.128102
-0.158936
0.160892
0.131597
-0.076567
0.0730718
0.138636
0.0219768
-0.0290161
0.14679
0.106607
-0.114761
0.153662
0.166898
-0.173771
0.156827
0.200594
-0.203759
0.154479
0.23161
-0.229262
0.147469
0.252322
-0.245312
0.139888
0.258398
-0.250817
0.135968
0.208997
-0.205077
0.137776
0.109244
-0.111052
0.143827
-0.00847129
0.00242004
0.150065
-0.120865
0.114627
0.151921
-0.176493
0.174637
0.148149
-0.246632
0.250403
0.142294
-0.256662
0.262517
0.139603
-0.261495
0.264186
0.141599
-0.180662
0.178666
0.145074
-0.0418626
0.0383873
0.146164
0.0484423
-0.0495325
0.144259
0.243332
-0.241427
0.142488
0.251389
-0.249618
0.141648
0.314236
-0.313397
0.140602
0.232099
-0.231053
-0.0350305
0.0368703
-0.0260697
-0.0666089
-0.0270303
-0.0762209
-0.0275264
-0.0851697
-0.0272234
-0.0926303
-0.0256125
-0.0978954
-0.0221147
-0.100006
-0.0161759
-0.0979269
-0.00774444
-0.0904753
0.00337298
-0.0769091
0.0168054
-0.0570093
0.0311393
-0.0304449
0.0461982
0.000127155
0.0613426
0.0336679
0.0760569
0.0671753
0.089521
0.09749
0.100841
0.121861
0.109355
0.138965
0.114562
0.149642
0.116081
0.157116
0.11432
0.165099
0.11123
0.173284
0.109842
0.174139
0.112356
0.156148
0.118815
0.112381
0.127715
0.0462223
0.137281
-0.0291052
0.145765
-0.0972725
0.15177
-0.146142
0.154649
-0.173646
0.154926
-0.185371
0.153425
-0.186956
0.149654
-0.185699
0.14256
-0.189056
0.133237
-0.197929
0.125584
-0.19427
0.123382
-0.156734
0.127409
-0.0805933
0.135682
0.0137034
0.145401
0.0968883
0.153721
0.158579
0.157964
0.19635
0.15641
0.233164
0.150118
0.258614
0.143083
0.265434
0.139067
0.213012
0.140075
0.108235
0.145012
-0.0134079
0.150485
-0.126337
0.151954
-0.177962
0.147959
-0.242636
0.142025
-0.250728
0.139316
-0.258785
0.141407
-0.182753
0.144731
-0.0451867
0.145843
0.0473299
0.144051
0.245124
0.142353
0.253087
0.141732
0.314858
0.140908
0.232922
-0.0332902
-0.00594071
-0.0640976
-0.00898116
-0.0731804
-0.012305
-0.0818459
-0.0156623
-0.089273
-0.0185247
-0.095033
-0.0202216
-0.0983088
-0.0195613
-0.0985872
-0.0157452
-0.0942914
-0.00855621
-0.084098
0.00204619
-0.0676117
0.0161156
-0.0445143
0.0317989
-0.0155561
0.0484993
0.0169676
0.0651889
0.0504857
0.080934
0.0817449
0.0947077
0.108088
0.105592
0.128081
0.112854
0.142381
0.116266
0.153703
0.116739
0.164626
0.116504
0.173519
0.118117
0.172526
0.122752
0.151512
0.1297
0.105433
0.137668
0.0382549
0.145259
-0.0366965
0.151309
-0.103323
0.154912
-0.149745
0.155731
-0.174465
0.15432
-0.183959
0.151611
-0.184247
0.147268
-0.181355
0.139953
-0.181742
0.130197
-0.188172
0.121822
-0.185895
0.119159
-0.154071
0.123474
-0.0849088
0.13276
0.00441795
0.143902
0.0857458
0.153626
0.148855
0.159033
0.190943
0.158468
0.23373
0.153077
0.264004
0.146662
0.271849
0.14253
0.217144
0.142625
0.10814
0.146328
-0.0171104
0.15095
-0.13096
0.152062
-0.179075
0.147882
-0.238456
0.14185
-0.244697
0.139075
-0.25601
0.141262
-0.184939
0.144493
-0.0484175
0.145658
0.0461639
0.143956
0.246827
0.142309
0.254734
0.141941
0.315225
0.141394
0.23347
-0.0316726
0.0220722
-0.06077
0.0179952
-0.0691035
0.012975
-0.0768257
0.00699194
-0.0832899
0.000433078
-0.0884742
-0.00554795
-0.0923277
-0.0103428
-0.0937924
-0.0124674
-0.0921668
-0.0108854
-0.08568
-0.00492056
-0.0735765
0.00573085
-0.0551657
0.0201731
-0.0299983
0.0372286
-8.79286e-05
0.0550574
0.0326569
0.0725202
0.064282
0.0883235
0.0922843
0.101298
0.115107
0.110614
0.133064
0.116271
0.148046
0.119484
0.161414
0.122417
0.170586
0.126932
0.168012
0.133256
0.145188
0.140323
0.0983666
0.147061
0.0315166
0.152643
-0.0422786
0.156292
-0.106972
0.157546
-0.150999
0.156418
-0.173337
0.153485
-0.181026
0.149687
-0.180449
0.1449
-0.176568
0.137648
-0.17449
0.127804
-0.178328
0.118823
-0.176914
0.115503
-0.150752
0.119767
-0.089173
0.129825
-0.00563989
0.142225
0.0733461
0.153303
0.137777
0.159968
0.184278
0.160583
0.233115
0.156261
0.268327
0.150536
0.277575
0.146254
0.221426
0.145389
0.109005
0.147749
-0.0194709
0.151442
-0.134653
0.152214
-0.179847
0.147884
-0.234126
0.141733
-0.238545
0.138837
-0.253115
0.141126
-0.187227
0.14434
-0.0516314
0.145599
0.0449048
0.14397
0.248455
0.142358
0.256346
0.142281
0.315302
0.142062
0.23369
-0.0302006
0.0537342
-0.0570506
0.0493843
-0.0647536
0.0440555
-0.0714968
0.0375516
-0.0767861
0.0297723
-0.0806948
0.0207169
-0.0832724
0.0112928
-0.0843683
0.00287037
-0.0837443
-0.00193406
-0.0808756
-0.00227842
-0.0732321
0.00276945
-0.0602136
0.0136186
-0.0408475
0.0285632
-0.0150325
0.0460671
0.0151529
0.0642119
0.0461373
0.0813676
0.0751286
0.0960822
0.100393
0.107491
0.121655
0.115716
0.139821
0.122017
0.155112
0.128232
0.164371
0.13546
0.160783
0.143188
0.13746
0.150098
0.0914563
0.155599
0.0260154
0.159234
-0.0459138
0.160586
-0.108324
0.159575
-0.149988
0.156629
-0.170391
0.15237
-0.176767
0.147637
-0.175716
0.142509
-0.171441
0.135538
-0.167519
0.125961
-0.168751
0.116596
-0.167549
0.112474
-0.14663
0.116383
-0.0930817
0.126841
-0.0160982
0.140297
0.0598902
0.15266
0.125414
0.160673
0.176265
0.162649
0.231138
0.159549
0.271427
0.154564
0.282559
0.150149
0.225841
0.148281
0.110874
0.149247
-0.0204368
0.151934
-0.13734
0.152376
-0.180288
0.147936
-0.229686
0.141643
-0.232252
0.138563
-0.250035
0.14096
-0.189624
0.144247
-0.0549181
0.145649
0.043502
0.144089
0.250015
0.1425
0.257936
0.142752
0.31505
0.142915
0.233527
-0.0288975
0.0849667
-0.052905
0.0802598
-0.0600468
0.0747749
-0.0660119
0.0683449
-0.0703561
0.0608223
-0.0731722
0.051992
-0.0744421
0.041897
-0.0742732
0.0311425
-0.0729898
0.0209185
-0.0706517
0.0137426
-0.0660563
0.0115371
-0.0580081
0.0154032
-0.0447135
0.0253231
-0.0249524
0.0399629
0.000513061
0.0569879
0.0291123
0.0743352
0.0577813
0.0902186
0.0845091
0.103609
0.108265
0.114517
0.128914
0.123978
0.145651
0.133323
0.155026
0.14293
0.151177
0.151761
0.128629
0.158608
0.0846093
0.162963
0.0216608
0.164854
-0.0478044
0.164046
-0.107517
0.160914
-0.146856
0.15631
-0.165787
0.150926
-0.171382
0.145421
-0.170211
0.140021
-0.166042
0.133474
-0.160971
0.124495
-0.159772
0.115061
-0.158115
0.110129
-0.141697
0.113331
-0.096284
0.123806
-0.026573
0.138035
0.045661
0.15158
0.11187
0.161019
0.166826
0.164522
0.227635
0.162782
0.273166
0.158601
0.28674
0.15407
0.230372
0.151227
0.113718
0.150774
-0.0199845
0.152393
-0.138959
0.152508
-0.180403
0.148003
-0.225181
0.141558
-0.225807
0.138222
-0.246699
0.140724
-0.192126
0.144182
-0.0583765
0.145792
0.0418919
0.144309
0.251498
0.142735
0.25951
0.143355
0.314429
0.143954
0.232928
-0.0277875
0.113067
-0.0481238
0.107746
-0.0547252
0.101756
-0.060022
0.0951387
-0.0637387
0.0879782
-0.0660117
0.0801688
-0.0666326
0.0714199
-0.0655244
0.0614612
-0.0630311
0.0504883
-0.0596788
0.0399011
-0.055469
0.0317361
-0.0498432
0.0282354
-0.0412128
0.03097
-0.0276869
0.0399471
-0.0084641
0.0533885
0.015671
0.0691268
0.042043
0.0850841
0.0685518
0.0998677
0.0934812
0.113112
0.115669
0.125388
0.133374
0.137411
0.143003
0.148915
0.139673
0.158586
0.118958
0.165343
0.0778516
0.168882
0.0181222
0.169263
-0.048185
0.166527
-0.104781
0.161485
-0.141813
0.155403
-0.159705
0.149095
-0.165074
0.142998
-0.164115
0.13738
-0.160424
0.131309
-0.1549
0.123189
-0.151652
0.114055
-0.148981
0.108426
-0.136068
0.110654
-0.0985119
0.120716
-0.0366356
0.135369
0.0310081
0.14995
0.0972892
0.160863
0.155913
0.166042
0.222456
0.165798
0.27341
0.16248
0.290059
0.157868
0.234984
0.154134
0.117452
0.152279
-0.01813
0.152784
-0.139464
0.152566
-0.180185
0.148051
-0.220665
0.14146
-0.219217
0.137791
-0.243029
0.140378
-0.194713
0.144111
-0.0621091
0.146006
0.0399968
0.144624
0.252881
0.143063
0.261072
0.144089
0.313402
0.145177
0.231841
-0.0268949
0.135797
-0.0426499
0.129795
-0.0487232
0.123162
-0.0533891
0.116116
-0.0566926
0.108921
-0.0588165
0.101678
-0.0593892
0.0943025
-0.0581492
0.0864811
-0.0552097
0.0777716
-0.0509694
0.0681614
-0.0458588
0.058464
-0.0401458
0.0505621
-0.0333109
0.0468216
-0.0239464
0.0488388
-0.0104813
0.0565163
0.00799355
0.0685057
0.0300536
0.082827
0.0542304
0.097751
0.0785572
0.112373
0.101048
0.126628
0.119119
0.140559
0.129072
0.153366
0.126866
0.163591
0.108733
0.170294
0.0711485
0.173259
0.0151576
0.172348
-0.0472744
0.167918
-0.100351
0.16121
-0.135105
0.153857
-0.152353
0.146817
-0.158034
0.140312
-0.15761
0.13453
-0.154642
0.128911
-0.14928
0.121804
-0.144545
0.113336
-0.140513
0.107263
-0.129995
0.108348
-0.0995969
0.117591
-0.0458785
0.132255
0.0163445
0.147671
0.0818727
0.160065
0.14352
0.167031
0.215491
0.168397
0.272044
0.166018
0.292438
0.161404
0.239597
0.156891
0.121965
0.153702
-0.0149415
0.153066
-0.138828
0.152502
-0.179621
0.14804
-0.216203
0.141335
-0.212512
0.137257
-0.238952
0.139888
-0.197344
0.143995
-0.0662159
0.146266
0.0377254
0.145027
0.25412
0.143483
0.262616
0.144953
0.311932
0.146583
0.230211
-0.0262439
0.151157
-0.0367049
0.144665
-0.0422311
0.137575
-0.0462999
0.130257
-0.0493745
0.123027
-0.0515862
0.116046
-0.0524076
0.109421
-0.0515245
0.103144
-0.048933
0.0969517
-0.0447769
0.0903796
-0.0392867
0.0831011
-0.0328673
0.0755534
-0.0257632
0.0692437
-0.0176368
0.0662954
-0.00753293
0.067908
0.00638087
0.0746401
0.0233216
0.0854575
0.0434131
0.098794
0.0652206
0.113325
0.0865166
0.128312
0.104133
0.143115
0.114269
0.156495
0.113486
0.166956
0.0982709
0.173651
0.0644535
0.176075
0.0127336
0.174047
-0.0452458
0.168107
-0.0944114
0.159981
-0.12698
0.151583
-0.143955
0.143988
-0.150438
0.137253
-0.150876
0.131383
-0.148771
0.126151
-0.144048
0.120103
-0.138498
0.112607
-0.133017
0.106429
-0.123817
0.106388
-0.0995559
0.11444
-0.0539303
0.128687
0.0020974
0.144669
0.0658907
0.158487
0.129701
0.167343
0.206635
0.170441
0.268945
0.16906
0.293819
0.164544
0.244114
0.159398
0.127111
0.154979
-0.0105218
0.153192
-0.137041
0.152263
-0.178692
0.147925
-0.211864
0.141166
-0.205754
0.136613
-0.234398
0.139223
-0.199954
0.143796
-0.0707888
0.146546
0.0349746
0.145514
0.255152
0.143996
0.264134
0.145946
0.309982
0.148168
0.227989
-0.0258585
0.158312
-0.0308124
0.151749
-0.0356675
0.144615
-0.0391659
0.13741
-0.0421692
0.130401
-0.0445778
0.123747
-0.0457536
0.117661
-0.0454383
0.112338
-0.0436102
0.107763
-0.0402016
0.103664
-0.0351881
0.0995874
-0.0287906
0.0951794
-0.0213551
0.0905668
-0.0130242
0.08669
-0.00365619
0.0850958
0.0079751
0.0872468
0.0211705
0.0937271
0.0369328
0.103931
0.055017
0.11673
0.0737172
0.130988
0.0898745
0.145502
0.0997548
0.158693
0.100296
0.169036
0.0879276
0.175595
0.0578945
0.17754
0.0107886
0.174363
-0.0420686
0.167022
-0.0870702
0.157713
-0.11767
0.148503
-0.134745
0.140511
-0.142447
0.133709
-0.144074
0.127853
-0.142914
0.122934
-0.13913
0.117896
-0.133459
0.111589
-0.12671
0.105664
-0.117892
0.104639
-0.0985315
0.111296
-0.0605866
0.124698
-0.0113054
0.140916
0.0496733
0.156027
0.11459
0.16678
0.195882
0.171687
0.264038
0.171419
0.294087
0.167146
0.248387
0.161573
0.132683
0.156056
-0.00500489
0.153133
-0.134118
0.151808
-0.177367
0.147667
-0.207723
0.140943
-0.19903
0.135869
-0.229324
0.138363
-0.202448
0.143476
-0.0759013
0.146817
0.031633
0.146074
0.255896
0.144601
0.265607
0.147067
0.307516
0.149929
0.225128
-0.0257621
0.158217
-0.0255285
0.151997
-0.0294472
0.145237
-0.0324064
0.138501
-0.0354327
0.131936
-0.038013
0.125738
-0.0395553
0.120221
-0.0399221
0.115637
-0.0390259
0.112083
-0.0366472
0.109513
-0.0326186
0.107681
-0.0269584
0.106182
-0.0198556
0.104684
-0.0115267
0.103484
-0.00245588
0.102353
0.00910635
0.102835
0.0206882
0.106278
0.0334896
0.113125
0.0481701
0.123089
0.0637535
0.135249
0.0777138
0.148249
0.086755
0.160419
0.0881255
0.170292
0.0780553
0.176667
0.0515187
0.177775
0.00968071
0.173537
-0.0378305
0.164956
-0.0784892
0.15474
-0.107454
0.144974
-0.124979
0.136716
-0.13419
0.129934
-0.137291
0.124163
-0.137143
0.119444
-0.134411
0.115236
-0.129251
0.110191
-0.121665
0.10482
-0.112521
0.103021
-0.0967321
0.108162
-0.0657272
0.120344
-0.0234874
0.136389
0.0336283
0.152622
0.0983571
0.165378
0.183125
0.17222
0.257196
0.173063
0.293245
0.169132
0.252318
0.163375
0.138439
0.156959
0.00141112
0.152942
-0.1301
0.15116
-0.175586
0.147272
-0.203835
0.140668
-0.192426
0.135073
-0.223729
0.137333
-0.204709
0.143006
-0.0815743
0.147042
0.0275978
0.146699
0.256238
0.145298
0.267008
0.148315
0.304498
0.151859
0.221584
-0.0259779
0.153482
-0.0213839
0.147909
-0.0238737
0.142156
-0.0266537
0.136352
-0.0296293
0.130626
-0.032287
0.125262
-0.0341911
0.120471
-0.0351306
0.11641
-0.034965
0.113281
-0.0335183
0.111281
-0.030619
0.110451
-0.0261277
0.110615
-0.02002
0.111436
-0.0123479
0.112246
-0.00326545
0.113827
0.00752499
0.115864
0.0186508
0.119033
0.0303213
0.124279
0.0429236
0.131921
0.0561113
0.141646
0.067989
0.152499
0.0759018
0.163121
0.0775044
0.172037
0.0691384
0.177376
0.0461802
0.177671
0.00938589
0.171657
-0.0318165
0.161964
-0.068796
0.151271
-0.0967613
0.141362
-0.11507
0.13304
-0.125867
0.126326
-0.130578
0.120669
-0.131486
0.116016
-0.129758
0.112351
-0.125586
0.108476
-0.11779
0.103871
-0.107916
0.10154
-0.0944005
0.105226
-0.069414
0.115837
-0.0340979
0.131296
0.0181689
0.148059
0.0815946
0.162529
0.168655
0.171436
0.248289
0.17366
0.291021
0.170311
0.255666
0.164639
0.144112
0.157625
0.0084251
0.152606
-0.125081
0.150352
-0.173332
0.146758
-0.200241
0.140333
-0.186001
0.134268
-0.217664
0.136203
-0.206644
0.142418
-0.0877894
0.147207
0.0228085
0.147372
0.256073
0.146079
0.268302
0.149688
0.300889
0.153959
0.217314
-0.0265305
0.193333
-0.0169594
-0.197758
0.189771
-0.0203117
0.185996
-0.022879
0.181766
-0.0253992
0.177113
-0.0276332
0.172176
-0.029255
0.167087
-0.0300413
0.161944
-0.0298221
0.156869
-0.0284426
0.151998
-0.0257485
0.147462
-0.0215917
0.14334
-0.0158979
0.139703
-0.00871063
0.136501
-6.3148e-05
0.133818
0.0102079
0.131506
0.0209628
0.1299
0.0319265
0.129809
0.0430153
0.13223
0.0536904
0.137859
0.0623594
0.146709
0.0670517
0.158477
0.0657362
0.17246
0.0551561
0.18616
0.0324798
0.195682
-0.00013622
0.199346
-0.0354803
0.197323
-0.0667727
0.191489
-0.090928
0.183591
-0.107172
0.174992
-0.117268
0.16657
-0.122156
0.158424
-0.12334
0.150622
-0.121956
0.14352
-0.118484
0.136413
-0.110683
0.12811
-0.0996135
0.12019
-0.0864802
0.116348
-0.0655726
0.118496
-0.036246
0.124835
0.0118303
0.13202
0.0744094
0.137765
0.16291
0.141958
0.244097
0.146353
0.286626
0.152449
0.24957
0.158924
0.137637
0.161872
0.00547707
0.161737
-0.124947
0.159502
-0.171097
0.154279
-0.195017
0.14633
-0.178052
0.138241
-0.209575
0.135001
-0.203404
0.135683
-0.0884714
0.135129
0.0233622
0.133004
0.258198
0.132009
0.269298
0.136449
0.296448
0.14189
0.211873
-0.0265068
0.202474
-0.01363
-0.205804
0.198955
-0.0167926
0.195407
-0.019331
0.191508
-0.0215005
0.187241
-0.0233659
0.182726
-0.0247399
0.178083
-0.0253987
0.173423
-0.0251617
0.168866
-0.0238857
0.164554
-0.0214364
0.160649
-0.0176867
0.15731
-0.0125593
0.154632
-0.00603203
0.152645
0.00192397
0.151586
0.0112663
0.151281
0.0212686
0.151808
0.0313987
0.153591
0.0412322
0.157299
0.0499824
0.16344
0.0562184
0.172085
0.0584074
0.182956
0.0548648
0.194919
0.0431935
0.205481
0.0219171
0.211837
-0.00649227
0.212823
-0.0364658
0.209099
-0.0630483
0.202242
-0.0840712
0.193786
-0.0987158
0.18487
-0.108352
0.17627
-0.113556
0.168071
-0.115141
0.160126
-0.114011
0.152834
-0.111191
0.145956
-0.103806
0.138145
-0.0918021
0.130147
-0.0784828
0.125426
-0.0608509
0.126534
-0.0373539
0.132489
0.00587455
0.140061
0.0668375
0.146692
0.156279
0.151949
0.23884
0.157569
0.281006
0.16478
0.242359
0.171919
0.130498
0.17505
0.00234629
0.174085
-0.123982
0.17091
-0.167921
0.165017
-0.189125
0.156519
-0.169554
0.147555
-0.200611
0.143716
-0.199565
0.144382
-0.0891373
0.144127
0.0236167
0.142092
0.260233
0.141106
0.270284
0.146271
0.291283
0.152419
0.205725
-0.0264719
0.211684
-0.0109847
-0.21433
0.208504
-0.0136127
0.20512
-0.0159471
0.201508
-0.0178877
0.197611
-0.0194691
0.193488
-0.0206172
0.189251
-0.0211616
0.185019