/*--------------------------------*- C++ -*----------------------------------*\
| =========                 |                                                 |
| \\      /  F ield         | OpenFOAM: The Open Source CFD Toolbox           |
|  \\    /   O peration     | Version:  2512                                  |
|   \\  /    A nd           | Website:  www.openfoam.com                      |
|    \\/     M anipulation  |                                                 |
\*---------------------------------------------------------------------------*/
FoamFile
{
    version     2.0;
    format      ascii;
    arch        "LSB;label=32;scalar=64";
    class       volVectorField;
    location    "142";
    object      U;
}
// * * * * * * * * * * * * * * * * * * * * * * * * * * * * * * * * * * * * * //

dimensions      [0 1 -1 0 0 0 0];

internalField   nonuniform List<vector> 
13248
(
(-0.0134132 0.0127633 9.88331e-20)
(-0.0219771 0.0267196 0)
(-0.0115674 0.0340804 -1.86598e-19)
(0.0168063 0.0363162 1.75767e-19)
(0.0623553 0.0347568 1.64558e-19)
(0.124343 0.0305753 0)
(0.201815 0.0247245 0)
(0.293362 0.0179583 4.02016e-19)
(0.396882 0.0108443 -1.62755e-22)
(0.509404 0.00375757 -3.54309e-19)
(0.62708 -0.00311575 3.32344e-19)
(0.745385 -0.00975615 -2.08251e-19)
(0.859494 -0.0162684 0)
(0.964764 -0.0228241 -3.59882e-19)
(1.05723 -0.029598 6.70203e-19)
(1.13401 -0.0367113 -1.60789e-19)
(1.19359 -0.0441921 -2.77749e-19)
(1.23585 -0.0519697 2.60778e-19)
(1.26201 -0.0598465 0)
(1.27419 -0.0677497 0)
(1.27526 -0.0748931 0)
(1.26724 -0.0833398 0)
(1.2543 -0.0863678 6.92246e-20)
(1.23298 -0.105078 2.34794e-19)
(-0.012239 0.0103654 -2.9819e-19)
(-0.0139994 0.0187332 2.02993e-19)
(0.00699872 0.0212493 -1.80471e-21)
(0.0492299 0.0198811 -2.68164e-19)
(0.111542 0.0162351 -1.64381e-19)
(0.192638 0.0116231 -1.55716e-19)
(0.290588 0.006999 -2.8765e-19)
(0.402499 0.00299736 2.71742e-19)
(0.52436 -5.29949e-05 0)
(0.651121 -0.00212342 7.01471e-22)
(0.777076 -0.0034509 9.25552e-22)
(0.896448 -0.0044627 2.06167e-19)
(1.00405 -0.0056701 0)
(1.09588 -0.00755327 0)
(1.16949 -0.0104623 2.39814e-19)
(1.22419 -0.0145553 -4.50836e-19)
(1.26087 -0.0197833 2.63607e-19)
(1.28169 -0.0259175 -2.47515e-19)
(1.28958 -0.032612 -1.06196e-19)
(1.28773 -0.0394593 -1.89728e-19)
(1.27905 -0.0460221 -7.4399e-20)
(1.26601 -0.0521648 -1.38543e-19)
(1.25042 -0.0558028 2.09156e-19)
(1.23244 -0.0637533 5.7613e-20)
(-0.00991697 0.00780144 0)
(-0.00193145 0.0108822 0)
(0.0332701 0.00954127 9.48978e-20)
(0.0932643 0.0059572 8.75972e-20)
(0.176026 0.00188168 -1.79823e-21)
(0.279005 -0.00132638 -1.60405e-19)
(0.398453 -0.00284698 0)
(0.529193 -0.00237176 -1.35405e-19)
(0.664813 -6.09781e-05 1.27217e-19)
(0.798261 0.00353033 6.95925e-23)
(0.922702 0.00758777 -2.18796e-19)
(1.0324 0.0112186 -2.005e-19)
(1.12341 0.0136354 4.04741e-21)
(1.19389 0.014298 -1.64076e-19)
(1.24409 0.0129852 3.96025e-19)
(1.27595 0.0097888 0)
(1.29255 0.00504735 -2.50946e-19)
(1.29743 -0.000758959 1.23027e-19)
(1.29401 -0.00709232 1.06115e-19)
(1.28515 -0.0135057 0)
(1.27308 -0.0194202 8.42501e-20)
(1.25907 -0.0251013 -2.81639e-19)
(1.24437 -0.0284163 2.64389e-19)
(1.22851 -0.0362566 1.58619e-19)
(-0.00590864 0.00492983 -1.04748e-19)
(0.0153847 0.00304322 -1.08188e-19)
(0.0685901 -0.00093917 9.81792e-20)
(0.149951 -0.00500683 0)
(0.255879 -0.00750515 0)
(0.381695 -0.00725585 -3.14396e-21)
(0.520981 -0.00386014 0)
(0.665793 0.00234635 -4.11844e-19)
(0.807513 0.0104486 3.8283e-19)
(0.93805 0.0191858 -4.73361e-19)
(1.05101 0.0272384 1.08959e-19)
(1.14245 0.033501 0)
(1.21116 0.0372682 1.79472e-19)
(1.25832 0.0383014 -3.31676e-19)
(1.28687 0.0367803 7.92486e-20)
(1.30065 0.0331779 1.99773e-19)
(1.30363 0.0281076 -1.06355e-20)
(1.29934 0.0221925 -2.1991e-19)
(1.2905 0.01597 0)
(1.27905 0.00987069 0)
(1.26622 0.00421706 -7.62482e-20)
(1.25271 -0.000960101 6.76426e-20)
(1.23911 -0.00450226 2.37337e-19)
(1.22498 -0.0112918 -2.22885e-19)
(0.000278924 0.00178978 -1.09738e-19)
(0.0389329 -0.0045313 -1.09724e-19)
(0.113865 -0.00965288 3.08733e-19)
(0.219455 -0.0121702 -1.8808e-19)
(0.349707 -0.0108863 1.77023e-19)
(0.496912 -0.00518332 3.22852e-19)
(0.651445 0.0045117 -2.28003e-19)
(0.802819 0.0168972 -2.77253e-19)
(0.941324 0.0301874 5.64314e-21)
(1.05958 0.0425591 3.55879e-19)
(1.15347 0.0525425 0)
(1.22226 0.0592598 9.71117e-20)
(1.26799 0.0624737 0)
(1.29452 0.0624774 -1.57905e-19)
(1.30639 0.0598963 2.2223e-19)
(1.30799 0.0554801 2.52249e-21)
(1.30294 0.0499431 -5.74956e-20)
(1.29393 0.0438732 1.07479e-19)
(1.28276 0.0377097 9.18597e-20)
(1.27051 0.0317535 -8.18605e-20)
(1.25784 0.026217 7.62293e-20)
(1.24509 0.0211334 -6.76248e-20)
(1.23247 0.0171075 0)
(1.21978 0.0108628 -5.06225e-20)
(0.00905071 -0.00139881 1.09722e-19)
(0.0694039 -0.0111835 1.14872e-19)
(0.169397 -0.0155747 -1.03396e-19)
(0.300902 -0.014275 1.92965e-19)
(0.454624 -0.00704446 -1.81613e-19)
(0.61919 0.00566543 1.64695e-19)
(0.781934 0.0221924 -7.88947e-20)
(0.931002 0.0401243 2.08095e-19)
(1.05749 0.0569961 -1.3048e-19)
(1.15665 0.0708661 2.30473e-19)
(1.22799 0.0806284 -5.31059e-19)
(1.27428 0.0860369 1.94384e-19)
(1.30024 0.0875136 -1.70053e-19)
(1.31116 0.0858606 1.5974e-19)
(1.31188 0.0819872 1.3724e-19)
(1.30626 0.076721 1.19956e-19)
(1.29704 0.0707168 -3.33141e-19)
(1.28596 0.0644448 2.06553e-19)
(1.27406 0.0582204 -9.18629e-20)
(1.2619 0.0522497 2.37747e-19)
(1.24977 0.0466599 -7.68028e-20)
(1.2378 0.0415198 -1.8459e-19)
(1.22607 0.0371049 1.70039e-19)
(1.2144 0.0313209 5.06077e-20)
(0.0206973 -0.0042722 0)
(0.10709 -0.0159347 8.78921e-22)
(0.234729 -0.0173372 2.15153e-19)
(0.392264 -0.00988073 -2.01894e-19)
(0.566392 0.00509433 -1.82697e-19)
(0.742076 0.0255431 3.39601e-19)
(0.904726 0.0483537 -1.57737e-19)
(1.04311 0.0702112 2.1014e-19)
(1.15116 0.0884929 -4.73756e-21)
(1.22813 0.101729 -1.18791e-19)
(1.27733 0.109609 2.59021e-19)
(1.30432 0.112685 -3.81499e-19)
(1.31522 0.111969 0)
(1.3155 0.108573 -7.45686e-20)
(1.30939 0.103479 -1.98969e-19)
(1.2998 0.0974419 6.25625e-20)
(1.28854 0.0909849 2.67087e-21)
(1.27664 0.0844494 -1.36228e-19)
(1.26463 0.0780493 9.13665e-21)
(1.25276 0.0719174 1.57244e-19)
(1.24113 0.0661369 -6.95597e-20)
(1.22979 0.060772 -2.61532e-20)
(1.21871 0.0558626 8.15059e-20)
(1.2078 0.0502864 0)
(0.0353655 -0.00636889 0)
(0.151786 -0.0176236 5.82222e-20)
(0.308524 -0.013472 -2.79079e-19)
(0.49038 0.002301 1.01818e-19)
(0.679832 0.0261171 -9.58244e-20)
(0.85909 0.053996 -8.73388e-20)
(1.01362 0.0815449 -1.54744e-19)
(1.13501 0.105125 7.71123e-20)
(1.22149 0.122633 6.7343e-20)
(1.27655 0.133555 0)
(1.30655 0.138549 1.52775e-19)
(1.31859 0.138875 -2.26802e-19)
(1.31898 0.135915 1.69039e-19)
(1.31252 0.13087 7.46089e-20)
(1.30249 0.124646 -6.09292e-20)
(1.29087 0.117854 -5.09088e-20)
(1.27873 0.11088 -4.74504e-20)
(1.26663 0.103959 1.42183e-19)
(1.2548 0.0972292 0)
(1.24331 0.090781 7.10312e-20)
(1.2322 0.0846756 5.93844e-20)
(1.22142 0.0789563 -1.47794e-19)
(1.21095 0.073572 -1.00301e-19)
(1.20068 0.0681003 9.29136e-20)
(0.0530214 -0.00717246 -6.18555e-20)
(0.202719 -0.0150571 -1.94602e-21)
(0.388571 -0.00266625 5.66454e-20)
(0.591224 0.0231061 1.58036e-19)
(0.789525 0.055928 4.59048e-20)
(0.964756 0.0899277 -8.86512e-20)
(1.10478 0.120028 8.12293e-20)
(1.20568 0.143046 -7.13855e-20)
(1.27044 0.157983 1.27487e-19)
(1.30609 0.165506 5.44329e-20)
(1.32084 0.167159 -1.54067e-19)
(1.32211 0.16468 4.55478e-20)
(1.31559 0.159589 7.77341e-20)
(1.30511 0.153014 -3.82296e-20)
(1.29297 0.145708 0)
(1.28038 0.13813 5.71385e-20)
(1.26794 0.130547 9.67115e-20)
(1.2559 0.123112 1.65444e-20)
(1.24433 0.115917 -8.06018e-20)
(1.23323 0.109024 3.37976e-20)
(1.22257 0.102477 0)
(1.21228 0.0962873 -2.6516e-20)
(1.20232 0.090393 -2.48184e-20)
(1.19258 0.0848168 0)
(0.0734068 -0.00615688 0)
(0.258519 -0.00715903 3.23113e-20)
(0.471911 0.0160222 5.98792e-20)
(0.690357 0.0527467 -1.60413e-19)
(0.890568 0.0937663 5.1581e-20)
(1.05527 0.131846 0)
(1.17674 0.16211 7.77942e-20)
(1.25634 0.182573 -1.08515e-19)
(1.3013 0.193674 -6.34875e-20)
(1.32105 0.197225 2.88099e-20)
(1.32443 0.195428 -4.59057e-20)
(1.31837 0.190249 1.11582e-19)
(1.30756 0.183156 5.6097e-20)
(1.29481 0.175119 -3.8922e-20)
(1.28161 0.166714 -3.59182e-21)
(1.26865 0.158265 -1.07219e-19)
(1.25621 0.149948 4.88599e-20)
(1.24438 0.141863 -1.12497e-21)
(1.23314 0.134071 0)
(1.22245 0.126614 -3.38324e-20)
(1.21225 0.119517 0)
(1.20245 0.11277 7.66508e-20)
(1.19299 0.106366 -9.13416e-20)
(1.18375 0.100537 4.16259e-20)
(0.0960132 -0.00283228 -1.66028e-20)
(0.317265 0.00690762 -8.11234e-20)
(0.555096 0.0430329 9.20584e-20)
(0.783445 0.0907887 5.43168e-20)
(0.979097 0.13837 -2.60247e-20)
(1.12857 0.178129 4.36145e-20)
(1.22979 0.206338 -2.12344e-20)
(1.28925 0.222727 3.53941e-20)
(1.31741 0.229235 0)
(1.32485 0.228612 8.04156e-20)
(1.3202 0.223445 -3.18303e-21)
(1.30941 0.21571 -6.51254e-20)
(1.29609 0.206711 2.80111e-20)
(1.28216 0.197222 -3.1743e-20)
(1.26853 0.187658 -1.22114e-20)
(1.25554 0.178237 1.39427e-20)
(1.24328 0.169069 -1.08898e-20)
(1.23175 0.160217 -5.89839e-20)
(1.22089 0.151719 3.61979e-20)
(1.21064 0.143604 7.47631e-21)
(1.2009 0.135875 6.59868e-21)
(1.19159 0.128509 5.82464e-21)
(1.18262 0.121584 0)
(1.17385 0.115313 0)
(0.120161 0.00322158 1.66143e-20)
(0.376748 0.0276646 -1.66947e-20)
(0.634673 0.0782555 -3.06349e-20)
(0.866815 0.136244 0)
(1.05255 0.188203 -1.28798e-20)
(1.18401 0.227246 -1.15253e-20)
(1.26514 0.251578 -1.98179e-20)
(1.30677 0.262878 0)
(1.32137 0.264438 0)
(1.31976 0.259662 0)
(1.3097 0.251269 0)
(1.29603 0.241096 0)
(1.28138 0.230229 -1.76442e-20)
(1.26698 0.219249 8.04935e-21)
(1.25332 0.20844 1.40484e-20)
(1.24053 0.197938 6.55948e-21)
(1.2286 0.187806 1.63673e-20)
(1.21748 0.17808 0)
(1.20709 0.168782 -3.97209e-21)
(1.19735 0.159925 -3.75891e-21)
(1.18814 0.151495 -6.60912e-21)
(1.17938 0.143476 -5.83388e-21)
(1.17095 0.136029 0)
(1.16271 0.129177 4.24394e-21)
(-0.00268071 0.0455199 9.66081e-21)
(-0.00952847 0.101796 -1.00041e-20)
(-0.0203229 0.133697 -1.89222e-20)
(-0.0333639 0.148159 0)
(-0.0475835 0.150764 -2.5229e-20)
(-0.0623904 0.145774 7.83225e-21)
(-0.0773389 0.136145 -1.5158e-20)
(-0.0920885 0.123653 0)
(-0.106391 0.109144 0)
(-0.12006 0.0928155 0)
(-0.13295 0.0744931 0)
(-0.144944 0.0538402 0)
(-0.15594 0.0304929 -3.00662e-22)
(-0.165784 0.00413618 -1.01417e-20)
(-0.174345 -0.0254108 1.99519e-20)
(-0.181552 -0.0581555 2.79469e-20)
(-0.187276 -0.0940166 9.26418e-21)
(-0.191374 -0.132709 0)
(-0.193733 -0.173746 7.43957e-21)
(-0.194269 -0.216431 -2.1553e-20)
(-0.192937 -0.259859 -1.34916e-20)
(-0.189708 -0.30295 -1.24185e-20)
(-0.184613 -0.344476 0)
(-0.178075 -0.383034 0)
(-0.00541448 0.0484754 -2.93631e-20)
(-0.0146413 0.109699 5.03599e-20)
(-0.0251019 0.145592 -1.95133e-20)
(-0.0363346 0.163085 -3.644e-20)
(-0.0479437 0.167817 5.12058e-20)
(-0.0596663 0.164171 -3.26896e-20)
(-0.0712272 0.155256 4.59e-20)
(-0.0823577 0.142995 2.98736e-20)
(-0.0928233 0.128354 0)
(-0.102428 0.111625 -2.62456e-20)
(-0.111011 0.09269 -6.40078e-22)
(-0.118443 0.0712432 2.3088e-20)
(-0.124627 0.0469416 3.45382e-20)
(-0.129471 0.0194955 4.36923e-20)
(-0.132834 -0.0113134 -1.95017e-20)
(-0.134674 -0.045551 -5.77743e-20)
(-0.134993 -0.0830943 1.92634e-20)
(-0.133722 -0.123648 -7.08255e-20)
(-0.130858 -0.166704 0)
(-0.126463 -0.211519 1.45476e-20)
(-0.12067 -0.25711 1.34716e-20)
(-0.113605 -0.302265 1.24e-20)
(-0.105211 -0.345533 0)
(-0.0960272 -0.385167 0)
(-0.00820234 0.0495917 0)
(-0.0198743 0.113875 1.05532e-19)
(-0.0297743 0.153033 -3.96966e-20)
(-0.038698 0.173452 3.71684e-20)
(-0.0469493 0.180499 -1.06932e-19)
(-0.0546206 0.178485 0)
(-0.0616347 0.170565 -6.42856e-20)
(-0.0678181 0.158775 3.06224e-20)
(-0.0729629 0.144212 -5.88811e-20)
(-0.0768647 0.127287 2.91578e-20)
(-0.079343 0.107978 1.59971e-19)
(-0.0802496 0.0860427 -7.52899e-20)
(-0.0794707 0.0611731 -1.20346e-19)
(-0.0769251 0.0330961 -4.83035e-20)
(-0.0725695 0.00162781 -1.20715e-21)
(-0.0663448 -0.0333201 1.66281e-19)
(-0.0582465 -0.0716036 -7.85062e-20)
(-0.048358 -0.112916 -2.17332e-21)
(-0.0367865 -0.156728 0)
(-0.0237199 -0.202262 -6.69321e-20)
(-0.00947153 -0.248488 0)
(0.00560578 -0.294107 -5.2605e-20)
(0.0216385 -0.337469 2.01665e-19)
(0.0389869 -0.376536 -3.86205e-21)
(-0.0107582 0.0487589 0)
(-0.0247475 0.113904 1.24429e-21)
(-0.0339654 0.155288 4.14354e-20)
(-0.0403108 0.17828 -3.93719e-20)
(-0.0447305 0.187658 3.55899e-20)
(-0.0476739 0.187456 2.08845e-19)
(-0.0492834 0.180758 -6.55245e-20)
(-0.0495101 0.169651 -6.34596e-20)
(-0.0481999 0.155348 1.19371e-19)
(-0.0451588 0.13839 -1.7136e-19)
(-0.040196 0.118873 5.46325e-20)
(-0.0331482 0.0966436 5.29823e-20)
(-0.0238881 0.0714539 0)
(-0.0123252 0.0430654 4.684e-20)
(0.00157436 0.0113182 0)
(0.017814 -0.0238198 8.83915e-20)
(0.0363583 -0.0622148 -1.65903e-19)
(0.0570747 -0.103531 3.75454e-20)
(0.0797517 -0.147197 1.46773e-19)
(0.104072 -0.192389 6.68466e-20)
(0.129539 -0.238034 0)
(0.155533 -0.282776 -1.70646e-19)
(0.181774 -0.324739 5.40552e-20)
(0.211589 -0.361303 0)
(-0.012831 0.0461157 0)
(-0.0288234 0.109828 -1.32963e-19)
(-0.0373484 0.152118 -4.22943e-20)
(-0.0411033 0.177019 -7.93326e-20)
(-0.0415433 0.188484 7.46969e-20)
(-0.0394293 0.1901 -7.01108e-20)
(-0.0351355 0.184747 1.35631e-19)
(-0.028768 0.174486 6.51602e-20)
(-0.0202596 0.160604 -1.82076e-19)
(-0.00945444 0.143763 1.1813e-19)
(0.00382959 0.124184 -1.67649e-19)
(0.0197633 0.101823 3.78186e-19)
(0.0384869 0.0765067 -2.03555e-19)
(0.0600983 0.0480545 9.91516e-20)
(0.0846272 0.0163429 2.8419e-19)
(0.11207 -0.0186188 -8.59679e-20)
(0.142342 -0.0566638 -8.41631e-20)
(0.175221 -0.0974206 -7.94243e-20)
(0.210367 -0.140263 0)
(0.247283 -0.184303 -1.3924e-19)
(0.285213 -0.228413 -1.24737e-19)
(0.323568 -0.271173 1.80745e-19)
(0.359984 -0.311016 2.06842e-19)
(0.40474 -0.343475 -1.94572e-19)
(-0.0142594 0.0420262 0)
(-0.0317846 0.102153 -1.82838e-19)
(-0.039687 0.143828 -8.7924e-22)
(-0.0410494 0.169649 1.61439e-19)
(-0.0376427 0.182646 0)
(-0.0304681 0.185833 0)
(-0.0201144 0.18178 0)
(-0.00685616 0.172429 -6.58373e-20)
(0.00926116 0.159083 -1.91444e-21)
(0.0283304 0.142492 1.17929e-19)
(0.0505085 0.122991 -1.71984e-19)
(0.0759614 0.100642 -1.5642e-21)
(0.104853 0.075348 0)
(0.137295 0.0470288 -9.9089e-20)
(0.173331 0.0156162 9.74013e-20)
(0.212907 -0.0188355 -2.71199e-19)
(0.255844 -0.056113 3.44286e-19)
(0.301778 -0.095771 8.16385e-20)
(0.350122 -0.137107 -2.05425e-21)
(0.400096 -0.179133 -2.8397e-19)
(0.450353 -0.22071 -1.28696e-19)
(0.500905 -0.260035 4.05946e-19)
(0.544958 -0.29712 -2.6765e-19)
(0.603608 -0.324104 0)
(-0.01501 0.0370151 9.1171e-20)
(-0.0334964 0.0917725 9.18716e-20)
(-0.0408475 0.131244 -8.77153e-20)
(-0.0401078 0.156731 -1.64174e-19)
(-0.0331482 0.170373 1.54572e-19)
(-0.0211128 0.174582 -1.46808e-19)
(-0.00475772 0.171544 2.07655e-19)
(0.01549 0.163007 -6.61146e-20)
(0.0394721 0.15022 1.24683e-19)
(0.0672162 0.133968 0)
(0.0988566 0.114667 1.16958e-19)
(0.134535 0.0924585 -2.1732e-19)
(0.174438 0.0674055 2.11434e-19)
(0.218717 0.0394785 -1.98574e-19)
(0.267328 0.00867677 0)
(0.320106 -0.0248557 1.81157e-19)
(0.376647 -0.0607959 3.43402e-19)
(0.436251 -0.0985906 -3.22985e-19)
(0.497854 -0.137443 -1.4921e-19)
(0.560242 -0.176219 -1.37857e-19)
(0.621065 -0.213991 3.87187e-19)
(0.681342 -0.248093 1.08672e-19)
(0.729383 -0.281173 -1.07021e-19)
(0.795673 -0.300923 8.81688e-20)
(-0.0151834 0.0316717 -9.11835e-20)
(-0.0340203 0.0798101 2.82453e-19)
(-0.0407858 0.115584 -8.92707e-20)
(-0.0381423 0.139337 1.66048e-19)
(-0.0278653 0.152487 -1.56333e-19)
(-0.0111332 0.156889 1.56879e-25)
(0.0112071 0.154333 6.95966e-20)
(0.0386287 0.146326 2.66564e-19)
(0.0708935 0.134005 3.15769e-21)
(0.107981 0.118135 -1.18467e-19)
(0.150003 0.0991782 0)
(0.197157 0.0773947 -1.10993e-19)
(0.249539 0.0529125 2.07051e-19)
(0.307131 0.0257697 2.00491e-19)
(0.369745 -0.00387346 -9.42212e-20)
(0.436853 -0.0357435 -1.3358e-21)
(0.507531 -0.0693874 -8.53318e-20)
(0.580437 -0.104125 1.56554e-19)
(0.653754 -0.139096 1.49165e-19)
(0.725648 -0.173033 -1.37593e-19)
(0.792834 -0.20544 1.20944e-19)
(0.85676 -0.232795 -1.08509e-19)
(0.903757 -0.260494 0)
(0.96689 -0.271919 -8.81204e-20)
(-0.0149807 0.02654 9.30338e-20)
(-0.0335529 0.0674096 -9.46842e-20)
(-0.0394599 0.0982529 8.97827e-20)
(-0.0347845 0.118916 0)
(-0.0210676 0.130346 0)
(0.000583215 0.133961 1.49332e-19)
(0.0293274 0.131198 -1.398e-19)
(0.064622 0.123315 1.33777e-19)
(0.106209 0.111308 -6.28757e-19)
(0.154047 0.0959017 -1.29927e-21)
(0.208207 0.0775802 1.13417e-19)
(0.268741 0.056654 0)
(0.335552 0.0333124 -2.08105e-19)
(0.408237 0.00778195 3.93149e-19)
(0.486008 -0.0196557 -2.79695e-19)
(0.567579 -0.0485989 -4.41606e-19)
(0.651147 -0.0784846 1.05277e-21)
(0.734454 -0.108571 3.04658e-19)
(0.814868 -0.138028 0)
(0.889914 -0.165658 0)
(0.956186 -0.191335 -1.20944e-19)
(1.01458 -0.211427 1.08513e-19)
(1.05398 -0.232959 -3.62502e-19)
(1.1018 -0.236793 3.39804e-19)
(-0.0146319 0.0220182 0)
(-0.0322887 0.0555219 0)
(-0.0366672 0.0805956 -2.69944e-19)
(-0.0292495 0.0970687 8.57318e-20)
(-0.0112761 0.105694 4.50506e-22)
(0.0163001 0.107618 1.49899e-19)
(0.0527374 0.104004 0)
(0.0975501 0.0959011 -1.32525e-19)
(0.150487 0.0841769 1.25612e-19)
(0.21142 0.0694938 -2.38605e-19)
(0.280189 0.0523334 -1.24856e-21)
(0.356434 0.0330592 2.16041e-19)
(0.439415 0.0119755 2.11518e-21)
(0.527869 -0.0106034 1.95536e-19)
(0.61995 -0.0343106 -2.74156e-19)
(0.713247 -0.0586922 0)
(0.804901 -0.0831928 3.18827e-19)
(0.891823 -0.107174 -4.50794e-19)
(0.970982 -0.129953 1.33119e-19)
(1.03978 -0.150722 0)
(1.09585 -0.169385 1.08684e-19)
(1.13958 -0.183324 3.89017e-19)
(1.16512 -0.199043 -3.6515e-19)
(1.19029 -0.198111 -3.72268e-19)
(-0.0142969 0.0182871 2.84251e-19)
(-0.0302374 0.0447387 -3.89767e-19)
(-0.0318575 0.0636741 1.17111e-21)
(-0.020185 0.0753059 8.63396e-20)
(0.00382885 0.0804435 -1.60611e-19)
(0.0394227 0.080122 -1.49556e-19)
(0.0859869 0.0753468 2.81856e-19)
(0.143069 0.0670203 5.91473e-22)
(0.210286 0.0559025 -2.49859e-19)
(0.287151 0.0425971 4.74782e-19)
(0.372863 0.0275796 2.68241e-21)
(0.466117 0.0112296 -2.11603e-19)
(0.564977 -0.00612985 0)
(0.666846 -0.0241925 0)
(0.768569 -0.0426392 -9.02584e-20)
(0.866649 -0.0611228 -1.6348e-19)
(0.957554 -0.0792574 -3.05927e-19)
(1.03806 -0.0966587 2.87189e-19)
(1.10564 -0.112867 -1.33204e-19)
(1.15863 -0.127618 2.29793e-19)
(1.19663 -0.14047 -1.19007e-19)
(1.2205 -0.150759 1.7212e-19)
(1.22976 -0.161838 -4.22724e-19)
(1.23412 -0.160278 7.51284e-20)
(-0.0139651 0.0152854 9.57937e-20)
(-0.0270544 0.0352169 0)
(-0.0240014 0.0481256 1.84095e-19)
(-0.00565143 0.0548418 -1.73413e-19)
(0.0272379 0.0564022 1.60762e-19)
(0.0740408 0.0538642 0)
(0.13416 0.0481717 0)
(0.206935 0.0401381 -1.33412e-19)
(0.291455 0.0304369 -6.34435e-22)
(0.386331 0.0195995 1.17514e-19)
(0.489501 0.00802411 -1.11524e-19)
(0.598152 -0.00400552 2.0984e-19)
(0.708781 -0.0162937 0)
(0.817411 -0.0287022 3.70068e-19)
(0.919934 -0.0411195 -6.91807e-19)
(1.01251 -0.0534347 4.86905e-19)
(1.09196 -0.0655109 2.92057e-19)
(1.15611 -0.0772073 -2.74192e-19)
(1.20402 -0.088268 0)
(1.23584 -0.0987513 0)
(1.25331 -0.107833 0)
(1.25808 -0.116963 0)
(1.25376 -0.123848 8.02029e-20)
(1.24458 -0.127392 -2.63906e-19)
(-0.169973 -0.423302 -6.56334e-21)
(-0.163852 -0.466291 6.60861e-21)
(-0.152093 -0.499235 -1.90002e-22)
(-0.134993 -0.518273 0)
(-0.110563 -0.519552 -5.2333e-21)
(-0.0770864 -0.499347 1.01555e-20)
(-0.033201 -0.454834 5.52196e-23)
(0.0200784 -0.38491 -4.84284e-21)
(0.0807014 -0.29004 0)
(0.14662 -0.173691 0)
(0.214773 -0.041496 -2.68497e-22)
(0.283103 0.0996627 -2.53811e-22)
(0.350524 0.241493 -4.02437e-21)
(0.415541 0.37135 3.68647e-21)
(0.474843 0.475358 0)
(0.524282 0.544311 0)
(0.561011 0.577521 1.73657e-21)
(0.584596 0.582042 -2.12249e-22)
(0.593999 0.572184 -1.35022e-21)
(0.585566 0.565787 -8.01561e-23)
(0.559665 0.569355 0)
(0.528957 0.563161 0)
(0.515612 0.508006 0)
(0.534697 0.376618 0)
(0.58298 0.179199 0)
(0.646147 -0.0424282 0)
(0.709575 -0.238053 5.76856e-22)
(0.762308 -0.37503 -9.63218e-22)
(0.797544 -0.449516 0)
(0.815245 -0.476487 0)
(0.820918 -0.473026 -3.21714e-22)
(0.815718 -0.464279 3.12677e-22)
(0.791684 -0.47006 1.34109e-22)
(0.747263 -0.48381 0)
(0.700563 -0.455756 0)
(0.675769 -0.344225 4.10838e-22)
(0.684031 -0.156101 -3.9936e-22)
(0.715924 0.0518965 0)
(0.757984 0.217721 3.14015e-22)
(0.800227 0.32477 -4.36815e-22)
(0.831325 0.373737 1.07156e-22)
(0.836288 0.413105 0)
(0.808956 0.432688 -1.79307e-22)
(0.762214 0.4294 1.74361e-22)
(0.732652 0.33837 0)
(0.73058 0.17416 0)
(0.760643 -0.00920614 -9.81101e-23)
(0.803185 -0.176582 2.80255e-22)
(0.831351 -0.254955 0)
(0.827263 -0.349864 0)
(0.795122 -0.354467 -4.77983e-23)
(0.765612 -0.34815 3.50947e-24)
(0.771684 -0.230939 -1.62117e-24)
(0.791922 -0.0503203 3.39935e-23)
(0.812814 0.0589123 0)
(0.808488 0.283831 0)
(0.800195 0.28455 0)
(0.789817 0.345894 0)
(0.797997 0.247523 0)
(0.786185 -0.037601 0)
(-0.089464 -0.425634 -7.08199e-22)
(-0.0944757 -0.47169 -2.64492e-20)
(-0.0969504 -0.509147 1.98065e-21)
(-0.0977101 -0.534051 2.29285e-20)
(-0.0946284 -0.542901 3.1098e-22)
(-0.0847284 -0.531787 0)
(-0.0649196 -0.497289 -1.73461e-20)
(-0.0328963 -0.436995 3.41389e-20)
(0.0112416 -0.349838 -1.67825e-20)
(0.0649367 -0.238787 1.62545e-20)
(0.124786 -0.106868 -1.55296e-20)
(0.189749 0.033937 1.43046e-20)
(0.258128 0.177214 -1.38297e-20)
(0.327139 0.311082 -3.37004e-22)
(0.393728 0.422635 -9.27802e-21)
(0.453619 0.502522 9.01635e-21)
(0.503081 0.54835 -6.38602e-21)
(0.539389 0.566104 6.03387e-21)
(0.558828 0.570146 -5.37451e-21)
(0.558189 0.576353 1.05706e-20)
(0.54216 0.585967 -5.19791e-21)
(0.527512 0.574798 -3.82196e-22)
(0.535053 0.505658 -7.6282e-21)
(0.573318 0.359041 1.59048e-20)
(0.634311 0.150784 -8.25189e-21)
(0.7031 -0.0753926 5.45652e-22)
(0.765242 -0.268964 7.09628e-21)
(0.811133 -0.398394 -1.07608e-21)
(0.836785 -0.46292 -9.38824e-21)
(0.844015 -0.481514 7.17721e-21)
(0.839525 -0.472097 -3.07907e-21)
(0.827219 -0.456596 2.81603e-22)
(0.79944 -0.45401 -1.34372e-22)
(0.75179 -0.462872 2.46533e-22)
(0.698403 -0.439023 0)
(0.664747 -0.33956 0)
(0.665627 -0.164429 -1.48993e-21)
(0.694449 0.03531 1.11084e-21)
(0.738614 0.198982 8.48786e-22)
(0.785894 0.309292 -4.27172e-23)
(0.822869 0.366148 -1.01588e-21)
(0.830931 0.416105 1.81872e-22)
(0.807574 0.443934 0)
(0.765088 0.441476 0)
(0.741787 0.344431 0)
(0.74287 0.171283 0)
(0.772654 -0.018656 4.83609e-22)
(0.813823 -0.186379 -1.85011e-22)
(0.839743 -0.258271 0)
(0.836295 -0.345142 0)
(0.801475 -0.346997 0)
(0.771793 -0.345052 -7.41878e-23)
(0.774672 -0.234048 1.694e-23)
(0.791657 -0.0551073 -7.48255e-23)
(0.810434 0.0569426 0)
(0.80335 0.28526 0)
(0.797738 0.2858 3.74149e-23)
(0.786671 0.345997 9.28465e-23)
(0.798812 0.247847 0)
(0.78884 -0.0363161 0)
(0.0455936 -0.416227 -3.81117e-21)
(0.0340212 -0.462132 -5.97688e-20)
(0.0210935 -0.50111 4.92316e-20)
(0.00565365 -0.529219 -4.60655e-20)
(-0.0113132 -0.543995 -3.13064e-22)
(-0.0267202 -0.541687 0)
(-0.0357492 -0.519644 -3.0619e-20)
(-0.033026 -0.472789 2.99179e-20)
(-0.0156184 -0.398665 2.35715e-22)
(0.0188486 -0.298881 3.51089e-22)
(0.0641002 -0.174389 3.38258e-22)
(0.118519 -0.0359019 4.21133e-22)
(0.183355 0.106394 -2.09547e-20)
(0.252971 0.242906 2.07033e-20)
(0.323724 0.360925 0)
(0.391111 0.451131 3.88082e-22)
(0.450316 0.510123 -1.13031e-20)
(0.496438 0.542908 1.11563e-20)
(0.524362 0.562329 0)
(0.532592 0.580609 0)
(0.529523 0.594129 -1.21995e-20)
(0.533607 0.576857 2.61258e-20)
(0.562254 0.495953 -2.95811e-20)
(0.618028 0.338783 -1.79597e-21)
(0.690079 0.124689 3.54231e-20)
(0.763318 -0.102213 -3.56583e-20)
(0.823103 -0.291917 3.00855e-20)
(0.86119 -0.413993 -3.53117e-21)
(0.876751 -0.469909 -1.09695e-20)
(0.873805 -0.481668 0)
(0.859617 -0.468006 0)
(0.840423 -0.447418 1.55687e-21)
(0.809568 -0.437225 -2.05202e-21)
(0.760031 -0.441015 -2.78475e-23)
(0.701152 -0.421234 2.21863e-21)
(0.658855 -0.334531 -2.15627e-21)
(0.651764 -0.173527 0)
(0.676905 0.0167244 3.38833e-22)
(0.722569 0.177468 2.33512e-21)
(0.774097 0.291187 -4.13437e-21)
(0.816333 0.356547 1.67101e-21)
(0.82749 0.41756 1.70782e-22)
(0.808655 0.453831 -1.93664e-21)
(0.77103 0.452558 1.52867e-21)
(0.754143 0.350603 5.07592e-22)
(0.758455 0.169623 5.55396e-22)
(0.787576 -0.0262652 -4.84832e-22)
(0.826695 -0.19485 0)
(0.849916 -0.260879 0)
(0.846926 -0.33995 -9.20475e-22)
(0.809391 -0.339294 4.21164e-22)
(0.779258 -0.341807 -3.01801e-22)
(0.778947 -0.237186 3.84269e-22)
(0.792821 -0.0596762 4.53747e-22)
(0.809632 0.0549698 -1.32086e-22)
(0.799516 0.286502 1.94167e-22)
(0.796292 0.286891 -1.60031e-22)
(0.784408 0.345712 7.02956e-23)
(0.800767 0.247803 0)
(0.792641 -0.0351081 0)
(0.217656 -0.399939 -1.26531e-19)
(0.204775 -0.442865 1.25477e-20)
(0.186693 -0.478803 1.08094e-19)
(0.163021 -0.504877 -6.96489e-22)
(0.13306 -0.520563 0)
(0.0972272 -0.524564 0)
(0.0607173 -0.513415 -5.1744e-20)
(0.0318519 -0.482038 4.56424e-21)
(0.0152216 -0.42535 6.43591e-20)
(0.0186751 -0.342702 -1.08032e-21)
(0.0410887 -0.234813 -1.8896e-20)
(0.0772825 -0.105203 -1.66513e-20)
(0.130388 0.0326874 1.66171e-20)
(0.195549 0.169313 0)
(0.266122 0.29229 -1.20857e-20)
(0.337053 0.392056 1.10587e-20)
(0.40217 0.464415 0)
(0.455019 0.512835 0)
(0.490434 0.54738 9.30551e-21)
(0.509032 0.576025 1.11722e-21)
(0.521499 0.591524 -9.53189e-21)
(0.54578 0.568523 -1.43874e-20)
(0.594651 0.47964 1.4526e-20)
(0.665925 0.317458 -1.91659e-20)
(0.747457 0.102151 -4.7079e-22)
(0.824391 -0.122906 1.85986e-20)
(0.881649 -0.307818 2.03108e-21)
(0.911738 -0.423026 -1.0363e-23)
(0.917034 -0.471574 0)
(0.904314 -0.477677 6.44449e-21)
(0.88106 -0.461106 -6.59816e-21)
(0.855095 -0.437225 2.73834e-22)
(0.821471 -0.420496 0)
(0.771393 -0.418608 -2.21406e-22)
(0.708784 -0.401828 3.77208e-21)
(0.658529 -0.32812 -7.45521e-21)
(0.642961 -0.182799 -8.04942e-22)
(0.66356 -0.0032629 1.60818e-22)
(0.709889 0.15357 3.58118e-21)
(0.764725 0.270674 4.3317e-22)
(0.811583 0.344861 -2.88067e-21)
(0.825867 0.417133 2.44425e-21)
(0.811979 0.461989 4.06545e-27)
(0.779689 0.462451 1.9437e-21)
(0.769243 0.356941 -2.39899e-21)
(0.776897 0.169524 -4.02357e-21)
(0.805127 -0.0317682 1.08971e-21)
(0.841639 -0.201895 1.57039e-21)
(0.861722 -0.262893 -2.69793e-21)
(0.858961 -0.334408 1.62764e-21)
(0.818684 -0.331299 -3.06044e-22)
(0.787755 -0.338264 4.18902e-22)
(0.784258 -0.240291 2.64973e-22)
(0.795273 -0.0640767 -5.99127e-22)
(0.810349 0.0529682 -1.23013e-23)
(0.796968 0.287601 -1.5985e-22)
(0.795865 0.287872 0)
(0.783063 0.34503 -6.55202e-23)
(0.803895 0.247377 1.94076e-22)
(0.797605 -0.0339721 0)
(0.407356 -0.380702 1.28101e-19)
(0.39522 -0.420653 -2.37877e-19)
(0.376256 -0.45133 1.08645e-19)
(0.349755 -0.471479 8.00655e-20)
(0.313557 -0.482413 -1.44142e-19)
(0.267659 -0.485291 1.10375e-20)
(0.214712 -0.477773 5.22389e-20)
(0.16123 -0.457693 3.4234e-20)
(0.111933 -0.420843 -3.35597e-20)
(0.077482 -0.360266 0)
(0.0665858 -0.275158 -2.35669e-20)
(0.0750194 -0.16532 4.50377e-20)
(0.106159 -0.0378612 -2.16993e-20)
(0.157835 0.0943107 0)
(0.221814 0.219593 0)
(0.291032 0.327359 2.96493e-22)
(0.357835 0.412162 -1.4537e-20)
(0.414864 0.475318 1.4122e-20)
(0.457591 0.523513 0)
(0.488168 0.560592 1.8918e-20)
(0.517946 0.577127 -4.01445e-20)
(0.562576 0.550165 4.89601e-20)
(0.629846 0.458014 -6.05843e-20)
(0.714182 0.296187 -5.40829e-21)
(0.803919 0.0836442 7.64015e-20)
(0.884494 -0.13741 -3.88353e-20)
(0.939413 -0.31645 -1.03505e-21)
(0.96161 -0.425019 -1.09387e-20)
(0.956724 -0.467624 2.68508e-21)
(0.934802 -0.469582 8.4913e-21)
(0.903454 -0.451424 3.4046e-22)
(0.871138 -0.426052 -3.78732e-21)
(0.834935 -0.404348 6.86206e-21)
(0.785374 -0.396641 -3.43513e-21)
(0.720993 -0.381463 0)
(0.663922 -0.320115 -3.96993e-21)
(0.639649 -0.191553 3.91917e-21)
(0.6547 -0.0242036 -3.10581e-21)
(0.700527 0.127672 3.8658e-21)
(0.757592 0.247874 -3.29573e-22)
(0.808404 0.330876 0)
(0.825855 0.414418 -3.21759e-22)
(0.817221 0.468054 1.09548e-21)
(0.790606 0.47105 0)
(0.786523 0.363434 5.87573e-21)
(0.79767 0.171086 -2.15998e-21)
(0.824919 -0.035028 1.12956e-21)
(0.858431 -0.207336 9.56148e-22)
(0.874981 -0.264253 0)
(0.87221 -0.328492 0)
(0.8292 -0.322948 -9.78332e-22)
(0.797074 -0.334337 1.33373e-21)
(0.790349 -0.24335 -6.2966e-22)
(0.798837 -0.0683801 1.64699e-22)
(0.812492 0.0509094 3.06807e-22)
(0.79568 0.288595 1.60004e-22)
(0.796462 0.288788 -2.56219e-22)
(0.782664 0.343942 0)
(0.808216 0.246547 -2.81787e-22)
(0.80374 -0.0329073 -1.23071e-22)
(0.600497 -0.359483 1.27659e-19)
(0.587211 -0.396801 -1.26927e-19)
(0.568138 -0.423308 8.06724e-22)
(0.54087 -0.438199 -6.53296e-22)
(0.503641 -0.442875 5.53261e-22)
(0.45629 -0.438653 -4.44014e-22)
(0.399009 -0.426899 6.16934e-22)
(0.333589 -0.408971 0)
(0.263961 -0.384478 -2.9812e-22)
(0.199332 -0.344318 1.97278e-22)
(0.15106 -0.284903 1.31495e-22)
(0.123878 -0.201936 -2.63953e-22)
(0.122998 -0.0946927 0)
(0.149346 0.0258078 0)
(0.196884 0.147954 7.40504e-23)
(0.256762 0.259825 0)
(0.320086 0.35423 -8.82294e-23)
(0.378793 0.429861 0)
(0.428573 0.489573 -1.23478e-20)
(0.47193 0.533454 2.75051e-20)
(0.51935 0.55104 -3.49212e-20)
(0.583017 0.522725 1.95594e-20)
(0.665975 0.431934 3.2051e-20)
(0.761069 0.275071 -3.11168e-20)
(0.858133 0.0686757 -3.97026e-20)
(0.942292 -0.14611 3.85589e-20)
(0.995133 -0.318192 0)
(1.00979 -0.420412 8.1883e-22)
(0.99514 -0.458562 0)
(0.964726 -0.457928 0)
(0.9264 -0.439278 8.76756e-21)
(0.888301 -0.413939 -9.14799e-21)
(0.84957 -0.389029 3.70942e-22)
(0.801258 -0.375769 3.47449e-22)
(0.737083 -0.360651 -2.76516e-22)
(0.67492 -0.310332 -2.84518e-21)
(0.642043 -0.199055 2.76292e-21)
(0.650417 -0.0455877 -3.32486e-21)
(0.694395 0.10021 2.82107e-21)
(0.752441 0.222888 6.1206e-22)
(0.806521 0.314377 -2.47151e-21)
(0.827176 0.409028 -6.20644e-22)
(0.823962 0.471716 1.93189e-21)
(0.80322 0.478218 0)
(0.805308 0.370133 -2.30369e-21)
(0.820127 0.174114 3.84692e-21)
(0.84655 -0.0359787 -4.96364e-21)
(0.876813 -0.211012 -9.622e-22)
(0.889478 -0.264923 0)
(0.88645 -0.322229 3.49106e-22)
(0.840796 -0.314178 -8.21575e-22)
(0.807051 -0.329897 -2.03884e-23)
(0.796969 -0.24634 -1.15162e-22)
(0.803304 -0.0726807 1.77774e-22)
(0.815946 0.0487492 -2.37413e-22)
(0.795619 0.289508 0)
(0.798089 0.289673 2.56339e-22)
(0.783238 0.34243 0)