/*--------------------------------*- C++ -*----------------------------------*\
| =========                 |                                                 |
| \\      /  F ield         | OpenFOAM: The Open Source CFD Toolbox           |
|  \\    /   O peration     | Version:  2512                                  |
|   \\  /    A nd           | Website:  www.openfoam.com                      |
|    \\/     M anipulation  |                                                 |
\*---------------------------------------------------------------------------*/
FoamFile
{
    version     2.0;
    format      ascii;
    arch        "LSB;label=32;scalar=64";
    class       volVectorField;
    location    "84.75";
    object      U;
}
// * * * * * * * * * * * * * * * * * * * * * * * * * * * * * * * * * * * * * //

dimensions      [0 1 -1 0 0 0 0];

internalField   nonuniform List<vector> 
13248
(
(-0.013586 0.0119611 7.35893e-20)
(-0.0261201 0.025251 0)
(-0.0244419 0.0322686 -1.38915e-19)
(-0.00869255 0.0353793 1.30859e-19)
(0.0210496 0.0362377 1.22127e-19)
(0.0646869 0.0360156 0)
(0.122012 0.0355585 0)
(0.192548 0.0354807 2.91452e-19)
(0.275373 0.0361948 -1.52548e-21)
(0.368965 0.0379247 -2.54438e-19)
(0.471121 0.0406986 2.36931e-19)
(0.578984 0.0443481 -1.48093e-19)
(0.689177 0.0485261 0)
(0.798035 0.052745 -2.60455e-19)
(0.901883 0.0564344 4.88963e-19)
(0.997337 0.0590108 -1.16131e-19)
(1.08157 0.0599534 -2.14157e-19)
(1.15255 0.0588431 2.01048e-19)
(1.20917 0.0555101 0)
(1.25125 0.0496151 0)
(1.27971 0.042187 0)
(1.29572 0.0302388 0)
(1.30172 0.0227535 6.42181e-20)
(1.29902 -0.00442626 2.36668e-19)
(-0.0139224 0.0110364 -2.22267e-19)
(-0.022216 0.0211862 1.51565e-19)
(-0.0120002 0.0252292 -1.48286e-21)
(0.0158442 0.0259205 -2.0009e-19)
(0.0608053 0.0252115 -1.21994e-19)
(0.122352 0.0244944 -1.15383e-19)
(0.19961 0.0247212 -2.10837e-19)
(0.291092 0.0264886 1.99825e-19)
(0.394483 0.0300778 0)
(0.506573 0.0354634 7.29806e-22)
(0.623378 0.042328 1.84848e-21)
(0.74042 0.050104 1.48794e-19)
(0.853142 0.0580491 0)
(0.95733 0.0653465 0)
(1.04952 0.0712152 1.79827e-19)
(1.12727 0.0750117 -3.3796e-19)
(1.18935 0.0763048 2.06097e-19)
(1.23575 0.074916 -1.93498e-19)
(1.26754 0.0709084 -8.63943e-20)
(1.28668 0.064565 -1.60825e-19)
(1.29553 0.0563188 -6.8222e-20)
(1.29678 0.0464717 -1.29224e-19)
(1.29226 0.0371321 1.86653e-19)
(1.28538 0.0233628 5.38745e-20)
(-0.0130715 0.009499 0)
(-0.0143708 0.0161767 0)
(0.00766386 0.0177948 7.07871e-20)
(0.0512248 0.0171794 6.50522e-20)
(0.115051 0.0164066 -1.77587e-21)
(0.197689 0.0169686 -1.19813e-19)
(0.296939 0.0197784 0)
(0.409548 0.0252323 -9.92675e-20)
(0.531141 0.0332517 9.3709e-20)
(0.656445 0.0433282 1.08948e-21)
(0.779778 0.0546102 -1.60067e-19)
(0.895677 0.0660402 -1.47653e-19)
(0.999502 0.076521 1.85726e-21)
(1.08791 0.0850797 -1.24678e-19)
(1.15912 0.0909992 2.97238e-19)
(1.21293 0.0938928 0)
(1.25054 0.0937185 -1.98023e-19)
(1.27417 0.090722 9.59884e-20)
(1.28667 0.0853919 8.63267e-20)
(1.29091 0.0782045 0)
(1.28957 0.0700463 7.22182e-20)
(1.28458 0.0605698 -2.49372e-19)
(1.2774 0.0528912 2.34101e-19)
(1.26961 0.0401777 1.49084e-19)
(-0.010577 0.00731823 -7.89083e-20)
(-0.00151798 0.0102389 -8.16784e-20)
(0.0358881 0.0101229 7.36735e-20)
(0.0986753 0.00953209 0)
(0.18437 0.0104421 0)
(0.289914 0.0142328 -2.95607e-21)
(0.410988 0.0215174 0)
(0.541885 0.0321868 -3.05642e-19)
(0.675864 0.0455096 2.8402e-19)
(0.805878 0.0602907 -3.50423e-19)
(0.925478 0.0750994 8.02723e-20)
(1.02963 0.0885279 0)
(1.11523 0.0994215 1.35289e-19)
(1.18128 0.107034 -2.51265e-19)
(1.22867 0.111082 5.97406e-20)
(1.25974 0.111706 1.56302e-19)
(1.27766 0.109359 -5.40518e-21)
(1.28581 0.104669 -1.74702e-19)
(1.28727 0.0982868 0)
(1.2845 0.0908234 0)
(1.27918 0.0827825 -6.41888e-20)
(1.27237 0.0743247 5.79924e-20)
(1.26467 0.066934 2.11172e-19)
(1.25682 0.0562203 -1.98253e-19)
(-0.00602747 0.00463053 -8.34844e-20)
(0.0172803 0.00379184 -8.31148e-20)
(0.0737238 0.00292307 2.3363e-19)
(0.158839 0.00397677 -1.41575e-19)
(0.268296 0.00852638 1.33258e-19)
(0.396605 0.017506 2.41687e-19)
(0.536598 0.0308435 -1.71023e-19)
(0.679834 0.0475604 -2.08312e-19)
(0.81764 0.0660433 4.03901e-21)
(0.942367 0.0844063 2.65954e-19)
(1.04846 0.100875 0)
(1.13302 0.114097 7.37648e-20)
(1.19581 0.123317 0)
(1.23877 0.12839 -1.21532e-19)
(1.26525 0.129666 1.71027e-19)
(1.27917 0.127802 1.66817e-21)
(1.28429 0.123573 -4.55195e-20)
(1.28372 0.117708 8.60629e-20)
(1.27975 0.110812 7.4522e-20)
(1.27388 0.103324 -6.73176e-20)
(1.26697 0.0955957 6.41753e-20)
(1.25949 0.0876863 -5.79795e-20)
(1.25168 0.0805208 0)
(1.24396 0.0710342 -4.42329e-20)
(0.000940128 0.00170506 8.34725e-20)
(0.0427645 -0.00238981 8.78192e-20)
(0.121779 -0.00259627 -7.83413e-20)
(0.231525 0.00203245 1.46098e-19)
(0.365015 0.0122495 -1.37507e-19)
(0.513548 0.0280756 1.24326e-19)
(0.666785 0.0483065 -5.98045e-20)
(0.814064 0.0708216 1.56404e-19)
(0.946143 0.0931503 -9.8565e-20)
(1.05662 0.113041 1.74959e-19)
(1.14259 0.128881 -4.04301e-19)
(1.20445 0.13989 1.48881e-19)
(1.24509 0.146067 -1.31e-19)
(1.26877 0.147988 1.2305e-19)
(1.28005 0.146525 1.07284e-19)
(1.28305 0.142605 9.50003e-20)
(1.28097 0.13704 -2.64504e-19)
(1.27603 0.130454 1.64517e-19)
(1.26961 0.123285 -7.45266e-20)
(1.26249 0.115826 1.95893e-19)
(1.25508 0.108267 -6.32224e-20)
(1.24752 0.100715 -1.55718e-19)
(1.23991 0.0936209 1.44047e-19)
(1.23238 0.0850358 4.422e-20)
(0.0106312 -0.00109094 0)
(0.0753823 -0.0072752 8.58355e-22)
(0.180017 -0.00491889 1.64601e-19)
(0.315434 0.00542309 -1.54265e-19)
(0.471188 0.0231276 -1.3913e-19)
(0.634943 0.0467623 2.58589e-19)
(0.793673 0.07365 -1.20093e-19)
(0.935955 0.100556 1.60046e-19)
(1.05398 0.124554 -3.39663e-21)
(1.1444 0.143628 -9.08471e-20)
(1.20799 0.156892 1.98649e-19)
(1.24846 0.164474 -2.937e-19)
(1.27093 0.167181 0)
(1.28067 0.166125 -5.8107e-20)
(1.28218 0.162416 -1.55973e-19)
(1.27886 0.156978 4.89697e-20)
(1.27299 0.150492 1.76083e-21)
(1.26593 0.143413 -1.09794e-19)
(1.25841 0.136033 6.08055e-21)
(1.25078 0.128533 1.27387e-19)
(1.24319 0.121032 -5.74978e-20)
(1.23566 0.113623 -2.21063e-20)
(1.22816 0.10646 6.75194e-20)
(1.22075 0.0985101 0)
(0.0232573 -0.00331614 0)
(0.115168 -0.00968765 4.46755e-20)
(0.247564 -0.0024518 -2.15166e-19)
(0.408026 0.0157158 7.82749e-20)
(0.582112 0.0421685 -7.36676e-20)
(0.754176 0.0735708 -6.74306e-20)
(0.909942 0.105754 -1.19066e-19)
(1.03934 0.134818 5.94602e-20)
(1.13791 0.158069 5.16305e-20)
(1.20636 0.174352 0)
(1.24902 0.183853 1.18238e-19)
(1.27191 0.187617 -1.76498e-19)
(1.2811 0.187038 1.31385e-19)
(1.28166 0.183464 5.81384e-20)
(1.27734 0.177989 -4.80461e-20)
(1.27058 0.17139 -4.05273e-20)
(1.26281 0.164174 -3.80681e-20)
(1.25476 0.156649 1.13088e-19)
(1.24677 0.148999 0)
(1.23897 0.141338 5.76269e-20)
(1.23138 0.133745 4.90368e-20)
(1.22395 0.126288 -1.2117e-19)
(1.21664 0.118978 -8.38669e-20)
(1.20941 0.111449 7.73835e-20)
(0.038881 -0.0044766 -4.84435e-20)
(0.161629 -0.00841687 -1.95544e-21)
(0.322635 0.00624967 4.38637e-20)
(0.505649 0.0340184 1.22835e-19)
(0.692326 0.0696216 3.57756e-20)
(0.864966 0.107678 -6.91235e-20)
(1.0102 0.142965 6.30438e-20)
(1.12139 0.171689 -5.523e-20)
(1.19849 0.19211 9.91819e-20)
(1.2462 0.204325 4.22964e-20)
(1.27141 0.209603 -1.2017e-19)
(1.28115 0.209676 3.54487e-20)
(1.28134 0.206217 6.07856e-20)
(1.27625 0.200563 -2.98605e-20)
(1.26863 0.193652 0)
(1.26007 0.186075 4.49772e-20)
(1.25136 0.178183 7.65216e-20)
(1.24285 0.170171 1.33925e-20)
(1.23468 0.162156 -6.40694e-20)
(1.22685 0.154212 2.69586e-20)
(1.21932 0.146397 0)
(1.21202 0.138742 -2.1382e-20)
(1.20488 0.131215 -2.04392e-20)
(1.19782 0.123887 0)
(0.0573565 -0.00405484 0)
(0.21367 -0.00233604 2.54125e-20)
(0.402577 0.0222908 4.70769e-20)
(0.603935 0.0608009 -1.25494e-19)
(0.796435 0.104967 4.06107e-20)
(0.962392 0.147695 0)
(1.0916 0.183541 6.09994e-20)
(1.18218 0.20967 -8.51962e-20)
(1.2386 0.225792 -4.95961e-20)
(1.26858 0.233321 2.23899e-20)
(1.28035 0.23439 -3.60524e-20)
(1.28091 0.231105 8.74212e-20)
(1.27535 0.22516 4.39279e-20)
(1.26693 0.217734 -3.04495e-20)
(1.25753 0.209559 -2.76727e-21)
(1.24806 0.201054 -8.41551e-20)
(1.23892 0.192446 3.83815e-20)
(1.23024 0.18386 -9.98168e-22)
(1.22205 0.175368 0)
(1.21429 0.167023 -2.69869e-20)
(1.2069 0.158861 0)
(1.19978 0.150884 6.1629e-20)
(1.19286 0.143094 -7.35164e-20)
(1.18601 0.135771 3.35819e-20)
(0.0782863 -0.00154854 -1.33207e-20)
(0.269592 0.00948678 -6.42256e-20)
(0.484085 0.0463045 7.31559e-20)
(0.698326 0.0958547 4.29829e-20)
(0.889849 0.147083 -2.05018e-20)
(1.04336 0.192005 3.45e-20)
(1.15351 0.225967 -1.67373e-20)
(1.22358 0.247767 2.78633e-20)
(1.26177 0.258741 0)
(1.27766 0.261444 6.3259e-20)
(1.2797 0.258553 -2.57549e-21)
(1.27416 0.25227 -5.11248e-20)
(1.2651 0.244139 2.19367e-20)
(1.25484 0.235115 -2.48275e-20)
(1.24453 0.225732 -9.509e-21)
(1.23465 0.21627 1.093e-20)
(1.22536 0.206873 -8.47981e-21)
(1.2167 0.197617 -4.6228e-20)
(1.2086 0.188549 2.83374e-20)
(1.20101 0.179704 5.82946e-21)
(1.19381 0.171097 5.15263e-21)
(1.18693 0.162715 4.55691e-21)
(1.18025 0.154629 0)
(1.17363 0.147109 0)
(0.101084 0.00349569 1.33299e-20)
(0.327324 0.0277057 -1.33344e-20)
(0.56367 0.0783824 -2.43994e-20)
(0.784752 0.138361 0)
(0.969294 0.194486 -1.01958e-20)
(1.10651 0.239041 -9.20262e-21)
(1.19678 0.269084 -1.57345e-20)
(1.24804 0.285408 0)
(1.27117 0.290886 0)
(1.27643 0.288898 0)
(1.27175 0.282364 0)
(1.26238 0.273375 0)
(1.25133 0.263239 -1.38008e-20)
(1.24014 0.252681 6.28933e-21)
(1.22945 0.242071 1.09587e-20)
(1.21949 0.231585 5.12905e-21)
(1.21028 0.221309 1.2731e-20)
(1.20177 0.211287 0)
(1.1939 0.201549 -3.07539e-21)
(1.18657 0.192115 -2.95141e-21)
(1.17969 0.182981 -5.16085e-21)
(1.17314 0.174138 -4.5642e-21)
(1.16679 0.16573 0)
(1.1605 0.157846 3.30223e-21)
(-0.00173404 0.0240646 8.47907e-21)
(-0.00691942 0.0636759 -8.77331e-21)
(-0.0153927 0.0961891 -1.65779e-20)
(-0.025749 0.122081 0)
(-0.0371317 0.142131 -2.21266e-20)
(-0.049017 0.157449 6.94256e-21)
(-0.0609659 0.169279 -1.31215e-20)
(-0.0726138 0.178789 0)
(-0.0836796 0.186919 0)
(-0.0939547 0.19431 0)
(-0.103287 0.201297 0)
(-0.111565 0.207955 0)
(-0.118699 0.214157 -1.16914e-24)
(-0.124609 0.219636 -8.79907e-21)
(-0.129212 0.224026 1.6881e-20)
(-0.132416 0.226899 2.40514e-20)
(-0.13412 0.227784 7.78476e-21)
(-0.134211 0.226181 0)
(-0.132573 0.221587 6.88731e-21)
(-0.129096 0.213518 -1.97821e-20)
(-0.123678 0.201558 -1.27398e-20)
(-0.116219 0.185378 -1.21911e-20)
(-0.106691 0.164766 0)
(-0.0953661 0.139853 0)
(-0.0030671 0.0262871 -2.55015e-20)
(-0.00946917 0.0693692 4.38669e-20)
(-0.0173565 0.104649 -1.65928e-20)
(-0.0260728 0.132693 -3.13106e-20)
(-0.035171 0.154303 4.42194e-20)
(-0.0443422 0.170603 -2.7845e-20)
(-0.0532902 0.18287 3.93062e-20)
(-0.0617349 0.192324 2.47662e-20)
(-0.0694279 0.199978 0)
(-0.0761551 0.206549 -2.22259e-20)
(-0.0817359 0.212446 -3.09649e-22)
(-0.0860182 0.217799 1.96069e-20)
(-0.0888705 0.222517 2.81945e-20)
(-0.0901736 0.226347 3.59258e-20)
(-0.0898131 0.228928 -1.63823e-20)
(-0.0876753 0.229824 -4.81623e-20)
(-0.0836441 0.22855 1.59267e-20)
(-0.0776021 0.224598 -5.91717e-20)
(-0.0694336 0.217456 0)
(-0.0590297 0.206643 1.32948e-20)
(-0.0462963 0.19175 1.27186e-20)
(-0.0311332 0.172507 1.21704e-20)
(-0.013326 0.148925 0)
(0.00724823 0.121704 0)
(-0.00448484 0.0270138 0)
(-0.0122924 0.0717112 8.83083e-20)
(-0.0197175 0.108702 -3.32825e-20)
(-0.0267724 0.138357 3.13327e-20)
(-0.0333841 0.161323 -8.86321e-20)
(-0.0394518 0.178608 0)
(-0.0448337 0.191413 -5.25528e-20)
(-0.0493551 0.200937 2.46874e-20)
(-0.0528234 0.208212 -4.67354e-20)
(-0.0550406 0.214011 2.21024e-20)
(-0.0558137 0.218808 1.25986e-19)
(-0.0549619 0.222802 -5.92301e-20)
(-0.0523191 0.225958 -9.47899e-20)
(-0.0477331 0.228069 -3.70115e-20)
(-0.0410645 0.228802 -1.15844e-21)
(-0.0321889 0.22774 1.31153e-19)
(-0.0209926 0.224414 -6.21631e-20)
(-0.00737263 0.21833 -4.68186e-22)
(0.00875452 0.208985 0)
(0.0274523 0.195898 -5.63178e-20)
(0.0487483 0.178644 0)
(0.0726558 0.156924 -5.28037e-20)
(0.0995258 0.130779 2.00123e-19)
(0.130392 0.101075 2.46664e-21)
(-0.00579104 0.026365 0)
(-0.0150389 0.0708276 1.54306e-22)
(-0.0222018 0.108322 3.34284e-20)
(-0.0277691 0.13883 -3.14385e-20)
(-0.0319462 0.162726 2.95584e-20)
(-0.0348026 0.180805 1.66983e-19)
(-0.0363433 0.19411 -5.23959e-20)
(-0.0365116 0.203743 -4.93618e-20)
(-0.0351957 0.210702 9.32807e-20)
(-0.0322431 0.215775 -1.32759e-19)
(-0.0274776 0.219486 4.14503e-20)
(-0.0207154 0.222102 3.95698e-20)
(-0.0117765 0.223659 0)
(-0.000493383 0.224016 3.5926e-20)
(0.0132844 0.222896 0)
(0.0296854 0.219933 6.57353e-20)
(0.0488144 0.214705 -1.28011e-19)
(0.0707517 0.206758 2.71212e-20)
(0.095549 0.19563 1.15775e-19)
(0.123231 0.180866 5.6249e-20)
(0.153775 0.162055 0)
(0.187152 0.138833 -1.5964e-19)
(0.223185 0.111203 4.95738e-20)
(0.266088 0.0797887 0)
(-0.00684981 0.0246305 0)
(-0.0174477 0.0672071 -1.06597e-19)
(-0.0246011 0.103932 -3.33937e-20)
(-0.0290129 0.134333 -6.28539e-20)
(-0.0310335 0.158477 5.91803e-20)
(-0.0308437 0.176908 -5.56095e-20)
(-0.02857 0.190464 1.04675e-19)
(-0.0242741 0.200095 4.95661e-20)
(-0.0179436 0.206712 -1.39335e-19)
(-0.00950136 0.211076 8.81327e-20)
(0.00117765 0.213731 -1.2498e-19)
(0.0142472 0.214994 2.76179e-19)
(0.029872 0.214973 -1.49111e-19)
(0.0482135 0.213599 7.11604e-20)
(0.0694195 0.210669 2.06241e-19)
(0.0936175 0.205889 -6.27813e-20)
(0.120911 0.198899 -5.9573e-20)
(0.151377 0.189309 -5.94719e-20)
(0.185058 0.176712 0)
(0.222008 0.160674 -1.14947e-19)
(0.262127 0.140856 -1.14328e-19)
(0.305835 0.116916 1.55995e-19)
(0.350801 0.0887556 2.06873e-19)
(0.408783 0.0565745 -1.93755e-19)
(-0.00762196 0.0222116 0)
(-0.0194121 0.0616081 -1.42639e-19)
(-0.0268175 0.0963302 2.65459e-22)
(-0.030482 0.125525 1.26068e-19)
(-0.030763 0.149002 0)
(-0.0278869 0.16708 0)
(-0.0220656 0.180387 0)
(-0.0134648 0.189699 -4.92444e-20)
(-0.00217609 0.195806 -2.6565e-22)
(0.0117852 0.199399 8.69023e-20)
(0.0284695 0.201009 -1.24954e-19)
(0.0479759 0.200976 -5.75877e-22)
(0.0704347 0.199461 0)
(0.0959907 0.196462 -7.11243e-20)
(0.124791 0.191851 6.86279e-20)
(0.156978 0.185405 -1.92555e-19)
(0.192687 0.176829 2.50586e-19)
(0.232041 0.165796 6.45337e-20)
(0.27507 0.151937 6.54451e-21)
(0.321948 0.134964 -2.20535e-19)
(0.372353 0.114519 -1.06971e-19)
(0.428142 0.0904518 3.67123e-19)
(0.481727 0.062326 -2.47146e-19)
(0.557318 0.0301043 0)
(-0.00817366 0.0195558 6.97313e-20)
(-0.0209959 0.0549408 7.14093e-20)
(-0.0288646 0.0865833 -6.7121e-20)
(-0.0321438 0.113442 -1.25568e-19)
(-0.0310889 0.135196 1.18224e-19)
(-0.0259173 0.152013 -1.10346e-19)
(-0.0168863 0.164349 1.55477e-19)
(-0.00423704 0.172819 -4.91806e-20)
(0.0118526 0.178079 9.14419e-20)
(0.0312847 0.180731 0)
(0.0540416 0.181258 8.14476e-20)
(0.0801758 0.179999 -1.52292e-19)
(0.109796 0.17714 1.47234e-19)
(0.143052 0.172727 -1.38278e-19)
(0.180124 0.166688 0)
(0.221192 0.158866 1.27351e-19)
(0.266451 0.149034 2.46677e-19)
(0.316081 0.136929 -2.32653e-19)
(0.370222 0.122274 -1.12299e-19)
(0.429141 0.104879 -1.14011e-19)
(0.491452 0.0841932 3.15516e-19)
(0.561617 0.0608054 1.03101e-19)
(0.624157 0.0333488 -9.41864e-20)
(0.719412 0.00305209 9.11272e-20)
(-0.00865764 0.0170814 -6.97409e-20)
(-0.0223908 0.0481097 2.14533e-19)
(-0.0307974 0.0758526 -6.75169e-20)
(-0.0338453 0.0993576 1.25476e-19)
(-0.0316298 0.118341 -1.18138e-19)
(-0.0243253 0.132927 1.429e-22)
(-0.0121947 0.143471 5.1676e-20)
(0.00449073 0.150465 1.92128e-19)
(0.025514 0.154448 -1.87884e-22)
(0.0507435 0.155926 -8.5573e-20)
(0.0801431 0.155326 0)
(0.113769 0.152959 -7.59509e-20)
(0.151757 0.149015 1.43127e-19)
(0.194292 0.143564 1.3789e-19)
(0.241605 0.136585 -6.47939e-20)
(0.293925 0.127971 -1.21875e-21)
(0.351425 0.117551 -6.05694e-20)
(0.414188 0.105127 1.1397e-19)
(0.482021 0.0904472 1.12283e-19)
(0.555166 0.073519 -1.08223e-19)
(0.63079 0.0535191 1.01117e-19)
(0.715261 0.0323202 -9.66733e-20)
(0.785726 0.00637855 0)
(0.895143 -0.019116 -9.10884e-20)
(-0.00926226 0.0151 6.99261e-20)
(-0.0238043 0.0418486 -7.16953e-20)
(-0.032565 0.0651963 6.74171e-20)
(-0.0351295 0.0845841 0)
(-0.0314335 0.0999448 0)
(-0.0215915 0.111473 1.09313e-19)
(-0.00582777 0.119508 -1.03009e-19)
(0.0156204 0.124477 9.51537e-20)
(0.0425731 0.126834 -4.48778e-19)
(0.0749426 0.127013 1.69521e-23)
(0.112743 0.125381 7.88548e-20)
(0.15608 0.122215 0)
(0.205118 0.117697 -1.42404e-19)
(0.260039 0.111909 2.69254e-19)
(0.320967 0.104845 -1.91949e-19)
(0.387909 0.0964203 -3.09485e-19)
(0.460687 0.0865059 -4.97e-21)
(0.538871 0.0749705 2.20206e-19)
(0.621526 0.06159 0)
(0.708093 0.0466351 0)
(0.794664 0.0289387 -1.01118e-19)
(0.88667 0.0115491 9.66739e-20)
(0.960408 -0.0116925 -3.61175e-19)
(1.06759 -0.0299101 3.38288e-19)
(-0.0101325 0.0137506 0)
(-0.0253008 0.0365793 0)
(-0.0338197 0.0553824 -2.02102e-19)
(-0.0350345 0.0702607 6.43819e-20)
(-0.0287684 0.0815147 1.09392e-21)
(-0.0150666 0.0895137 1.10555e-19)
(0.00593253 0.0946607 0)
(0.0340939 0.0973789 -9.5532e-20)
(0.069341 0.0980877 8.95377e-20)
(0.111672 0.0971726 -1.66714e-19)
(0.161139 0.0949578 -1.74401e-22)
(0.217803 0.0916869 1.48481e-19)
(0.281659 0.0875135 1.18223e-21)
(0.352554 0.0825007 1.35194e-19)
(0.430097 0.0766256 -1.88169e-19)
(0.513581 0.0698029 0)
(0.60193 0.0619001 2.32297e-19)
(0.693686 0.0527719 -3.29411e-19)
(0.786921 0.042226 1.03384e-19)
(0.879767 0.0304183 0)
(0.968484 0.0164228 9.30845e-20)
(1.05483 0.00301564 3.62826e-19)
(1.1226 -0.0164992 -3.40516e-19)
(1.20653 -0.0280402 -3.93648e-19)
(-0.0112851 0.012967 2.11481e-19)
(-0.0266459 0.0323296 -2.90323e-19)
(-0.0337733 0.0467562 9.84111e-22)
(-0.0320042 0.0571646 6.42816e-20)
(-0.0211284 0.0643152 -1.18955e-19)
(-0.00112311 0.0688274 -1.10131e-19)
(0.0279795 0.0712329 2.04315e-19)
(0.0661568 0.0720042 -1.88637e-21)
(0.113398 0.0715648 -1.79074e-19)
(0.16966 0.0702761 3.33737e-19)
(0.234797 0.0684209 1.05373e-22)
(0.308459 0.0661891 -1.47105e-19)
(0.389993 0.0636689 0)
(0.478365 0.0608461 0)
(0.572115 0.0576115 -6.28061e-20)
(0.66935 0.0537774 -1.17666e-19)
(0.76781 0.0491126 -2.26941e-19)
(0.864939 0.0433311 2.13018e-19)
(0.958074 0.0362681 -1.03436e-19)
(1.04455 0.0275911 1.92914e-19)
(1.12179 0.0173546 -9.25631e-20)
(1.18884 0.00604558 1.7053e-19)
(1.23952 -0.00939379 -3.96845e-19)
(1.28841 -0.0185182 7.70368e-20)
(-0.0125514 0.0124899 7.11489e-20)
(-0.0272298 0.0287477 0)
(-0.0311774 0.0392109 1.36968e-19)
(-0.023997 0.0456065 -1.29028e-19)
(-0.00554723 0.0491717 1.19066e-19)
(0.0242166 0.0508109 0)
(0.0653009 0.0512117 0)
(0.117646 0.0509235 -9.55901e-20)
(0.181049 0.0503847 1.33199e-21)
(0.255039 0.04992 8.43478e-20)
(0.338757 0.0497324 -7.84376e-20)
(0.430857 0.049892 1.47274e-19)
(0.529465 0.0503309 0)
(0.632207 0.0508514 2.62435e-19)
(0.736297 0.0511474 -4.94367e-19)
(0.838701 0.0508357 3.50544e-19)
(0.936329 0.0495158 2.20996e-19)
(1.02624 0.0467535 -2.07451e-19)
(1.10591 0.0423674 0)
(1.17329 0.0357003 0)
(1.2274 0.027773 0)
(1.26767 0.016177 0)
(1.29471 0.00503862 7.68648e-20)
(1.3131 -0.00848072 -2.71724e-19)
(-0.0808391 0.106672 -7.76256e-21)
(-0.064199 0.0573615 7.81678e-21)
(-0.045172 -0.00217011 -2.51761e-22)
(-0.0232267 -0.0706993 0)
(0.00114666 -0.146027 -7.00717e-21)
(0.0272001 -0.225305 1.33336e-20)
(0.0541275 -0.304785 -3.94026e-22)
(0.0800404 -0.380178 -5.78007e-21)
(0.103036 -0.447408 0)
(0.120745 -0.503382 0)
(0.13116 -0.546399 -2.3141e-22)
(0.13394 -0.576181 -1.95474e-22)
(0.13183 -0.591151 -2.80371e-21)
(0.131779 -0.586125 2.5624e-21)
(0.143038 -0.552167 0)
(0.173278 -0.480344 0)
(0.223499 -0.368193 2.56869e-21)
(0.288342 -0.222049 1.1593e-22)
(0.361006 -0.0539385 -2.39092e-21)
(0.436001 0.120426 -1.3965e-22)
(0.508191 0.279323 0)
(0.571942 0.401808 0)
(0.621578 0.478567 0)
(0.654669 0.513391 0)
(0.673566 0.517316 0)
(0.678565 0.508778 0)
(0.663386 0.509945 3.0808e-22)
(0.62686 0.524334 -5.024e-22)
(0.585944 0.518293 0)
(0.568277 0.44221 0)
(0.587993 0.277737 -6.5684e-22)
(0.636827 0.0608234 6.38346e-22)
(0.697478 -0.148209 3.17309e-22)
(0.751878 -0.304014 0)
(0.789842 -0.395134 0)
(0.81203 -0.429036 2.73732e-22)
(0.821576 -0.431398 -2.66082e-22)
(0.809488 -0.436166 0)
(0.7685 -0.452035 2.11338e-22)
(0.71458 -0.440952 -3.0783e-22)
(0.679814 -0.346456 1.18883e-22)
(0.680642 -0.17622 0)
(0.712963 0.0279789 -2.52021e-22)
(0.75744 0.185923 2.45059e-22)
(0.804157 0.295421 0)
(0.827682 0.348746 0)
(0.813095 0.39611 -6.41534e-23)
(0.767835 0.410453 1.89926e-22)
(0.729563 0.351107 0)
(0.719768 0.221051 0)
(0.758734 0.0128465 -6.33425e-23)
(0.79469 -0.109611 -6.19258e-24)
(0.825515 -0.263952 -8.48289e-24)
(0.802775 -0.314594 3.48347e-23)
(0.778196 -0.370511 0)
(0.761489 -0.335271 0)
(0.778918 -0.137137 0)
(0.777583 -0.068436 0)
(0.782514 0.23873 0)
(0.754755 0.260688 0)
(0.0314058 0.0874834 -8.13094e-22)
(0.0534487 0.0365263 -3.44974e-20)
(0.0778081 -0.0255157 1.33804e-22)
(0.104333 -0.0958925 3.22173e-20)
(0.13199 -0.17267 5.02357e-22)
(0.159945 -0.252496 0)
(0.187174 -0.331518 -2.54038e-20)
(0.212023 -0.404759 4.79881e-20)
(0.232367 -0.467544 -2.25693e-20)
(0.245658 -0.516562 1.67562e-20)
(0.249224 -0.550858 -1.60557e-20)
(0.241127 -0.572086 1.15211e-20)
(0.221763 -0.582339 -1.12172e-20)
(0.196519 -0.580209 -2.70079e-22)
(0.175838 -0.55768 -8.30839e-21)
(0.172165 -0.502533 8.07459e-21)
(0.192953 -0.406131 -8.50183e-21)
(0.237054 -0.270394 8.02567e-21)
(0.29778 -0.107284 -8.66333e-21)
(0.368206 0.0654296 1.6282e-20)
(0.441638 0.227686 -7.6446e-21)
(0.511102 0.358444 -3.50836e-22)
(0.569949 0.446838 -4.56798e-21)
(0.614609 0.4934 8.24299e-21)
(0.644973 0.508059 -3.69666e-21)
(0.657985 0.510962 1.97455e-22)
(0.647667 0.523485 3.52629e-21)
(0.617644 0.543524 6.43444e-22)
(0.588968 0.532407 -8.33856e-21)
(0.586961 0.442906 9.80684e-21)
(0.619889 0.264279 -5.20413e-21)
(0.676382 0.0379723 7.44268e-22)
(0.738719 -0.173297 -3.17935e-22)
(0.789684 -0.324308 5.57223e-22)
(0.820648 -0.407754 0)
(0.833372 -0.435007 0)
(0.834942 -0.430319 -8.9827e-22)
(0.818983 -0.425781 6.76246e-22)
(0.775984 -0.43413 5.88588e-22)
(0.717619 -0.423974 2.00625e-22)
(0.674685 -0.339427 -9.37197e-22)
(0.668916 -0.181807 2.27846e-22)
(0.698186 0.0138222 0)
(0.745567 0.169421 0)
(0.795264 0.283467 0)
(0.821989 0.346655 0)
(0.808318 0.404003 2.58622e-22)
(0.765792 0.421927 -1.27658e-22)
(0.731712 0.357824 0)
(0.724201 0.21851 0)
(0.76541 0.00350563 0)
(0.800477 -0.117628 -1.128e-22)
(0.833756 -0.264868 1.46291e-23)
(0.809388 -0.309511 -7.78707e-23)
(0.784465 -0.365833 0)
(0.766263 -0.335105 0)
(0.780076 -0.139071 3.80642e-23)
(0.77688 -0.0684986 9.23375e-23)
(0.778721 0.241183 0)
(0.752337 0.262633 0)
(0.161056 0.0657015 2.75095e-21)
(0.188446 0.0143201 -7.22422e-20)
(0.216567 -0.0477009 7.28241e-20)
(0.246586 -0.118307 -6.80797e-20)
(0.276623 -0.194914 -5.05682e-22)
(0.305545 -0.274279 0)
(0.332251 -0.35206 -5.5044e-20)
(0.355102 -0.422942 5.38888e-20)
(0.372017 -0.481716 3.37075e-22)
(0.380759 -0.524423 5.80019e-22)
(0.379078 -0.549764 4.73809e-22)
(0.364669 -0.560211 3.90548e-22)
(0.335623 -0.561018 -1.84753e-20)
(0.293571 -0.555899 1.82284e-20)
(0.246591 -0.541019 0)
(0.209165 -0.503737 3.60447e-22)
(0.195489 -0.429317 -1.32846e-20)
(0.211668 -0.311924 1.3147e-20)
(0.253915 -0.159975 0)
(0.314834 0.00829077 0)
(0.385646 0.171059 -1.15903e-20)
(0.457658 0.308506 2.10907e-20)
(0.523585 0.407784 -1.71824e-20)
(0.578324 0.466538 1.04262e-21)
(0.61864 0.493692 1.29113e-20)
(0.638791 0.509701 -1.29162e-20)
(0.634202 0.533555 1.29458e-20)
(0.612818 0.557923 8.75017e-22)
(0.597916 0.541499 -7.95427e-21)
(0.611481 0.440638 0)
(0.656983 0.251152 0)
(0.720175 0.0187262 4.45284e-21)
(0.782857 -0.19352 -5.82943e-21)
(0.829361 -0.339592 2.60898e-23)
(0.853003 -0.415815 3.04885e-21)
(0.856387 -0.437488 -2.96295e-21)
(0.849817 -0.42744 0)
(0.830108 -0.414807 1.97712e-22)
(0.785967 -0.415741 1.54682e-21)
(0.724386 -0.406188 -3.10704e-21)
(0.673906 -0.331836 1.41997e-21)
(0.661371 -0.187859 1.5931e-22)
(0.687039 -0.00181837 -1.93804e-21)
(0.736626 0.151025 1.51532e-21)
(0.788511 0.270045 2.90179e-22)
(0.818014 0.343583 2.64658e-22)
(0.805497 0.41108 -2.59292e-22)
(0.766247 0.432777 0)
(0.736834 0.364397 0)
(0.731619 0.216621 -1.44273e-21)
(0.774484 -0.00508749 6.78605e-22)
(0.80808 -0.125251 -5.75968e-22)
(0.843497 -0.265472 6.65058e-22)
(0.817336 -0.304114 6.08498e-22)
(0.79166 -0.360796 -1.43079e-22)
(0.771673 -0.334852 1.79579e-22)
(0.782227 -0.140641 -1.35031e-22)
(0.777368 -0.0683273 2.79692e-23)
(0.776077 0.243608 0)
(0.750883 0.26458 0)
(0.299126 0.0439019 -1.52407e-19)
(0.331219 -0.00790635 -1.57171e-21)
(0.362927 -0.0693005 1.46537e-19)
(0.395603 -0.138711 -1.11502e-21)
(0.427627 -0.213769 0)
(0.457286 -0.291443 0)
(0.483181 -0.367123 -1.13799e-19)
(0.503429 -0.435155 1.01764e-20)
(0.515922 -0.489983 1.38566e-19)
(0.51887 -0.527272 -6.80386e-21)
(0.510939 -0.545172 -3.4009e-20)
(0.491053 -0.545606 -2.10109e-20)
(0.45744 -0.534574 2.1138e-20)
(0.408499 -0.519912 0)
(0.346611 -0.504624 -1.11296e-20)
(0.28279 -0.480578 1.0176e-20)
(0.23462 -0.430446 0)
(0.217069 -0.33938 0)
(0.233815 -0.207023 9.96218e-21)
(0.278764 -0.0490276 -6.99035e-23)
(0.342085 0.11112 -9.00513e-21)
(0.413447 0.25322 -7.88014e-21)
(0.483718 0.362208 7.75199e-21)
(0.546072 0.433338 -6.19272e-21)
(0.594145 0.47419 1.18117e-22)
(0.620542 0.504037 5.71931e-21)
(0.622624 0.538494 7.95989e-22)
(0.61163 0.566114 4.99004e-24)
(0.611376 0.545064 0)
(0.640082 0.435936 1.22443e-20)
(0.697372 0.239328 -1.27114e-20)
(0.766595 0.00286962 8.05023e-22)
(0.828969 -0.208983 0)
(0.870373 -0.350423 -5.90083e-22)
(0.886523 -0.419967 6.27418e-21)
(0.880898 -0.436813 -1.00169e-20)
(0.866073 -0.422996 5.33539e-22)
(0.842494 -0.403754 5.92957e-22)
(0.797921 -0.397336 2.37484e-21)
(0.734612 -0.38751 3.16443e-22)
(0.677637 -0.32318 -2.75521e-21)
(0.65834 -0.193855 2.28766e-21)
(0.67971 -0.018473 6.14209e-23)
(0.730582 0.131035 1.18671e-21)
(0.783817 0.255255 -1.44494e-21)
(0.815691 0.339398 -1.80404e-21)
(0.804619 0.417089 5.05638e-22)
(0.769136 0.442807 1.28357e-21)
(0.744833 0.370849 -2.73645e-21)
(0.741947 0.215627 2.19437e-21)
(0.785887 -0.0126789 -5.872e-22)
(0.817413 -0.132424 8.09945e-22)
(0.854602 -0.265836 5.93891e-22)
(0.826537 -0.298409 -9.32004e-22)
(0.799705 -0.355319 3.47964e-23)
(0.777582 -0.33446 -1.4114e-22)
(0.78527 -0.141896 0)
(0.778982 -0.0679534 -6.17584e-23)
(0.774537 0.246019 6.04148e-23)
(0.750379 0.266548 0)
(0.442206 0.0211559 1.5488e-19)
(0.4771 -0.029766 -3.06308e-19)
(0.51192 -0.0899155 1.49142e-19)
(0.547213 -0.156773 1.45837e-19)
(0.580766 -0.22877 -2.80738e-19)
(0.610624 -0.303221 7.71919e-21)
(0.635151 -0.375296 1.24694e-19)
(0.652113 -0.439221 9.9849e-20)
(0.65921 -0.489456 -9.77569e-20)
(0.65496 -0.521814 0)
(0.638956 -0.534494 -5.45366e-20)
(0.611745 -0.528661 9.48912e-20)
(0.573675 -0.508779 -4.07352e-20)
(0.523413 -0.482914 0)
(0.45875 -0.45937 0)
(0.382693 -0.438498 2.7936e-22)
(0.308697 -0.407182 -1.28011e-20)
(0.256721 -0.345447 1.24373e-20)
(0.240973 -0.241609 0)
(0.262522 -0.102487 1.32833e-20)
(0.312834 0.0503033 -2.4867e-20)
(0.379345 0.193968 2.30388e-20)
(0.450571 0.311009 -2.13458e-20)
(0.517331 0.394184 2.6874e-23)
(0.570681 0.449187 2.01462e-20)
(0.602572 0.492812 -1.03301e-20)
(0.612271 0.53691 -3.93446e-22)
(0.61305 0.567304 -7.94091e-21)
(0.627792 0.543192 -2.35733e-21)
(0.670857 0.429436 1.0219e-20)
(0.738789 0.229257 8.26299e-22)
(0.813906 -0.00904283 -1.33168e-20)
(0.876155 -0.219332 2.42733e-20)
(0.911978 -0.356458 -1.22637e-20)
(0.920509 -0.420081 0)
(0.906425 -0.432918 -5.24195e-21)
(0.88352 -0.416868 4.9318e-21)
(0.855975 -0.39277 -2.22199e-21)
(0.811507 -0.379477 2.78608e-21)
(0.747902 -0.368481 -2.31833e-22)
(0.685774 -0.313514 0)
(0.659961 -0.1994 -2.64946e-22)
(0.676257 -0.0359601 8.47912e-22)
(0.727301 0.109707 0)
(0.781032 0.239117 2.41194e-21)
(0.814886 0.333885 -9.45869e-22)
(0.805589 0.421747 5.10364e-22)
(0.77429 0.451831 6.05546e-22)
(0.755475 0.377186 0)
(0.75498 0.215642 0)
(0.799509 -0.0190711 -2.21025e-21)
(0.828382 -0.139052 3.20092e-21)
(0.866909 -0.265927 -1.59548e-21)
(0.836908 -0.292345 4.12141e-22)
(0.80855 -0.349307 5.49823e-22)
(0.783868 -0.333899 1.41272e-22)
(0.789088 -0.142907 -1.22127e-22)
(0.781644 -0.0674095 0)
(0.774048 0.248425 -1.01247e-22)
(0.75081 0.268552 -6.87553e-24)
(0.590407 -0.00294844 1.54602e-19)
(0.626711 -0.051963 -1.53983e-19)
(0.663313 -0.109486 1.19214e-21)
(0.700057 -0.172317 -1.12368e-21)
(0.733634 -0.239845 1.10723e-21)
(0.762041 -0.309484 -1.03477e-21)
(0.783516 -0.376273 1.82947e-21)
(0.795522 -0.43472 0)
(0.795824 -0.47967 -1.39282e-21)
(0.783436 -0.507221 1.15649e-21)
(0.758722 -0.51585 9.26865e-22)
(0.723239 -0.506685 -7.36218e-22)
(0.679086 -0.482911 0)
(0.627328 -0.450063 0)
(0.565866 -0.416496 2.53939e-22)
(0.491439 -0.389293 0)
(0.407603 -0.365075 -1.01321e-22)
(0.330069 -0.326974 0)
(0.280049 -0.255395 -6.54937e-21)
(0.270246 -0.144134 1.32023e-20)
(0.29931 -0.00658339 -1.38253e-20)
(0.355121 0.133203 6.92239e-21)
(0.423002 0.25546 6.89668e-21)
(0.490718 0.349574 -6.69741e-21)
(0.547185 0.418407 -8.7221e-21)
(0.584178 0.475168 8.51305e-21)
(0.602414 0.527967 0)
(0.615936 0.561175 4.1073e-22)
(0.645574 0.536249 0)
(0.701754 0.42153 0)
(0.779351 0.221226 2.63701e-20)
(0.86057 -0.0164599 -2.72206e-20)
(0.923223 -0.22453 1.5817e-21)
(0.953472 -0.357746 1.2651e-21)
(0.954369 -0.416439 -9.34156e-22)
(0.932525 -0.426051 -4.58375e-21)
(0.90193 -0.409079 4.45089e-21)
(0.870276 -0.381963 -2.74589e-21)
(0.826261 -0.362529 2.32995e-21)
(0.763666 -0.349488 4.31185e-22)
(0.697897 -0.302825 -1.85707e-21)
(0.666015 -0.204112 -2.80384e-22)
(0.676565 -0.0537077 1.34123e-21)
(0.726635 0.0873348 0)
(0.779957 0.221612 -8.44199e-22)
(0.815416 0.326807 1.43322e-21)
(0.808226 0.42477 -1.84138e-21)
(0.781435 0.459688 -6.09429e-22)
(0.768397 0.383355 0)
(0.770412 0.216742 8.50316e-22)
(0.815188 -0.0240724 -1.72943e-21)
(0.840876 -0.145007 3.28616e-23)
(0.880223 -0.265732 -5.21061e-22)
(0.848343 -0.285907 5.57427e-22)
(0.818167 -0.342655 -5.42866e-22)
(0.790423 -0.333122 0)
(0.793556 -0.143752 1.22183e-22)
(0.785265 -0.0667328 0)
(0.774554 0.250831 0)
(0.752155 0.270602 1.22998e-23)
(0.748698 -0.0272451 -1.52087e-19)
(0.781714 -0.0739534 1.50448e-19)
(0.817493 -0.126848 -1.12365e-21)