/*--------------------------------*- C++ -*----------------------------------*\
| =========                 |                                                 |
| \\      /  F ield         | OpenFOAM: The Open Source CFD Toolbox           |
|  \\    /   O peration     | Version:  2512                                  |
|   \\  /    A nd           | Website:  www.openfoam.com                      |
|    \\/     M anipulation  |                                                 |
\*---------------------------------------------------------------------------*/
FoamFile
{
    version     2.0;
    format      ascii;
    arch        "LSB;label=32;scalar=64";
    class       surfaceScalarField;
    location    "60";
    object      phi;
}
// * * * * * * * * * * * * * * * * * * * * * * * * * * * * * * * * * * * * * //

dimensions      [0 3 -1 0 0 0 0];

oriented        oriented;

internalField   nonuniform List<scalar> 
26232
(
1.20077e-05
0.000960191
-0.000972198
0.000258317
0.00188643
-0.00213273
0.000914792
0.00196871
-0.00262519
0.00214051
0.00125412
-0.00247983
0.00408973
-0.000236028
-0.00171319
0.00691482
-0.00249543
-0.000329663
0.0107629
-0.00552335
0.00167528
0.0157668
-0.00931467
0.00431075
0.0220317
-0.0138488
0.00758387
0.0296191
-0.0190806
0.0114932
0.0385319
-0.0249356
0.0160228
0.0487034
-0.031309
0.0211375
0.0599929
-0.0380699
0.0267804
0.072189
-0.0450697
0.0328735
0.0850214
-0.0521522
0.0393199
0.098178
-0.0591655
0.0460089
0.111328
-0.0659721
0.052822
0.124146
-0.0724599
0.0596416
0.13634
-0.0785446
0.0663509
0.147664
-0.0841923
0.0728679
0.157947
-0.0893569
0.0790747
0.167051
-0.0941739
0.0850701
0.174839
-0.0983322
0.0905438
-0.102744
0.096661
0.180922
5.93974e-05
0.000900793
0.000469157
0.00147667
0.00143195
0.00100592
0.00313545
-0.000449384
0.00575947
-0.00286005
0.0094717
-0.00620765
0.0144158
-0.0104675
0.0206934
-0.0155923
0.0283443
-0.0214996
0.0373288
-0.0280652
0.0475194
-0.0351262
0.0587014
-0.0424911
0.0705872
-0.0499557
0.0828391
-0.0573216
0.0950995
-0.0644126
0.107024
-0.0710896
0.118311
-0.0772591
0.128729
-0.0828781
0.138136
-0.0879523
0.146476
-0.0925314
0.153803
-0.0966843
0.160175
-0.100546
0.165906
-0.104062
-0.107827
0.170988
0.000129549
0.000771244
0.000762128
0.000844086
0.00212331
-0.000355258
0.00442237
-0.00274845
0.00785063
-0.00628831
0.0125663
-0.0109233
0.0186716
-0.0165727
0.0261873
-0.023108
0.0350337
-0.030346
0.0450237
-0.0380552
0.0558728
-0.0459753
0.0672254
-0.0538436
0.0786924
-0.0614227
0.089894
-0.0685232
0.1005
-0.0750191
0.110265
-0.0808537
0.119042
-0.0860366
0.126797
-0.0906325
0.133589
-0.0947444
0.139554
-0.0984965
0.144873
-0.102003
0.149725
-0.105399
0.15432
-0.108657
-0.112205
0.158699
0.000220557
0.000550688
0.00113049
-6.58432e-05
0.00297013
-0.0021949
0.00595613
-0.00573445
0.0102663
-0.0105985
0.0160109
-0.016668
0.0232009
-0.0237628
0.0317247
-0.0316318
0.0413433
-0.0399646
0.0517103
-0.0484222
0.0624131
-0.0566781
0.0730261
-0.0644566
0.0831654
-0.071562
0.0925342
-0.0778921
0.100951
-0.083436
0.108358
-0.0882603
0.114806
-0.0924853
0.120432
-0.096258
0.125415
-0.0997274
0.129943
-0.103025
0.134189
-0.106249
0.138272
-0.109482
0.142323
-0.112709
-0.116195
0.146313
0.00033018
0.000220508
0.00156312
-0.00129879
0.00394075
-0.00457252
0.00766389
-0.00945759
0.0128603
-0.0157949
0.0195443
-0.0233519
0.0275859
-0.0318043
0.036706
-0.0407519
0.0465058
-0.0497643
0.0565233
-0.0584398
0.0663043
-0.0664591
0.0754678
-0.0736201
0.0837527
-0.079847
0.0910381
-0.0851774
0.0973347
-0.0897326
0.102756
-0.0936816
0.107476
-0.097205
0.111685
-0.100468
0.11556
-0.103602
0.119238
-0.106703
0.122819
-0.10983
0.12636
-0.113022
0.129918
-0.116267
-0.119723
0.133446
0.000456206
-0.000235699
0.00204646
-0.00288904
0.00499371
-0.00751977
0.00945021
-0.0139141
0.0154485
-0.0217932
0.0228588
-0.0307622
0.0313779
-0.0403234
0.0405643
-0.0499383
0.0499112
-0.0591112
0.0589352
-0.0674639
0.0672541
-0.074778
0.0746337
-0.0809996
0.0809981
-0.0862115
0.086407
-0.0905862
0.0910108
-0.0943365
0.0950009
-0.0976717
0.0985659
-0.10077
0.101864
-0.103766
0.105013
-0.106751
0.10809
-0.10978
0.111143
-0.112884
0.114199
-0.116078
0.117288
-0.119356
-0.122802
0.120367
0.000595892
-0.00083159
0.00256266
-0.00485581
0.00607547
-0.0110326
0.0111972
-0.0190359
0.0178192
-0.0284152
0.025635
-0.038578
0.0341732
-0.0488616
0.0428837
-0.0586488
0.0512467
-0.0674742
0.0588648
-0.075082
0.0655134
-0.0814265
0.0711424
-0.0866287
0.0758406
-0.0909096
0.0797793
-0.0945249
0.0831571
-0.0977143
0.0861579
-0.100672
0.0889278
-0.10354
0.0915702
-0.106408
0.0941515
-0.109332
0.0967117
-0.11234
0.0992735
-0.115446
0.101848
-0.118653
0.10445
-0.121958
-0.125396
0.107045
0.000744859
-0.00157645
0.00308732
-0.00719826
0.00711889
-0.0150642
0.0127699
-0.0246869
0.019756
-0.0354013
0.027594
-0.046416
0.0356934
-0.0569609
0.043486
-0.0664415
0.0505389
-0.0745271
0.0566134
-0.0811565
0.0616641
-0.0864771
0.0657917
-0.0907563
0.0691789
-0.0942967
0.0720284
-0.0973745
0.0745218
-0.100208
0.076799
-0.10295
0.0789561
-0.105697
0.0810532
-0.108505
0.0831253
-0.111404
0.0851921
-0.114407
0.0872639
-0.117517
0.0893463
-0.120735
0.0914456
-0.124057
-0.127489
0.0935385
0.000896266
-0.00247272
0.00358892
-0.00989092
0.00804669
-0.0195219
0.0140311
-0.0306713
0.021073
-0.0424432
0.028551
-0.0538939
0.0358374
-0.0642474
0.0424391
-0.0730431
0.0480756
-0.0801636
0.0526817
-0.0857627
0.0563552
-0.0901506
0.0592823
-0.0936834
0.0616703
-0.0966847
0.0637025
-0.0994067
0.065518
-0.102023
0.0672103
-0.104642
0.068837
-0.107324
0.0704306
-0.110099
0.072009
-0.112983
0.0735818
-0.11598
0.0751543
-0.11909
0.0767296
-0.122311
0.0783097
-0.125637
-0.12906
0.0798809
0.00104088
-0.0035136
0.0040311
-0.0128811
0.00878071
-0.0242715
0.0148635
-0.0367541
0.0216486
-0.0492283
0.0284457
-0.060691
0.0346768
-0.0704785
0.0399874
-0.0783538
0.0442652
-0.0844413
0.0475865
-0.0890839
0.0501338
-0.092698
0.0521189
-0.0956685
0.0537309
-0.0982967
0.0551131
-0.100789
0.0563613
-0.103271
0.0575333
-0.105814
0.0586613
-0.108452
0.0597626
-0.1112
0.0608467
-0.114067
0.0619188
-0.117052
0.0629819
-0.120153
0.0640376
-0.123366
0.0650858
-0.126685
-0.130095
0.0661199
0.00116854
-0.00468214
0.00437844
-0.016091
0.00925517
-0.0291483
0.0151901
-0.0426891
0.021443
-0.0554812
0.0273344
-0.0665823
0.0324018
-0.0755459
0.0364516
-0.0824036
0.039515
-0.0875048
0.0417593
-0.0913283
0.0433986
-0.0943372
0.0446309
-0.0969009
0.0456088
-0.0992747
0.0464348
-0.101615
0.0471701
-0.104007
0.0478485
-0.106492
0.0484879
-0.109091
0.0490976
-0.11181
0.0496834
-0.114652
0.0502484
-0.117617
0.0507947
-0.120699
0.0513227
-0.123894
0.0518303
-0.127193
-0.13058
0.0523154
0.00127221
-0.00595435
0.00460479
-0.0194236
0.00942853
-0.033972
0.0149848
-0.0482454
0.0204942
-0.0609906
0.0253575
-0.0714455
0.0292597
-0.0794482
0.0321543
-0.0852982
0.0341736
-0.0895241
0.035527
-0.0926817
0.0364229
-0.0952331
0.0370276
-0.0975056
0.0374547
-0.0997018
0.0377727
-0.101933
0.0380193
-0.104253
0.0382136
-0.106687
0.0383655
-0.109243
0.0384808
-0.111925
0.0385633
-0.114735
0.0386155
-0.117669
0.0386393
-0.120723
0.0386349
-0.12389
0.0386001
-0.127158
0.0385358
-0.130515
-0.000188613
0.000692672
-0.000504059
-0.000661938
0.00191333
-0.00144001
-0.00136248
0.00302193
-0.00232138
-0.00224555
0.00401438
-0.00313131
-0.00327482
0.00489272
-0.00386345
-0.00442042
0.00567041
-0.00452482
-0.0056575
0.00636948
-0.00513239
-0.00696529
0.00701609
-0.00570831
-0.00832616
0.00763629
-0.00627542
-0.00972494
0.00825247
-0.0068537
-0.0111482
0.00888109
-0.00745787
-0.0125833
0.00953165
-0.00809653
-0.014018
0.0102068
-0.00877206
-0.0154396
0.0109028
-0.00948117
-0.0168344
0.0116104
-0.0102155
-0.0181878
0.0123156
-0.0109622
-0.0194841
0.0130001
-0.0117038
-0.0207075
0.0136421
-0.0124187
-0.0218432
0.0142166
-0.0130809
-0.0228795
0.0146968
-0.0136605
-0.0238108
0.0150559
-0.0141246
-0.0246407
0.0152672
-0.0144373
-0.025393
0.0153076
-0.0145553
0.0151796
-0.026135
-0.0144376
-0.000147327
0.000839999
-0.000523536
0.00228954
-0.00108583
0.00358423
-0.00179882
0.00472736
-0.00263198
0.00572588
-0.00355835
0.00659678
-0.00455371
0.00736484
-0.00559605
0.00805842
-0.00666515
0.00870539
-0.00774238
0.0093297
-0.00881036
0.00994907
-0.00985257
0.0105739
-0.0108528
0.011207
-0.0117948
0.0118447
-0.0126613
0.0124769
-0.013434
0.0130883
-0.014093
0.0136591
-0.0146167
0.0141659
-0.0149822
0.014582
-0.0151654
0.0148801
-0.0151436
0.015034
-0.0149003
0.0150239
-0.0144382
0.0148454
0.0145267
-0.0137852
-0.000101423
0.000941423
-0.00036762
0.00255574
-0.00077012
0.00398673
-0.00128224
0.00523948
-0.00187867
0.00632231
-0.00253492
0.00725303
-0.00322694
0.00805687
-0.00393097
0.00876245
-0.00462352
0.00939794
-0.0052815
0.00998769
-0.0058823
0.0105499
-0.00640368
0.0110952
-0.00682352
0.0116269
-0.00711949
0.0121407
-0.00726846
0.0126258
-0.00724595
0.0130658
-0.00702504
0.0134382
-0.00657643
0.0137172
-0.00586651
0.0138721
-0.00485664
0.0138702
-0.00350235
0.0136797
-0.00175316
0.0132747
0.000440511
0.0126518
0.0119181
0.00304909
-5.66194e-05
0.000998042
-0.000212033
0.00271115
-0.000449108
0.0042238
-0.000747726
0.0055381
-0.00108632
0.0066609
-0.00144192
0.00760863
-0.00179008
0.00840503
-0.0021049
0.00907726
-0.00235922
0.00965227
-0.00252482
0.0101533
-0.00257297
0.010598
-0.00247436
0.0109966
-0.00219921
0.0113517
-0.00171708
0.0116585
-0.000996502
0.0119053
-4.50754e-06
0.0120738
0.0012933
0.0121404
0.00293547
0.0120751
0.00496399
0.0118436
0.00742701
0.0114072
0.0103814
0.0107253
0.013893
0.00976317
0.0180387
0.00850609
0.00701149
0.0229453
-1.83585e-05
0.0010164
-7.42925e-05
0.00276708
-0.000156893
0.0043064
-0.000249034
0.00563024
-0.000330534
0.0067424
-0.000378522
0.00765662
-0.000367354
0.00839386
-0.000268594
0.0089785
-5.11581e-05
0.00943483
0.000318104
0.00978402
0.000874829
0.0100413
0.00165608
0.0102154
0.00270046
0.0103074
0.00404813
0.0103109
0.00574089
0.0102125
0.00782245
0.00999223
0.0103391
0.00962373
0.0133395
0.00907474
0.0168755
0.00830753
0.0210034
0.00727928
0.0257866
0.00594211
0.0313027
0.00424706
0.0376208
0.00218801
-0.000380459
0.0450127
9.12003e-06
0.00100728
3.09473e-05
0.00274526
7.73535e-05
0.00426
0.000166871
0.00554073
0.000321234
0.00658803
0.00056514
0.00741272
0.000926576
0.00803242
0.0014371
0.00846798
0.00213195
0.00873998
0.00305016
0.00886581
0.00423392
0.00885754
0.00572877
0.00872053
0.00758324
0.00845289
0.00984881
0.00804531
0.0125799
0.00748137
0.0158341
0.00673805
0.0196718
0.00578609
0.0241571
0.00458944
0.0293562
0.0031084
0.0353364
0.0012991
0.0421657
-0.00088717
0.0499381
-0.00352541
0.0586403
-0.00651414
-0.010511
0.0687708
2.27701e-05
0.000984511
9.47483e-05
0.00267328
0.000235702
0.00411904
0.000470478
0.00530595
0.000825806
0.00623271
0.00133068
0.00690784
0.00201728
0.00734582
0.00292184
0.00756342
0.00408521
0.00757661
0.00555318
0.00739783
0.00737661
0.00703411
0.00961135
0.0064858
0.0123181
0.00574608
0.0155625
0.00480091
0.0194149
0.00362899
0.0239498
0.00220319
0.029243
0.000492819
0.0353785
-0.00154599
0.0424349
-0.00394803
0.0504941
-0.00676009
0.0596133
-0.0100064
0.0699094
-0.0138215
0.0812233
-0.0178281
-0.0235373
0.0942497
2.28303e-05
0.00096168
0.000117066
0.00257904
0.000317726
0.00391838
0.000660698
0.00496298
0.00118146
0.00571194
0.00191662
0.00617269
0.00290573
0.00635671
0.00419294
0.00627621
0.00582822
0.00594134
0.00786811
0.00535795
0.0103761
0.00452607
0.0134229
0.00343904
0.0170857
0.00208329
0.0214471
0.000439537
0.0265961
-0.00152006
0.032623
-0.00382373
0.0396207
-0.00650483
0.0476728
-0.00959812
0.0568589
-0.0131341
0.0672466
-0.0171478
0.0788573
-0.0216171
0.0917819
-0.0267461
0.105738
-0.0317844
-0.0391433
0.121344
1.23749e-05
0.000949305
0.000108536
0.00248288
0.000344874
0.00368204
0.000772917
0.00453493
0.00144126
0.0050436
0.00239871
0.00521523
0.00369734
0.00505808
0.0053949
0.00457865
0.00755659
0.00377964
0.010256
0.00265855
0.0135751
0.00120696
0.0176035
-0.000589327
0.0224367
-0.00274991
0.0281735
-0.00529732
0.03491
-0.00825659
0.0427377
-0.0116514
0.0517354
-0.0155025
0.0619619
-0.0198246
0.0734495
-0.0246217
0.0861987
-0.029897
0.100155
-0.0355736
0.115267
-0.0418581
0.131273
-0.0477908
-0.0561435
0.148274
-2.16695e-06
0.000951472
9.06014e-05
0.00239011
0.000360729
0.00341192
0.00087984
0.00401582
0.00171483
0.00420861
0.00293282
0.00399724
0.00460524
0.00338567
0.00681061
0.00237327
0.00963607
0.000954192
0.013177
-0.000882397
0.0175353
-0.0031513
0.0228153
-0.00586935
0.0291185
-0.00905307
0.0365368
-0.0127156
0.0451443
-0.0168641
0.0549895
-0.0214967
0.0660874
-0.0266004
0.0784128
-0.03215
0.0918952
-0.0381041
0.106415
-0.0444166
0.121812
-0.0509708
0.137831
-0.0578771
0.154344
-0.0643033
-0.0725356
0.170736
-1.21839e-05
0.000963656
9.23096e-05
0.00228562
0.00042453
0.0030797
0.00108051
0.00335984
0.00215111
0.00313801
0.00372827
0.00242008
0.00590914
0.00120479
0.00879782
-0.000515405
0.0125046
-0.00275256
0.0171417
-0.00551957
0.0228175
-0.00882707
0.0296272
-0.0126791
0.0376433
-0.0170692
0.0469052
-0.0219776
0.0574103
-0.0273692
0.0691067
-0.033193
0.0818892
-0.039383
0.0956004
-0.0458612
0.110033
-0.0525365
0.124943
-0.0593266
0.140072
-0.0661002
0.155094
-0.0728984
0.16995
-0.0791603
-0.0861876
0.183602
-8.54217e-06
0.000144342
0.000598852
0.00147886
0.00290368
0.0049941
0.00787417
0.0116695
0.0165008
0.0224745
0.0296702
0.0381287
0.04784
0.0587359
0.0706866
0.0835025
0.0969416
0.110722
0.124536
0.138078
0.151052
0.163224
0.174607
0.185081
-0.0260233
0.0187286
-0.0188403
-0.0257855
0.016927
-0.0171648
-0.0253906
0.014015
-0.0144099
-0.0248027
0.00982003
-0.0104079
-0.0240156
0.00413768
-0.00492484
-0.0229797
-0.00306607
0.0020302
-0.0216972
-0.0119763
0.0106938
-0.0201839
-0.0225694
0.0210562
-0.0184693
-0.0346861
0.0329714
-0.0166163
-0.0480207
0.0461678
-0.0147158
-0.0621117
0.0602111
-0.0128515
-0.0763638
0.0744995
-0.01106
-0.0900842
0.0882928
-0.00922403
-0.10251
0.100674
-0.00698864
-0.112809
0.110573
-0.00380884
-0.119784
0.116604
0.00097601
-0.121833
0.117048
0.00812103
-0.117144
0.109999
0.0172866
-0.103322
0.0941565
0.0282122
-0.0798464
0.0689208
0.0402397
-0.0472187
0.0351913
0.0526862
-0.00695643
-0.00549007
0.0651765
0.037771
-0.0502613
0.0770677
0.0823356
-0.0942269
0.0873585
0.121447
-0.131738
0.0950335
0.151252
-0.158927
0.0990157
0.171387
-0.175369
0.0980719
0.18609
-0.185146
0.0923092
0.201107
-0.195344
0.0850586
0.214855
-0.207604
0.0815564
0.213473
-0.209971
0.0846342
0.180563
-0.183641
0.0932973
0.11243
-0.121093
0.105127
0.0212185
-0.033048
0.117173
-0.0714807
0.0594343
0.126719
-0.147566
0.138021
0.132768
-0.199053
0.193004
0.135777
-0.22463
0.221621
0.134176
-0.231485
0.233086
0.12615
-0.238821
0.246847
0.11475
-0.2531
0.264501
0.106533
-0.247121
0.255338
0.105667
-0.189124
0.18999
0.111206
-0.0806102
0.0750707
0.119502
0.0428481
-0.0511442
0.127744
0.145689
-0.153931
0.133508
0.207742
-0.213507
0.13287
0.241279
-0.240641
0.125103
0.266769
-0.259002
0.116136
0.274682
-0.265714
0.113204
0.233475
-0.230543
0.117506
0.129713
-0.134014
0.125569
0.0142096
-0.0222732
0.133435
-0.0918926
0.0840269
0.139334
-0.143562
0.137663
0.141609
-0.16986
0.167584
0.139549
-0.166834
0.168894
0.134526
-0.145699
0.150722
0.132933
-0.138786
0.140379
-0.0478074
0.0450955
-0.013142
0.0180854
-0.0124236
0.0162086
-0.011614
0.0132054
-0.0106828
0.00888884
-0.00965554
0.00311045
-0.00846286
-0.00425875
-0.00715587
-0.0132833
-0.00578277
-0.0239425
-0.00441617
-0.0360527
-0.0031714
-0.0492655
-0.00221006
-0.063073
-0.00171368
-0.0768602
-0.00179703
-0.0900009
-0.00240713
-0.101899
-0.00330333
-0.111913
-0.00381985
-0.119267
-0.00297521
-0.122678
-7.4239e-06
-0.120112
0.00669078
-0.11002
0.016197
-0.0893527
0.0280948
-0.0591165
0.0414328
-0.0202944
0.0553043
0.0238995
0.0688048
0.0688351
0.080826
0.109426
0.0900887
0.141989
0.0952206
0.166255
0.095277
0.186034
0.0913009
0.205083
0.0871006
0.219055
0.0869171
0.213656
0.0920424
0.175438
0.101035
0.103437
0.111943
0.0103109
0.122492
-0.0820292
0.130372
-0.155447
0.134547
-0.203228
0.136015
-0.226098
0.133947
-0.229417
0.125909
-0.230783
0.113975
-0.241166
0.104809
-0.237956
0.103266
-0.187581
0.108736
-0.0860805
0.117714
0.0338699
0.126979
0.136425
0.133141
0.201579
0.132117
0.242303
0.124175
0.274711
0.115811
0.283046
0.113896
0.23539
0.118946
0.124663
0.127395
0.00576051
0.135093
-0.0995907
0.140826
-0.149295
0.14351
-0.172544
0.142026
-0.16535
0.137191
-0.140864
0.134213
-0.135808
-0.049242
0.00454978
0.0165847
0.00583522
0.0149231
0.00715597
0.0118846
0.00851587
0.00752894
0.00985527
0.00177104
0.0112524
-0.00565586
0.0125939
-0.0146248
0.013834
-0.0251826
0.0148895
-0.0371082
0.0156348
-0.0500108
0.0158904
-0.0633286
0.0154361
-0.0764059
0.0140293
-0.0885941
0.0114803
-0.0993505
0.00784513
-0.108277
0.00366709
-0.115089
0.000130789
-0.119142
-0.00101089
-0.11897
0.000987407
-0.112019
0.00769065
-0.0960559
0.0181078
-0.0695337
0.031341
-0.0335276
0.0461128
0.00912769
0.0609701
0.0539778
0.0745105
0.0958852
0.085175
0.131325
0.0915332
0.159896
0.0931344
0.184432
0.0917197
0.206498
0.0909603
0.219814
0.0938426
0.210774
0.100513
0.168768
0.109401
0.0945487
0.118966
0.000746197
0.127749
-0.0908121
0.133888
-0.161586
0.136293
-0.205633
0.136205
-0.22601
0.133688
-0.2269
0.125929
-0.223024
0.113747
-0.228984
0.103676
-0.227885
0.101364
-0.185269
0.106713
-0.0914286
0.116314
0.0242683
0.126428
0.126311
0.132795
0.195213
0.131426
0.243672
0.123503
0.282634
0.115833
0.290716
0.114883
0.23634
0.120606
0.11894
0.129389
-0.00302249
0.136905
-0.107107
0.142339
-0.154729
0.145203
-0.175408
0.144296
-0.164442
0.13998
-0.136548
0.135951
-0.13178
-0.0494801
0.024908
0.0146219
0.0268303
0.0130009
0.0286947
0.0100202
0.0305097
0.00571389
0.0322676
1.31492e-05
0.0339247
-0.00731288
0.0353758
-0.0160759
0.0365787
-0.0263855
0.0374518
-0.0379813
0.037885
-0.050444
0.0377304
-0.063174
0.0367638
-0.0754393
0.0346508
-0.0864811
0.0310455
-0.0957451
0.0257919
-0.103024
0.0191234
-0.108421
0.0119016
-0.11192
0.00573176
-0.1128
0.00265507
-0.108942
0.00450769
-0.0979086
0.0117068
-0.0767328
0.0233558
-0.0451765
0.0379434
-0.00545988
0.0535032
0.0384179
0.0682068
0.0811816
0.0802039
0.119328
0.0881106
0.15199
0.0919094
0.180634
0.0936272
0.20478
0.0963797
0.217062
0.101914
0.20524
0.109599
0.161082
0.118006
0.086142
0.126032
-0.00727952
0.132853
-0.0976333
0.137184
-0.165917
0.137951
-0.2064
0.136334
-0.224393
0.133298
-0.223864
0.126043
-0.215769
0.113972
-0.216913
0.103123
-0.217036
0.0999907
-0.182137
0.105174
-0.0966123
0.115297
0.0141458
0.126045
0.115563
0.132462
0.188796
0.130845
0.245289
0.123125
0.290354
0.116206
0.297635
0.116131
0.236415
0.122421
0.11265
0.131482
-0.0120844
0.138822
-0.114446
0.143894
-0.159801
0.146724
-0.178238
0.146322
-0.16404
0.142764
-0.13299
0.138065
-0.12708
-0.0486853
0.0473507
0.012284
0.049732
0.0106196
0.0520697
0.00768253
0.0542606
0.00352294
0.0564367
-0.00216291
0.0582731
-0.00914934
0.0598037
-0.0176065
0.0609535
-0.0275353
0.0616393
-0.0386671
0.0617606
-0.0505653
0.0611718
-0.0625852
0.0596792
-0.0739467
0.0570548
-0.0838567
0.0530054
-0.0916957
0.0472024
-0.0972208
0.0394638
-0.100682
0.0301209
-0.102577
0.0204119
-0.103091
0.0124719
-0.101002
0.00863285
-0.0940695
0.0107421
-0.0788421
0.0189241
-0.0533586
0.0316764
-0.0182121
0.0469091
0.0231852
0.0621906
0.0659
0.0753878
0.106131
0.0851498
0.142228
0.0916591
0.174124
0.0968181
0.199621
0.102919
0.210961
0.110618
0.197541
0.118836
0.152864
0.126478
0.0784997
0.132909
-0.0137104
0.137692
-0.102416
0.140147
-0.168372
0.139406
-0.205659
0.136373
-0.22136
0.132731
-0.220222
0.126124
-0.209161
0.114545
-0.205335
0.103103
-0.205594
0.0991164
-0.17815
0.10409
-0.101586
0.114599
0.00363663
0.125757
0.104405
0.132134
0.182419
0.130403
0.247021
0.123054
0.297702
0.116914
0.303775
0.117613
0.235716
0.124359
0.105904
0.133612
-0.0213369
0.140787
-0.121621
0.145487
-0.164501
0.148108
-0.18086
0.14809
-0.164022
0.145429
-0.13033
0.140453
-0.122104
-0.047095
0.0712296
0.00982508
0.0738014
0.00804783
0.0764154
0.00506858
0.0788295
0.00110882
0.0811399
-0.00447333
0.0830343
-0.0110437
0.084511
-0.0190832
0.0854483
-0.0284726
0.0857472
-0.038966
0.0853151
-0.0501332
0.0840641
-0.0613342
0.0819055
-0.0717881
0.0787386
-0.0806898
0.0744114
-0.0873686
0.0686612
-0.0914705
0.0611175
-0.0931386
0.0515437
-0.0930032
0.0403605
-0.0919082
0.029154
-0.0897953
0.0203816
-0.0852971
0.0167254
-0.0751859
0.0197181
-0.0563512
0.0289162
-0.0274103
0.0423439
0.00975759
0.0572921
0.0509518
0.0713347
0.0920881
0.0829961
0.130566
0.0923577
0.164763
0.100895
0.191083
0.110007
0.201849
0.119434
0.188114
0.127812
0.144486
0.134479
0.0718327
0.139346
-0.018578
0.142136
-0.105205
0.142679
-0.168915
0.140546
-0.203527
0.136277
-0.21709
0.131947
-0.215892
0.12602
-0.203234
0.115318
-0.194633
0.103534
-0.19381
0.0986356
-0.173252
0.103312
-0.106263
0.114072
-0.0071232
0.125467
0.0930108
0.13179
0.176095
0.130113
0.248698
0.123284
0.304531
0.117934
0.309125
0.119314
0.234336
0.12641
0.0988081
0.135744
-0.0306716
0.142746
-0.128623
0.147097
-0.168852
0.149391
-0.183153
0.149612
-0.164243
0.147881
-0.1286
0.143006
-0.117229
-0.0450005
0.0964574
0.00761736
0.0987976
0.0057076
0.101139
0.00272735
0.103538
-0.00129047
0.105482
-0.00641741
0.107065
-0.0126266
0.108153
-0.0201715
0.108595
-0.0289138
0.108274
-0.0386455
0.107102
-0.0489607
0.105022
-0.0592548
0.102021
-0.0687874
0.0981167
-0.076785
0.0933268
-0.0825786
0.0876
-0.0857438
0.0807022
-0.0862408
0.0721955
-0.0844966
0.0617369
-0.0814495
0.0498149
-0.0778734
0.0381815
-0.0736636
0.0296894
-0.0666938
0.0269917
-0.0536535
0.0311982
-0.0316168
0.0412695
-0.000313799
0.0547061
0.0375152
0.0688978
0.0778964
0.0820869
0.117377
0.0939878
0.152862
0.105457
0.179614
0.117036
0.19027
0.127758
0.177392
0.136101
0.136144
0.141787
0.0661461
0.14516
-0.0219503
0.146066
-0.106111
0.144696
-0.167546
0.141267
-0.200097
0.135989
-0.211813
0.130932
-0.210836
0.125605
-0.197906
0.11611
-0.185138
0.104317
-0.182016
0.0984291
-0.167364
0.102615
-0.110448
0.11351
-0.0180186
0.125052
0.0814684
0.131401
0.169747
0.129972
0.250127
0.12379
0.310713
0.119232
0.313683
0.121213
0.232355
0.128573
0.091448
0.137865
-0.0399633
0.144656
-0.135414
0.14869
-0.172885
0.150595
-0.185058
0.150919
-0.164567
0.150058
-0.127738
0.145611
-0.112782
-0.0427204
0.122731
0.00623015
0.124355
0.00408402
0.125968
0.00111457
0.127545
-0.00286734
0.128718
-0.00759056
0.129555
-0.0134642
0.129846
-0.0204618
0.12943
-0.0284984
0.128186
-0.0374008
0.126026
-0.0468007
0.122923
-0.0561518
0.11892
-0.0647843
0.114124
-0.0719896
0.108685
-0.0771394
0.102736
-0.0797952
0.0962909
-0.0797954
0.0890941
-0.0772998
0.0805762
-0.0729316
0.0702931
-0.0675903
0.058689
-0.0620595
0.047756
-0.0557608
0.0404652
-0.0463627
0.0393201
-0.0304717
0.0448811
-0.00587478
0.0555464
0.0268499
0.068872
0.0645708
0.0827942
0.103455
0.0965054
0.13915
0.110165
0.165955
0.123532
0.176903
0.13507
0.165854
0.143244
0.127969
0.148095
0.0612953
0.150163
-0.0240186
0.149324
-0.105272
0.146116
-0.164337
0.141471
-0.195452
0.13543
-0.205772
0.12968
-0.205085
0.124783
-0.19301
0.116723
-0.177078
0.105332
-0.170626
0.0984157
-0.160448
0.1018
-0.113833
0.112683
-0.0289021
0.12438
0.0697714
0.130915
0.163212
0.129951
0.251091
0.124533
0.316131
0.120764
0.317452
0.123284
0.229835
0.13084
0.0838921
0.139962
-0.0490853
0.146484
-0.141936
0.150224
-0.176626
0.151731
-0.186565
0.15205
-0.164887
0.151925
-0.127613
0.148159
-0.109016
-0.0405714
0.148428
0.0060756
0.148925
0.00358733
0.149377
0.0006625
0.14961
-0.00310085
0.149604
-0.00758363
0.149251
-0.0131117
0.148345
-0.0195559
0.146735
-0.0268886
0.144299
-0.0349643
0.14096
-0.0434617
0.136716
-0.0519086
0.131656
-0.0597234
0.125949
-0.0662835
0.119833
-0.0710231
0.113556
-0.0735175
0.1073
-0.0735399
0.101067
-0.071067
0.094501
-0.0663652
0.0869096
-0.0599988
0.077704
-0.052854
0.0673889
-0.0454457
0.0580536
-0.0370274
0.0526902
-0.0251083
0.053501
-0.00668553
0.0603846
0.0199663
0.071714
0.0532414
0.0853138
0.0898552
0.0998391
0.124625
0.114767
0.151027
0.129173
0.162497
0.141078
0.153949
0.148993
0.120054
0.153168
0.0571203
0.154125
-0.0249748
0.151731
-0.102878
0.146824
-0.15943
0.141037
-0.189665
0.134468
-0.199203
0.128144
-0.198761
0.123475
-0.188341
0.116945
-0.170548
0.106422
-0.160104
0.0985608
-0.152586
0.100762
-0.116033
0.111405
-0.0395461
0.123319
0.0578576
0.130275
0.156256
0.13002
0.251347
0.125466
0.320685
0.122477
0.320441
0.1255
0.226811
0.133177
0.076215
0.142022
-0.0579297
0.1482
-0.148114
0.151656
-0.180082
0.152796
-0.187704
0.153047
-0.165138
0.153483
-0.128049
0.150561
-0.106095
-0.0388398
0.169761
0.0070505
0.169045
0.00430273
0.168222
0.00148619
0.167067
-0.00194655
0.16577
-0.00628646
0.164083
-0.0114248
0.161857
-0.0173295
0.158965
-0.0239964
0.155298
-0.0312977
0.150803
-0.0389665
0.145505
-0.0466103
0.139522
-0.0537402
0.133065
-0.0598272
0.126419
-0.0643772
0.11989
-0.0669882
0.113744
-0.0673938
0.10814
-0.0654634
0.103005
-0.06123
0.0978828
-0.0548767
0.09193
-0.0469012
0.0845319
-0.0380476
0.0762363
-0.0287318
0.0691727
-0.0180448
0.0662773
-0.00379006
0.0690704
0.0171731
0.0774276
0.0448843
0.0895868
0.077696
0.103857
0.110355
0.119108
0.135776
0.133823
0.147782
0.145701
0.142071
0.153365
0.11239
0.15704
0.0534452
0.157017
-0.0249523
0.153181
-0.0990423
0.146726
-0.152975
0.139872
-0.182812
0.132979
-0.192309
0.126282
-0.192064
0.12165
-0.183709
0.116597
-0.165495
0.107401
-0.150908
0.0988589
-0.144044
0.0995142
-0.116689
0.109576
-0.0496081
0.121768
0.0456655
0.129405
0.148619
0.130094
0.250658
0.126511
0.324268
0.124313
0.322639
0.127812
0.223312
0.135557
0.0684706
0.144022
-0.0663947
0.149783
-0.153876
0.152951
-0.18325
0.153778
-0.188531
0.153943
-0.165303
0.154752
-0.128858
0.152748
-0.104091
-0.0377579
0.182381
0.00827181
0.18093
0.0057534
0.179115
0.00330209
0.177163
4.64738e-06
0.174884
-0.00400723
0.172156
-0.00869675
0.168897
-0.0140708
0.165004
-0.0201033
0.160396
-0.0266893
0.15505
-0.0336211
0.14902
-0.0405802
0.142446
-0.0471662
0.135557
-0.0529383
0.128649
-0.0574685
0.122041
-0.0603803
0.116038
-0.061391
0.110894
-0.0603193
0.106676
-0.0570119
0.103182
-0.0513833
0.0998665
-0.0435853
0.0959355
-0.0341166
0.0908925
-0.0236887
0.0853163
-0.0124686
0.0811952
0.000331062
0.0807813
0.017587
0.0857813
0.0398843
0.0954735
0.0680038
0.108367
0.0974613
0.122955
0.121188
0.137217
0.13352
0.148731
0.130557
0.156384
0.104737
0.159937
0.049892
0.159069
-0.024084
0.153887
-0.0938608
0.146093
-0.145181
0.138291
-0.175009
0.131196
-0.185215
0.124325
-0.185193
0.119531
-0.178914
0.115695
-0.161659
0.108153
-0.143365
0.0993451
-0.135237
0.0981977
-0.115541
0.107217
-0.058627
0.119649
0.0332334
0.12824
0.140027
0.130156
0.248742
0.127644
0.326781
0.12621
0.324073
0.130186
0.219336
0.137961
0.0606948
0.145954
-0.0743868
0.151235
-0.159157
0.154095
-0.18611
0.15467
-0.189107
0.154763
-0.165396
0.155776
-0.12987
0.154685
-0.103
-0.0374873
0.18422
0.0091331
0.182507
0.00746631
0.180606
0.00520309
0.178492
0.00211835
0.176008
-0.00152285
0.172961
-0.00564985
0.169353
-0.0104628
0.165106
-0.0158562
0.160184
-0.0217679
0.154608
-0.028045
0.148468
-0.0344403
0.141935
-0.0406331
0.135251
-0.0462543
0.128704
-0.050921
0.122583
-0.0542599
0.117136
-0.0559438
0.112533
-0.0557158
0.108879
-0.0533581
0.106206
-0.0487108
0.104348
-0.0417269
0.102797
-0.0325653
0.100791
-0.0216831
0.0979417
-0.0096193
0.094841
0.00343174
0.0938523
0.0185758
0.0964709
0.0372656
0.103451
0.0610241
0.11407
0.0868423
0.126981
0.108277
0.140102
0.120399
0.151221
0.119437
0.159067
0.0968915
0.162477
0.0464818
0.160347
-0.0219539
0.153826
-0.0873394
0.145112
-0.136467
0.13668
-0.166578
0.129485
-0.17802
0.122594
-0.178302
0.117477
-0.173798
0.114431
-0.158612
0.108632
-0.137566
0.10002
-0.126625
0.097101
-0.112622
0.104557
-0.0660834
0.116978
0.0208128
0.126649
0.130356
0.13005
0.245341
0.128692
0.328138
0.128092
0.324673
0.132624
0.214804
0.140384
0.0529352
0.147806
-0.0818092
0.152559
-0.163909
0.155086
-0.188637
0.155464
-0.189485
0.15552
-0.165453
0.156604
-0.130954
0.156361
-0.102757
-0.0381085
0.202073
0.00986988
-0.20281
0.201942
0.00759726
0.201801
0.00534419
0.201435
0.00248444
0.200878
-0.000965323
0.200195
-0.00496741
0.199161
-0.00942892
0.197688
-0.0143828
0.195657
-0.0197373
0.192965
-0.0253522
0.189549
-0.0310246
0.185403
-0.0364874
0.180576
-0.0414274
0.175168
-0.045513
0.16932
-0.0484112
0.163193
-0.049817
0.156948
-0.049471
0.150737
-0.0471472
0.144693
-0.042667
0.138882
-0.0359156
0.133216
-0.0268994
0.127346
-0.0158127
0.120905
-0.00317837
0.113606
0.0107305
0.10671
0.025472
0.101766
0.0422094
0.100561
0.0622289
0.104281
0.0831225
0.112908
0.0996496
0.125164
0.108143
0.140173
0.104428
0.157043
0.0800213
0.172016
0.0315092
0.181276
-0.0312141
0.18354
-0.0896029
0.179765
-0.132692
0.172266
-0.159078
0.163402
-0.169156
0.153623
-0.168523
0.144209
-0.164384
0.136668
-0.151071
0.128017
-0.128916
0.116321
-0.114929
0.106934
-0.103235
0.105003
-0.0641518
0.107501
0.0183142
0.108641
0.129217
0.106861
0.247122
0.106039
0.32896
0.11204
0.318672
0.125171
0.201673
0.138777
0.0393287
0.148172
-0.0912037
0.151917
-0.167654
0.15205
-0.18877
0.149724
-0.187158
0.147143
-0.162872
0.145792
-0.129603
0.144131
-0.101097
-0.037794
0.213414
0.0100307
-0.213575
0.213288
0.00772292
0.213279
0.00535333
0.213106
0.00265766
0.212679
-0.000538096
0.211924
-0.004213
0.210788
-0.00829256
0.209167
-0.0127616
0.206976
-0.0175467
0.204149
-0.0225249
0.20065
-0.0275259
0.196488
-0.0323252
0.191715
-0.0366552
0.18643
-0.0402274
0.180764
-0.0427454
0.174876
-0.0439286
0.16893
-0.0435252
0.16309
-0.0413076
0.157511
-0.0370878
0.152314
-0.0307189
0.147548
-0.0221334
0.143105
-0.0113689
0.138512
0.00141371
0.133568
0.0156745
0.128556
0.030484
0.124676
0.04609
0.123753
0.0631517
0.127267
0.0796089
0.135396
0.0915198
0.147271
0.0962683
0.162107
0.089593
0.178086
0.064042
0.191382
0.018213
0.198403
-0.0382352
0.198566
-0.0897659
0.192995
-0.127122
0.184018
-0.150101
0.174168
-0.159306
0.163932
-0.158287
0.153947
-0.154399
0.146006
-0.14313
0.13783
-0.120741
0.126363
-0.103462
0.11575
-0.0926215
0.112041
-0.0604427
0.113768
0.0165871
0.115005
0.127979
0.113874
0.248253
0.114524