/*--------------------------------*- C++ -*----------------------------------*\
| =========                 |                                                 |
| \\      /  F ield         | OpenFOAM: The Open Source CFD Toolbox           |
|  \\    /   O peration     | Version:  2512                                  |
|   \\  /    A nd           | Website:  www.openfoam.com                      |
|    \\/     M anipulation  |                                                 |
\*---------------------------------------------------------------------------*/
FoamFile
{
    version     2.0;
    format      ascii;
    arch        "LSB;label=32;scalar=64";
    class       volScalarField;
    location    "98";
    object      p;
}
// * * * * * * * * * * * * * * * * * * * * * * * * * * * * * * * * * * * * * //

dimensions      [0 2 -2 0 0 0 0];

internalField   nonuniform List<scalar> 
13248
(
-0.321001
-0.319858
-0.317528
-0.314268
-0.310349
-0.306013
-0.301482
-0.296985
-0.292719
-0.288846
-0.285479
-0.282672
-0.280415
-0.278632
-0.277189
-0.275908
-0.274587
-0.273019
-0.271008
-0.268422
-0.265026
-0.260895
-0.255035
-0.248155
-0.328819
-0.326856
-0.323889
-0.320138
-0.315837
-0.311215
-0.306467
-0.301763
-0.297235
-0.292974
-0.289022
-0.285368
-0.281954
-0.278683
-0.275427
-0.272051
-0.268426
-0.264439
-0.26
-0.255038
-0.249458
-0.243211
-0.235991
-0.228497
-0.338641
-0.335621
-0.331842
-0.327478
-0.322697
-0.317694
-0.312613
-0.307541
-0.302523
-0.297568
-0.292656
-0.287746
-0.282779
-0.277697
-0.272442
-0.266972
-0.261258
-0.255282
-0.249029
-0.242483
-0.235577
-0.228329
-0.220524
-0.212721
-0.350395
-0.346122
-0.341385
-0.336296
-0.330919
-0.325393
-0.319777
-0.314054
-0.308179
-0.302099
-0.295779
-0.289203
-0.282381
-0.275341
-0.268127
-0.260787
-0.253361
-0.245877
-0.238341
-0.230739
-0.223035
-0.215235
-0.207206
-0.199487
-0.364026
-0.358351
-0.352553
-0.346642
-0.340536
-0.334278
-0.327818
-0.321037
-0.313828
-0.30614
-0.29799
-0.289458
-0.280659
-0.271721
-0.262762
-0.253876
-0.24512
-0.23652
-0.228072
-0.219753
-0.21153
-0.203388
-0.195248
-0.187463
-0.379467
-0.372292
-0.365371
-0.358553
-0.351541
-0.344245
-0.336504
-0.328136
-0.319052
-0.309289
-0.29899
-0.288362
-0.277621
-0.266958
-0.256515
-0.246378
-0.236587
-0.22714
-0.218015
-0.209174
-0.200579
-0.192199
-0.183983
-0.176159
-0.396568
-0.387847
-0.37977
-0.371937
-0.363757
-0.354988
-0.345403
-0.334854
-0.323377
-0.31118
-0.298567
-0.285857
-0.273321
-0.261154
-0.249473
-0.238328
-0.227717
-0.217613
-0.20797
-0.19874
-0.189876
-0.181333
-0.173079
-0.165213
-0.415011
-0.404755
-0.395499
-0.386479
-0.376752
-0.365951
-0.353889
-0.340589
-0.326317
-0.311493
-0.296562
-0.281899
-0.267767
-0.254316
-0.241606
-0.229636
-0.218367
-0.207743
-0.197701
-0.18818
-0.179126
-0.170487
-0.162238
-0.154368
-0.434249
-0.422535
-0.41206
-0.401591
-0.389817
-0.37635
-0.361207
-0.344717
-0.327436
-0.309977
-0.292861
-0.276446
-0.260934
-0.246401
-0.23284
-0.220199
-0.208405
-0.197377
-0.187038
-0.177316
-0.168147
-0.159478
-0.151273
-0.143442
-0.453481
-0.440442
-0.428666
-0.416382
-0.401983
-0.38524
-0.366551
-0.346646
-0.326359
-0.306422
-0.287347
-0.269419
-0.252743
-0.237312
-0.223057
-0.209881
-0.197681
-0.186358
-0.175819
-0.16598
-0.15677
-0.14813
-0.140001
-0.132256
-0.471667
-0.457464
-0.444242
-0.429687
-0.41208
-0.391566
-0.369077
-0.345754
-0.322638
-0.300483
-0.279721
-0.260523
-0.242892
-0.22674
-0.211944
-0.19837
-0.18589
-0.174385
-0.16375
-0.15389
-0.144725
-0.136187
-0.128181
-0.120589
-0.487622
-0.472456
-0.457609
-0.440295
-0.418931
-0.394276
-0.367881
-0.341264
-0.315571
-0.291491
-0.269324
-0.249108
-0.230742
-0.214065
-0.198905
-0.185094
-0.172481
-0.160933
-0.150331
-0.140571
-0.131567
-0.123238
-0.115461
-0.108173
-0.32551
-0.327689
-0.328934
-0.329633
-0.330142
-0.330575
-0.330993
-0.331436
-0.331924
-0.332466
-0.333071
-0.333759
-0.334559
-0.335516
-0.336692
-0.338167
-0.340032
-0.342392
-0.345358
-0.349039
-0.353524
-0.358846
-0.365002
-0.372091
-0.321869
-0.323464
-0.324295
-0.32464
-0.32478
-0.324824
-0.324848
-0.324907
-0.325045
-0.325297
-0.325706
-0.326325
-0.327228
-0.328507
-0.330274
-0.332656
-0.335791
-0.339819
-0.344872
-0.351057
-0.358441
-0.367017
-0.376682
-0.387458
-0.319107
-0.320075
-0.320465
-0.320445
-0.320211
-0.319866
-0.319494
-0.319168
-0.318954
-0.318909
-0.319104
-0.319621
-0.320564
-0.32206
-0.324253
-0.327299
-0.33136
-0.33659
-0.343121
-0.351042
-0.360384
-0.371085
-0.382916
-0.39581
-0.316893
-0.317275
-0.317238
-0.316852
-0.316233
-0.315477
-0.314681
-0.313935
-0.313323
-0.312928
-0.312839
-0.313164
-0.314028
-0.315575
-0.317965
-0.321369
-0.325953
-0.331867
-0.339227
-0.348097
-0.358468
-0.370238
-0.383159
-0.396705
-0.314958
-0.314885
-0.314466
-0.313719
-0.312701
-0.311503
-0.310233
-0.309002
-0.307916
-0.307083
-0.306612
-0.306626
-0.307263
-0.308678
-0.311033
-0.314497
-0.319227
-0.325357
-0.332981
-0.342132
-0.352764
-0.364698
-0.377896
-0.390953
-0.313185
-0.312789
-0.312071
-0.310982
-0.30955
-0.307871
-0.306071
-0.304283
-0.30264
-0.301272
-0.300314
-0.299902
-0.300184
-0.301315
-0.303456
-0.306763
-0.311379
-0.317414
-0.324931
-0.333923
-0.344335
-0.355767
-0.368657
-0.380346
-0.311546
-0.311023
-0.310082
-0.308667
-0.306812
-0.304626
-0.302253
-0.299855
-0.297593
-0.295628
-0.294114
-0.293207
-0.293062
-0.293837
-0.295685
-0.298749
-0.303148
-0.308959
-0.316207
-0.324817
-0.334767
-0.345304
-0.357474
-0.367087
-0.310209
-0.309716
-0.308616
-0.306894
-0.304619
-0.301921
-0.298972
-0.29596
-0.29308
-0.290519
-0.288459
-0.287072
-0.286524
-0.286973
-0.28856
-0.291407
-0.2956
-0.301174
-0.3081
-0.316176
-0.325423
-0.334656
-0.345508
-0.352547
-0.309491
-0.309109
-0.30788
-0.305866
-0.30319
-0.300015
-0.296538
-0.292978
-0.289557
-0.286492
-0.283986
-0.282227
-0.281386
-0.281611
-0.283023
-0.285702
-0.289673
-0.294893
-0.301258
-0.308455
-0.316473
-0.323976
-0.33263
-0.337078
-0.30981
-0.309515
-0.30815
-0.305848
-0.30281
-0.299228
-0.295324
-0.291343
-0.287529
-0.284118
-0.281324
-0.279339
-0.278319
-0.278383
-0.279601
-0.281984
-0.285476
-0.289944
-0.295199
-0.300903
-0.306942
-0.312281
-0.317969
-0.319719
-0.311615
-0.311276
-0.309709
-0.307115
-0.303757
-0.299852
-0.295645
-0.291389
-0.287338
-0.283729
-0.280769
-0.278625
-0.277419
-0.277213
-0.278002
-0.279713
-0.282198
-0.28525
-0.28861
-0.292013
-0.295275
-0.297999
-0.300684
-0.30049
-0.315278
-0.314674
-0.312788
-0.309876
-0.30622
-0.302059
-0.297647
-0.293228
-0.289043
-0.285306
-0.282193
-0.279824
-0.278258
-0.277486
-0.277426
-0.277925
-0.278776
-0.279735
-0.280533
-0.280973
-0.280819
-0.280197
-0.279317
-0.278032
-0.38179
-0.393609
-0.404857
-0.414031
-0.419275
-0.418638
-0.410079
-0.392493
-0.365526
-0.330324
-0.289744
-0.248065
-0.209784
-0.178384
-0.155882
-0.143213
-0.140972
-0.149203
-0.165586
-0.18392
-0.195332
-0.192585
-0.1747
-0.147608
-0.119763
-0.0973784
-0.0831384
-0.0769222
-0.077358
-0.0844492
-0.100051
-0.122874
-0.143784
-0.150383
-0.139641
-0.116577
-0.0924012
-0.0742965
-0.0635022
-0.0586297
-0.0609839
-0.0712308
-0.0821707
-0.084651
-0.0766365
-0.0642548
-0.0544029
-0.0477305
-0.0460509
-0.0495628
-0.0520872
-0.0506776
-0.0463743
-0.038988
-0.0334259
-0.0271878
-0.0205993
-0.019222
-0.0160548
-0.00594831
-0.402161
-0.418247
-0.433015
-0.444999
-0.452023
-0.452044
-0.442986
-0.423457
-0.393098
-0.353223
-0.307094
-0.25944
-0.215167
-0.178062
-0.150234
-0.132356
-0.124653
-0.127172
-0.138411
-0.153544
-0.164736
-0.164667
-0.151715
-0.130341
-0.107794
-0.0898707
-0.0793923
-0.0763887
-0.0796846
-0.0898072
-0.108842
-0.134894
-0.157695
-0.163337
-0.150746
-0.124543
-0.0971485
-0.0760652
-0.0627666
-0.0555908
-0.0554667
-0.0630706
-0.0721532
-0.0744435
-0.0681157
-0.0586584
-0.0514906
-0.0474161
-0.0480369
-0.0541533
-0.0582773
-0.0565566
-0.051023
-0.0415403
-0.0345611
-0.0264305
-0.0185563
-0.0163712
-0.013057
-0.00482733
-0.414042
-0.433041
-0.450001
-0.463897
-0.471961
-0.472514
-0.463268
-0.442636
-0.410172
-0.367226
-0.317288
-0.265375
-0.216649
-0.17512
-0.142873
-0.120422
-0.107666
-0.10458
-0.110426
-0.121762
-0.132142
-0.134665
-0.126371
-0.110734
-0.0936143
-0.0803625
-0.0738478
-0.0741592
-0.0803473
-0.0934051
-0.11555
-0.144422
-0.169043
-0.175445
-0.160084
-0.131107
-0.100906
-0.0771874
-0.0616226
-0.0523588
-0.0499392
-0.0550092
-0.0622913
-0.0643583
-0.0595783
-0.0528633
-0.0482586
-0.0468223
-0.0498621
-0.0587104
-0.0645078
-0.0623904
-0.055494
-0.0438869
-0.0355424
-0.0256971
-0.0165826
-0.0135659
-0.010099
-0.00372523
-0.416747
-0.437264
-0.455427
-0.471313
-0.479111
-0.479963
-0.470791
-0.449821
-0.416497
-0.372157
-0.320372
-0.266281
-0.215129
-0.170857
-0.13545
-0.109312
-0.0921913
-0.0839188
-0.0842199
-0.0911103
-0.0996812
-0.103846
-0.0997829
-0.0895873
-0.0777344
-0.0691186
-0.0665206
-0.0700215
-0.0788929
-0.0945373
-0.119319
-0.150664
-0.177081
-0.18391
-0.167248
-0.136101
-0.1036
-0.0776888
-0.0601696
-0.0490765
-0.0446145
-0.0473384
-0.0529002
-0.0546714
-0.0512136
-0.0469788
-0.0447519
-0.0459237
-0.0514282
-0.0631001
-0.0706418
-0.0680846
-0.0597229
-0.0459945
-0.0363506
-0.0249798
-0.0146837
-0.0108349
-0.00720486
-0.00265052
-0.41112
-0.431588
-0.449406
-0.462991
-0.473777
-0.475386
-0.466559
-0.445913
-0.412882
-0.368827
-0.317299
-0.263286
-0.211786
-0.166485
-0.129226
-0.100363
-0.079606
-0.0667452
-0.0617441
-0.0637137
-0.0694446
-0.0739685
-0.0731983
-0.0677571
-0.060693
-0.0564056
-0.0574068
-0.0637825
-0.0749874
-0.0927657
-0.119685
-0.153153
-0.18133
-0.18898
-0.172022
-0.139469
-0.105253
-0.0776362
-0.0585139
-0.0458724
-0.0396495
-0.0402551
-0.044215
-0.0456262
-0.0431973
-0.0411105
-0.0410071
-0.0446827
-0.0526313
-0.067171
-0.0765098
-0.0735226
-0.0636444
-0.0478348
-0.036971
-0.024268
-0.0128644
-0.00820403
-0.00439669
-0.00161114
-0.399319
-0.418629
-0.436956
-0.450544
-0.459931
-0.461077
-0.452464
-0.432566
-0.400821
-0.358599
-0.309264
-0.257386
-0.207445
-0.162711
-0.124862
-0.0942778
-0.0707125
-0.0539648
-0.0441308
-0.041075
-0.0431267
-0.0467405
-0.0480464
-0.04616
-0.0431287
-0.0425811
-0.0466707
-0.0554917
-0.0686259
-0.0880387
-0.116521
-0.151712
-0.18158
-0.190513
-0.174286
-0.141184
-0.105905
-0.0770893
-0.0567326
-0.0428286
-0.0351302
-0.0338858
-0.0363955
-0.0374053
-0.0356854
-0.0353569
-0.0370642
-0.0430697
-0.0533688
-0.0707559
-0.0819238
-0.0785944
-0.0672074
-0.0493857
-0.0373904
-0.0235443
-0.0111269
-0.00569619
-0.0016923
-0.000613548
-0.383794
-0.40023
-0.415446
-0.430143
-0.438401
-0.438884
-0.430508
-0.411787
-0.382258
-0.343252
-0.297752
-0.249668
-0.202793
-0.15991
-0.122527
-0.0911268
-0.0656074
-0.045808
-0.0318603
-0.0240438
-0.0218943
-0.0233399
-0.025349
-0.0256452
-0.0257887
-0.0281974
-0.0347173
-0.0454464
-0.060026
-0.080523
-0.109966
-0.146398
-0.17792
-0.188496
-0.174021
-0.141249
-0.105603
-0.0760948
-0.0548753
-0.0399912
-0.0310906
-0.0282699
-0.0295112
-0.0301218
-0.028806
-0.029814
-0.0329794
-0.0410668
-0.0535434
-0.0736986
-0.0867096
-0.0831951
-0.0703539
-0.0506273
-0.037602
-0.0227912
-0.0094685
-0.00332897
0.000895497
0.000337267
-0.365869
-0.37873
-0.392198
-0.404544
-0.410892
-0.410634
-0.402713
-0.385728
-0.359316
-0.324663
-0.284198
-0.241037
-0.198229
-0.158091
-0.121992
-0.0905342
-0.0638426
-0.0418647
-0.0247079
-0.0127717
-0.00632798
-0.00461047
-0.00553857
-0.00700371
-0.00932011
-0.0138194
-0.0220289
-0.0340446
-0.0495475
-0.0706214
-0.100439
-0.1376
-0.170756
-0.183189
-0.171323
-0.139698
-0.104387
-0.0746839
-0.0529695
-0.0373846
-0.0275389
-0.023406
-0.0235568
-0.0238078
-0.0226418
-0.0245785
-0.0288194
-0.0386761
-0.0530798
-0.0758758
-0.090706
-0.0872102
-0.0730336
-0.0515475
-0.0376077
-0.0220079
-0.00789072
-0.00111304
0.00335921
0.00123799
-0.346066
-0.354123
-0.364894
-0.374621
-0.379269
-0.378493
-0.371473
-0.356831
-0.334255
-0.304675
-0.269871
-0.232149
-0.193866
-0.156944
-0.122666
-0.0917574
-0.0645683
-0.0412212
-0.0218127
-0.00668122
0.00363115
0.00897219
0.010281
0.00910693
0.00584552
0.000139636
-0.00902765
-0.021691
-0.0375919
-0.0587864
-0.0885939
-0.126176
-0.160837
-0.175013
-0.166479
-0.136697
-0.102426
-0.0730105
-0.05114
-0.0351062
-0.0245218
-0.0193008
-0.0185108
-0.0184489
-0.0171796
-0.0197371
-0.0246628
-0.0358937
-0.0519276
-0.0772091
-0.0937644
-0.0905561
-0.0752204
-0.0521623
-0.0374203
-0.021214
-0.00641573
0.000933847
0.00569652
0.00208708
-0.322833
-0.327002
-0.335891
-0.343259
-0.346264
-0.345459
-0.339868
-0.328033
-0.309665
-0.285356
-0.256251
-0.223948
-0.19021
-0.156636
-0.124462
-0.0945316
-0.0673713
-0.043277
-0.0223908
-0.004961
0.00848284
0.0173642
0.0216717
0.0220908
0.0193254
0.0133951
0.00395104
-0.0088152
-0.0247138
-0.0457813
-0.0752271
-0.11278
-0.149026
-0.164476
-0.159933
-0.132603
-0.100121
-0.0714442
-0.0496682
-0.0333615
-0.0221491
-0.0159597
-0.0143299
-0.0140472
-0.0126018
-0.0153598
-0.0205638
-0.0327843
-0.0500995
-0.0776016
-0.0957714
-0.0931121
-0.0768812
-0.0525094
-0.0370582
-0.0204005
-0.00506701
0.00277025
0.00790393
0.00288437
-0.299062
-0.30098
-0.308272
-0.31321
-0.315017
-0.314711
-0.310835
-0.30199
-0.287865
-0.268678
-0.245041
-0.217968
-0.188703
-0.158532
-0.128618
-0.0998975
-0.0730557
-0.0485507
-0.0266538
-0.00756439
0.0083347
0.020403
0.0281039
0.0314298
0.0303701
0.0253974
0.0165376
0.0043087
-0.0111093
-0.0317441
-0.0609045
-0.0987856
-0.136633
-0.165574
-0.152012
-0.127157
-0.0972538
-0.0697866
-0.0483304
-0.0319368
-0.0202509
-0.0131758
-0.0107525
-0.0104102
-0.00890726
-0.0116396
-0.0166199
-0.0292543
-0.0475444
-0.0771439
-0.0966598
-0.0949186
-0.0778984
-0.0525207
-0.036488
-0.0194485
-0.00378462
0.00439815
0.0099724
0.00362845
-0.278154
-0.279855
-0.284028
-0.28535
-0.285697
-0.285291
-0.282371
-0.275786
-0.265107
-0.250227
-0.231363
-0.209055
-0.184101
-0.157474
-0.130198
-0.103222
-0.0773323
-0.0531288
-0.031037
-0.0113522
0.00565567
0.0196295
0.0301523
0.0366597
0.0384162
0.0352463
0.0276319
0.0164258
0.00177818
-0.0181455
-0.0463653
-0.0831917
-0.120603
-0.147215
-0.139052
-0.118226
-0.0915016
-0.0658511
-0.0452985
-0.0293706
-0.0177891
-0.0102649
-0.00726106
-0.00687475
-0.00553103
-0.00831805
-0.0130382
-0.0256949
-0.0444457
-0.0755769
-0.0963335
-0.0956347
-0.078023
-0.051874
-0.035553
-0.0181636
-0.0024174
0.00598523
0.0119432
0.00431668
-0.258679
-0.269569
-0.270405
-0.268703
-0.267323
-0.265731
-0.262271
-0.255683
-0.245404
-0.231362
-0.213799
-0.193186
-0.170194
-0.145642
-0.120406
-0.0953108
-0.071045
-0.0481327
-0.0269658
-0.00783488
0.00902186
0.0233334
0.0347808
0.0428615
0.0469377
0.0455642
0.0397262
0.0301335
0.016794
-0.00260874
-0.0320247
-0.07195
-0.112017
-0.141988
-0.130667
-0.109546
-0.0838453
-0.059688
-0.0404746
-0.0254892
-0.0145011
-0.00712207
-0.00398205
-0.0033378
-0.00160279
-0.00358586
-0.00795058
-0.0206745
-0.0401557
-0.0734628
-0.0964802
-0.0973877
-0.0779123
-0.050657
-0.0342818
-0.0167093
-0.00107232
0.00760849
0.0138053
0.00495015
-0.236779
-0.250558
-0.252285
-0.248954
-0.245717
-0.242951
-0.239004
-0.232427
-0.222619
-0.209592
-0.19363
-0.175136
-0.154617
-0.132689
-0.110034
-0.0873217
-0.0651408
-0.0439711
-0.0241876
-0.00608381
0.0101272
0.0242445
0.0360222
0.0449236
0.0499421
0.050406
0.0464327
0.0386992
0.0269373
0.00828894
-0.0217548
-0.0626725
-0.101145
-0.115031
-0.11658
-0.0977099
-0.0746577
-0.0530435
-0.035659
-0.0219336
-0.0116877
-0.0045126
-0.00128679
-0.000567661
0.00110556
-0.000690007
-0.00439073
-0.0167924
-0.0364782
-0.0709374
-0.0952938
-0.0914364
-0.0765705
-0.0489311
-0.0325588
-0.0151182
0.000126329
0.00905527
0.0152397
0.00545117
-0.216343
-0.230835
-0.233021
-0.229146
-0.224865
-0.221326
-0.217166
-0.210905
-0.201891
-0.190126
-0.175875
-0.159452
-0.141223
-0.121643
-0.101252
-0.0806165
-0.0602624
-0.0406395
-0.0221105
-0.00497022
0.0105556
0.0242533
0.0359239
0.0451772
0.0509917
0.0525807
0.0499602
0.0435797
0.0328346
0.0144405
-0.0155427
-0.0545137
-0.0888794
-0.102641
-0.10179
-0.0855237
-0.0655628
-0.0465591
-0.0309621
-0.0184364
-0.00894258
-0.00206435
0.00120551
0.0019949
0.00361232
0.00189258
-0.00162335
-0.0139402
-0.0336408
-0.0679563
-0.0927346
-0.0898886
-0.0745092
-0.0468257
-0.0305413
-0.0134213
0.00133391
0.0104118
0.0164496
0.00588934
-0.197832
-0.211106
-0.213498
-0.209857
-0.205304
-0.201372
-0.197133
-0.191244
-0.183014
-0.172398
-0.159625
-0.144969
-0.128719
-0.111224
-0.0929107
-0.0742481
-0.0556867
-0.0376289
-0.0204128
-0.00432606
0.010399
0.0235316
0.0348687
0.0440168
0.0502584
0.0527518
0.0512803
0.0460467
0.036201
0.0184023
-0.0101658
-0.0456073
-0.0757841
-0.0884204
-0.0865768
-0.0730648
-0.0563092
-0.0399978
-0.0262492
-0.0149554
-0.00627116
0.000227424
0.00351345
0.00441829
0.00604411
0.00446051
0.00102325
-0.0112417
-0.0305763
-0.0639607
-0.0890061
-0.0871722
-0.0716333
-0.0443191
-0.0282466
-0.0115781
0.00254988
0.011635
0.0174771
0.00627914
-0.179602
-0.191842
-0.194487
-0.191302
-0.186835
-0.18277
-0.178551
-0.173043
-0.16557
-0.156032
-0.144622
-0.131581
-0.117145
-0.101577
-0.0852062
-0.0684077
-0.0515645
-0.0350364
-0.0191398
-0.00415473
0.0096838
0.0221304
0.0329541
0.0417865
0.0481357
0.0511882
0.0505823
0.0463283
0.0374957
0.0210562
-0.00484685
-0.0359765
-0.0617841
-0.0728829
-0.0713278
-0.0607331
-0.0472198
-0.033572
-0.0216475
-0.0115566
-0.0036913
0.00236662
0.00563636
0.00668821
0.0083528
0.00695569
0.00371199
-0.00820793
-0.0267231
-0.058881
-0.0840293
-0.0830694
-0.0678494
-0.0413879
-0.02569
-0.00960018
0.00376343
0.0126912
0.0182925
0.00660566
-0.162126
-0.173579
-0.176319
-0.173551
-0.169342
-0.165361
-0.161294
-0.156208
-0.14948
-0.140975
-0.130839
-0.11928
-0.106493
-0.0926794
-0.0780919
-0.063033
-0.0478266
-0.0327908
-0.0182166
-0.00437157
0.00851158
0.0201819
0.0303927
0.0388005
0.0450172
0.0483302
0.0483225
0.0448611
0.0370767
0.0225488
0.000219077
-0.0259128
-0.0473423
-0.0572215
-0.0567546
-0.0490464
-0.0385559
-0.0273958
-0.0172159
-0.00828113
-0.00121519
0.00435694
0.00757364
0.00879059
0.010542
0.00937312
0.00644496
-0.0047939
-0.022182
-0.0527893
-0.0776825
-0.0775681
-0.0631225
-0.0380315
-0.0229044
-0.00750471
0.00496608
0.0135507
0.0188473
0.00684918
-0.146019
-0.156394
-0.159032
-0.156662
-0.152833
-0.149101
-0.145301
-0.140675
-0.13467
-0.127135
-0.118176
-0.107969
-0.0966773
-0.084461
-0.0715153
-0.0580826
-0.044433
-0.0308443
-0.0175795
-0.00489142
0.0069932
0.0178262
0.027358
0.0352651
0.0412147
0.0446117
0.0450333
0.0422457
0.0355389
0.0232675
0.00498016
-0.0160949
-0.0336553
-0.0426678
-0.0435168
-0.038377
-0.0305215
-0.021581
-0.013019
-0.00517693
0.00113869
0.00620385
0.00934005
0.010727
0.0126235
0.0117237
0.00918948
-0.00114092
-0.0171348
-0.0457199
-0.0699926
-0.0707467
-0.0574782
-0.0342674
-0.0199325
-0.00532118
0.00614873
0.014188
0.0190998
0.0069967
-0.130923
-0.140182
-0.142727
-0.140762
-0.137362
-0.133962
-0.130498
-0.12635
-0.121035
-0.114402
-0.106527
-0.0975567
-0.087628
-0.0768705
-0.0654363
-0.0535184
-0.0413401
-0.0291415
-0.017158
-0.00562532
0.00523877
0.0151964
0.0240083
0.0313661
0.0369774
0.0403563
0.0411085
0.0389617
0.0334132
0.0234948
0.0090534
-0.00756152
-0.0218603
-0.0300933
-0.0320295
-0.0289513
-0.0232577
-0.0162128
-0.00910454
-0.00228192
0.00334955
0.00791358
0.0109569
0.0125048
0.0146052
0.0140062
0.0119277
0.00269158
-0.0116251
-0.0377935
-0.0611282
-0.0627596
-0.0510082
-0.0301364
-0.0168257
-0.00309126
0.00730444
0.0145866
0.0190254
0.00704342
-0.116712
-0.125055
-0.127525
-0.125922
-0.122944
-0.119905
-0.116809
-0.11314
-0.108479
-0.102682
-0.0958042
-0.0879654
-0.0792806
-0.0698551
-0.0598087
-0.0492952
-0.0384986
-0.0276248
-0.0168824
-0.00648663
0.00335794
0.0124256
0.0204927
0.0272755
0.0325127
0.0358106
0.0368299
0.0353082
0.0309185
0.0231346
0.0119351
-0.000980893
-0.0124809
-0.0198205
-0.0224142
-0.0208419
-0.0168324
-0.0113488
-0.00550888
0.000374742
0.00539363
0.00948916
0.0124375
0.0141298
0.0164907
0.0162563
0.0147046
0.00675084
-0.00571412
-0.0292595
-0.051367
-0.0538523
-0.0438816
-0.0257068
-0.0136391
-0.000868287
0.00843233
0.0147514
0.0186261
0.00699428
-0.103623
-0.111102
-0.113423
-0.112123
-0.109548
-0.106882
-0.104162
-0.100963
-0.0969183
-0.0918945
-0.0859296
-0.0791232
-0.0715713
-0.0633599
-0.0545841
-0.0453673
-0.0358605
-0.0262385
-0.0166842
-0.00739086
0.00145301
0.0096354
0.0169413
0.0231537
0.0280048
0.031184
0.0324123
0.0314588
0.0281148
0.0221176
0.0135462
0.00365674
-0.00537635
-0.0117372
-0.0145785
-0.0140124
-0.0112575
-0.00702259
-0.00225765
0.0027739
0.00724592
0.0109301
0.0137838
0.0156007
0.0182635
0.0185216
0.017614
0.0110705
0.00041983
-0.02048
-0.0411023
-0.0443714
-0.0363432
-0.0210743
-0.0104274
0.00128733
0.00953698
0.0147265
0.0179441
0.00686767
-0.091626
-0.0982094
-0.100356
-0.0993357
-0.0971529
-0.094853
-0.0925035
-0.0897518
-0.0862805
-0.0819657
-0.0768331
-0.0709648
-0.0644413
-0.0573334
-0.0497171
-0.0416913
-0.0333796
-0.0249297
-0.0164993
-0.00826006
-0.000383013
0.00693985
0.0135143
0.0191518
0.023614
0.0266477
0.0280276
0.0275638
0.0251229
0.0206039
0.0141546
0.00671476
-0.000137789
-0.00556983
-0.00833777
-0.00836949
-0.00650768
-0.00324668
0.000632307
0.00490689
0.00888424
0.0122265
0.0149918
0.0169151
0.0198706
0.0208012
0.0207116
0.0156011
0.00647518
-0.0119216
-0.0308238
-0.034741
-0.0286987
-0.0163618
-0.00724371
0.00331628
0.0106229
0.0146022
0.0170755
0.00670069
-0.0805528
-0.0863399
-0.0883329
-0.0875605
-0.0857359
-0.083782
-0.0817828
-0.0794478
-0.0765022
-0.0728318
-0.0684525
-0.0634321
-0.0578381
-0.0517287
-0.045165
-0.0382262
-0.0310133
-0.0236496
-0.0162703
-0.00902613
-0.00206885
0.00443086
0.0102956
0.015387
0.0194689
0.0223404
0.0238264
0.0237764
0.0221073
0.0188084
0.0140455
0.00853567
0.00372426
-0.00102294
-0.00348015
-0.00379458
-0.00253366
-1.39191e-05
0.00315151
0.0067722
0.010297
0.0133555
0.0160468
0.0180701
0.021236
0.0229662
0.0238472
0.0200725
0.0120079
-0.0040806
-0.0210219
-0.0254022
-0.0212814
-0.0117151
-0.00414419
0.00516698
0.0116868
0.0145111
0.0161688
0.00654992
-0.0704053
-0.0754995
-0.0773408
-0.0767746
-0.0752634
-0.0736239
-0.0719477
-0.0699936
-0.0675236
-0.0644335
-0.0607315
-0.0564727
-0.051714
-0.0465032
-0.0408893
-0.0349357
-0.0287244
-0.0223577
-0.0159502
-0.00963087
-0.00353297
0.00219148
0.00737003
0.0119563
0.0156703
0.0183716
0.0199274
0.0202211
0.0192025
0.0168969
0.0134385
0.00926145
0.00469644
0.00207197
0.000209432
-0.000158905
0.000727892
0.00269918
0.00529938
0.00837003
0.0114839
0.0142948
0.0169154
0.0190405
0.0222979
0.024773
0.0265217
0.0238724
0.0165061
0.00263978
-0.0120974
-0.0167529
-0.0144102
-0.00729262
-0.00119391
0.00679781
0.012708
0.0146061
0.0153958
0.00648084
-0.061195
-0.0656472
-0.0673308
-0.0669206
-0.0656857
-0.0643323
-0.0629496
-0.0613375
-0.059292
-0.0567189
-0.0536204
-0.0500408
-0.0460275
-0.0416198
-0.036857
-0.0317895
-0.0264834
-0.0210228
-0.015503
-0.0100321
-0.00472362
0.000302904
0.0049483
0.00894919
0.0122918
0.0148165
0.0164094
0.0169809
0.0164999
0.0150003
0.0126051
0.00964561
0.00654146
0.0044059
0.00299143
0.00267988
0.00335053
0.00492733
0.00708555
0.00970185
0.0124472
0.0150321
0.017564
0.0197656
0.0229896
0.0258551
0.0281519
0.0263522
0.0196256
0.00798675
-0.00438064
-0.00911504
-0.0083421
-0.00324659
0.00153607
0.00817775
0.0136334
0.0150201
0.014902
0.00654324
-0.0528261
-0.056686
-0.0582066
-0.0579406
-0.0569533
-0.0558543
-0.054734
-0.0534269
-0.051757
-0.0496401
-0.0470745
-0.0440955
-0.0407422
-0.0370469
-0.0330407
-0.0287636
-0.0242685
-0.0196235
-0.0149072
-0.0102103
-0.00562818
-0.00126299
0.00278821
0.00634844
0.00936236
0.0117146
0.013319
0.0141058
0.0140568
0.0132091
0.0116764
0.00970807
0.00763131
0.0060568
0.00504497
0.00484882
0.00541058
0.00671198
0.00852814
0.0107722
0.0131906
0.0155602
0.0179716
0.0201921
0.0232479
0.0261218
0.0284616
0.0272764
0.0213504
0.011861
0.00184401
-0.00273539
-0.00322795
0.000299141
0.00397972
0.00929514
0.0143616
0.0157674
0.0147545
0.00674939
-0.0452301
-0.0485743
-0.0499519
-0.0498073
-0.049025
-0.0481453
-0.0472535
-0.0462125
-0.0448706
-0.0431523
-0.0410529
-0.0386005
-0.0358268
-0.032758
-0.0294191
-0.0258411
-0.0220659
-0.0181481
-0.0141523
-0.0101532
-0.00622905
-0.00246758
0.00104058
0.00418885
0.00690051
0.0090847
0.0106752
0.0116192
0.0119079
0.0115742
0.010716
0.00952573
0.00821254
0.00716626
0.0065153
0.00646148
0.00698377
0.00809836
0.00965106
0.0115898
0.0137197
0.0158783
0.0181299
0.0202919
0.0230641
0.0256708
0.0276871
0.0269039
0.0219192
0.0143531
0.00645672
0.00229724
0.000904276
0.00326682
0.00608267
0.0101667
0.0147851
0.0166524
0.0148762
0.00704675
-0.0383671
-0.041255
-0.0424939
-0.0424415
-0.0418417
-0.0411529
-0.040458
-0.0396458
-0.0385871
-0.0372139
-0.0355188
-0.0335237
-0.0312546
-0.0287324
-0.0259765
-0.0230111
-0.0198691
-0.0165936
-0.0132366
-0.00985797
-0.00652304
-0.0033052
-0.000277316
0.00248329
0.00490993
0.00692467
0.0084758
0.00952358
0.0100647
0.0101244
0.00978131
0.00916912
0.00844674
0.00785397
0.00752263
0.0076182
0.00814249
0.00913279
0.0104827
0.0121694
0.0140424
0.0159933
0.0180463
0.020072
0.0224989
0.0246895
0.0262532
0.0256943
0.0216677
0.0157222
0.00957496
0.00609495
0.00411964
0.00563159
0.00780094
0.0108245
0.0148537
0.017303
0.0149838
0.00727164
-0.0321855
-0.0346675
-0.0357766
-0.0357994
-0.035355
-0.0348275
-0.0342995
-0.033681
-0.0328631
-0.0317854
-0.0304377
-0.0288365
-0.0270027
-0.024953
-0.0227023
-0.0202689
-0.0176783
-0.0149642
-0.0121677
-0.00933667
-0.00652419
-0.00378995
-0.00119008
0.00121607
0.00337338
0.00521605
0.00670496
0.00780763
0.00852369
0.0088739
0.00891723
0.00873142
0.00845201
0.00822869
0.00816913
0.00840625
0.00895406
0.00986136
0.0110538
0.0125307
0.0141738
0.0159185
0.0177457
0.0195749
0.0215343
0.0233694
0.0245122
0.0240633
0.0209136
0.0162868
0.0114398
0.00769288
0.00648431
0.00741941
0.00910237
0.0112762
0.014569
0.0173461
0.014724
0.00720111
-0.0266229
-0.02875
-0.0297409
-0.0298233
-0.0295099
-0.0291241
-0.0287333
-0.0282738
-0.0276556
-0.0268289
-0.025778
-0.0245138
-0.0230525
-0.0214073
-0.01959
-0.0176143
-0.0154996
-0.0132717
-0.0109628
-0.00861023
-0.0062559
-0.00394743
-0.00172884
0.000358128
0.0022581
0.00392793
0.0053339
0.00644781
0.00726952
0.00782387
0.00813854
0.00827613
0.00832099
0.00838294
0.00854188
0.00890169
0.00947991
0.0103294
0.0113971
0.0126977
0.0141344
0.0156766
0.0172706
0.0188796
0.0204702
0.0219023
0.0226957
0.0223004
0.0198952
0.0163344
0.012576
0.00966792
0.00829186
0.00870651
0.00997814
0.0115022
0.0139483
0.0166026
0.013873
0.00672772
-0.0216291
-0.0234489
-0.024333
-0.0244613
-0.0242564
-0.0239891
-0.0237184
-0.0233841
-0.0229123
-0.0223095
-0.0215123
-0.0205335
-0.0193877
-0.0180859
-0.016637
-0.0150514
-0.0133437
-0.0115332
-0.0096443
-0.0077062
-0.00575106
-0.00381478
-0.00193434
-0.000146425
0.00151718
0.00301644
0.00432558
0.00541464
0.00626747
0.00697593
0.00747996
0.00783883
0.00811607
0.00838823
0.00871312
0.00917025
0.00977569
0.0105808
0.0115464
0.0126961
0.0139479
0.0152971
0.0166625
0.0180413
0.0193153
0.0204072
0.0209339
0.0205728
0.018764
0.0160452
0.0131659
0.0108734
0.00957018
0.00956735
0.0104507
0.0114842
0.0130647
0.0151755
0.0124925
0.00593858
-0.0171584
-0.0187117
-0.0194996
-0.0196635
-0.0195503
-0.0193868
-0.0192272
-0.0190277
-0.01873
-0.0182516
-0.0176373
-0.0168845
-0.0159975
-0.0149818
-0.0138426
-0.0125863
-0.0112233
-0.00976802
-0.00823867
-0.00665689
-0.00504728
-0.0034368
-0.00185303
-0.000328261
0.00111167
0.00244201
0.00364657
0.00470815
0.00563897
0.00635004
0.00695019
0.00744829
0.00788124
0.0082989
0.0087414
0.0092682
0.00989153
0.0106575
0.0115353
0.0125534
0.0136405
0.0148089
0.0159624
0.0171189
0.0181275
0.0189509
0.0192894
0.0189589
0.017608
0.015544
0.0133541
0.0115142
0.0103755
0.0100713
0.0105786
0.011229
0.0120249
0.0133685
0.0108375
0.00501487
-0.0131622
-0.0144846
-0.0151852
-0.0153737
-0.0153324
-0.0152483
-0.0151673
-0.0150533
-0.0148548
-0.0145375
-0.0140938
-0.0135316
-0.0128612
-0.0120851
-0.0112053
-0.0102256
-0.00915318
-0.00799799
-0.00677362
-0.00549618
-0.00418378
-0.00285677
-0.0015365
-0.000246191
0.000994711
0.00216606
0.00325232
0.00423615
0.00511471
0.00587204
0.00653408
0.00711624
0.00764571
0.00815574
0.00867366
0.00924279
0.00987129
0.0105978
0.0113972
0.0122989
0.0132396
0.0142418
0.0152063
0.0161607
0.0169529
0.0175712
0.0177836
0.0174861
0.0164786
0.0149133
0.0132502
0.0117472
0.0107822
0.0102799
0.0104396
0.0107723
0.0109257
0.0114745
0.00914742
0.00411028
-0.00959684
-0.0107208
-0.0113432
-0.0115483
-0.0115641
-0.0115438
-0.0115268
-0.0114849
-0.0113768
-0.0111757
-0.0108735
-0.0104731
-0.00997842
-0.00939542
-0.00872735
-0.00797804
-0.00714863
-0.00624561
-0.00527854
-0.00425912
-0.00320097
-0.00211922
-0.00102934
5.17045e-05
0.00110879
0.0021243
0.00308654
0.00398198
0.00480683
0.00555385
0.00623278
0.00685234
0.00743071
0.00798959
0.00854689
0.00913323
0.00975302
0.0104372
0.011164
0.0119611
0.0127729
0.0136253
0.0144249
0.0152019
0.0158245
0.0162879
0.0164186
0.0161563
0.0154018
0.0142068
0.0129355
0.0116801
0.0107382
0.010241
0.0101126
0.0101685
0.00985032
0.00971877
0.00757897
0.00330948
-0.00642467
-0.00737852
-0.00793129
-0.0081469
-0.00820785
-0.00823883
-0.00827305
-0.00828885
-0.00825289
-0.0081431
-0.00795214
-0.00768124
-0.00733404
-0.00691361
-0.00642178
-0.005858
-0.00522703
-0.00453259
-0.00378064
-0.00297885
-0.00213685
-0.00126578
-0.00037672
0.000517692
0.00140581
0.00227427
0.00311389
0.00391372
0.00467016
0.00537732
0.00603941
0.00665998
0.00725001
0.00782295
0.00838983
0.00897161
0.00956927
0.0102069
0.010865
0.0115673
0.0122661
0.0129861
0.0136439
0.0142653
0.0147607
0.0151089
0.0151881
0.0149598
0.0143878
0.0134656
0.0124802
0.0114346
0.0106284
0.0100389
0.00966854
0.00947176
0.00884576
0.00821927
0.00622462
0.00264396
-0.0036103
-0.00441889
-0.00490998
-0.00513125
-0.00522742
-0.00529883
-0.00537322
-0.00543396
-0.00545439
-0.00541637
-0.00531338
-0.00514587
-0.00491633
-0.00462637
-0.0042766
-0.00386733
-0.00340019
-0.00287796
-0.00230499
-0.00168577
-0.0010266
-0.000335451
0.000379121
0.00110833
0.00184394
0.00257579
0.00329633
0.00399691
0.00467406
0.00532258
0.00594378
0.00653818
0.00711158
0.00767169
0.00822433
0.0087834
0.00934736
0.00993382
0.0105256
0.0111421
0.0117427
0.0123484