/*--------------------------------*- C++ -*----------------------------------*\
| =========                 |                                                 |
| \\      /  F ield         | OpenFOAM: The Open Source CFD Toolbox           |
|  \\    /   O peration     | Version:  2512                                  |
|   \\  /    A nd           | Website:  www.openfoam.com                      |
|    \\/     M anipulation  |                                                 |
\*---------------------------------------------------------------------------*/
FoamFile
{
    version     2.0;
    format      ascii;
    arch        "LSB;label=32;scalar=64";
    class       surfaceScalarField;
    location    "98";
    object      phi;
}
// * * * * * * * * * * * * * * * * * * * * * * * * * * * * * * * * * * * * * //

dimensions      [0 3 -1 0 0 0 0];

oriented        oriented;

internalField   nonuniform List<scalar> 
26232
(
-4.14341e-05
0.00101621
-0.000974771
0.000116135
0.00194872
-0.00210629
0.000702194
0.00196519
-0.00255125
0.00192263
0.00111631
-0.00233674
0.00397307
-0.000585982
-0.00146446
0.00704008
-0.00314895
8.19515e-05
0.0112991
-0.00658354
0.00232456
0.0168968
-0.01089
0.00529231
0.0239369
-0.0160421
0.00900198
0.0324589
-0.0219765
0.0134544
0.0424215
-0.0285888
0.0186263
0.0536918
-0.0357356
0.0244653
0.0660458
-0.0432435
0.0308894
0.0791784
-0.0509218
0.0377892
0.0927243
-0.0585786
0.0450327
0.106286
-0.0660357
0.052474
0.119467
-0.0731424
0.0599609
0.131907
-0.0797872
0.0673474
0.143316
-0.0859022
0.0744938
0.153483
-0.0914816
0.0813139
0.162329
-0.0965164
0.0876707
0.169791
-0.101199
0.0937378
0.175813
-0.105165
0.0991424
-0.109623
0.105189
0.180247
3.16291e-05
0.000984576
0.000407373
0.00157297
0.00137705
0.000995517
0.00317163
-0.000678271
0.00600859
-0.00342295
0.010084
-0.00722438
0.0155558
-0.0120554
0.0225197
-0.0178539
0.0309854
-0.0245078
0.0408589
-0.03185
0.0519364
-0.0396663
0.0639146
-0.0477138
0.0764149
-0.0557438
0.0890198
-0.0635267
0.101315
-0.0708737
0.112931
-0.0776513
0.123579
-0.0837905
0.133078
-0.0892864
0.141366
-0.0941909
0.148484
-0.0985993
0.15459
-0.102622
0.1598
-0.10641
0.164554
-0.109918
-0.113782
0.168712
0.000126411
0.000858165
0.000782394
0.000916989
0.00223162
-0.000453706
0.00471982
-0.00316647
0.00846684
-0.00716997
0.0136448
-0.0124023
0.0203478
-0.0187584
0.0285627
-0.0260688
0.0381488
-0.0340939
0.0488383
-0.0425394
0.0602578
-0.0510859
0.07197
-0.059426
0.083526
-0.0672997
0.0945192
-0.07452
0.104632
-0.0809864
0.113666
-0.0866854
0.121554
-0.0916784
0.128349
-0.0960813
0.134196
-0.100038
0.139293
-0.103697
0.143847
-0.107176
0.148039
-0.110602
0.152036
-0.113915
-0.117562
0.155816
0.000237668
0.000620498
0.00122086
-6.6199e-05
0.0032196
-0.00245245
0.00647697
-0.00642384
0.0111845
-0.0118775
0.0174449
-0.0186626
0.0252334
-0.026547
0.0343754
-0.0352107
0.0445495
-0.044268
0.0553235
-0.0533134
0.0662136
-0.061976
0.0767537
-0.0699661
0.0865589
-0.077105
0.0953707
-0.0833318
0.103076
-0.0886916
0.109698
-0.0933078
0.115368
-0.097348
0.120276
-0.100989
0.124629
-0.104391
0.12861
-0.107678
0.132366
-0.110933
0.135981
-0.114216
0.139564
-0.117498
-0.121055
0.143057
0.000362333
0.000258165
0.00170773
-0.0014116
0.00429965
-0.00504436
0.00835227
-0.0104765
0.0139873
-0.0175126
0.0211852
-0.0258605
0.029753
-0.0351148
0.0393295
-0.0447872
0.0494325
-0.0543711
0.0595378
-0.0634187
0.0691651
-0.0716032
0.0779498
-0.0787508
0.0856838
-0.084839
0.0923202
-0.0899682
0.0979455
-0.094317
0.102733
-0.0980952
0.106889
-0.101504
0.11061
-0.10471
0.114054
-0.107835
0.117335
-0.110958
0.120526
-0.114124
0.123667
-0.117357
0.126809
-0.12064
-0.124128
0.129882
0.00049963
-0.000241466
0.0022318
-0.00314377
0.00543166
-0.00824423
0.0102484
-0.0152932
0.016685
-0.0239492
0.0245515
-0.033727
0.0334633
-0.0440267
0.0428971
-0.0542209
0.0522876
-0.0637616
0.0611336
-0.0722647
0.0690784
-0.0795481
0.0759468
-0.0856191
0.0817354
-0.0906277
0.0865701
-0.0948029
0.0906465
-0.0983934
0.0941745
-0.101623
0.0973385
-0.104668
0.100279
-0.107651
0.103093
-0.110649
0.105838
-0.113704
0.108551
-0.116837
0.11125
-0.120056
0.113961
-0.123351
-0.126803
0.116636
0.000648415
-0.00088988
0.00277829
-0.00527365
0.00656515
-0.0120311
0.0120491
-0.0207772
0.0190676
-0.0309677
0.0272351
-0.0418945
0.0359976
-0.0527891
0.0447457
-0.062969
0.0529429
-0.0719588
0.0602195
-0.0795413
0.0664096
-0.0857382
0.0715318
-0.0907413
0.0757329
-0.0948287
0.0792202
-0.0982902
0.0822041
-0.101377
0.0848616
-0.104281
0.0873229
-0.107129
0.0896735
-0.110002
0.0919653
-0.11294
0.0942275
-0.115966
0.0964766
-0.119086
0.0987206
-0.1223
0.100972
-0.125603
-0.129025
0.103194
0.000804967
-0.00169485
0.00332383
-0.00779251
0.00763335
-0.0163406
0.0136199
-0.0267637
0.0209256
-0.0382733
0.0289832
-0.0499522
0.0371379
-0.0609438
0.0447992
-0.0706303
0.0515576
-0.0787172
0.0572299
-0.0852136
0.0618345
-0.0903427
0.0655252
-0.0944321
0.0685161
-0.0978196
0.0710193
-0.100793
0.0732098
-0.103568
0.0752133
-0.106284
0.0771108
-0.109027
0.0789501
-0.111841
0.0807576
-0.114748
0.0825476
-0.117756
0.0843281
-0.120866
0.0861041
-0.124076
0.087882
-0.127381
-0.130783
0.0896398
0.000962146
-0.00265699
0.00383588
-0.0106662
0.00855768
-0.0210624
0.0148258
-0.0330319
0.0220882
-0.0455357
0.0296509
-0.0575149
0.036853
-0.0681459
0.0432152
-0.0769926
0.0485058
-0.0840078
0.0527191
-0.089427
0.0560035
-0.0936271
0.0585754
-0.0970039
0.0606516
-0.0998958
0.0624102
-0.102552
0.063978
-0.105136
0.0654356
-0.107742
0.0668295
-0.110421
0.0681851
-0.113197
0.0695158
-0.116079
0.0708295
-0.11907
0.0721305
-0.122167
0.0734224
-0.125368
0.0747076
-0.128666
-0.13205
0.0759745
0.00111003
-0.00376702
0.00427661
-0.0138328
0.00925988
-0.0260457
0.015557
-0.039329
0.0224577
-0.0524364
0.0292229
-0.0642802
0.035274
-0.074197
0.040295
-0.0820135
0.0442283
-0.0879411
0.0471998
-0.0923985
0.0494234
-0.0958506
0.0511222
-0.0987027
0.0524823
-0.101256
0.0536367
-0.103706
0.0546696
-0.106168
0.0556291
-0.108701
0.056541
-0.111333
0.0574188
-0.114074
0.0582701
-0.11693
0.0590995
-0.119899
0.05991
-0.122978
0.0607042
-0.126162
0.061483
-0.129445
-0.132809
0.0622427
0.00123787
-0.0050049
0.00461012
-0.0172051
0.00967719
-0.0311128
0.0157494
-0.0454012
0.022022
-0.0587089
0.0277949
-0.0700531
0.0326299
-0.0790319
0.0363814
-0.085765
0.0391294
-0.0906891
0.0410749
-0.0943441
0.042447
-0.0972227
0.0434436
-0.0996994
0.044209
-0.102021
0.0448352
-0.104333
0.0453747
-0.106708
0.0458553
-0.109182
0.0462912
-0.111769
0.0466903
-0.114474
0.0470575
-0.117297
0.047396
-0.120237
0.0477081
-0.12329
0.047995
-0.126449
0.048256
-0.129706
-0.133045
0.0484913
0.00133856
-0.00634345
0.00481137
-0.0206779
0.00977419
-0.0360756
0.0153926
-0.0510196
0.0208443
-0.0641607
0.0255342
-0.074743
0.0291851
-0.0826828
0.0317968
-0.0883767
0.0335386
-0.0924309
0.0346393
-0.0954448
0.0353112
-0.0978945
0.0357147
-0.100103
0.0359542
-0.102261
0.03609
-0.104468
0.0361538
-0.106772
0.0361614
-0.109189
0.0361211
-0.111728
0.036038
-0.11439
0.0359156
-0.117175
0.035757
-0.120079
0.0355644
-0.123097
0.0353386
-0.126223
0.0350783
-0.129445
0.0347864
-0.132753
-0.000255303
0.000384262
-0.000128959
-0.000875426
0.00151896
-0.000898837
-0.00177893
0.00290561
-0.0020021
-0.00291039
0.00441413
-0.00328268
-0.00422807
0.00594926
-0.00463157
-0.00569725
0.007462
-0.00599282
-0.00728595
0.00894415
-0.00735545
-0.00896281
0.0104163
-0.00873945
-0.0106963
0.0119137
-0.0101802
-0.0124545
0.0134735
-0.0117153
-0.0142046
0.0151249
-0.0133748
-0.0159122
0.0168848
-0.0151772
-0.01754
0.0187551
-0.0171273
-0.0190462
0.0207229
-0.0192167
-0.0203835
0.0227612
-0.0214239
-0.0214983
0.0248283
-0.0237134
-0.0223306
0.0268679
-0.0260356
-0.0228148
0.0288088
-0.0283246
-0.0228811
0.0305647
-0.0304983
-0.0224578
0.0320361
-0.0324594
-0.0214736
0.0331147
-0.0340989
-0.0198655
0.0336892
-0.0352973
-0.0175914
0.0336526
-0.0359267
0.0329721
-0.0146747
-0.0358888
-0.000188596
0.000572858
-0.000649192
0.00197956
-0.00132092
0.00357733
-0.00216114
0.00525436
-0.00313648
0.00692459
-0.0042163
0.00854182
-0.00536857
0.0100964
-0.00655787
0.0116056
-0.00774507
0.0131009
-0.00888798
0.0146164
-0.00994195
0.0161789
-0.0108601
0.0178029
-0.0115927
0.0194877
-0.0120867
0.0212169
-0.0122847
0.0229592
-0.0121249
0.0246684
-0.0115408
0.0262838
-0.0104633
0.0277313
-0.00882142
0.0289228
-0.00654454
0.0297592
-0.00356407
0.0301342
0.000185813
0.0299393
0.00475663
0.0290818
0.0275533
0.0101754
-0.000116655
0.000689513
-0.000402809
0.00226571
-0.000816603
0.00399113
-0.00132626
0.00576402
-0.00190506
0.00750339
-0.00252576
0.00916251
-0.00315653
0.0107272
-0.00375896
0.012208
-0.00428793
0.0136299
-0.00469234
0.0150208
-0.00491705
0.0164036
-0.00490386
0.0177898
-0.00459197
0.0191758
-0.00391832
0.0205433
-0.00281771
0.0218586
-0.00122323
0.0230739
0.000932398
0.0241282
0.00371693
0.0249468
0.00719497
0.0254448
0.0114268
0.0255274
0.0164677
0.0250933
0.0223653
0.0240418
0.029161
0.0222861
0.0197421
0.0369722
-5.1329e-05
0.000740842
-0.000174004
0.00238838
-0.000338712
0.00415584
-0.000519799
0.00594511
-0.0006939
0.00767749
-0.000835526
0.00930414
-0.000913132
0.0108048
-0.000886837
0.0121818
-0.000707995
0.0134511
-0.000320776
0.0146336
0.000337038
0.0157458
0.00133186
0.0167949
0.00273211
0.0177756
0.00460736
0.018668
0.00702725
0.0194387
0.0100605
0.0200407
0.0137735
0.0204151
0.0182281
0.0204921
0.0234804
0.0201925
0.0295782
0.0194296
0.0365598
0.0181116
0.0444647
0.016137
0.0532841
0.0134666
0.00976584
0.0632604
-2.86718e-06
0.000743709
4.25281e-06
0.00238126
4.689e-05
0.0041132
0.000151341
0.00584066
0.000342129
0.0074867
0.000645563
0.0090007
0.00109352
0.0103568
0.001726
0.0115493
0.00259203
0.012585
0.00374934
0.0134763
0.00526217
0.014233
0.00719925
0.0148579
0.00963183
0.015343
0.0126316
0.0156682
0.0162691
0.0158012
0.0206121
0.0156978
0.0257239
0.0153033
0.0316627
0.0145534
0.0384795
0.0133757
0.0462188
0.0116903
0.0549128
0.00941758
0.0646207
0.00642913
0.0752532
0.00283418
-0.00225785
0.0872768
2.29377e-05
0.000720771
0.000109143
0.00229506
0.000292477
0.00392986
0.000606577
0.00552656
0.00108185
0.00701143
0.00174846
0.00833409
0.00264006
0.00946525
0.00379671
0.0103926
0.00526644
0.0111153
0.00710519
0.0116375
0.00937569
0.0119625
0.0121455
0.012088
0.0154852
0.0120034
0.0194658
0.0116875
0.0241581
0.0111089
0.0296304
0.0102255
0.0359482
0.00898548
0.0431744
0.00732716
0.0513673
0.00518275
0.0605811
0.0024765
0.0708573
-0.000858623
0.0823111
-0.00502467
0.0947719
-0.00962663
-0.0163723
0.108886
2.27759e-05
0.000697995
0.00013207
0.00218576
0.000379168
0.00368277
0.000811234
0.00509449
0.00146882
0.00635384
0.0023891
0.00741381
0.00360989
0.00824446
0.00517301
0.0088295
0.0071265
0.00916183
0.00952549
0.00923852
0.0124319
0.00905604
0.0159135
0.00860639
0.0200426
0.00787424
0.0248948
0.00683536
0.0305482
0.00545554
0.0370823
0.0036914
0.0445756
0.00149218
0.0531112
-0.00120843
0.0627671
-0.00447312
0.0736251
-0.00838148
0.0857238
-0.0129574
0.0991951
-0.0184959
0.113784
-0.0242155
-0.0327311
0.130143
2.83309e-07
0.000697712
8.32257e-05
0.00210282
0.000325788
0.0034402
0.000793151
0.00462713
0.00153964
0.00560735
0.00261309
0.00634036
0.00405958
0.00679797
0.00592755
0.00696153
0.00827087
0.00681851
0.0111507
0.00635864
0.0146366
0.00557022
0.0188059
0.00443702
0.0237441
0.0029361
0.0295423
0.00103717
0.036298
-0.00130023
0.0441107
-0.00412129
0.0530802
-0.00747726
0.0632955
-0.0114238
0.0748345
-0.0160121
0.0877524
-0.0212994
0.102054
-0.0272585
0.117739
-0.0341818
0.134569
-0.0410447
-0.0508445
0.152682
-3.56799e-05
0.000733392
-7.38952e-06
0.00207453
0.000192209
0.00324061
0.000650077
0.00416926
0.00143833
0.00481909
0.00262088
0.00515781
0.0042593
0.00515956
0.0064179
0.00480293
0.00916761
0.0040688
0.0125884
0.00293785
0.0167702
0.00138836
0.0218126
-0.000605312
0.0278222
-0.00307351
0.0349094
-0.00605007
0.0431808
-0.00957162
0.0527333
-0.0136737
0.0636437
-0.0183877
0.0759561
-0.0237362
0.0896708
-0.0297268
0.104726
-0.0363546
0.121007
-0.0435395
0.138247
-0.0514215
0.156314
-0.0591122
-0.0690488
0.174518
-7.10093e-05
0.000804401
-9.36927e-05
0.00209722
7.20678e-05
0.00307484
0.000538005
0.00370332
0.00139965
0.00395745
0.00274482
0.00381264
0.00466066
0.00324371
0.00723899
0.0022246
0.0105795
0.000728263
0.0147906
-0.00127325
0.0199872
-0.00380824
0.026286
-0.00690406
0.0337973
-0.0105849
0.0426157
-0.0148685
0.0528074
-0.0197633
0.0643985
-0.0252648
0.0773624
-0.0313516
0.0916109
-0.0379847
0.106984
-0.0451
0.12325
-0.0526208
0.140118
-0.0604068
0.157126
-0.0684304
0.174146
-0.0761313
-0.0848009
0.189898
-9.0069e-05
0.00089447
-0.000123794
0.00213094
7.06882e-05
0.00288036
0.000633132
0.00314088
0.0016888
0.00290179
0.00335757
0.00214387
0.00576008
0.000841198
0.00902171
-0.00103703
0.0132713
-0.00352137
0.0186366
-0.00663849
0.025235
-0.0104066
0.0331621
-0.0148312
0.0424779
-0.0199006
0.0531927
-0.0255833
0.0652558
-0.0318264
0.0785466
-0.0385556
0.0928712
-0.0456762
0.107966
-0.053079
0.1235
-0.060635
0.139114
-0.0682345
0.154408
-0.0757004
0.169012
-0.0830342
0.182693
-0.0898129
-0.0965736
0.194466
-8.03007e-05
-5.56451e-05
0.000273467
0.0010776
0.00251493
0.00474075
0.0079065
0.0121618
0.0176424
0.0244584
0.032678
0.0423121
0.0533009
0.0655067
0.0787131
0.0926315
0.106916
0.121185
0.135043
0.148123
0.160093
0.170797
0.180126
0.188742
-0.00952524
0.0419964
-0.0471458
-0.00360245
0.0372035
-0.0431263
0.00305086
0.0296554
-0.0363087
0.0103422
0.0191884
-0.0264797
0.0180968
0.00573454
-0.0134892
0.0261813
-0.0105802
0.00249576
0.03447
-0.0295172
0.0212284
0.0427701
-0.0504411
0.0421411
0.0508714
-0.0722317
0.0641303
0.0584831
-0.0933022
0.0856905
0.06519
-0.111821
0.105114
0.0703882
-0.126263
0.121064
0.0733328
-0.136003
0.133058
0.0733054
-0.141757
0.141784
0.0702142
-0.145514
0.148606
0.065443
-0.148962
0.153733
0.0619055
-0.150726
0.154263
0.0626432
-0.145261
0.144523
0.0688731
-0.125714
0.119484
0.0795742
-0.088915
0.0782139
0.0929246
-0.0376737
0.0243233
0.106964
0.0206781
-0.0347172
0.120109
0.0767308
-0.0898764
0.130793
0.121892
-0.132576
0.138097
0.152572
-0.159875
0.142217
0.169757
-0.173877
0.143725
0.176953
-0.178461
0.142289
0.180924
-0.179488
0.137277
0.189838
-0.184826
0.129914
0.203588
-0.196225
0.123779
0.205847
-0.199712
0.122309
0.175015
-0.173546
0.126328
0.103328
-0.107346
0.134179
0.00848854
-0.0163398
0.14277
-0.0831075
0.0745167
0.149905
-0.150744
0.143609
0.154671
-0.189963
0.185197
0.156354
-0.205908
0.204225
0.153549
-0.214735
0.217539
0.146122
-0.228275
0.235703
0.137069
-0.233747
0.242799
0.131154
-0.210796
0.216711
0.131104
-0.133193
0.133243
0.136636
-0.032019
0.0264868
0.144586
0.0790149
-0.0869652
0.15101
0.153825
-0.160248
0.151944
0.212647
-0.213581
0.14683
0.256771
-0.251657
0.139465
0.271619
-0.264254
0.135405
0.256826
-0.252766
0.137385
0.136076
-0.138056
0.143443
0.0394569
-0.0455152
0.147451
-0.104684
0.100676
0.146452
-0.18394
0.18494
0.142637
-0.252455
0.25627
0.140492
-0.327237
0.329381
0.141006
-0.198148
0.197634
0.141466
-0.183225
0.182765
0.140098
0.0653946
-0.064027
0.209897
-0.208028
0.0161513
0.0360204
0.0225029
0.0308519
0.0291913
0.022967
0.0360975
0.0122822
0.0430819
-0.00124987
0.0500242
-0.0175226
0.056832
-0.036325
0.0634069
-0.0570161
0.0696031
-0.0784278
0.0751682
-0.0988673
0.0797405
-0.116393
0.082883
-0.129405
0.084088
-0.137208
0.0827007
-0.140369
0.07812
-0.140934
0.0707676
-0.141609
0.0630396
-0.142998
0.0587165
-0.140938
0.0606959
-0.127693
0.0691694
-0.0973885
0.0822736
-0.050778
0.0975635
0.00538822
0.11272
0.0615744
0.125731
0.108881
0.135401
0.142902
0.141694
0.163463
0.144887
0.17376
0.144622
0.18119
0.140716
0.193743
0.134782
0.209523
0.13007
0.210559
0.129255
0.17583
0.132807
0.0997767
0.13934
0.00195529
0.146273
-0.0900406
0.1516
-0.156071
0.154674
-0.193037
0.155176
-0.20641
0.15175
-0.211309
0.143917
-0.220442
0.134374
-0.224203
0.128142
-0.204563
0.128368
-0.133419
0.134835
-0.0384859
0.143928
0.0699219
0.151167
0.146586
0.15264
0.211174
0.147859
0.261552
0.140756
0.278722
0.136568
0.261014
0.138145
0.134499
0.143983
0.0336184
0.147921
-0.108621
0.14693
-0.182949
0.142922
-0.248448
0.140752
-0.325067
0.141122
-0.198518
0.141287
-0.18339
0.13972
0.0669612
0.211839
0.0431441
0.0298485
0.0495414
0.0244546
0.0559798
0.0165286
0.062257
0.00600508
0.0683767
-0.00736957
0.0741272
-0.0232731
0.0794866
-0.0416844
0.0843841
-0.0619135
0.0886842
-0.0827279
0.0921508
-0.102334
0.0944649
-0.118707
0.0953156
-0.130256
0.0945039
-0.136396
0.0917836
-0.137649
0.0865046
-0.135655
0.0781271
-0.133232
0.0678024
-0.132673
0.0590725
-0.132208
0.0561813
-0.124802
0.0611899
-0.102397
0.0728943
-0.0624823
0.0886736
-0.0103911
0.105334
0.0449142
0.120441
0.0937738
0.13245
0.130894
0.140968
0.154945
0.145945
0.168783
0.14709
0.180044
0.144643
0.19619
0.140385
0.213781
0.13707
0.213874
0.136664
0.176236
0.139462
0.0969787
0.144435
-0.0030176
0.149574
-0.0951798
0.153094
-0.159592
0.154521
-0.194463
0.153917
-0.205806
0.150045
-0.207437
0.142054
-0.212451
0.132196
-0.214345
0.125626
-0.197994
0.12598
-0.133773
0.133178
-0.0456844
0.143273
0.0598269
0.151312
0.138547
0.153423
0.209063
0.149116
0.265859
0.142362
0.285476
0.138042
0.265334
0.139115
0.133425
0.144644
0.0280901
0.148499
-0.112476
0.147523
-0.181973
0.143277
-0.244202
0.141038
-0.322827
0.141314
-0.198794
0.141249
-0.183325
0.139505
0.0687059
0.213852
0.0693559
0.0237529
0.0755342
0.0182763
0.0815841
0.0104787
0.0873399
0.000249311
0.0926485
-0.0126781
0.0973817
-0.0280064
0.101493
-0.0457955
0.10487
-0.0652905
0.107344
-0.085202
0.108683
-0.103673
0.108653
-0.118677
0.107127
-0.12873
0.104169
-0.133437
0.0999427
-0.133423
0.0942215
-0.129934
0.0860797
-0.12509
0.075147
-0.12174
0.0635996
-0.120661
0.0560266
-0.117229
0.0564583
-0.102829
0.0654654
-0.0714894
0.0805307
-0.0254564
0.0980559
0.027389
0.114914
0.0769159
0.129146
0.116661
0.139882
0.144209
0.146742
0.161922
0.149535
0.177251
0.148847
0.196879
0.146417
0.216211
0.144444
0.215846
0.144281
0.176399
0.14607
0.0951899
0.149346
-0.00629338
0.152617
-0.0984509
0.154377
-0.161351
0.154224
-0.194311
0.152561
-0.204143
0.148366
-0.203242
0.14045
-0.204535
0.130492
-0.204387
0.123598
-0.1911
0.123901
-0.134076
0.131624
-0.053407
0.142575
0.0488763
0.151407
0.129715
0.154269
0.206201
0.150587
0.269541
0.144281
0.291782
0.139838
0.269777
0.140304
0.132959
0.145422
0.0229725
0.149166
-0.11622
0.148216
-0.181023
0.143695
-0.239682
0.141331
-0.320463
0.141565
-0.199027
0.14134
-0.183101
0.139443
0.0706027
0.215926
0.0933673
0.0176625
0.0993462
0.0122973
0.104972
0.00485282
0.110466
-0.00524432
0.11508
-0.0172919
0.118987
-0.0319136
0.122004
-0.0488128
0.123927
-0.0672135
0.124541
-0.0858154
0.123665
-0.102797
0.121248
-0.116261
0.117424
-0.124906
0.112468
-0.128481
0.106749
-0.127704
0.100479
-0.123663
0.093045
-0.117656
0.083192
-0.111887
0.0711087
-0.108577
0.0602305
-0.106351
0.0557453
-0.0983435
0.0606329
-0.076377
0.0735976
-0.0384211
0.0910835
0.00990301
0.109164
0.058835
0.125344
0.100482
0.13818
0.131374
0.146973
0.153129
0.151622
0.172603
0.152927
0.195573
0.152468
0.216671
0.151814
0.2165
0.151713
0.1765
0.15244
0.0944637
0.153938
-0.00779203
0.155327
-0.0998396
0.155389
-0.161413
0.153752
-0.192674
0.151088
-0.201479
0.146662
-0.198816
0.139028
-0.196901
0.129195
-0.194554
0.122026
-0.183931
0.12212
-0.13417
0.130113
-0.0614002
0.141773
0.037216
0.1514
0.120088
0.155135
0.202467
0.152236
0.27244
0.146488
0.29753
0.141934
0.274331
0.141726
0.133167
0.146298
0.0184004
0.149899
-0.11982
0.148993
-0.180117
0.144169
-0.234858
0.141619
-0.317913
0.141859
-0.199267
0.141543
-0.182784
0.139525
0.0726204
0.21805
0.114884
0.0116646
0.120635
0.00654667
0.126183
-0.000694868
0.131112
-0.0101738
0.135175
-0.021355
0.138292
-0.0350301
0.140197
-0.0507183
0.140615
-0.0676309
0.13932
-0.0845205
0.13623
-0.0997076
0.131504
-0.111534
0.125549
-0.118951
0.118881
-0.121814
0.111962
-0.120785
0.105144
-0.116846
0.0983013
-0.110813
0.0902446
-0.103831
0.079689
-0.0980219
0.0678459
-0.0945075
0.059334
-0.0898315
0.059147
-0.0761901
0.0684587
-0.0477327
0.0846556
-0.00629393
0.103196
0.0402951
0.120868
0.0828098
0.135571
0.11667
0.146279
0.142421
0.152924
0.165958
0.1564
0.192098
0.158022
0.215049
0.158692
0.21583
0.158682
0.17651
0.158285
0.0948601
0.158078
-0.00758489
0.157618
-0.0993795
0.156067
-0.159862
0.153068
-0.189674
0.149464
-0.197875
0.144867
-0.19422
0.137679
-0.189712
0.128194
-0.185069
0.12084
-0.176577
0.120572
-0.133902
0.128595
-0.0694234
0.140797
0.0250144
0.151222
0.109662
0.155954
0.197735
0.153998
0.274396
0.148924
0.302604
0.144295
0.27896
0.143351
0.13411
0.14727
0.0144814
0.15067
-0.12322
0.149833
-0.17928
0.144693
-0.229719
0.141893
-0.315112
0.14218
-0.199555
0.14184
-0.182444
0.139738
0.074722
0.220206
0.135606
0.00620184
0.140777
0.00137574
0.145942
-0.00586065
0.150017
-0.0142487
0.153196
-0.0245337
0.155195
-0.0370297
0.155672
-0.0511952
0.154327
-0.0662859
0.150993
-0.0811864
0.145733
-0.0944471
0.13891
-0.104711
0.13114
-0.111181
0.123114
-0.113788
0.115366
-0.113037
0.10821
-0.10969
0.101736
-0.104338
0.0953082
-0.097403
0.0873217
-0.0900354
0.076938
-0.0841238
0.0666143
-0.0795078
0.0616513
-0.0712271
0.0660102
-0.0520916
0.0790961
-0.0193799
0.0970125
0.0223787
0.115521
0.0643009
0.131772
0.100419
0.144321
0.129872
0.153038
0.157241
0.158794
0.186342
0.162549
0.211293
0.164588
0.213791
0.16475
0.176348
0.163414
0.0961958
0.161638
-0.00580908
0.159412
-0.0971533
0.156345
-0.156796
0.152128
-0.185458
0.147658
-0.193405
0.142918
-0.189479
0.136293
-0.183087
0.127357
-0.176133
0.119935
-0.169155
0.119198
-0.133165
0.126999
-0.0772244
0.139571
0.012442
0.150793
0.09844
0.156644
0.191884
0.15579
0.27525
0.151508
0.306886
0.146845
0.283623
0.145158
0.135798
0.148316
0.0113232
0.151451
-0.126355
0.150712
-0.178541
0.14526
-0.224266
0.142145
-0.311998
0.142512
-0.199921
0.142213
-0.182145
0.140071
0.0768648
0.222371
0.156675
0.00220931
0.160993
-0.00294262
0.164555
-0.00942294
0.167163
-0.0168561
0.168799
-0.0261697
0.169093
-0.0373236
0.167672
-0.0497749
0.164288
-0.0629014
0.15888
-0.0757781
0.151664
-0.0872312
0.143165
-0.0962121
0.134105
-0.102121
0.125212
-0.104896
0.117033
-0.104857
0.109821
-0.102479
0.103645
-0.0981621
0.0982972
-0.0920551
0.0927126
-0.0844508
0.0852214
-0.0766326
0.0758005
-0.070087
0.0679949
-0.0634215
0.0670469
-0.0511436
0.0753711
-0.027704
0.0909243
0.00682545
0.109219
0.0460062
0.126533
0.0831054
0.140789
0.115616
0.151605
0.146425
0.159686
0.17826
0.165602
0.205378
0.169023
0.21037
0.16946
0.175911
0.167511
0.0981449
0.16445
-0.00274803
0.160613
-0.0933158
0.15615
-0.152333
0.150877
-0.180184
0.145631
-0.188159
0.140747
-0.184596
0.134756
-0.177096
0.126537
-0.167915
0.11918
-0.161798
0.11791
-0.131895
0.125254
-0.0845687
0.138021
-0.000325097
0.150028
0.0864336
0.157105
0.184807
0.157501
0.274854
0.154136
0.310252
0.14951
0.288248
0.147105
0.138203
0.149399
0.00902942
0.152209
-0.129165
0.1516
-0.177932
0.145856
-0.218522
0.142373
-0.308515
0.142843
-0.200392
0.142645
-0.181948
0.140508
0.0790015
0.224517
0.176719
9.12517e-06
0.178833
-0.00505682
0.18025
-0.0108398
0.180811
-0.0174179
0.180379
-0.0257376
0.178559
-0.035503
0.17503
-0.0462461
0.169648
-0.0575192
0.162466
-0.0685966
0.153813
-0.0785777
0.144278
-0.0866778
0.134582
-0.0924246
0.125388
-0.0957018
0.11717
-0.0966399
0.110145
-0.0954531
0.104322
-0.0923395
0.0996302
-0.0873629
0.0956395
-0.0804601
0.0910392
-0.0720323
0.0844153
-0.0634631
0.0766525
-0.0556587
0.0719124
-0.0464035
0.0746959
-0.0304876
0.0859323
-0.00441093
0.102365
0.0295739
0.119838
0.0656323
0.135465
0.0999892
0.148333
0.133557
0.158803
0.16779
0.166934
0.197247
0.171774
0.20553
0.172629
0.175056
0.170315
0.100458
0.166346
0.00122085
0.16111
-0.0880797
0.155377
-0.1466
0.149216
-0.174023
0.143312
-0.182255
0.138275
-0.179559
0.132948
-0.171769
0.125591
-0.160558
0.118431
-0.154638
0.116608
-0.130071
0.123296
-0.0912564
0.136082
-0.0131115
0.148837
0.0736781
0.157237
0.176407
0.159027
0.273064
0.156693
0.312586
0.152184
0.292757
0.149117
0.14127
0.150514
0.00763249
0.152913
-0.131564
0.152464
-0.177483
0.146469
-0.212527
0.142571
-0.304617
0.143162
-0.200982
0.143118
-0.181903
0.14104
0.0810791
0.226609
0.19045
-0.000543358
0.190506
-0.00511264
0.189733
-0.0100666
0.188238
-0.0159227
0.185792
-0.0232922
0.182032
-0.0317429
0.176755
-0.0409693
0.169914
-0.0506775
0.161638
-0.060321
0.152299
-0.0692382
0.142461
-0.0768404
0.132758
-0.0827212
0.123741
-0.0866851
0.115791
-0.08869
0.109094
-0.0887557
0.103669
-0.0869147
0.0994636
-0.0831575
0.096364
-0.0773605
0.0937825
-0.0694509
0.0903208
-0.0600014
0.0849854
-0.0503233
0.0794068
-0.0408249
0.0778212
-0.028902
0.0836179
-0.0102076
0.0962253
0.0169664
0.112318
0.0495396
0.128511
0.0837961
0.143123
0.118945
0.155849
0.155064
0.166171
0.186925
0.172596
0.199105
0.17412
0.173532
0.171816
0.102762
0.167292
0.00574455
0.16087
-0.0816579
0.153962
-0.139691
0.147064
-0.167125
0.140651
-0.175842
0.135447
-0.174356
0.130773
-0.167095
0.124402
-0.154187
0.117573
-0.147808
0.115192
-0.12769
0.121055
-0.0971201
0.133698
-0.0257541
0.147149
0.0602273
0.156928
0.166627
0.160219
0.269773
0.159043
0.313762
0.154763
0.297037
0.151164
0.144868
0.151599
0.00719823
0.153537
-0.133502
0.15327
-0.177216
0.147088
-0.206344
0.142748
-0.300278
0.143467
-0.201701
0.143614
-0.18205
0.141654
0.0830384
0.228609
0.194124
-0.000201052
0.192858
-0.003847
0.190706
-0.00791484
0.187903
-0.0131195
0.184176
-0.019565
0.179281
-0.026848
0.173127
-0.0348153
0.165719
-0.0432694
0.157222
-0.0518239
0.147991
-0.0600079
0.138514
-0.0673632
0.129304
-0.0735108
0.120798
-0.0781793
0.113299
-0.081191
0.10697
-0.0824272
0.101868
-0.0818121
0.0979797
-0.0792695
0.095293
-0.0746738
0.0937175
-0.0678754
0.0925507
-0.0588346
0.0903979
-0.0481705
0.0867243
-0.0371513
0.0836448
-0.0258225
0.0850087
-0.0115715
0.0925919
0.0093832
0.10544
0.0366915
0.120731
0.0685052
0.136347
0.103329
0.151213
0.140198
0.163866
0.174272
0.171807
0.191164
0.174026
0.171313
0.172359
0.104429
0.167325
0.0107784
0.16014
-0.0744728
0.152146
-0.131698
0.144629
-0.159608
0.137845
-0.169058
0.13243
-0.168941
0.128291
-0.162955
0.122967
-0.148863
0.116588
-0.14143
0.113635
-0.124737
0.118496
-0.10198
0.13082
-0.0380781
0.14487
0.0461769
0.156115
0.155382
0.161037
0.264851
0.161085
0.313713
0.157136
0.300987
0.153191
0.148813
0.152656
0.00773356
0.154079
-0.134926
0.153999
-0.177136
0.147703
-0.200048
0.142922
-0.295497
0.143761
-0.20254
0.14412
-0.182409
0.142342
0.0848163
0.230473
0.187952
0.000588589
0.186168
-0.00206273
0.183781
-0.00552803
0.180736
-0.0100749
0.176752
-0.0155804
0.171779
-0.0218756
0.165794
-0.02883
0.158819
-0.0362945
0.151018
-0.0440225
0.142692
-0.0516818
0.134228
-0.0588996
0.126025
-0.0653077
0.118422
-0.070576
0.111662
-0.0744309
0.105886
-0.0766515
0.101157
-0.0770829
0.0974968
-0.0756095
0.0949236
-0.0721006
0.0934922
-0.066444
0.0931183
-0.0584607
0.0930245
-0.0480766
0.0919656
-0.0360925
0.0899319
-0.0237887
0.0890729
-0.0107126
0.0925127
0.00594337
0.101047
0.0281576
0.113548
0.0560038
0.128326
0.0885507
0.144012
0.124512
0.158337
0.159947
0.168038
0.181463
0.172073
0.167278
0.171702
0.1048
0.167201
0.0152799
0.158978
-0.0662502
0.150078
-0.122797
0.142144
-0.151674
0.135147
-0.162061
0.129468
-0.163262
0.125649
-0.159136
0.12133
-0.144544
0.115511
-0.135611
0.11198
-0.121206
0.115791
-0.105791
0.127555
-0.049842
0.142026
0.0317065
0.15457
0.142838
0.161196
0.258225
0.162625
0.312285
0.159205
0.304406
0.155088
0.152931
0.153683
0.0091379
0.154527
-0.13577
0.154635
-0.177244
0.148304
-0.193716
0.143099
-0.290293
0.144034
-0.203475
0.144635
-0.18301
0.143097
0.0863544
0.232156
0.209327
0.00126882
-0.210008
0.209384
-0.00211956
0.20942
-0.00556376
0.209133
-0.00978765
0.208386
-0.0148333
0.20705
-0.0205402
0.205014
-0.026794
0.202168
-0.0334483
0.198451
-0.0403057
0.19388
-0.047111
0.188541
-0.0535604
0.182566
-0.0593323
0.176108
-0.0641183
0.169329
-0.067652
0.162386
-0.0697082
0.155422
-0.0701188
0.148567
-0.0687548
0.141931
-0.0654641
0.135619
-0.0601317
0.129794
-0.0526365
0.124389
-0.0426712
0.118679
-0.030383
0.111891
-0.0169999
0.104706
-0.0035274
0.0988335
0.0118154
0.0963471
0.0306441
0.0979058
0.0544451
0.10307
0.0833867
0.111084
0.116498
0.121208
0.149822
0.134159
0.168512
0.151331
0.150107
0.169429
0.0867018
0.181139
0.00356962
0.184843
-0.069954
0.181622
-0.119576
0.174743
-0.144795
0.166202
-0.15352
0.157544
-0.154605
0.150101
-0.151693
0.142634
-0.137076
0.133743
-0.12672
0.125978
-0.113442
0.123365
-0.103179
0.126821
-0.0532979
0.132118
0.0264088
0.136158
0.138799
0.138228
0.256155
0.140504
0.310009
0.143959
0.300951
0.148223
0.148667
0.151957
0.00540338
0.154356
-0.138169
0.153397
-0.176285
0.1466
-0.186919
0.139035
-0.282728
0.136651
-0.20109
0.133923
-0.180283
0.130347
0.0899307
0.233823
0.219272
0.00159111
-0.219594
0.218986
-0.00183311
0.218827
-0.0054055
0.218401
-0.00936118
0.21748
-0.0139125
0.215982
-0.0190417
0.213822
-0.024634
0.210922
-0.0305483
0.207235
-0.0366188
0.202764
-0.0426406
0.19757
-0.0483656
0.191758
-0.0535208
0.185472
-0.0578318
0.178872
-0.0610521
0.172126
-0.0629622
0.16539
-0.0633832
0.158806
-0.0621708
0.152497
-0.0591548
0.146548
-0.0541833
0.14108
-0.0471679
0.136221
-0.0378126
0.131691
-0.0258524
0.126661
-0.0119698
0.120524
0.00260961
0.114463
0.0178756
0.110294
0.0348138
0.109844
0.054895
0.113811
0.0794196
0.12179
0.108519
0.133198
0.138414
0.148864
0.152846
0.168371
0.1306
0.186547
0.0685254
0.197432
-0.00731554
0.199181
-0.0717025
0.194266
-0.114661
0.186129
-0.136657
0.176845
-0.144236
0.167581
-0.145341
0.159731
-0.143843
0.152345
-0.12969
0.143605
-0.11798
0.135312
-0.105149
0.131871
-0.0997377
0.134867
-0.0562939
0.140373
0.0209035
0.14503
0.134141
0.147975
0.25321
0.151405
0.306579
0.155885
0.296472
0.160594
0.143957
0.164193
0.00180453
0.165851
-0.139827
0.164506
-0.17494
0.156878
-0.17929
0.148343
-0.274193
0.14556
-0.198308
0.14263
-0.177352
0.138796
0.093764
0.235558
0.228541
0.00162398
-0.228574
0.228311
-0.00160341
0.227983
-0.00507726
0.2274
-0.00877817
0.22638
-0.0128923
0.224811
-0.0174733
0.222626
-0.0224487
0.21977
-0.0276918
0.216206