/*--------------------------------*- C++ -*----------------------------------*\
| =========                 |                                                 |
| \\      /  F ield         | OpenFOAM: The Open Source CFD Toolbox           |
|  \\    /   O peration     | Version:  2512                                  |
|   \\  /    A nd           | Website:  www.openfoam.com                      |
|    \\/     M anipulation  |                                                 |
\*---------------------------------------------------------------------------*/
FoamFile
{
    version     2.0;
    format      ascii;
    arch        "LSB;label=32;scalar=64";
    class       volScalarField;
    location    "135.5";
    object      p;
}
// * * * * * * * * * * * * * * * * * * * * * * * * * * * * * * * * * * * * * //

dimensions      [0 2 -2 0 0 0 0];

internalField   nonuniform List<scalar> 
13248
(
-0.304124
-0.303476
-0.301789
-0.299248
-0.295993
-0.29208
-0.287551
-0.282455
-0.276862
-0.270864
-0.264576
-0.258131
-0.251666
-0.245317
-0.239198
-0.233396
-0.227956
-0.222887
-0.218155
-0.213723
-0.209446
-0.205368
-0.200859
-0.196418
-0.311784
-0.310157
-0.307701
-0.304548
-0.300787
-0.296475
-0.29164
-0.286302
-0.280494
-0.274269
-0.267704
-0.260895
-0.253952
-0.246982
-0.240082
-0.233323
-0.226751
-0.220385
-0.214216
-0.208214
-0.202307
-0.196439
-0.190372
-0.184501
-0.321025
-0.318261
-0.314889
-0.310995
-0.306612
-0.301789
-0.296526
-0.290797
-0.284582
-0.277885
-0.270749
-0.263249
-0.255488
-0.247578
-0.239632
-0.231745
-0.223994
-0.21643
-0.209074
-0.201927
-0.194932
-0.188081
-0.181189
-0.174598
-0.331838
-0.327803
-0.323403
-0.318669
-0.313559
-0.308094
-0.302226
-0.295864
-0.28893
-0.281395
-0.273294
-0.26472
-0.255812
-0.246723
-0.237607
-0.228597
-0.219793
-0.21126
-0.203027
-0.195087
-0.187404
-0.179965
-0.172633
-0.165776
-0.344265
-0.338849
-0.333346
-0.327702
-0.321757
-0.315477
-0.308742
-0.301395
-0.293325
-0.284514
-0.275043
-0.265074
-0.25481
-0.244461
-0.234214
-0.224211
-0.21455
-0.205279
-0.196409
-0.187924
-0.179789
-0.171978
-0.164401
-0.157314
-0.358329
-0.35145
-0.3448
-0.338187
-0.33127
-0.323919
-0.315941
-0.307145
-0.297448
-0.286914
-0.275732
-0.264158
-0.252464
-0.24089
-0.229621
-0.218779
-0.208427
-0.198584
-0.18924
-0.180361
-0.17191
-0.163849
-0.156112
-0.148877
-0.373945
-0.365555
-0.357738
-0.350074
-0.34197
-0.333176
-0.323462
-0.312679
-0.300868
-0.288247
-0.275139
-0.261891
-0.248807
-0.236113
-0.223957
-0.212412
-0.201501
-0.191209
-0.181502
-0.172335
-0.163662
-0.155436
-0.147615
-0.140276
-0.390841
-0.380942
-0.371943
-0.363089
-0.353472
-0.342743
-0.330723
-0.317427
-0.303107
-0.288176
-0.273079
-0.258206
-0.24384
-0.230156
-0.217238
-0.205105
-0.193735
-0.183084
-0.173099
-0.163723
-0.154903
-0.146587
-0.138741
-0.131354
-0.408509
-0.397168
-0.386957
-0.376687
-0.365115
-0.351881
-0.336998
-0.320766
-0.303709
-0.286417
-0.269405
-0.25304
-0.23754
-0.223002
-0.20944
-0.196819
-0.185079
-0.17415
-0.163964
-0.154453
-0.145554
-0.137216
-0.129399
-0.122021
-0.426191
-0.413531
-0.402041
-0.39003
-0.37598
-0.359677
-0.34149
-0.322092
-0.302271
-0.282732
-0.263978
-0.246305
-0.229835
-0.21458
-0.200486
-0.187473
-0.17545
-0.164326
-0.154015
-0.144441
-0.135532
-0.127233
-0.119484
-0.112168
-0.44289
-0.429068
-0.416175
-0.40201
-0.384941
-0.365103
-0.343358
-0.320771
-0.298329
-0.276761
-0.256497
-0.23772
-0.220449
-0.204615
-0.190109
-0.176811
-0.164602
-0.153376
-0.143031
-0.133479
-0.124642
-0.116454
-0.108825
-0.101645
-0.457469
-0.442683
-0.428231
-0.411462
-0.39086
-0.367126
-0.341706
-0.316027
-0.291183
-0.267845
-0.246318
-0.226655
-0.208771
-0.192525
-0.177756
-0.164309
-0.152045
-0.140837
-0.130574
-0.121157
-0.112504
-0.104536
-0.0971376
-0.090249
-0.341989
-0.344647
-0.346156
-0.347075
-0.347882
-0.348696
-0.34954
-0.3504
-0.351235
-0.351972
-0.352544
-0.352868
-0.352848
-0.352386
-0.351394
-0.349797
-0.347544
-0.344624
-0.341083
-0.337033
-0.332653
-0.32818
-0.323965
-0.320589
-0.330435
-0.333107
-0.334493
-0.335124
-0.335461
-0.335614
-0.335605
-0.335426
-0.335046
-0.334425
-0.333502
-0.332226
-0.330552
-0.328448
-0.325901
-0.322931
-0.319598
-0.316008
-0.312324
-0.308772
-0.30563
-0.30318
-0.301782
-0.302259
-0.320414
-0.322943
-0.32414
-0.324481
-0.324382
-0.323935
-0.32316
-0.322059
-0.320612
-0.318793
-0.316574
-0.313937
-0.310881
-0.307431
-0.303644
-0.299619
-0.295502
-0.291487
-0.287817
-0.284785
-0.282729
-0.281951
-0.282648
-0.28579
-0.31196
-0.314252
-0.315228
-0.315293
-0.314804
-0.313831
-0.312391
-0.310492
-0.30813
-0.3053
-0.302001
-0.29825
-0.294089
-0.289591
-0.28487
-0.280086
-0.275447
-0.271204
-0.267645
-0.265094
-0.263897
-0.264359
-0.266641
-0.271399
-0.305005
-0.307035
-0.307787
-0.307596
-0.306759
-0.305326
-0.303311
-0.300727
-0.297588
-0.29391
-0.289723
-0.285077
-0.28005
-0.274759
-0.26936
-0.264049
-0.259082
-0.254737
-0.251324
-0.249169
-0.248595
-0.249903
-0.253277
-0.258662
-0.299461
-0.301256
-0.301797
-0.301366
-0.30021
-0.298363
-0.295837
-0.292654
-0.288844
-0.28445
-0.279528
-0.27416
-0.268458
-0.262572
-0.256691
-0.251043
-0.245896
-0.241544
-0.238299
-0.236471
-0.236349
-0.238148
-0.242296
-0.247629
-0.295284
-0.296896
-0.297243
-0.296576
-0.295115
-0.292883
-0.289893
-0.286179
-0.281789
-0.276787
-0.27126
-0.26532
-0.25911
-0.252806
-0.246623
-0.240809
-0.235641
-0.231414
-0.228419
-0.226934
-0.227235
-0.229274
-0.234025
-0.238723
-0.292512
-0.293979
-0.294139
-0.293234
-0.291474
-0.288882
-0.285477
-0.281305
-0.276431
-0.270945
-0.264959
-0.258613
-0.252077
-0.245554
-0.239278
-0.233508
-0.228519
-0.224591
-0.221991
-0.220913
-0.221659
-0.223727
-0.228851
-0.232496
-0.291268
-0.292582
-0.292538
-0.291385
-0.289335
-0.286419
-0.282667
-0.278135
-0.272907
-0.267093
-0.26083
-0.25428
-0.247637
-0.241122
-0.234975
-0.229456
-0.22482
-0.221309
-0.21914
-0.218393
-0.219393
-0.22124
-0.226086
-0.228672
-0.291716
-0.292798
-0.292503
-0.291084
-0.288759
-0.285569
-0.281554
-0.27678
-0.271351
-0.265385
-0.259034
-0.252477
-0.245918
-0.239579
-0.233694
-0.228495
-0.224199
-0.220986
-0.219004
-0.218255
-0.218972
-0.220323
-0.22398
-0.225629
-0.293993
-0.294697
-0.294064
-0.292342
-0.289742
-0.286316
-0.282113
-0.277205
-0.271687
-0.265694
-0.259379
-0.252921
-0.246517
-0.240373
-0.234694
-0.229665
-0.225441
-0.222133
-0.2198
-0.218434
-0.218091
-0.218438
-0.220267
-0.221068
-0.298149
-0.29828
-0.297185
-0.295088
-0.292178
-0.288514
-0.284143
-0.279133
-0.273578
-0.267597
-0.261335
-0.254953
-0.248626
-0.242529
-0.23682
-0.231629
-0.227045
-0.223108
-0.219804
-0.21711
-0.214928
-0.213328
-0.212482
-0.212187
-0.31812
-0.317483
-0.320167
-0.326403
-0.335912
-0.347566
-0.35943
-0.36892
-0.372934
-0.3686
-0.353318
-0.325934
-0.287977
-0.244147
-0.200928
-0.164053
-0.136809
-0.119886
-0.112363
-0.113382
-0.123229
-0.141591
-0.163783
-0.180205
-0.181348
-0.16581
-0.139981
-0.113112
-0.0916565
-0.0782379
-0.0724143
-0.0728871
-0.0803904
-0.0967336
-0.118227
-0.133768
-0.132641
-0.116335
-0.0940691
-0.0751153
-0.0625329
-0.0559121
-0.0562673
-0.0641029
-0.0724513
-0.0732505
-0.0662449
-0.0564419
-0.0483281
-0.0434156
-0.0420476
-0.04385
-0.0442358
-0.0411962
-0.0375467
-0.0309371
-0.0209333
-0.0159542
-0.0113321
-0.0050663
-0.306023
-0.312788
-0.32303
-0.33656
-0.352578
-0.369553
-0.385311
-0.397223
-0.402329
-0.397705
-0.380802
-0.350476
-0.308434
-0.259857
-0.211799
-0.170329
-0.138752
-0.117655
-0.106058
-0.102914
-0.108118
-0.121583
-0.139873
-0.154881
-0.157633
-0.146412
-0.125584
-0.103265
-0.0855927
-0.0753812
-0.0723075
-0.0753153
-0.0856082
-0.105002
-0.129124
-0.145863
-0.143968
-0.125229
-0.099958
-0.0779659
-0.0627862
-0.0538687
-0.0518478
-0.0572704
-0.0637278
-0.0644693
-0.0589627
-0.0518219
-0.0460126
-0.0434644
-0.0445026
-0.0480676
-0.0495564
-0.0455531
-0.0409701
-0.0328053
-0.0210573
-0.0148689
-0.00916204
-0.00391785
-0.294833
-0.307051
-0.322597
-0.34109
-0.361377
-0.381716
-0.399866
-0.413264
-0.419125
-0.414496
-0.396815
-0.364885
-0.320494
-0.269083
-0.218012
-0.173509
-0.138849
-0.114444
-0.0992433
-0.092069
-0.0926114
-0.100996
-0.115026
-0.128286
-0.133216
-0.125277
-0.109358
-0.0916599
-0.0779157
-0.0710603
-0.070821
-0.076396
-0.0893636
-0.111489
-0.137922
-0.155832
-0.153478
-0.132772
-0.104894
-0.0801733
-0.0626137
-0.0516103
-0.0474202
-0.0505969
-0.0552707
-0.0559156
-0.0517123
-0.0470348
-0.0434249
-0.0433223
-0.0469139
-0.0523267
-0.0548728
-0.0497716
-0.0441668
-0.0345231
-0.0211349
-0.0137922
-0.00704057
-0.00280647
-0.283812
-0.299525
-0.318112
-0.33931
-0.361869
-0.383942
-0.403252
-0.41741
-0.423783
-0.419385
-0.401597
-0.369259
-0.324212
-0.271959
-0.219851
-0.174024
-0.13757
-0.110816
-0.0926995
-0.0820236
-0.0782392
-0.08159
-0.0910286
-0.101832
-0.107363
-0.103129
-0.0919321
-0.0787155
-0.0688531
-0.0653074
-0.0678003
-0.0757744
-0.0910952
-0.115571
-0.144088
-0.163279
-0.160879
-0.138758
-0.108759
-0.0817207
-0.0620756
-0.049237
-0.0431376
-0.0442945
-0.0473108
-0.0477868
-0.0446307
-0.0421605
-0.040594
-0.0429618
-0.0492128
-0.0565523
-0.0601147
-0.0538012
-0.0470961
-0.0360589
-0.0211604
-0.0127379
-0.00498544
-0.00173966
-0.272814
-0.290271
-0.309991
-0.332033
-0.355241
-0.377756
-0.3975
-0.411581
-0.418153
-0.413943
-0.396482
-0.364701
-0.320549
-0.269417
-0.218256
-0.172718
-0.13563
-0.107356
-0.0869775
-0.073364
-0.0658664
-0.064572
-0.0692908
-0.0770242
-0.0823723
-0.0809355
-0.0739331
-0.0648334
-0.0586123
-0.0581236
-0.0631035
-0.0731832
-0.0904583
-0.116878
-0.147253
-0.167829
-0.165889
-0.14305
-0.111514
-0.0826385
-0.0612511
-0.0468482
-0.0391061
-0.0384942
-0.0400128
-0.0402461
-0.0378489
-0.0372767
-0.0375435
-0.0423479
-0.0513179
-0.0606453
-0.0651868
-0.0575874
-0.0497185
-0.0373853
-0.0211291
-0.0117177
-0.00301221
-0.000723828
-0.262452
-0.280266
-0.299556
-0.320972
-0.34352
-0.365323
-0.385296
-0.398451
-0.404374
-0.400091
-0.383212
-0.352816
-0.310939
-0.26264
-0.214115
-0.170272
-0.133589
-0.104533
-0.0824769
-0.0664767
-0.0558648
-0.0505859
-0.050816
-0.055055
-0.0593852
-0.0596658
-0.0559846
-0.0504531
-0.0474548
-0.0496304
-0.0567683
-0.0686082
-0.0873892
-0.115247
-0.147197
-0.16923
-0.168348
-0.145571
-0.113141
-0.0829539
-0.0602002
-0.0445104
-0.0353871
-0.0332666
-0.0334786
-0.0334128
-0.0314839
-0.0324531
-0.0343007
-0.0414446
-0.0531334
-0.0644927
-0.0699913
-0.061077
-0.0520014
-0.0384759
-0.0210331
-0.0107396
-0.00113371
0.000237108
-0.253721
-0.270689
-0.288168
-0.307808
-0.328608
-0.348525
-0.365029
-0.378784
-0.384138
-0.379752
-0.363732
-0.335514
-0.297139
-0.253047
-0.208429
-0.167332
-0.131885
-0.102683
-0.0794615
-0.0615738
-0.0484215
-0.0398342
-0.0360735
-0.0367023
-0.0393138
-0.0409791
-0.038756
-0.0361446
-0.035803
-0.0401415
-0.049027
-0.0622105
-0.0819638
-0.110693
-0.143861
-0.167434
-0.168165
-0.146278
-0.11364
-0.0826877
-0.0589617
-0.0422639
-0.0320057
-0.0286236
-0.0277353
-0.027354
-0.0256299
-0.0277592
-0.0309033
-0.0402149
-0.0545604
-0.0679804
-0.0744264
-0.0642184
-0.0539185
-0.039312
-0.0208655
-0.00980561
0.000641182
0.00114172
-0.246976
-0.26182
-0.276425
-0.293453
-0.311651
-0.329637
-0.344442
-0.355232
-0.359247
-0.354714
-0.339944
-0.314699
-0.280803
-0.241853
-0.201922
-0.164229
-0.130617
-0.101817
-0.0779115
-0.0586098
-0.0434672
-0.0322462
-0.0251457
-0.0223006
-0.0225475
-0.0235216
-0.022829
-0.0225353
-0.0241634
-0.0300689
-0.0401994
-0.0542661
-0.0744744
-0.10347
-0.137439
-0.162626
-0.165327
-0.145151
-0.11303
-0.0818591
-0.0575616
-0.0401351
-0.02897
-0.0245525
-0.022758
-0.0220792
-0.0203569
-0.0232634
-0.0273991
-0.0386294
-0.0555056
-0.0709867
-0.0783815
-0.066969
-0.0554516
-0.0398885
-0.0206295
-0.00892146
0.0023076
0.00199125
-0.241193
-0.252523
-0.263808
-0.277955
-0.293684
-0.307449
-0.320141
-0.32839
-0.331227
-0.326806
-0.313847
-0.292257
-0.263435
-0.230035
-0.195074
-0.161063
-0.129646
-0.101693
-0.0775713
-0.0573149
-0.0406999
-0.0274835
-0.0177484
-0.0118224
-0.00943187
-0.00914889
-0.00886791
-0.0101273
-0.0130071
-0.0198455
-0.0306662
-0.0451032
-0.065224
-0.0940154
-0.128434
-0.155126
-0.160021
-0.142329
-0.111447
-0.0806025
-0.0561216
-0.0382235
-0.0263247
-0.0210544
-0.018526
-0.0175707
-0.0156935
-0.0190378
-0.0238434
-0.0366551
-0.0558877
-0.0734002
-0.0817608
-0.0692921
-0.0565946
-0.0402128
-0.0203409
-0.00811167
0.00385775
0.00278974
-0.234362
-0.241411
-0.249707
-0.260523
-0.272088
-0.283971
-0.2936
-0.300118
-0.302255
-0.298502
-0.287939
-0.270408
-0.246797
-0.21888
-0.188791
-0.158486
-0.129458
-0.102697
-0.0787723
-0.0579572
-0.0402607
-0.0255217
-0.0137277
-0.00519852
-0.000158121
0.00182946
0.00155711
0.000740275
-0.00266169
-0.00984176
-0.0208142
-0.0352086
-0.054932
-0.0830058
-0.117313
-0.145374
-0.152556
-0.13811
-0.109184
-0.079216
-0.0548928
-0.0367272
-0.0241718
-0.0181226
-0.0150019
-0.0138495
-0.0117462
-0.015123
-0.0202927
-0.034312
-0.0556312
-0.0751206
-0.0844651
-0.0711612
-0.0573564
-0.0402796
-0.0200005
-0.00739578
0.00527237
0.003542
-0.225337
-0.229183
-0.235651
-0.243399
-0.25153
-0.259717
-0.2673
-0.272722
-0.274666
-0.272113
-0.264277
-0.250867
-0.232293
-0.209597
-0.184193
-0.157565
-0.131043
-0.105677
-0.0822051
-0.0610879
-0.0425441
-0.0265733
-0.0131391
-0.00244958
0.0051285
0.00936248
0.0106585
0.0099141
0.00653653
-0.000380271
-0.01091
-0.0246834
-0.0435314
-0.0708831
-0.105305
-0.134116
-0.143633
-0.132279
-0.105978
-0.0774612
-0.0536354
-0.0354474
-0.0223734
-0.0155746
-0.0119342
-0.0107855
-0.00860345
-0.011635
-0.0167876
-0.0314885
-0.054726
-0.076135
-0.0863558
-0.0724759
-0.0577132
-0.0400139
-0.0195409
-0.0067137
0.00655438
0.00425189
-0.21452
-0.218091
-0.222384
-0.226191
-0.230338
-0.236606
-0.241943
-0.245777
-0.247263
-0.245518
-0.239835
-0.229814
-0.215469
-0.197273
-0.176079
-0.152968
-0.129085
-0.105477
-0.0829842
-0.0622081
-0.0435044
-0.0270343
-0.0128443
-0.000986022
0.00840626
0.0148166
0.0177864
0.0173174
0.0144221
0.00798729
-0.00179422
-0.014786
-0.0325667
-0.0584738
-0.0917387
-0.120805
-0.129034
-0.123276
-0.100135
-0.0735065
-0.0506926
-0.0330358
-0.0200364
-0.0128795
-0.00885052
-0.00775635
-0.00571601
-0.00843338
-0.0135877
-0.0284467
-0.0530827
-0.0762337
-0.087456
-0.0730445
-0.0575404
-0.03929
-0.0188327
-0.0059318
0.00780117
0.00493814
-0.203841
-0.211349
-0.21423
-0.216241
-0.219563
-0.22294
-0.22673
-0.229464
-0.229985
-0.227564
-0.221664
-0.211968
-0.198494
-0.181638
-0.162121
-0.14086
-0.118833
-0.0969449
-0.0759233
-0.0562976
-0.0383904
-0.0223701
-0.00831294
0.00371865
0.0136794
0.0211689
0.0255847
0.0270957
0.0237707
0.018057
0.00959853
-0.00201656
-0.0190255
-0.0456685
-0.0817149
-0.114617
-0.133924
-0.117565
-0.0936823
-0.0678152
-0.0460909
-0.0293267
-0.0169236
-0.0100197
-0.00591939
-0.00461824
-0.00201213
-0.00412567
-0.00910111
-0.0242169
-0.0507275
-0.0762047
-0.0889589
-0.0735315
-0.0569376
-0.0382939
-0.0179678
-0.00509473
0.00901256
0.00558101
-0.191439
-0.201246
-0.203902
-0.204063
-0.204994
-0.207184
-0.209629
-0.210991
-0.210303
-0.207036
-0.200856
-0.191572
-0.179213
-0.164075
-0.146698
-0.127786
-0.108104
-0.0883752
-0.06921
-0.0510832
-0.0343046
-0.0190768
-0.00551985
0.0063285
0.0164874
0.0245529
0.0296929
0.0310929
0.0293498
0.0248667
0.0179166
0.00774685
-0.00838888
-0.0353755
-0.0726255
-0.105876
-0.120368
-0.107432
-0.0848672
-0.0610696
-0.0411945
-0.0258162
-0.0142044
-0.00750829
-0.00342145
-0.00215145
0.000551533
-0.00135163
-0.00581077
-0.0208204
-0.0484739
-0.0754499
-0.0890733
-0.0730455
-0.0555317
-0.0368645
-0.0169508
-0.004232
0.00995101
0.00602377
-0.178006
-0.188804
-0.191533
-0.190785
-0.190496
-0.191451
-0.192657
-0.192923
-0.191426
-0.187756
-0.18171
-0.173167
-0.162116
-0.148727
-0.133367
-0.116562
-0.0989162
-0.0810363
-0.0634576
-0.0466211
-0.0308402
-0.0163303
-0.00323433
0.00834797
0.0184189
0.0266858
0.0324407
0.034733
0.033817
0.0303242
0.0244947
0.0151825
-0.000725743
-0.0276067
-0.0634889
-0.0944843
-0.106999
-0.0960617
-0.0756657
-0.0542787
-0.0363106
-0.0223048
-0.0115093
-0.00510911
-0.00107087
0.000160854
0.00290668
0.000987165
-0.00332596
-0.0183045
-0.046353
-0.0737087
-0.0879149
-0.0718124
-0.053589
-0.0351067
-0.0157981
-0.00334451
0.0107342
0.00636276
-0.164729
-0.175341
-0.178247
-0.177276
-0.176214
-0.176163
-0.176451
-0.176006
-0.174059
-0.17025
-0.164445
-0.156568
-0.146601
-0.134647
-0.120971
-0.105978
-0.0901516
-0.0739918
-0.0579506
-0.0424159
-0.027683
-0.0139704
-0.00143042
0.00978296
0.0196271
0.0279091
0.034095
0.0372054
0.0373117
0.0350157
0.0304154
0.0219932
0.00639535
-0.0197061
-0.0534893
-0.0821641
-0.0931113
-0.0837964
-0.065958
-0.0472102
-0.0312796
-0.0187353
-0.00884903
-0.00282599
0.00114686
0.00238176
0.00515694
0.00324795
-0.00104564
-0.0158338
-0.0436002
-0.0708388
-0.0856432
-0.0698379
-0.0511617
-0.0329942
-0.0144848
-0.00243836
0.0113621
0.00661902
-0.151234
-0.161453
-0.164548
-0.163599
-0.162129
-0.161437
-0.1611
-0.160177
-0.157961
-0.154134
-0.148602
-0.141336
-0.132332
-0.121662
-0.10951
-0.096174
-0.082028
-0.0674721
-0.0528849
-0.0386074
-0.0249168
-0.0120361
-0.000121392
0.0106477
0.0201755
0.028302
0.034619
0.0384043
0.0395227
0.0384904
0.0353325
0.0282261
0.013441
-0.0116091
-0.0432984
-0.069185
-0.0784812
-0.0708621
-0.0559819
-0.040084
-0.0262501
-0.015177
-0.00624675
-0.000661684
0.00322702
0.00449852
0.00724675
0.00542179
0.00125502
-0.0129281
-0.0399279
-0.0668125
-0.0820618
-0.066981
-0.0482118
-0.0305321
-0.0130079
-0.00152571
0.0118165
0.0067782
-0.137718
-0.147594
-0.150795
-0.149962
-0.148348
-0.147291
-0.14654
-0.145304
-0.142961
-0.139228
-0.134035
-0.127383
-0.11928
-0.109773
-0.0989864
-0.0871352
-0.0745059
-0.0614221
-0.0482013
-0.0351415
-0.0224948
-0.0104801
0.000744609
0.0109915
0.0201291
0.0280045
0.034311
0.0384898
0.0403829
0.040412
0.0385705
0.0328482
0.0191742
-0.00433477
-0.0330992
-0.0555523
-0.0634911
-0.0578189
-0.0460825
-0.0330719
-0.021312
-0.0116738
-0.0037169
0.00138338
0.00515777
0.00650178
0.00918549
0.0075021
0.00358948
-0.00960531
-0.0354099
-0.0615338
-0.0770136
-0.0631455
-0.0447434
-0.0277524
-0.0113713
-0.00061574
0.0120823
0.00682526
-0.124761
-0.134045
-0.137228
-0.13656
-0.134961
-0.133729
-0.132741
-0.131346
-0.129003
-0.125457
-0.120656
-0.114612
-0.107342
-0.0988814
-0.089313
-0.0787944
-0.067545
-0.0558236
-0.043893
-0.0320097
-0.020399
-0.00926987
0.0012178
0.0108779
0.0195675
0.027123
0.0333016
0.0376632
0.0400551
0.0407825
0.039783
0.0350874
0.0228545
0.00198061
-0.0227939
-0.0417078
-0.0488331
-0.045262
-0.0365939
-0.026345
-0.0165652
-0.00828176
-0.00127817
0.00331338
0.00693931
0.00839558
0.0109965
0.00949426
0.00589958
-0.00602734
-0.0301036
-0.0549709
-0.0704865
-0.0582999
-0.0407897
-0.0247067
-0.00959075
0.000286183
0.0121519
0.00675372
-0.112384
-0.120909
-0.124017
-0.123541
-0.122061
-0.120796
-0.119714
-0.118282
-0.116029
-0.112732
-0.108347
-0.102895
-0.0963998
-0.0888882
-0.0804194
-0.0711075
-0.0611185
-0.0506572
-0.0399395
-0.0291849
-0.018593
-0.00835864
0.0013607
0.0103851
0.0185699
0.0257448
0.0317064
0.0361008
0.0387662
0.0398684
0.039259
0.0352903
0.0249266
0.00757499
-0.0127954
-0.0285509
-0.0353144
-0.0337544
-0.0278251
-0.0200536
-0.012092
-0.00505348
0.00105036
0.00513579
0.00858351
0.0101871
0.012704
0.0114112
0.00816825
-0.00224466
-0.0240584
-0.047255
-0.0626091
-0.0524812
-0.0364104
-0.0214668
-0.00769481
0.00118273
0.0120288
0.00656675
-0.100499
-0.108328
-0.111346
-0.111061
-0.109746
-0.108536
-0.107457
-0.106071
-0.103971
-0.10096
-0.097004
-0.092127
-0.0863559
-0.0797141
-0.0722435
-0.0640265
-0.0551883
-0.0458908
-0.0363105
-0.0266338
-0.017036
-0.00769491
0.00123871
0.00959336
0.017226
0.0239682
0.0296412
0.0339544
0.0367342
0.0380271
0.0376221
0.0343122
0.0259731
0.012223
-0.0040174
-0.0170755
-0.0236073
-0.0236949
-0.0199912
-0.0143066
-0.00795417
-0.0020368
0.00324646
0.00685274
0.0101049
0.0118827
0.0143432
0.0132971
0.0104608
0.0017568
-0.0174308
-0.038675
-0.0536533
-0.0458121
-0.0316929
-0.0181208
-0.00572489
0.00208825
0.011733
0.00628003
-0.0893134
-0.0964608
-0.0993381
-0.0992092
-0.0980725
-0.0969677
-0.0959565
-0.0946728
-0.092767
-0.0900668
-0.086542
-0.0822193
-0.0771261
-0.071283
-0.0647206
-0.0574989
-0.0497129
-0.0414897
-0.0329733
-0.0243207
-0.0156844
-0.00722377
0.000918987
0.00858381
0.0156324
0.0219031
0.0272309
0.0313772
0.0341663
0.0355634
0.0353334
0.0326547
0.0261318
0.015505
0.00280784
-0.00787004
-0.0140081
-0.0152324
-0.013192
-0.00917008
-0.00419308
0.000729679
0.00528596
0.00845842
0.0115105
0.0134773
0.0159574
0.0152353
0.0128757
0.00594601
-0.0104987
-0.0296491
-0.0440312
-0.0385199
-0.0267504
-0.0147642
-0.0037336
0.0030298
0.0113049
0.00592639
-0.0789322
-0.0853382
-0.0880208
-0.0880208
-0.0870787
-0.0861125
-0.0852065
-0.0840598
-0.0823718
-0.0799908
-0.0768902
-0.0730957
-0.0686344
-0.0635252
-0.0577908
-0.0514755
-0.0446512
-0.0374182
-0.0298931
-0.0222074
-0.0144925
-0.00688937
0.000469991
0.00743802
0.0138833
0.0196587
0.0246054
0.0285233
0.0312453
0.0326881
0.0326228
0.0305089
0.0254668
0.0173694
0.0076119
-0.000939043
-0.00647294
-0.00832595
-0.00743187
-0.00467265
-0.000833524
0.00321917
0.0071435
0.00994319
0.0127981
0.0149444
0.0175567
0.0173002
0.0154944
0.0102374
-0.00363289
-0.0206955
-0.0342669
-0.030929
-0.0217194
-0.0114887
-0.00178098
0.00404085
0.0108055
0.00555822
-0.0692576
-0.0749574
-0.0774417
-0.0775448
-0.076801
-0.0759841
-0.0752014
-0.0742082
-0.072746
-0.0706807
-0.0679878
-0.0646909
-0.0608158
-0.0563797
-0.0514
-0.0459096
-0.0399634
-0.03364
-0.027034
-0.0202549
-0.0134151
-0.00663828
-4.33964e-05
0.00623638
0.0120772
0.0173401
0.021881
0.0255309
0.0281333
0.0295794
0.0296697
0.0280565
0.0242088
0.0181247
0.0107533
0.00404969
-0.000754011
-0.00282787
-0.00265587
-0.000814768
0.00211278
0.00541854
0.00879484
0.0112933
0.0139612
0.0162429
0.0190724
0.0194698
0.0183166
0.0144754
0.00273328
-0.0123724
-0.0249108
-0.0234146
-0.0167519
-0.00837314
7.23594e-05
0.00514367
0.010306
0.0052429
-0.0602901
-0.0653657
-0.0676735
-0.0679076
-0.0672776
-0.0665877
-0.0659292
-0.0650923
-0.0638524
-0.06209
-0.0597819
-0.0569484
-0.0536135
-0.0497926
-0.0454993
-0.0407582
-0.035611
-0.03012
-0.0243614
-0.018426
-0.0124095
-0.00641903
-0.000559855
0.00504954
0.0102946
0.0150448
0.0191715
0.0225316
0.0249833
0.0264114
0.026652
0.0254876
0.0226143
0.0181091
0.012634
0.007583
0.00349068
0.00145649
0.00122065
0.00242424
0.00464407
0.00732581
0.0102241
0.0124863
0.0149831
0.0173377
0.0203725
0.0215072
0.0210865
0.0183149
0.00816571
-0.00513719
-0.0164187
-0.0163392
-0.0120058
-0.00548126
0.00177142
0.00632444
0.0098634
0.00504433
-0.052062
-0.0565345
-0.0586266
-0.0588956
-0.0584298
-0.0578855
-0.057361
-0.0566814
-0.0556549
-0.0541771
-0.0522263
-0.0498196
-0.0469786
-0.0437167
-0.040045
-0.0359817
-0.031559
-0.0268257
-0.0218436
-0.0166873
-0.0114377
-0.00618641
-0.00102624
0.00393842
0.00860539
0.0128571
0.0165774
0.0196418
0.0219282
0.0233278
0.023712
0.0229456
0.0208667
0.0175886
0.0135922
0.0101203
0.00652628
0.00470773
0.00429666
0.00508216
0.00676914
0.00894387
0.0114249
0.0134962
0.0158312
0.0181996
0.0213275
0.0230627
0.0232719
0.0212177
0.0123444
0.000783325
-0.00908419
-0.0100117
-0.00763424
-0.00286173
0.00326567
0.00751291
0.00950973
0.00498694
-0.0445354
-0.0484393
-0.0503196
-0.0506276
-0.0502903
-0.0498793
-0.0494813
-0.0489501
-0.0481216
-0.0469051
-0.0452805
-0.0432619
-0.040868
-0.0381107
-0.0349986
-0.0315455
-0.0277759
-0.0237284
-0.0194526
-0.0150098
-0.0104677
-0.00590361
-0.00139847
0.00295673
0.00707256
0.0108462
0.0141742
0.0169502
0.0190684
0.0204336
0.02095
0.0205315
0.0190987
0.0167535
0.0137494
0.0104206
0.00846209
0.00709225
0.00667535
0.00720829
0.00850645
0.0102788
0.0123955
0.0143014
0.016469
0.0187832
0.0218283
0.0238603
0.0243949
0.0227728
0.0151766
0.00536273
-0.00306747
-0.00465724
-0.00376812
-0.00054266
0.00450803
0.00856292
0.00924545
0.00503395
-0.0376597
-0.041057
-0.0427404
-0.0430696
-0.0428155
-0.0425481
-0.0422687
-0.0418715
-0.0412213
-0.0402394
-0.0389076
-0.0372373
-0.0352441
-0.0329382
-0.0303264
-0.0274189
-0.0242346
-0.0208035
-0.0171654
-0.0133701
-0.00947383
-0.0055419
-0.00164278
0.00214488
0.00574357
0.00906552
0.0120211
0.0145214
0.0164749
0.0178015
0.0184318
0.0183108
0.0174057
0.0158032
0.0136946
0.0114525
0.00986133
0.00881917
0.0084691
0.00886114
0.00988129
0.0113399
0.0131399
0.0148866
0.016868
0.0190466
0.0218246
0.0238279
0.024392
0.0230128
0.0167817
0.00867102
0.00159043
-0.000384214
-0.000496407
0.0014685
0.00546705
0.00927986
0.00901884
0.00509414
-0.03142
-0.0343749
-0.0358935
-0.0362724
-0.036175
-0.0359288
-0.0357151
-0.0354228
-0.0349239
-0.0341467
-0.0330729
-0.0317107
-0.0300728
-0.0281672
-0.0259993
-0.0235762
-0.0209123
-0.0180309
-0.0149637
-0.0117509
-0.00843874
-0.00508124
-0.00173628
0.00152984
0.00465031
0.00755103
0.0101581
0.012399
0.0141927
0.015475
0.0161955
0.0163186
0.0158386
0.0148306
0.0134425
0.0119572
0.0107788
0.0100256
0.00977664
0.0101006
0.0109247
0.0121401
0.0136667
0.0152471
0.0170197
0.0189904
0.0213768
0.0231428
0.0235729
0.0223162
0.017394
0.0108521
0.00499047
0.00283928
0.00214307
0.00316538
0.00613377
0.00953953
0.00873242
0.00503667
-0.0257667
-0.0283152
-0.0296589
-0.0300322
-0.0299786
-0.0298424
-0.029728
-0.0295419
-0.0291822
-0.0285872
-0.0277406
-0.026649
-0.0253232
-0.0237696
-0.021992
-0.0199954
-0.0177907
-0.0153955
-0.0128351
-0.0101414
-0.00735199
-0.00451123
-0.0016668
0.00112582
0.00380995
0.00632423
0.00861763
0.0106032
0.0122421
0.0134723
0.0142572
0.0145724
0.0144249
0.0138798
0.0130453
0.0121089
0.0113153
0.0108199
0.0106845
0.0109846
0.0116723
0.0126973
0.0139872
0.0153918
0.0169403
0.0186593
0.0206028
0.0220348
0.0222965
0.0211092
0.0172999
0.0121217
0.00733823
0.00515304
0.00416523
0.00453075
0.00651348
0.0093502
0.00829138
0.00475574
-0.0206569
-0.0228464
-0.024035
-0.0244102
-0.0244265
-0.0243797
-0.0243205
-0.0242133
-0.0239687
-0.0235296
-0.0228793
-0.0220224
-0.0209677
-0.0197203
-0.0182828
-0.0166587
-0.0148555
-0.0128868
-0.0107721
-0.00853673
-0.00621074
-0.00382992
-0.00143319
0.000933604
0.00322381
0.00538398
0.00737004
0.0091241
0.0106227
0.0117953
0.0126175
0.013075
0.0131776
0.0129787
0.012566
0.0120328
0.0115626
0.011291
0.0112674
0.0115684
0.0121611
0.013035
0.014119
0.0153427
0.0166638
0.0181092
0.0196229
0.0207069
0.020822
0.019703
0.01677
0.012721
0.00886106
0.0067343
0.005622
0.00555109
0.00664142
0.00879453
0.00765536
0.00424653
-0.0160515
-0.0179269
-0.0189752
-0.0193443
-0.0194094
-0.0194173
-0.019427
-0.0193912
-0.0192442
-0.0189383
-0.0184567
-0.0178018
-0.0169806
-0.0159971
-0.0148533
-0.0135512
-0.0120961
-0.0104981
-0.00877198
-0.00693756
-0.00501842
-0.00304314
-0.00104286
0.000945811
0.00288466
0.00472717
0.00643169
0.00794085
0.0093252
0.010434
0.0112665
0.0118177
0.0120982
0.0121439
0.0120008
0.0118019
0.0115974
0.0115132
0.0115904
0.0119041
0.0124283
0.013179
0.0140862
0.0151306
0.0162292
0.0173984
0.0185265
0.0193082
0.0193094
0.0182768
0.016007
0.0128544
0.0097609
0.00775392
0.00659173
0.00623756
0.0065769
0.00799739
0.00689814
0.00359533
-0.011916
-0.0135175
-0.0144402
-0.0148005
-0.0149064
-0.0149636
-0.0150233
-0.0150469
-0.0149791
-0.0147833
-0.0144439
-0.0139607
-0.0133385
-0.0125803
-0.0116875
-0.0106613
-0.00950525
-0.00822637
-0.00683597
-0.00534904
-0.00378394
-0.00216279
-0.000509925
0.00114547
0.00277504
0.00434569
0.00583019
0.00721423
0.00836588
0.0093723
0.0101838
0.0107863
0.011186
0.0114087
0.0114854
0.0114967
0.0114879
0.0115501
0.0117109
0.0120386
0.0125107
0.0131585
0.0139144
0.0147865
0.0156777
0.016596
0.0174195
0.0179331
0.0178483
0.0169185
0.0151421
0.0126737
0.0101994
0.0083556
0.00716623
0.00662719
0.00638649
0.00707727
0.00554229
0.00289422
-0.00821317
-0.00957706
-0.0103884
-0.0107378
-0.0108763
-0.0109738
-0.0110742
-0.0111462
-0.0111432
-0.0110362
-0.0108136
-0.010474
-0.0100195
-0.00945183
-0.00877173
-0.00797967
-0.00707787
-0.00607129
-0.00496822
-0.0037799
-0.00252013
-0.00120579
0.000144302
0.00150759
0.00286186
0.00418032
0.00543964
0.00661017
0.00765918
0.0085683
0.00933788
0.0099628
0.0104347
0.0107703
0.010993
0.0111538
0.0112852
0.0114544
0.0116777
0.0120145
0.0124437
0.013003
0.0136292
0.0143426
0.0150505
0.0157489
0.0163309
0.0166332
0.0164853
0.0156616
0.014251
0.0122943
0.0103025
0.0086447
0.00744078
0.00677661
0.00613648
0.00623022
0.00479744
0.00230587
-0.00490675
-0.0060662
-0.00677962
-0.0071167
-0.00728048
-0.00741004
-0.00754257
-0.0076536
-0.00770477
-0.00766986
-0.00754113
-0.00731865
-0.00700319
-0.00659476
-0.00609314
-0.0054981
-0.00481081
-0.00403454
-0.00317516
-0.00224098
-0.00124234
-0.000191884
0.000896162
0.00200458
0.00311612
0.0042098
0.00526684
0.00626417
0.00718385
0.00800918
0.0087327
0.00933788
0.00983505
0.0102328
0.0105438
0.0108021
0.0110271
0.0112678
0.0115327
0.0118705
0.0122611
0.0127422
0.0132579
0.0138306
0.0143802
0.0148907
0.0152864
0.0154325
0.0152395
0.0145138
0.0133732
0.0118005
0.0101693
0.00869634
0.00751047
0.0067493
0.00586276
0.00548913
0.00411672
0.00184298
-0.00196389
-0.00294828
-0.00357596
-0.00389989
-0.0040827
-0.00423722
-0.00439461
-0.00453592
-0.00463026
-0.00465582
-0.00460347
-0.00447364
-0.00427103
-0.00399386
-0.00364062
-0.00320985
-0.00270186
-0.00211869
-0.00146434
-0.000744767
3.23547e-05
0.000857721
0.00172084
0.00260883
0.00350856
0.00440401
0.00528067
0.00612124
0.00691286
0.00764074
0.00829672
0.00887274
0.00936955
0.00979288
0.0101497
0.0104628
0.0107426
0.0110246
0.0113109
0.0116404
0.011994
0.0124048
0.0128265
0.0132778
0.0136946
0.0140589
0.0143054
0.0143372
0.014113
0.0134725
0.0125308
0.0112472
0.00988597
0.00859763
0.00743548
0.00659439
0.00558143
0.0048673
0.00353347
0.00149423
0.000646307
-0.000188786
-0.000741748
-0.00105215
-0.00124886
-0.00142241
-0.00159856
-0.00176278
-0.00189053
-0.00196418
-0.00197617
-0.0019252
-0.00181127
-0.00163869
-0.00140536
-0.0011092
-0.000749335
-0.000326654
0.000156508
0.0006962
0.0012869
0.00192179
0.00259326
0.00329193
0.00400805
0.00472973
0.00544601
0.00614376
0.00681294
0.00744206
0.0080241
0.00855246
0.0090252
0.00944516
0.00981505
0.0101496
0.0104534
0.0107514
0.0110417
0.0113537
0.0116701
0.012017
0.0123581
0.0127066
0.0130129
0.013256