/*--------------------------------*- C++ -*----------------------------------*\
| =========                 |                                                 |
| \\      /  F ield         | OpenFOAM: The Open Source CFD Toolbox           |
|  \\    /   O peration     | Version:  2512                                  |
|   \\  /    A nd           | Website:  www.openfoam.com                      |
|    \\/     M anipulation  |                                                 |
\*---------------------------------------------------------------------------*/
FoamFile
{
    version     2.0;
    format      ascii;
    arch        "LSB;label=32;scalar=64";
    class       surfaceScalarField;
    location    "32.25";
    object      phi;
}
// * * * * * * * * * * * * * * * * * * * * * * * * * * * * * * * * * * * * * //

dimensions      [0 3 -1 0 0 0 0];

oriented        oriented;

internalField   nonuniform List<scalar> 
26232
(
2.72218e-05
0.000962949
-0.000990171
0.000276706
0.00192727
-0.00217676
0.000895923
0.00207993
-0.00269915
0.00202362
0.00147446
-0.00260215
0.00379767
0.000141863
-0.00191592
0.00635731
-0.00190231
-0.000657327
0.00983965
-0.00465022
0.00116788
0.0143727
-0.00809416
0.00356112
0.0200637
-0.0122164
0.00652537
0.0269862
-0.016981
0.0100586
0.0351663
-0.0223281
0.014148
0.0445722
-0.0281718
0.0187658
0.0551093
-0.0344029
0.0238658
0.0666203
-0.0408945
0.0293835
0.0788927
-0.0475103
0.0352378
0.0916723
-0.0541142
0.0413347
0.10468
-0.06058
0.0475725
0.117631
-0.0668003
0.053849
0.130257
-0.0726895
0.0600631
0.142327
-0.0782048
0.0661355
0.153645
-0.0832949
0.0719764
0.164088
-0.0880519
0.0776097
0.173536
-0.0922901
0.0828419
-0.096555
0.088519
0.181572
6.92547e-05
0.000893694
0.000470942
0.00152559
0.00138018
0.0011707
0.0029627
-0.000108065
0.00538095
-0.00227639
0.00879019
-0.00531155
0.0133292
-0.00918919
0.0191045
-0.0138695
0.0261736
-0.0192854
0.0345279
-0.0253354
0.0440834
-0.0318836
0.0546783
-0.0387667
0.0660813
-0.0458059
0.0780085
-0.0528217
0.0901471
-0.0596489
0.102183
-0.0661496
0.113825
-0.0722229
0.124835
-0.0778102
0.135042
-0.082896
0.144345
-0.087508
0.152742
-0.0916922
0.160265
-0.0955747
0.167072
-0.0990965
-0.10278
0.173297
0.0001295
0.000764194
0.000732637
0.000922449
0.00201002
-0.000106689
0.00415047
-0.00224851
0.00733059
-0.00545651
0.0117027
-0.0096837
0.0173754
-0.0148618
0.0243907
-0.0208848
0.0327055
-0.0276002
0.0421818
-0.0348117
0.0525909
-0.0422927
0.0636315
-0.0498073
0.0749592
-0.0571335
0.0862222
-0.0640847
0.0970979
-0.0705246
0.107324
-0.0763759
0.116722
-0.0816209
0.125208
-0.0862957
0.132789
-0.0904777
0.139554
-0.0942727
0.145651
-0.0977898
0.151237
-0.101161
0.156531
-0.10439
-0.107861
0.161613
0.000209232
0.000554962
0.0010644
6.72768e-05
0.00278531
-0.0018276
0.0055726
-0.0050358
0.00959678
-0.00948068
0.0149741
-0.015061
0.0217382
-0.0216259
0.0298167
-0.0289633
0.0390227
-0.0368063
0.0490658
-0.0448549
0.0595831
-0.0528099
0.0701827
-0.0604069
0.0804925
-0.0674433
0.0902033
-0.0737956
0.0991006
-0.0794218
0.107079
-0.0843545
0.114142
-0.0886832
0.120379
-0.0925332
0.125944
-0.0960427
0.131015
-0.0993437
0.13577
-0.102545
0.140351
-0.105741
0.144898
-0.108938
-0.112379
0.149415
0.000308314
0.000246648
0.00146231
-0.00108672
0.00368908
-0.00405437
0.00718115
-0.00852787
0.0120707
-0.0143702
0.0183936
-0.021384
0.02606
-0.0292923
0.0348437
-0.0377471
0.044401
-0.0463635
0.054315
-0.0547689
0.0641558
-0.0626508
0.0735412
-0.0697923
0.0821848
-0.0760869
0.0899231
-0.0815339
0.0967188
-0.0862175
0.102642
-0.0902776
0.107837
-0.0938782
0.112483
-0.0971799
0.116761
-0.100321
0.120824
-0.103407
0.12479
-0.10651
0.12873
-0.109681
0.132707
-0.112916
-0.116369
0.136698
0.000425456
-0.000178807
0.00191652
-0.00257778
0.00468848
-0.00682633
0.00889593
-0.0127353
0.0145906
-0.0200648
0.0216809
-0.0284743
0.0299164
-0.0375278
0.0389103
-0.046741
0.0481979
-0.0556511
0.0573141
-0.063885
0.0658671
-0.0712038
0.0735905
-0.0775156
0.0803633
-0.0828598
0.0862
-0.0873706
0.0912165
-0.0912339
0.0955856
-0.0946467
0.0994941
-0.0977866
0.10311
-0.100796
0.106565
-0.103775
0.10995
-0.106792
0.113326
-0.109886
0.116722
-0.113077
0.12017
-0.116364
-0.119832
0.123633
0.00055798
-0.000736787
0.00241057
-0.00443037
0.00573411
-0.0101499
0.0106068
-0.017608
0.0169547
-0.0264127
0.0245226
-0.0360422
0.032894
-0.0458992
0.0415607
-0.0554077
0.0500193
-0.0641096
0.0578596
-0.0717254
0.0648223
-0.0781665
0.0708129
-0.0835063
0.0758792
-0.0879261
0.0801647
-0.0916561
0.083856
-0.0949253
0.0871388
-0.0979295
0.0901695
-0.100817
0.093064
-0.10369
0.0959001
-0.106612
0.0987253
-0.109618
0.101567
-0.112727
0.104439
-0.115949
0.107354
-0.119279
-0.122759
0.110281
0.000701431
-0.00143822
0.00292062
-0.00664956
0.00676077
-0.01399
0.0121816
-0.0230288
0.0189465
-0.0331776
0.0266277
-0.0437235
0.0346794
-0.0539509
0.042552
-0.0632803
0.0498011
-0.0713587
0.0561542
-0.0780785
0.0615233
-0.0835355
0.0659717
-0.0879547
0.0696578
-0.0916121
0.0727753
-0.0947736
0.0755087
-0.0976586
0.0780072
-0.100428
0.0803777
-0.103188
0.0826897
-0.106002
0.0849847
-0.108907
0.0872859
-0.111919
0.0896056
-0.115047
0.0919489
-0.118292
0.094321
-0.121652
-0.125136
0.0966978
0.000849027
-0.00228724
0.00341567
-0.0092162
0.00769203
-0.0182664
0.0134818
-0.0288186
0.0203705
-0.0400664
0.0277858
-0.0511388
0.035125
-0.0612901
0.0418887
-0.070044
0.0477661
-0.0772361
0.0526521
-0.0829644
0.0566087
-0.0874922
0.0597995
-0.0911455
0.0624232
-0.0942358
0.0646655
-0.0970159
0.0666737
-0.0996669
0.0685511
-0.102305
0.0703629
-0.105
0.0721475
-0.107787
0.0739256
-0.110685
0.0757085
-0.113702
0.0775012
-0.11684
0.0793058
-0.120096
0.0811231
-0.123469
-0.12695
0.0829374
0.000991769
-0.00327901
0.00385981
-0.0120842
0.00844915
-0.0228557
0.0143848
-0.0347542
0.021089
-0.0467706
0.0279056
-0.0579553
0.0342596
-0.0676441
0.0397725
-0.0755569
0.0442948
-0.0817584
0.0478684
-0.0865381
0.0506528
-0.0902765
0.0528501
-0.0933428
0.0546508
-0.0960365
0.056205
-0.0985701
0.0576169
-0.101079
0.0589515
-0.10364
0.0602459
-0.106294
0.06152
-0.109061
0.0627846
-0.111949
0.0640451
-0.114962
0.0653037
-0.118098
0.0665611
-0.121354
0.0678154
-0.124723
-0.128192
0.0690576
0.0011197
-0.00439872
0.00421755
-0.0151821
0.00896384
-0.027602
0.0148044
-0.0405948
0.021043
-0.0530091
0.0270155
-0.0639279
0.032245
-0.0728736
0.0365056
-0.0798174
0.0397947
-0.0850475
0.0422551
-0.0889985
0.0440893
-0.0921107
0.0454947
-0.0947482
0.0466293
-0.0971711
0.047603
-0.0995438
0.0484835
-0.101959
0.0493091
-0.104466
0.0501002
-0.107085
0.0508673
-0.109828
0.0516164
-0.112698
0.0523503
-0.115696
0.0530701
-0.118818
0.0537752
-0.122059
0.0544622
-0.12541
-0.128857
0.0551264
0.00122577
-0.00562449
0.00446181
-0.0184181
0.00919022
-0.0323304
0.0147037
-0.0461082
0.0202527
-0.0585581
0.0252363
-0.0689115
0.0293151
-0.0769524
0.0324102
-0.0829125
0.0346279
-0.0872653
0.0361632
-0.0905337
0.037221
-0.0931685
0.0379713
-0.0954986
0.0385341
-0.0977339
0.0389839
-0.0999936
0.0393627
-0.102338
0.0396921
-0.104795
0.0399834
-0.107376
0.0402424
-0.110087
0.0404728
-0.112929
0.0406763
-0.1159
0.040854
-0.118996
0.0410049
-0.12221
0.0411257
-0.125531
0.0412154
-0.128946
-0.00020627
0.000217146
-1.08769e-05
-0.000720292
0.000593963
-7.99399e-05
-0.00147651
0.000939093
-0.000182874
-0.00242496
0.00125529
-0.000306847
-0.00352671
0.00154375
-0.00044199
-0.00475175
0.00180733
-0.000582286
-0.00607721
0.00205078
-0.000725318
-0.00748582
0.00228017
-0.00087156
-0.00896452
0.00250216
-0.00102346
-0.0105033
0.00272322
-0.00118447
-0.012094
0.00294896
-0.00135823
-0.0137297
0.00318368
-0.00154795
-0.0154039
0.00343022
-0.00175601
-0.01711
0.00368996
-0.00198387
-0.0188411
0.00396307
-0.00223197
-0.0205902
0.00424875
-0.00249966
-0.0223506
0.00454562
-0.00278523
-0.024117
0.00485219
-0.00308584
-0.0258869
0.00516743
-0.00339747
-0.0276634
0.00549149
-0.00371497
-0.0294571
0.00582594
-0.00403224
-0.031289
0.00617403
-0.00434217
-0.0331978
0.00654485
-0.00463608
0.00695664
-0.0352489
-0.00490548
-0.00019015
0.000407297
-0.000666156
0.00106997
-0.00136744
0.00164038
-0.00224668
0.00213453
-0.00326624
0.0025633
-0.00439635
0.00293744
-0.00561361
0.00326804
-0.00689957
0.00356612
-0.00823948
0.00384206
-0.00962121
0.00410496
-0.0110344
0.0043621
-0.0124694
0.00461868
-0.0139169
0.00487774
-0.0153673
0.00514039
-0.0168104
0.00540613
-0.018235
0.00567335
-0.0196294
0.00594001
-0.0209816
0.00620441
-0.0222806
0.00646642
-0.0235182
0.00672912
-0.0246924
0.00700012
-0.0258105
0.00729212
-0.0268959
0.00763029
0.00807913
-0.0280184
-0.000164722
0.000572019
-0.000580295
0.00148554
-0.0011936
0.00225369
-0.00196113
0.00290206
-0.00284689
0.00344907
-0.00382125
0.0039118
-0.00485971
0.0043065
-0.00594182
0.00464822
-0.00705008
0.00495033
-0.00816911
0.00522398
-0.00928474
0.00547773
-0.0103834
0.00571731
-0.0114513
0.0059457
-0.0124743
0.00616336
-0.0134368
0.00636864
-0.0143218
0.00655831
-0.01511
0.00672825
-0.0157799
0.00687435
-0.0163075
0.00699397
-0.0166667
0.00708832
-0.0168328
0.0071662
-0.0167887
0.00724802
-0.0165283
0.00736996
0.00760061
-0.0160498
-0.000133583
0.000705602
-0.000473815
0.00182577
-0.000975789
0.00275566
-0.00160001
0.00352628
-0.00231206
0.00416111
-0.00308205
0.00468179
-0.00388389
0.00510834
-0.00469439
0.00545873
-0.00549249
0.00574843
-0.00625846
0.00598994
-0.00697323
0.0061925
-0.00761785
0.00636193
-0.00817292
0.00650077
-0.00861808
0.00660852
-0.00893148
0.00668204
-0.00908916
0.006716
-0.00906428
0.00670337
-0.00882615
0.00663622
-0.00833893
0.00650675
-0.00756013
0.00630951
-0.00643955
0.00604562
-0.00492198
0.00573046
-0.00296681
0.00541479
0.00527209
-0.00063829
-0.000100929
0.000806531
-0.000359798
0.00208464
-0.000738701
0.00313457
-0.00120127
0.00398884
-0.00171392
0.00467377
-0.00224593
0.0052138
-0.00276896
0.00563136
-0.00325643
0.0059462
-0.00368284
0.00617484
-0.00402314
0.00633024
-0.00425214
0.00642151
-0.00434407
0.00645386
-0.00427208
0.00642878
-0.0040079
0.00634433
-0.00352134
0.00619549
-0.00277988
0.00597453
-0.00174793
0.00567143
-0.000386006
0.00527429
0.00135084
0.0047699
0.00351555
0.0041448
0.00617243
0.00338874
0.00939796
0.00250493
0.0132856
0.00152718
0.000572609
0.0179851
-7.08711e-05
0.000877402
-0.000251096
0.00226487
-0.000506705
0.00339017
-0.000802475
0.00428461
-0.00110432
0.00497561
-0.00137961
0.00548909
-0.00159686
0.00584862
-0.00172518
0.00607452
-0.00173359
0.00618325
-0.00159041
0.00618706
-0.00126271
0.00609381
-0.000715837
0.00590698
8.69675e-05
0.00562598
0.0011849
0.0052464
0.00261993
0.00476047
0.00443696
0.0041575
0.00668412
0.00342426
0.00941309
0.00254533
0.0126794
0.00150361
0.0165434
0.000280749
0.0210739
-0.00114176
0.0263584
-0.00277953
0.0324723
-0.00458676
-0.00670777
0.0397527
-4.6648e-05
0.00092405
-0.00015778
0.002376
-0.000298837
0.00353123
-0.000432858
0.00441864
-0.00052318
0.00506594
-0.000533613
0.00549952
-0.00042807
0.00574308
-0.00016974
0.00581619
0.000279636
0.00573387
0.000960511
0.00550619
0.00191613
0.00513819
0.00319303
0.00463008
0.00484137
0.00397763
0.00691513
0.00317264
0.00947231
0.00220329
0.0125744
0.00105536
0.0162862
-0.000287515
0.0206751
-0.00184356
0.0258096
-0.00363084
0.0317582
-0.00566791
0.0385835
-0.00796705
0.0463819
-0.0105779
0.0551078
-0.0133127
-0.0169605
0.0653606
-2.98812e-05
0.000953931
-8.46864e-05
0.00243081
-0.00012386
0.00357041
-0.00010506
0.00439984
1.37407e-05
0.00494714
0.000274715
0.00523855
0.000721275
0.00529652
0.0013989
0.00513856
0.00235628
0.00477649
0.00364617
0.0042163
0.00532599
0.00345837
0.00745818
0.00249789
0.0101102
0.00132559
0.0133537
-7.08564e-05
0.0172653
-0.00170833
0.021923
-0.00360225
0.0274057
-0.00577023
0.0337903
-0.00822821
0.0411489
-0.0109894
0.0495474
-0.0140664
0.0590218
-0.0174415
0.0696717
-0.0212277
0.0812815
-0.0249225
-0.0302721
0.094593
-2.00314e-05
0.000973962
-2.95475e-05
0.00244032
2.36643e-05
0.00351719
0.000191214
0.00423229
0.00052446
0.00461389
0.00107544
0.00468757
0.00189861
0.00447334
0.00305251
0.00398467
0.00460089
0.00322812
0.00661343
0.00220376
0.0091659
0.000905895
0.0123396
-0.000675801
0.0162201
-0.00255487
0.0208955
-0.0047463
0.0264523
-0.00726511
0.0329739
-0.0101239
0.0405351
-0.0133314
0.0491981
-0.0168912
0.0590073
-0.0207986
0.0699889
-0.025048
0.0821239
-0.0295765
0.0954473
-0.0345512
0.109671
-0.0391458
-0.0459222
0.125321
-1.42445e-05
0.000988207
1.74909e-05
0.00240859
0.000164212
0.00337047
0.00049187
0.00390463
0.00106532
0.00404044
0.0019513
0.00380158
0.00322074
0.00320391
0.00495041
0.00225499
0.00722385
0.000954675
0.0101308
-0.000703227
0.0137659
-0.00272921
0.0182257
-0.00513552
0.0236044
-0.00793358
0.0299894
-0.0111313
0.0374551
-0.0147308
0.0460575
-0.0187262
0.0558283
-0.0231022
0.0667709
-0.0278338
0.078857
-0.0328847
0.0920237
-0.0382148
0.106176
-0.0437284
0.121184
-0.0495593
0.136871
-0.0548329
-0.0621719
0.153121
-7.75564e-06
0.000995963
7.2803e-05
0.00232803
0.00033209
0.00311119
0.000854557
0.00338216
0.00172398
0.00317102
0.0030272
0.00249836
0.00485661
0.0013745
0.00731073
-0.000199126
0.0104939
-0.00222853
0.0145122
-0.0047215
0.0194688
-0.0076858
0.0254574
-0.0111241
0.0325542
-0.0150304
0.0408104
-0.0193875
0.0502448
-0.0241652
0.0608384
-0.0293198
0.0725313
-0.0347952
0.0852225
-0.0405251
0.098773
-0.0464351
0.11301
-0.0524517
0.127757
-0.0584754
0.142744
-0.0645461
0.15799
-0.0700795
-0.0768088
0.172627
5.79217e-06
0.000157064
0.000569099
0.00134911
0.00260421
0.00444524
0.00698762
0.0103496
0.0146465
0.0199835
0.0264458
0.0340875
0.0429229
0.0529189
0.0639915
0.0760063
0.0887837
0.102108
0.115736
0.129419
0.14292
0.155984
0.168746
0.180457
-0.03652
0.00824989
-0.00697882
-0.037824
0.00856512
-0.00726108
-0.0391498
0.00871188
-0.00738605
-0.0405036
0.00865431
-0.0073006
-0.0418872
0.00833618
-0.00695258
-0.0432986
0.00769498
-0.00628358
-0.0447318
0.00666742
-0.0052342
-0.0461793
0.00519232
-0.00374482
-0.0476338
0.00321278
-0.00175827
-0.0490232
0.000684423
0.000705003
-0.0503699
-0.00233733
0.00368396
-0.0516165
-0.0059294
0.00717603
-0.0527169
-0.0100119
0.0111123
-0.0536138
-0.0144859
0.0153829
-0.054236
-0.0191984
0.0198206
-0.0544949
-0.023935
0.0241939
-0.0542805
-0.0284171
0.0282027
-0.0534554
-0.0323066
0.0314815
-0.0518568
-0.0352156
0.0336169
-0.0493064
-0.0367352
0.0341848
-0.0456245
-0.0364821
0.0328002
-0.0406389
-0.0341695
0.0291839
-0.0342474
-0.029694
0.0233025
-0.0264393
-0.0231136
0.0153055
-0.0172597
-0.0147968
0.00561723
-0.00702984
-0.00546601
-0.00476383
0.00397646
0.00406742
-0.0150737
0.0153677
0.0128131
-0.0242044
0.026771
0.0198146
-0.0312178
0.0379089
0.0244355
-0.0355734
0.0486306
0.0263138
-0.0370354
0.058916
0.0255423
-0.0358278
0.0688046
0.0223718
-0.0322604
0.0783211
0.0174954
-0.0270118
0.0874536
0.0114042
-0.0205367
0.0961195
0.00500936
-0.0136753
0.104199
-0.00128882
-0.00679042
0.111571
-0.00668521
-0.000686962
0.118171
-0.0111522
0.00455177
0.123993
-0.0140905
0.00826879
0.129093
-0.0159343
0.0108344
0.133585
-0.0161209
0.0116287
0.137605
-0.0154368
0.0114168
0.141283
-0.0132064
0.00952808
0.144722
-0.0105468
0.00710824
0.147973
-0.00661429
0.00336313
0.151046
-0.00292351
-0.000149483
0.15391
0.00164174
-0.00450566
0.156538
0.00514381
-0.00777164
0.158894
0.00915142
-0.0115078
0.160988
0.011444
-0.0135375
0.162803
0.0142811
-0.0160966
0.164397
0.0151459
-0.0167395
0.165752
0.0169228
-0.0182783
0.167005
0.0166993
-0.0179522
0.168092
0.0179401
-0.0190272
0.169226
0.0174117
-0.0185451
0.170161
0.0188197
-0.0197554
0.171186
0.0187273
-0.0197521
0.0205909
-0.0212578
-0.0289178
0.00914923
-0.0298441
0.00949148
-0.03079
0.00965774
-0.031755
0.00961933
-0.0327419
0.00932308
-0.0337517
0.00870479
-0.0347828
0.00769849
-0.0358305
0.00624007
-0.0368921
0.00427438
-0.0379573
0.00174967
-0.0389788
-0.0013159
-0.0399616
-0.00494654
-0.0408751
-0.00909842
-0.0416842
-0.0136768
-0.0423444
-0.0185382
-0.0427976
-0.0234818
-0.0429673
-0.0282474
-0.0427513
-0.0325226
-0.0420135
-0.0359535
-0.0405846
-0.0381641
-0.0382677
-0.038799
-0.0348448
-0.0375924
-0.0301317
-0.0344071
-0.0240059
-0.0292394
-0.0164309
-0.0223718
-0.00756425
-0.0143327
0.00246509
-0.00596192
0.0133406
0.00193762
0.0246602
0.00849498
0.0361822
0.0129134
0.0476872
0.0148088
0.0590423
0.0141873
0.0701254
0.0112887
0.0807934
0.00682739
0.0909013
0.00129635
0.100274
-0.00436345
0.108758
-0.00977246
0.116241
-0.0141683
0.122692
-0.0176037
0.128155
-0.0195528
0.132735
-0.0205148
0.136595
-0.0199805
0.139915
-0.0187568
0.142874
-0.0161652
0.145621
-0.0132941
0.148255
-0.00924796
0.150821
-0.00548956
0.153302
-0.000840124
0.15568
0.00276581
0.157904
0.00692741
0.159962
0.00938645
0.161811
0.0124322
0.163483
0.0134739
0.164938
0.0154673
0.166304
0.0153343
0.1675
0.0167432
0.168749
0.0161627
0.169788
0.0177808
0.170923
0.0175926
0.0198371
-0.0164776
0.00957703
-0.0168182
0.00983206
-0.0172402
0.0100798
-0.0176539
0.010033
-0.0180821
0.00975128
-0.0185268
0.00914943
-0.0189894
0.00816108
-0.0194691
0.00671976
-0.0199643
0.00476956
-0.0204795
0.0022649
-0.0209884
-0.000807018
-0.0214878
-0.00444711
-0.0219661
-0.00862009
-0.0224049
-0.013238
-0.0227789
-0.0181643
-0.0230526
-0.0232081
-0.0231799
-0.0281201
-0.0231009
-0.0326016
-0.022727
-0.0363273
-0.0219245
-0.0389666
-0.0205176
-0.0402059
-0.0182848
-0.0398252
-0.0150043
-0.0376875
-0.0104673
-0.0337765
-0.00454298
-0.0282961
0.00285959
-0.0217352
0.0115985
-0.0147008
0.0214349
-0.00789881
0.03221
-0.00228014
0.0435253
0.00159813
0.0551222
0.00321196
0.0667698
0.00253968
0.0781969
-0.000138429
0.0891194
-0.00409514
0.0993254
-0.00890958
0.1086
-0.0136378
0.116781
-0.0179542
0.123798
-0.021185
0.129661
-0.0234662
0.134453
-0.0243449
0.13831
-0.0243721
0.14141
-0.0230808
0.143948
-0.0212941
0.146117
-0.0183348
0.148093
-0.0152694
0.150004
-0.0111596
0.151931
-0.00741624
0.153888
-0.00279766
0.155859
0.000795479
0.157799
0.00498723
0.159681
0.00750437
0.161441
0.0106724
0.163087
0.0118276
0.164556
0.0139982
0.16596
0.0139306
0.167206
0.0154968
0.168515
0.0148541
0.169615
0.0166803
0.170819
0.0163886
0.0190138
-5.47952e-05
0.00899354
1.16448e-05
0.00976562
0.000184593
0.00990682
0.000357045
0.00986058
0.000534547
0.00957378
0.000697242
0.00898673
0.000844236
0.00801409
0.000973711
0.00659029
0.00108201
0.00466126
0.00116632
0.00218058
0.00123256
-0.000873257
0.00128378
-0.00449833
0.00132253
-0.00865884
0.00135683
-0.0132723
0.00139825
-0.0182057
0.0014634
-0.0232732
0.00158402
-0.0282407
0.0018108
-0.0328284
0.00221063
-0.0367272
0.00288207
-0.0396381
0.00396165
-0.0412855
0.00561982
-0.0414833
0.00806216
-0.0401299
0.0115169
-0.0372312
0.0161747
-0.032954
0.0221344
-0.0276949
0.029416
-0.0219825
0.0379704
-0.0164531
0.047578
-0.0118878
0.0580162
-0.00884004
0.0689434
-0.0077153
0.0799846
-0.00850147
0.0908117
-0.0109656
0.101121
-0.0144049
0.110602
-0.0183897
0.119054
-0.0220902
0.126356
-0.0252559
0.132479
-0.0273081
0.137471
-0.0284588
0.141441
-0.0283148
0.144529
-0.0274598
0.146902
-0.0254539
0.148737
-0.0231289
0.150214
-0.0198118
0.151503
-0.016558
0.152745
-0.0124019
0.154043
-0.00871436
0.155443
-0.00419779
0.156942
-0.000703414
0.158512
0.00341772
0.160121
0.00589489
0.161695
0.00909844
0.163225
0.0102979
0.164628
0.0125954
0.165998
0.0125605
0.167232
0.0142622
0.168542
0.0135446
0.16966
0.0155624
0.170889
0.0151596
0.0181413
0.0186178
0.00836079
0.0192478
0.00913559
0.0198244
0.00933025
0.0204564
0.00922856
0.0211047
0.00892549
0.0217485
0.00834293
0.0223833
0.00737936
0.0230078
0.0059658
0.0236182
0.00405077
0.024205
0.00159379
0.0247796
-0.00144784
0.0253338
-0.00505247
0.0258737
-0.00919873
0.0264065
-0.0138052
0.0269421
-0.0187413
0.0274928
-0.0238239
0.0280713
-0.0288192
0.0286961
-0.0334531
0.0294068
-0.0374379
0.0302678
-0.0404992
0.0313734
-0.042391
0.0328451
-0.0429551
0.0348353
-0.0421201
0.0375448
-0.0399407
0.0411928
-0.0366019
0.0459486
-0.0324507
0.0519189
-0.0279527
0.0590995
-0.0236338
0.0673526
-0.0201408
0.0764352
-0.0179227
0.0860375
-0.0173176
0.0957888
-0.0182528
0.105316
-0.020493
0.114299
-0.0233881
0.122451
-0.0265412
0.129601
-0.0292404
0.135674
-0.0313287
0.140681
-0.032315
0.144695
-0.0324725
0.14783
-0.0314505
0.150216
-0.029846
0.151993
-0.0272306
0.153301
-0.0244365
0.154282
-0.0207935
0.15508
-0.017356
0.155825
-0.0131465
0.156626
-0.00951551
0.157546
-0.0051179
0.158616
-0.00177363
0.159808
0.00222641
0.161112
0.00459046
0.162451
0.00775931
0.163808
0.00894085
0.16509
0.0113141
0.166372
0.0112779
0.167548
0.0130868
0.16881
0.0122819
0.169909
0.0144635
0.171125
0.0139435
0.0172373
0.0404089
0.00770461
0.0411015
0.00844296
0.0418515
0.00858031
0.0426972
0.00838282
0.043598
0.00802469
0.044524
0.0074169
0.0454665
0.00643689
0.0464167
0.00501553
0.0473664
0.00310115
0.0482989
0.000661291
0.0492226
-0.00237154
0.0501192
-0.00594915
0.0509902
-0.0100697
0.0518359
-0.0146508
0.0526588
-0.0195642
0.0534664
-0.0246315
0.0542725
-0.0296253
0.0550994
-0.0342801
0.0559798
-0.0383182
0.0569598
-0.0414791
0.058107
-0.0435382
0.0595033
-0.0443514
0.0612638
-0.0438806
0.0635512
-0.0422281
0.0665557
-0.0396064
0.0704336
-0.0363287
0.0752911
-0.0328102
0.0811563
-0.0294989
0.0879381
-0.0269226
0.0954451
-0.0254298
0.103396
-0.0252687
0.111453
-0.0263094
0.119272
-0.0283116
0.126561
-0.0306774
0.133089
-0.0330693
0.138735
-0.0348861
0.143466
-0.0360599
0.147324
-0.0361731
0.150391
-0.0355399
0.152777
-0.0338358
0.154587
-0.0316568
0.15593
-0.0285729
0.156903
-0.02541
0.157606
-0.0214966
0.158141
-0.0178908
0.158609
-0.0136145
0.15911
-0.0100166
0.159711
-0.00571846
0.160463
-0.00252635
0.16135
0.00134014
0.162384
0.00355656
0.163495
0.00664764
0.164669
0.00776674
0.165811
0.010173
0.166981
0.0101072
0.168074
0.011994
0.169263
0.0110932
0.170323
0.0134038
0.171502
0.0127642
0.0163107
0.0655118
0.00755339
0.0658347
0.00812012
0.0663401
0.00807482
0.0670199
0.0077031
0.06781
0.00723456
0.0686865
0.00654038
0.0696343
0.00548909
0.0706252
0.00402466
0.071633
0.00209331
0.0726738
-0.00037947
0.0736787
-0.00337646
0.0746592
-0.00692963
0.0756003
-0.0110109
0.0764962
-0.0155467
0.0773462
-0.0204142
0.0781573
-0.0254426
0.0789432
-0.0304112
0.079726
-0.0350628
0.0805367
-0.039129
0.0814177
-0.04236
0.0824278
-0.0445483
0.0836394
-0.045563
0.0851495
-0.0453906
0.0870782
-0.0441569
0.0895572
-0.0420854
0.092702
-0.0394734
0.096595
-0.0367033
0.10126
-0.0341634
0.106626
-0.0322889
0.112538
-0.0313423
0.118762
-0.0314925
0.125015
-0.0325624
0.131018
-0.0343145
0.136543
-0.0362025
0.141427
-0.0379535
0.145602
-0.0390608
0.149071
-0.0395285
0.151891
-0.0389929
0.154141
-0.0377903
0.155914
-0.0356089
0.157293
-0.033036
0.158352
-0.029632
0.159155
-0.0262129
0.15976
-0.022101
0.160227
-0.0183586
0.160624
-0.0140107
0.161026
-0.0104186
0.161492
-0.00618427
0.162079
-0.00311372
0.162782
0.000637441
0.163631
0.0027074
0.164572
0.00570672
0.165597
0.00674119
0.166619
0.00915155
0.167687
0.00903862
0.168703
0.0109779
0.169817
0.00997955
0.170839
0.0123823
0.171977
0.0116259
0.0153583
0.0938437
0.0083027
0.093391
0.00857281
0.0932337
0.00823207
0.093308
0.00762885
0.0935622
0.00698031
0.093987
0.00611558
0.0945518
0.00492432
0.0952131
0.00336333
0.0959385
0.00136794
0.0967022
-0.00114316
0.0974766
-0.0041509
0.0982301
-0.00768309
0.0989422
-0.0117229
0.099597
-0.0162015
0.100187
-0.021004
0.100715
-0.0259704
0.101193
-0.0308898
0.101646
-0.0355153
0.102107
-0.0395899
0.102622
-0.0428759
0.103255
-0.0451812
0.104082
-0.0463893
0.105188
-0.0464967
0.106662
-0.0456308
0.10859
-0.0440138
0.111042
-0.0419257
0.114061
-0.0397223
0.117645
-0.037747
0.121724
-0.0363677
0.126163
-0.035782
0.130774
-0.0361032
0.135339
-0.0371275
0.139656
-0.038631
0.143572
-0.0401185
0.146993
-0.0413747
0.149896
-0.041964
0.152308
-0.0419407
0.154289
-0.0409741
0.155906
-0.0394069
0.157229
-0.0369315
0.158317
-0.0341246
0.159219
-0.0305336
0.159971
-0.026965
0.160601
-0.0227309
0.161138
-0.0188963
0.161615
-0.0144871
0.16208
-0.0108838
0.162575
-0.00667922
0.16315
-0.0036885
0.163805
-1.77897e-05
0.164581
0.00193149
0.165439
0.00484843
0.166384
0.00579677
0.167338
0.00819766
0.168344
0.00803223
0.169316
0.0100057
0.17038
0.00891591
0.171385
0.0113765
0.1725
0.0105117
0.0143629
0.123557
0.0100665
0.122181
0.00994872
0.121116
0.00929717
0.120284
0.0084609
0.119695
0.00756877
0.119351
0.00646015
0.119196
0.00507945
0.119187
0.00337211
0.119296
0.00125939
0.119474
-0.00132131
0.119683
-0.00436007
0.11989
-0.00789022
0.120066
-0.0118987
0.120184
-0.0163193
0.120227
-0.0210476
0.120195
-0.0259379
0.120097
-0.0307921
0.119959
-0.0353774
0.119822
-0.0394525
0.11974
-0.0427941
0.119784
-0.0452256
0.120036
-0.0466413
0.120582
-0.0470427
0.121493
-0.0465419
0.122822
-0.0453427
0.124597
-0.0437001
0.126819
-0.0419443
0.129454
-0.0403825
0.132423
-0.0393361
0.135601
-0.0389604
0.138839
-0.0393406
0.14198
-0.0402685
0.144894
-0.0415457
0.1475
-0.0427244
0.149761
-0.0436352
0.151683
-0.0438869
0.153307
-0.043564
0.154685
-0.042352
0.155867
-0.0405895
0.156901
-0.0379654
0.157827
-0.0350504
0.158672
-0.0313783
0.159456
-0.0277492
0.160187
-0.0234625
0.160875
-0.0195843
0.161525
-0.0151364
0.162161
-0.0115202
0.162805
-0.00732318
0.16349
-0.00437304
0.164225
-0.00075358
0.165037
0.00111945
0.165912
0.00397416
0.166859
0.00484963
0.167817
0.00723987
0.168822
0.00702729
0.169803
0.00902423
0.170863
0.00785625
0.171893
0.0103459
0.173019
0.009386
0.0132946
0.150646
0.0125407
0.148565
0.0120295
0.146681
0.011182
0.144974
0.0101677
0.143537
0.00900513
0.142355
0.00764284
0.141357
0.00607735
0.140506
0.00422266
0.139817
0.00194912
0.139272
-0.000777039
0.138736
-0.00382371
0.138201
-0.00735515
0.137636
-0.0113336
0.13701
-0.0156936
0.136304
-0.0203417
0.135514
-0.0251479
0.134652
-0.0299297
0.133747
-0.0344726
0.13285
-0.0385552
0.132027
-0.0419711
0.131361
-0.0445596
0.130941
-0.0462213
0.130857
-0.0469588
0.13117
-0.0468547
0.131907
-0.0460798
0.133062
-0.0448554
0.134602
-0.0434842
0.136462
-0.0422426
0.138548
-0.0414219
0.140743
-0.0411553
0.142926
-0.0415242
0.144993
-0.0423354
0.146872
-0.043425
0.148534
-0.0443862
0.149982
-0.0450829
0.151241
-0.0451459
0.15235
-0.044673
0.153353
-0.0433548
0.154288
-0.0415247
0.15518
-0.0388577
0.156054
-0.0359247
0.156924
-0.0322474
0.157799
-0.0286244
0.158677
-0.0243408
0.159557
-0.020464
0.160426
-0.0160059
0.161293
-0.0123872
0.16216
-0.00818971
0.163043
-0.00525582
0.163949
-0.0016602
0.164894
0.000174998
0.165876
0.00299185
0.166911
0.00381508
0.16795
0.00620091
0.169023
0.00595341
0.170078
0.0079692
0.171194
0.00674111
0.172302
0.00923748
0.173489
0.00819894
0.0121131
0.170167
0.0150012
0.167899
0.0142969
0.165648
0.0134332
0.16352
0.0122962
0.161594
0.0109303
0.159844
0.00939341
0.158258
0.00766287
0.156823
0.00565768
0.155467
0.00330509
0.15417
0.000520494
0.152909
-0.00256334
0.151618
-0.00606395
0.150285
-0.0100008
0.148876
-0.0142841
0.147371
-0.0188364
0.145768
-0.0235458
0.144088
-0.0282491
0.14237
-0.0327548
0.14068
-0.0368648
0.139098
-0.0403899
0.137721
-0.0431827
0.136645
-0.0451451
0.135965
-0.0462789
0.135737
-0.0466258
0.135967
-0.0463099
0.136623
-0.0455121
0.137646
-0.0445069
0.138946
-0.0435431
0.140417
-0.0428929
0.141945
-0.0426827
0.143429
-0.0430085
0.144799
-0.0437053
0.146024
-0.0446494
0.147105
-0.0454677
0.148071
-0.0460483
0.148953
-0.0460284
0.149789
-0.0455093
0.150611
-0.0441766
0.151449
-0.0423623
0.152317
-0.0397254
0.153228
-0.0368358
0.154185
-0.0332051
0.155195
-0.0296344
0.15625
-0.0253951
0.157342
-0.0215566
0.158452
-0.0171162
0.159577
-0.0135119
0.160704
-0.00931683
0.161839
-0.00639091
0.162976
-0.0027971
0.164127
-0.000976111
0.165291
0.00182878
0.166487
0.00261834
0.16768
0.00500848
0.168893
0.00474057
0.170088
0.00677415
0.171323
0.00550562
0.172568
0.00799229
0.173875
0.00689273
0.0107713
0.178851
0.0166068
0.177004
0.0161439
0.175168
0.0152689
0.173326
0.0141384
0.171495
0.0127617
0.169702
0.0111859
0.167954
0.00941141
0.166225
0.00738685
0.164496
0.00503368
0.162755
0.0022616
0.16106
-0.000868172
0.159233
-0.00423748
0.157299
-0.00806632
0.155243
-0.0122288
0.153072
-0.0166646
0.150799
-0.0212726
0.14846
-0.0259109
0.146116
-0.0304106
0.143845
-0.0345938
0.141739
-0.0382841
0.139894
-0.0413374
0.138395
-0.0436457
0.137297
-0.0451812
0.136637
-0.0459656
0.136427
-0.0461004
0.136656
-0.0457404
0.13726
-0.0451116
0.138141
-0.0444243
0.139186
-0.0439374
0.140281
-0.0437774
0.141337
-0.044065
0.1423
-0.0446685
0.143158
-0.0455074
0.143927
-0.046237
0.144645
-0.046766
0.145347
-0.0467302
0.146069
-0.0462311
0.146835
-0.0449434
0.147671
-0.0431977
0.148583
-0.0406378
0.149583
-0.037836
0.150668
-0.0342894
0.151838
-0.0308052
0.153084
-0.0266408
0.154397
-0.02287
0.155754
-0.0184725
0.157144
-0.014902
0.158546
-0.0107196
0.159959
-0.00780351
0.161363
-0.00420087
0.162771
-0.00238433
0.164169
0.000431234
0.165587
0.00119959
0.166994
0.00360176
0.168409
0.0033257
0.169806
0.00537708
0.171226
0.00408592
0.172667
0.00655144
0.174152
0.00540693
0.00921988
0.194625
0.0178225
-0.195841
0.193871
0.0168977
0.193089
0.0160513
0.192326
0.0149017
0.191611
0.0134769
0.19095
0.011847
0.190356
0.0100049
0.189839
0.00790401
0.189378
0.00549441
0.188877
0.0027632
0.188256
-0.00024788
0.187722
-0.00370324
0.187064
-0.00740806
0.186266
-0.011431
0.185291
-0.0156892
0.184099
-0.0200808
0.182671
-0.0244836
0.181013
-0.0287522
0.179152
-0.0327333
0.177142
-0.0362742
0.175056
-0.0392508
0.172979
-0.0415688
0.170998
-0.0432002
0.169193
-0.0441605
0.167631
-0.0445386
0.166351
-0.0444606
0.165366
-0.0441261
0.164652
-0.0437106
0.164155
-0.0434401
0.163792
-0.0434143
0.163472
-0.0437452
0.163113
-0.044309
0.162656
-0.0450512
0.162078
-0.0456587
0.161384
-0.0460714
0.160599
-0.0459459
0.159764
-0.0453962
0.158922
-0.0441012
0.158117
-0.0423922
0.157386
-0.0399071
0.15676
-0.0372096
0.156256
-0.0337859
0.155888
-0.0304364
0.155656
-0.0264092
0.155558
-0.0227719
0.155578
-0.0184927
0.155702
-0.0150255
0.155905
-0.0109234
0.156171
-0.00806947
0.156474
-0.00450296
0.156796
-0.00270684
0.15712
0.000107055
0.157447
0.000872987
0.157752
0.0032965
0.158036
0.00304216
0.158278
0.00513517
0.158489
0.00387476
0.158684
0.00635605
0.15887
0.00522077
0.00899295
0.207797
0.017964
-0.207938
0.207684
0.0170108
0.207657
0.0160775
0.207577
0.0149822
0.207415