/*--------------------------------*- C++ -*----------------------------------*\
| =========                 |                                                 |
| \\      /  F ield         | OpenFOAM: The Open Source CFD Toolbox           |
|  \\    /   O peration     | Version:  2512                                  |
|   \\  /    A nd           | Website:  www.openfoam.com                      |
|    \\/     M anipulation  |                                                 |
\*---------------------------------------------------------------------------*/
FoamFile
{
    version     2.0;
    format      ascii;
    arch        "LSB;label=32;scalar=64";
    class       volScalarField;
    location    "192";
    object      p;
}
// * * * * * * * * * * * * * * * * * * * * * * * * * * * * * * * * * * * * * //

dimensions      [0 2 -2 0 0 0 0];

internalField   nonuniform List<scalar> 
13248
(
-0.388656
-0.386677
-0.383496
-0.379394
-0.374795
-0.370144
-0.365849
-0.362247
-0.359567
-0.357896
-0.357166
-0.357163
-0.35754
-0.357866
-0.357676
-0.356528
-0.354055
-0.35
-0.344222
-0.33672
-0.327401
-0.316503
-0.302802
-0.287265
-0.397421
-0.394728
-0.390973
-0.386451
-0.381529
-0.376605
-0.372012
-0.367988
-0.364646
-0.361959
-0.359767
-0.357799
-0.355713
-0.353147
-0.349776
-0.345346
-0.339697
-0.332768
-0.324565
-0.315133
-0.304501
-0.292717
-0.279521
-0.265806
-0.408571
-0.404846
-0.400332
-0.395273
-0.389934
-0.384631
-0.379586
-0.374901
-0.370555
-0.366423
-0.362297
-0.357931
-0.353079
-0.347539
-0.341176
-0.333929
-0.325804
-0.316843
-0.307105
-0.296648
-0.285479
-0.273691
-0.261093
-0.24833
-0.421971
-0.416969
-0.411532
-0.40581
-0.39991
-0.39403
-0.388244
-0.3825
-0.376666
-0.370574
-0.364059
-0.356991
-0.349295
-0.340957
-0.332013
-0.322527
-0.312575
-0.302222
-0.291515
-0.280486
-0.269154
-0.257577
-0.245668
-0.234031
-0.43747
-0.43102
-0.424538
-0.418026
-0.411374
-0.404615
-0.397662
-0.390333
-0.382455
-0.373916
-0.36469
-0.354831
-0.344448
-0.333673
-0.322638
-0.311448
-0.300176
-0.288863
-0.277527
-0.26617
-0.254795
-0.243421
-0.232003
-0.220906
-0.4549
-0.446901
-0.439294
-0.431859
-0.424192
-0.416129
-0.407444
-0.39791
-0.387427
-0.376053
-0.363966
-0.351406
-0.338616
-0.3258
-0.313102
-0.300609
-0.288355
-0.276344
-0.26456
-0.252982
-0.241593
-0.230387
-0.219341
-0.208682
-0.474
-0.46442
-0.455638
-0.447108
-0.438054
-0.428124
-0.417038
-0.404664
-0.391111
-0.37668
-0.361758
-0.346718
-0.331854
-0.317362
-0.303347
-0.289842
-0.276839
-0.264301
-0.252188
-0.240458
-0.229076
-0.218014
-0.20726
-0.196891
-0.494343
-0.483215
-0.473208
-0.463331
-0.452394
-0.439923
-0.425745
-0.40999
-0.393073
-0.375554
-0.357969
-0.340735
-0.32412
-0.308257
-0.293186
-0.278881
-0.265291
-0.25235
-0.239994
-0.228166
-0.216815
-0.205902
-0.195411
-0.185309
-0.515269
-0.50269
-0.491383
-0.479807
-0.466379
-0.450664
-0.432796
-0.413306
-0.392952
-0.372491
-0.352514
-0.333398
-0.315327
-0.29835
-0.282432
-0.267497
-0.253456
-0.24022
-0.227704
-0.215836
-0.204553
-0.193809
-0.183568
-0.17372
-0.535861
-0.521979
-0.509246
-0.495516
-0.478948
-0.459368
-0.437416
-0.414091
-0.390443
-0.367323
-0.345281
-0.324592
-0.305331
-0.287458
-0.270872
-0.255455
-0.241086
-0.227655
-0.215061
-0.203216
-0.192048
-0.181499
-0.171508
-0.16193
-0.554971
-0.539952
-0.525598
-0.509192
-0.488871
-0.464981
-0.438796
-0.411764
-0.385118
-0.359691
-0.335922
-0.313952
-0.293745
-0.275178
-0.258095
-0.242342
-0.227772
-0.214256
-0.201677
-0.189936
-0.178948
-0.168642
-0.158919
-0.149651
-0.571329
-0.555368
-0.539166
-0.519549
-0.494937
-0.466442
-0.436032
-0.405528
-0.376226
-0.348855
-0.32369
-0.300727
-0.279822
-0.260778
-0.243391
-0.227473
-0.212854
-0.199388
-0.186944
-0.175412
-0.164702
-0.154726
-0.145357
-0.136536
-0.353983
-0.355137
-0.355812
-0.356325
-0.35703
-0.35812
-0.3597
-0.36183
-0.364539
-0.367847
-0.371776
-0.376347
-0.381579
-0.387476
-0.394019
-0.401151
-0.408766
-0.416695
-0.424703
-0.432482
-0.439645
-0.44574
-0.450283
-0.452902
-0.359589
-0.359797
-0.359917
-0.360112
-0.360627
-0.361657
-0.363331
-0.365729
-0.3689
-0.372887
-0.377734
-0.383486
-0.390182
-0.397843
-0.40646
-0.415971
-0.426252
-0.437092
-0.448194
-0.459166
-0.46948
-0.478553
-0.485633
-0.490135
-0.364719
-0.364015
-0.363566
-0.363389
-0.363624
-0.36447
-0.366077
-0.368546
-0.371947
-0.376336
-0.381772
-0.388309
-0.395995
-0.404854
-0.414872
-0.425976
-0.438019
-0.450757
-0.463836
-0.476786
-0.489021
-0.499832
-0.508326
-0.513436
-0.368926
-0.367439
-0.366442
-0.365839
-0.365685
-0.366184
-0.367514
-0.369799
-0.373131
-0.377579
-0.383206
-0.39007
-0.398214
-0.407653
-0.41836
-0.430242
-0.443127
-0.456741
-0.470695
-0.484471
-0.497424
-0.508702
-0.517614
-0.522262
-0.371975
-0.369912
-0.368432
-0.367366
-0.366711
-0.366688
-0.367508
-0.36933
-0.372268
-0.376411
-0.381828
-0.388571
-0.396672
-0.406132
-0.416902
-0.42887
-0.441835
-0.455497
-0.469439
-0.483081
-0.495776
-0.506535
-0.515018
-0.51819
-0.373849
-0.371467
-0.369604
-0.368059
-0.366815
-0.366116
-0.366215
-0.367313
-0.369564
-0.373078
-0.377936
-0.384187
-0.391853
-0.400914
-0.411301
-0.422872
-0.435401
-0.448537
-0.46184
-0.474699
-0.486447
-0.495786
-0.502998
-0.503765
-0.374743
-0.372307
-0.370175
-0.368163
-0.36628
-0.364804
-0.364035
-0.364228
-0.36558
-0.368238
-0.3723
-0.377818
-0.384806
-0.393225
-0.402979
-0.413874
-0.425651
-0.437927
-0.450168
-0.461647
-0.471774
-0.478962
-0.483997
-0.481674
-0.375038
-0.372772
-0.370477
-0.368031
-0.365508
-0.363229
-0.361543
-0.360761
-0.361133
-0.362847
-0.366024
-0.370722
-0.376948
-0.384623
-0.393619
-0.4037
-0.414496
-0.425526
-0.436197
-0.445687
-0.453425
-0.457758
-0.459683
-0.453981
-0.375279
-0.373315
-0.370926
-0.368088
-0.364971
-0.361941
-0.359398
-0.357702
-0.357156
-0.357986
-0.360343
-0.364244
-0.369709
-0.376621
-0.38474
-0.393734
-0.403145
-0.412391
-0.420812
-0.427577
-0.432149
-0.433138
-0.431435
-0.422602
-0.376121
-0.374466
-0.371997
-0.36881
-0.365181
-0.361523
-0.358273
-0.355832
-0.354535
-0.354624
-0.356237
-0.359453
-0.364145
-0.370118
-0.377043
-0.384471
-0.391845
-0.398529
-0.403869
-0.407204
-0.408149
-0.405852
-0.401024
-0.390074
-0.378263
-0.376776
-0.374182
-0.370678
-0.366636
-0.362504
-0.358739
-0.355759
-0.353904
-0.35341
-0.354384
-0.356806
-0.360499
-0.365155
-0.370336
-0.375503
-0.380056
-0.383396
-0.384978
-0.384431
-0.381606
-0.376403
-0.369565
-0.35832
-0.382295
-0.380746
-0.377915
-0.374102
-0.369732
-0.365267
-0.361158
-0.357807
-0.355519
-0.354477
-0.354719
-0.356127
-0.358429
-0.361223
-0.364011
-0.366244
-0.367382
-0.366964
-0.364627
-0.360238
-0.353711
-0.345479
-0.336013
-0.325241
-0.45377
-0.448367
-0.436392
-0.417016
-0.390335
-0.357601
-0.321099
-0.283788
-0.24885
-0.219412
-0.198068
-0.186702
-0.186074
-0.19492
-0.209167
-0.222248
-0.226734
-0.218272
-0.196081
-0.165713
-0.135039
-0.11017
-0.0938509
-0.0861277
-0.0857241
-0.0919825
-0.106252
-0.129142
-0.155028
-0.171954
-0.169675
-0.149915
-0.122095
-0.0963994
-0.0782224
-0.0678895
-0.0638751
-0.0670073
-0.0785336
-0.0929603
-0.0997133
-0.093519
-0.0792597
-0.0657873
-0.0563089
-0.0517189
-0.0537438
-0.0600259
-0.0636371
-0.0613758
-0.0535443
-0.0465876
-0.039507
-0.0341027
-0.0321353
-0.0307927
-0.0282099
-0.0250419
-0.0161925
-0.00316829
-0.493247
-0.488107
-0.474527
-0.452345
-0.42153
-0.383395
-0.340532
-0.296318
-0.254312
-0.217706
-0.189087
-0.170211
-0.162016
-0.164075
-0.17347
-0.184544
-0.190242
-0.185128
-0.168665
-0.144737
-0.120069
-0.100271
-0.0881748
-0.0840392
-0.0867763
-0.0961564
-0.113957
-0.140486
-0.169212
-0.18708
-0.183249
-0.160432
-0.129203
-0.100406
-0.0794716
-0.0667431
-0.0604773
-0.0610751
-0.0698006
-0.0819924
-0.0881246
-0.0831983
-0.0717429
-0.0612727
-0.0545989
-0.0524411
-0.0570878
-0.0658489
-0.0705047
-0.067756
-0.0577648
-0.0489536
-0.0398865
-0.0325971
-0.0291799
-0.0265635
-0.0243682
-0.0216302
-0.0142894
-0.00300287
-0.518087
-0.513367
-0.498719
-0.47453
-0.440742
-0.398618
-0.350923
-0.30127
-0.253478
-0.211001
-0.176383
-0.151219
-0.136341
-0.131743
-0.135744
-0.144002
-0.150261
-0.148533
-0.137972
-0.120632
-0.102202
-0.0877548
-0.0801374
-0.0797177
-0.0856036
-0.097975
-0.11891
-0.148464
-0.179568
-0.198471
-0.193781
-0.16864
-0.134644
-0.103252
-0.0799503
-0.0650876
-0.0567759
-0.0549999
-0.0609874
-0.0709611
-0.0764713
-0.0727246
-0.0639631
-0.0563578
-0.0524595
-0.052798
-0.0601553
-0.071472
-0.0772104
-0.0739371
-0.0617342
-0.0510395
-0.0401117
-0.0310888
-0.0263079
-0.0224033
-0.0205318
-0.0181811
-0.0123735
-0.0028411
-0.527365
-0.522949
-0.508229
-0.483328
-0.448076
-0.403748
-0.353223
-0.300236
-0.248715
-0.202135
-0.162979
-0.132725
-0.112133
-0.10139
-0.0996385
-0.104098
-0.109879
-0.111742
-0.105637
-0.0944965
-0.0821426
-0.0730034
-0.0698124
-0.0729476
-0.0817111
-0.0966427
-0.120091
-0.152101
-0.185321
-0.205549
-0.200824
-0.174262
-0.138268
-0.104898
-0.0797194
-0.0630651
-0.0529695
-0.0490574
-0.0524693
-0.0602841
-0.0651264
-0.0623815
-0.0561021
-0.0511349
-0.0499017
-0.0527038
-0.0627791
-0.0766895
-0.0835788
-0.0797997
-0.0653953
-0.0528179
-0.0401662
-0.0295828
-0.0235495
-0.0183506
-0.0167401
-0.014728
-0.0104616
-0.00268669
-0.522292
-0.517299
-0.503272
-0.479196
-0.444176
-0.399687
-0.348785
-0.295058
-0.242238
-0.193653
-0.15166
-0.117612
-0.0922338
-0.075882
-0.0683321
-0.0680776
-0.0717324
-0.0747565
-0.0730228
-0.067497
-0.0606777
-0.0564532
-0.0572856
-0.0635703
-0.074781
-0.091747
-0.117074
-0.151003
-0.186079
-0.207899
-0.20407
-0.177174
-0.140082
-0.105422
-0.0788836
-0.0608155
-0.0492316
-0.0434714
-0.0445221
-0.0502767
-0.0544153
-0.0524315
-0.0483315
-0.0456892
-0.0469219
-0.0520675
-0.0647972
-0.0812905
-0.0894009
-0.0851977
-0.0686903
-0.0542705
-0.0400408
-0.0280817
-0.0209287
-0.0144421
-0.0130304
-0.0113025
-0.00856818
-0.00254341
-0.505138
-0.498564
-0.485773
-0.463716
-0.430451
-0.3878
-0.338915
-0.286995
-0.235342
-0.186962
-0.144004
-0.107695
-0.0786894
-0.0574561
-0.0442581
-0.0386356
-0.0387078
-0.0412232
-0.0422311
-0.0409412
-0.0387243
-0.038676
-0.0428846
-0.0517731
-0.0649447
-0.0834067
-0.109971
-0.145194
-0.181882
-0.205512
-0.203405
-0.17732
-0.140122
-0.104913
-0.0775392
-0.0584407
-0.0456741
-0.0383746
-0.0373459
-0.0411796
-0.0446045
-0.0431065
-0.040807
-0.0401042
-0.0435297
-0.0508262
-0.0660624
-0.0850658
-0.0944683
-0.0899998
-0.0715695
-0.0553854
-0.0397264
-0.0265815
-0.0184615
-0.0107085
-0.00943466
-0.00793349
-0.00670454
-0.00241435
-0.478961
-0.46991
-0.458605
-0.439339
-0.409064
-0.369999
-0.325163
-0.277136
-0.22868
-0.182406
-0.140196
-0.103162
-0.071922
-0.0469407
-0.0287232
-0.017566
-0.0129164
-0.0129545
-0.0148219
-0.0159383
-0.0172379
-0.020416
-0.027212
-0.0380519
-0.0526333
-0.0720458
-0.0992431
-0.13513
-0.173102
-0.198728
-0.19902
-0.174761
-0.138477
-0.103467
-0.0757693
-0.0560116
-0.042359
-0.0338221
-0.03102
-0.0331254
-0.0358743
-0.0352796
-0.0336811
-0.0344862
-0.0397655
-0.0489433
-0.0664565
-0.0878349
-0.0985983
-0.0940883
-0.0739851
-0.0561546
-0.0392208
-0.025077
-0.0161506
-0.00717203
-0.00597856
-0.00464629
-0.00487819
-0.00230245
-0.44641
-0.434678
-0.42518
-0.409092
-0.382646
-0.348494
-0.309159
-0.266423
-0.222515
-0.179668
-0.139508
-0.10305
-0.0709148
-0.0435611
-0.0215084
-0.00537047
0.0044773
0.00850566
0.00841076
0.00643266
0.0030258
-0.00231298
-0.0108678
-0.022977
-0.0384195
-0.0583284
-0.085675
-0.121672
-0.160505
-0.188164
-0.191305
-0.169693
-0.135242
-0.10116
-0.0736291
-0.0535675
-0.0393178
-0.029835
-0.0255665
-0.0261492
-0.0282272
-0.0276537
-0.0270329
-0.0289556
-0.0356926
-0.0464234
-0.0659086
-0.0894651
-0.101652
-0.0973524
-0.0758954
-0.0565772
-0.0385355
-0.0235769
-0.0140009
-0.00384509
-0.00268076
-0.001463
-0.00309376
-0.00221131
-0.410274
-0.396886
-0.389569
-0.376495
-0.354192
-0.325639
-0.292453
-0.255603
-0.21685
-0.178081
-0.140722
-0.105735
-0.0737835
-0.0453578
-0.0209285
-0.00108816
0.0134616
0.0222343
0.025624
0.0250034
0.0213754
0.0151115
0.00564951
-0.00707686
-0.0228936
-0.0429659
-0.0701959
-0.106025
-0.145268
-0.174683
-0.180807
-0.162452
-0.130657
-0.0981928
-0.071295
-0.0512478
-0.0366589
-0.0264781
-0.0210208
-0.0202648
-0.0216895
-0.0210457
-0.0209706
-0.0236446
-0.0313917
-0.0432707
-0.0643977
-0.0898942
-0.103528
-0.0997202
-0.077293
-0.0566837
-0.0377068
-0.0221075
-0.0120538
-0.000743803
0.000447541
0.00159785
-0.00135317
-0.00214519
-0.374406
-0.361373
-0.356149
-0.345262
-0.32687
-0.30386
-0.276653
-0.245559
-0.211944
-0.177349
-0.143033
-0.109954
-0.0788663
-0.0503068
-0.0247538
-0.00266335
0.0153433
0.0284538
0.0361114
0.0385814
0.0367973
0.0311314
0.0217284
0.00897513
-0.00684641
-0.0268843
-0.0538248
-0.0890731
-0.128269
-0.159102
-0.168112
-0.153596
-0.125224
-0.0950508
-0.0691976
-0.0493844
-0.0346198
-0.0238927
-0.0174288
-0.0154649
-0.0162819
-0.0155311
-0.0155769
-0.0186438
-0.0269492
-0.0396192
-0.0619532
-0.0890733
-0.104153
-0.101167
-0.0781868
-0.0565382
-0.0367773
-0.0206745
-0.0103436
0.00208169
0.00339256
0.00452138
0.000343082
-0.00210933
-0.342746
-0.332404
-0.328367
-0.318517
-0.30355
-0.285532
-0.263731
-0.238023
-0.209356
-0.178885
-0.147688
-0.116734
-0.086836
-0.0585183
-0.0323482
-0.00885086
0.0114421
0.0279081
0.0398142
0.0466295
0.0479762
0.0444531
0.0364626
0.0245439
0.0092
-0.0105767
-0.0372503
-0.0722395
-0.111183
-0.142203
-0.153921
-0.143069
-0.118746
-0.0915494
-0.0671604
-0.0477766
-0.0329744
-0.0218674
-0.0145517
-0.0114703
-0.0117719
-0.0110811
-0.0110915
-0.0142047
-0.0224102
-0.0353697
-0.058604
-0.0871893
-0.103522
-0.101537
-0.0783986
-0.056079
-0.0356632
-0.0191889
-0.00872624
0.00462374
0.00612754
0.00728202
0.0020023
-0.00210873
-0.315481
-0.31039
-0.305467
-0.294948
-0.282122
-0.267633
-0.250075
-0.229031
-0.204964
-0.178621
-0.150834
-0.122446
-0.0942564
-0.0669507
-0.0411584
-0.0174312
0.00375155
0.0218941
0.0365396
0.0474665
0.053104
0.053057
0.0475874
0.0374884
0.0233172
0.00437105
-0.0213992
-0.055104
-0.0926256
-0.122932
-0.135191
-0.128543
-0.108762
-0.0850451
-0.0627257
-0.0443767
-0.0300611
-0.0191222
-0.0114529
-0.00757658
-0.0074328
-0.00695354
-0.00781358
-0.0103738
-0.0181871
-0.031075
-0.0545173
-0.083929
-0.101591
-0.100416
-0.077513
-0.0548996
-0.0340322
-0.0174565
-0.00688789
0.00716262
0.00873343
0.00988175
0.00360849
-0.00215578
-0.28833
-0.296147
-0.288889
-0.276063
-0.262633
-0.248489
-0.232069
-0.212618
-0.190362
-0.165995
-0.140288
-0.11397
-0.0877079
-0.0620969
-0.037684
-0.0149602
0.00564688
0.0237629
0.0389814
0.0512071
0.0580764
0.0604967
0.0577128
0.0497507
0.0370967
0.0190051
-0.00712895
-0.0429946
-0.0831383
-0.114528
-0.12672
-0.117993
-0.0986156
-0.0764814
-0.055948
-0.0390576
-0.0257414
-0.0154274
-0.00795801
-0.00381807
-0.00328484
-0.00255144
-0.00292093
-0.00501218
-0.0122298
-0.0251179
-0.0493205
-0.0807684
-0.100542
-0.10074
-0.0763251
-0.0530596
-0.0319871
-0.0155993
-0.00495795
0.00981818
0.0113146
0.0124751
0.00517576
-0.00227566
-0.260437
-0.271898
-0.265673
-0.252248
-0.238541
-0.225142
-0.210326
-0.19295
-0.173038
-0.151222
-0.128198
-0.104555
-0.0808176
-0.0574857
-0.0350502
-0.0139638
0.00538098
0.0226616
0.0375184
0.0488966
0.0575466
0.0616071
0.0606308
0.0545143
0.0435049
0.0265918
0.000804325
-0.0350798
-0.0740584
-0.10255
-0.111551
-0.103187
-0.0860205
-0.0668532
-0.0489521
-0.0339013
-0.0217932
-0.0122516
-0.00510452
-0.000861448
-0.000115982
0.000549816
-8.83281e-05
-0.00141527
-0.00794381
-0.0203629
-0.0446743
-0.0772326
-0.0978747
-0.0981253
-0.0738585
-0.0504913
-0.0296315
-0.0135766
-0.00305822
0.0119631
0.0133716
0.014722
0.0065282
-0.00235538
-0.235149
-0.246787
-0.242171
-0.229788
-0.216735
-0.204344
-0.191127
-0.17578
-0.158125
-0.138675
-0.118054
-0.0967711
-0.0752643
-0.0539677
-0.0333251
-0.0137575
0.00435692
0.0206928
0.0349072
0.0463401
0.0549211
0.0595247
0.059466
0.0544344
0.0444477
0.0283589
0.00360882
-0.0295918
-0.0637255
-0.087674
-0.0948875
-0.0879939
-0.0738004
-0.0577176
-0.0423134
-0.0289827
-0.0179965
-0.00919905
-0.00244664
0.00181307
0.00274933
0.00336741
0.00286777
0.00164738
-0.00470138
-0.0168678
-0.0407989
-0.072944
-0.0934285
-0.0941041
-0.0705873
-0.0474745
-0.0270489
-0.0114273
-0.00114872
0.0139544
0.0152667
0.016766
0.00779243
-0.00236831
-0.212246
-0.222884
-0.21965
-0.20887
-0.196878
-0.185444
-0.173541
-0.15993
-0.144282
-0.126972
-0.108546
-0.0894603
-0.0700862
-0.0507858
-0.0319425
-0.013939
0.0028666
0.0181535
0.0315568
0.0425596
0.0508542
0.0556769
0.0562471
0.0520882
0.0430587
0.0281596
0.00570496
-0.0231478
-0.0518779
-0.0717441
-0.0780753
-0.0730734
-0.0618737
-0.0487435
-0.035764
-0.0241515
-0.0142945
-0.00626178
2.80183e-05
0.004236
0.00537007
0.00606486
0.00573132
0.00460332
-0.0016251
-0.013524
-0.0364695
-0.0674403
-0.0876996
-0.0889414
-0.0665021
-0.0440086
-0.0242239
-0.00914412
0.000777009
0.0157939
0.0170414
0.0186532
0.0090379
-0.00231846
-0.190699
-0.200571
-0.198394
-0.189151
-0.178363
-0.167938
-0.157249
-0.145218
-0.131435
-0.116133
-0.099771
-0.0827525
-0.0653983
-0.0480119
-0.0309243
-0.0144839
0.00096787
0.0151121
0.0275882
0.0379667
0.0458765
0.0507176
0.0517569
0.0484664
0.0406351
0.027561
0.00831629
-0.0157921
-0.0394773
-0.0559307
-0.0618726
-0.0588986
-0.0506002
-0.0402311
-0.0295067
-0.0195271
-0.0107594
-0.00346817
0.00232321
0.00641894
0.0077356
0.00857726
0.00839702
0.00746896
0.00157733
-0.00969656
-0.0311825
-0.0608262
-0.0807302
-0.0825028
-0.0615422
-0.0400934
-0.0211857
-0.00675198
0.00271275
0.017445
0.0186536
0.0203774
0.0102739
-0.00220546
-0.170872
-0.180002
-0.178526
-0.170619
-0.161078
-0.151741
-0.142234
-0.131658
-0.119582
-0.106135
-0.0916842
-0.0765867
-0.0611253
-0.0455595
-0.0301749
-0.015283
-0.00120349
0.0117598
0.0232736
0.0329387
0.0403872
0.045126
0.0465387
0.0441302
0.0376682
0.0267126
0.0108761
-0.00861538
-0.0277124
-0.0414089
-0.0472211
-0.0460917
-0.040324
-0.0323507
-0.0236231
-0.0151521
-0.00742608
-0.000839604
0.00444088
0.00837234
0.00984063
0.0108878
0.0109027
0.0102316
0.00492056
-0.00540037
-0.0251713
-0.053216
-0.0724843
-0.0748096
-0.0557376
-0.0357621
-0.0179751
-0.00428241
0.00465345
0.0188771
0.0200653
0.0219001
0.0114728
-0.0020163
-0.152885
-0.161042
-0.160049
-0.153336
-0.145018
-0.136782
-0.128413
-0.119168
-0.10864
-0.0968859
-0.0841982
-0.0708839
-0.0571935
-0.0433515
-0.0296025
-0.0162196
-0.00349448
0.00828454
0.0188055
0.0277162
0.0346657
0.0392424
0.0409528
0.0393703
0.0342758
0.0254463
0.0128486
-0.00249082
-0.0176546
-0.0290684
-0.0347207
-0.0349695
-0.0312029
-0.0252069
-0.0181921
-0.0110773
-0.00433182
0.00159752
0.0063821
0.0101131
0.0117027
0.0129957
0.0132775
0.0128864
0.00832331
-0.000869975
-0.0186654
-0.0446972
-0.0631175
-0.066021
-0.0491772
-0.0310694
-0.014642
-0.00177569
0.00659767
0.0200692
0.021254
0.0231815
0.012614
-0.0017287
-0.136282
-0.143558
-0.142986
-0.137343
-0.130163
-0.122979
-0.115681
-0.107654
-0.0985268
-0.0883146
-0.0772462
-0.0655816
-0.0535398
-0.0413156
-0.0291184
-0.0171856
-0.00577818
0.00483309
0.0143531
0.0225027
0.0289373
0.0333152
0.0352485
0.0343938
0.0305782
0.0237224
0.013956
0.00208028
-0.0098243
-0.0192346
-0.0244873
-0.0255888
-0.0232897
-0.0188583
-0.0132684
-0.0073393
-0.00150043
0.00382056
0.00814826
0.0116587
0.0133456
0.0148981
0.0155343
0.0154382
0.0117367
0.00380944
-0.0117619
-0.0354928
-0.052919
-0.056388
-0.0420159
-0.0260969
-0.0112437
0.000723252
0.00854734
0.021015
0.022218
0.0241978
0.0136985
-0.00131296
-0.120996
-0.127562
-0.127336
-0.122616
-0.11646
-0.11025
-0.103944
-0.0970296
-0.0891717
-0.0803582
-0.0707684
-0.06062
-0.0501023
-0.0393837
-0.028644
-0.0180887
-0.00794739
0.00153593
0.0100987
0.0174817
0.0233962
0.0275524
0.0296468
0.0294156
0.0267324
0.021583
0.0141612
0.00510589
-0.00410472
-0.0117109
-0.016354
-0.0178574
-0.0165573
-0.0133165
-0.00888306
-0.00396446
0.0010533
0.00581097
0.00973456
0.0130233
0.0147919
0.0165899
0.0176634
0.0179243
0.0152083
0.00865412
-0.00463593
-0.025977
-0.0422805
-0.0462532
-0.0344756
-0.0209527
-0.00784069
0.00316999
0.0105035
0.0217331
0.0229882
0.0249458
0.0147427
-0.000731363
-0.107146
-0.112995
-0.113003
-0.109079
-0.103843
-0.0985259
-0.0931292
-0.0872233
-0.0805096
-0.0729582
-0.0647094
-0.0559445
-0.0468256
-0.0374976
-0.0281142
-0.0188512
-0.00990761
-0.00149815
0.0061448
0.0127927
0.0181984
0.0221217
0.0243247
0.0246068
0.0228771
0.0191543
0.0136545
0.00688625
-0.000103907
-0.00610887
-0.0100265
-0.0116048
-0.0109302
-0.00856225
-0.00504683
-0.000970187
0.00332239
0.00755797
0.0111286
0.0142148
0.0160598
0.0180622
0.0196174
0.0204065
0.0188037
0.0136171
0.00239072
-0.0166396
-0.0316843
-0.0360382
-0.0268329
-0.0157697
-0.00449363
0.00552609
0.0124581
0.0222763
0.0236322
0.0254451
0.0157718
5.98594e-05
-0.0945658
-0.0997088
-0.0998945
-0.0966705
-0.0922596
-0.0877488
-0.0831721
-0.078172
-0.0724827
-0.0660632
-0.0590223
-0.0515101
-0.0436645
-0.0356093
-0.0274741
-0.0194087
-0.0115833
-0.00418141
0.00259436
0.00854422
0.0134595
0.0171423
0.0194061
0.020098
0.0191561
0.0166157
0.0126761
0.00774929
0.00259318
-0.00202367
-0.0051916
-0.0066362
-0.00630943
-0.00455523
-0.00175238
0.00163604
0.00530487
0.00905974
0.012317
0.0152287
0.0171565
0.0193092
0.0213155
0.0228513
0.0224224
0.0184684
0.00888342
-0.00800694
-0.0216273
-0.0261805
-0.0193881
-0.0106985
-0.0012602
0.00776086
0.0143822
0.0227308
0.0242456
0.0257405
0.0168134
0.00109733
-0.0830691
-0.0876194
-0.0879603
-0.0853426
-0.0816565
-0.0778616
-0.0740151
-0.0698198
-0.06504
-0.0596276
-0.0536658
-0.0472785
-0.0405819
-0.0336803
-0.0266824
-0.0197132
-0.0129176
-0.00645156
-0.000486062
0.00480942
0.00925787
0.0126968
0.0149797
0.0159919
0.01569
0.0141132
0.0114301
0.00797248
0.00433625
0.00086748
-0.001573
-0.0027605
-0.00258479
-0.00124085
0.00102243
0.0038572
0.00700165
0.0103209
0.0132945
0.0160491
0.0180654
0.0203308
0.0226861
0.0249414
0.0256222
0.0226837
0.0143584
-0.000484592
-0.0125072
-0.0170659
-0.0124285
-0.00589758
0.0018055
0.00984679
0.0162115
0.0231961
0.0249243
0.0259005
0.0178761
0.0023807
-0.0726585
-0.0766849
-0.0771295
-0.0750196
-0.0719639
-0.0688013
-0.0656002
-0.0621136
-0.0581346
-0.0536112
-0.0486059
-0.0432199
-0.0375504
-0.0316843
-0.0257118
-0.019736
-0.0138774
-0.00826946
-0.00305264
0.00163411
0.00564241
0.00883721
0.0111023
0.0123521
0.0125558
0.0117491
0.010067
0.00774457
0.00512496
0.00280849
0.00106873
0.000201549
0.000357842
0.00144462
0.00331054
0.00570629
0.00841683
0.0113486
0.0140633
0.0166641
0.0187535
0.0210887
0.0236745
0.0264014
0.0278187
0.0256375
0.0184368
0.00572399
-0.00459298
-0.00901068
-0.0062007
-0.00151349
0.0046531
0.0117515
0.017845
0.02374
0.0257229
0.0259984
0.0189147
0.0038319
-0.0632961
-0.0668031
-0.0673029
-0.0656245
-0.0631179
-0.0605104
-0.0578752
-0.0550074
-0.0517269
-0.0479813
-0.0438161
-0.0393131
-0.0345529
-0.0296074
-0.0245505
-0.0194657
-0.0144525
-0.00962036
-0.00508491
-0.000958937
0.00263382
0.00558362
0.00779743
0.00921061
0.00980063
0.00959524
0.00870405
0.00730789
0.00563156
0.00409624
0.00295159
0.00241484
0.00263126
0.00357073
0.0051521
0.00720432
0.00955931
0.0121505
0.014629
0.0170696
0.0191916
0.0215275
0.0241777
0.0269832
0.0286771
0.027047
0.021011
0.0105286
0.00190796
-0.00224611
-0.000870486
0.00234614
0.00723724
0.0134316
0.0191674
0.0243468
0.0265917
0.0260811
0.0198078
0.00526585
-0.0548173
-0.0578688
-0.0584022
-0.0570905
-0.055062
-0.0529364
-0.0507913
-0.0484588
-0.0457823
-0.0427105
-0.0392762
-0.035545
-0.0315824
-0.0274469
-0.0231982
-0.0189044
-0.0146458
-0.0105095
-0.00658969
-0.00297722
0.000225518
0.0029308
0.00506413
0.00657432
0.00744226
0.00769329
0.00741531
0.00677439
0.00579528
0.00489298
0.0042496
0.00402378
0.0043422
0.00520933
0.0065921
0.00837792
0.0104427
0.0127363
0.0149984
0.0172676
0.0193638
0.0216284
0.0241053
0.026727
0.0283455
0.0271207
0.0222502
0.0139266
0.00689736
0.00313646
0.00350423
0.00562757
0.0095168
0.0148421
0.0200856
0.0248711
0.0273459
0.0261312
0.0203771
0.00642334
-0.0471641
-0.0498328
-0.0503831
-0.0493598
-0.0477361
-0.0460251
-0.0443013
-0.0424276
-0.040269
-0.0377763
-0.034972
-0.0319083
-0.0286384
-0.0252092
-0.0216679
-0.0180687
-0.0144759
-0.0109593
-0.00759421
-0.00444835
-0.00160896
0.0008539
0.00288091
0.00443082
0.00548559
0.00606115
0.00621131
0.00599592
0.00569645
0.00532945
0.00510365
0.00515386
0.00558917
0.00643142
0.00767801
0.00925739
0.0110853
0.0131196
0.015179
0.0172691
0.0192771
0.0214058
0.0236267
0.0258658
0.0272289
0.026295
0.0224824
0.0160744
0.0104713
0.00720599
0.00695986
0.00832423
0.011448
0.0159452
0.0205762
0.0250857
0.0276989
0.0259997
0.0204304
0.00709499
-0.0402936
-0.0426193
-0.043185
-0.0424247
-0.0411143
-0.03974
-0.0383667
-0.0368792
-0.0351593
-0.0331594
-0.0308931
-0.0284014
-0.0257273
-0.0229085
-0.0199814
-0.016987
-0.0139755
-0.0110037
-0.00813242
-0.00540973
-0.00291014
-0.000686921
0.00121246
0.0027548
0.00392274
0.00472635
0.00520515
0.00541928
0.00550031
0.00552781
0.00563206
0.00591311
0.00646141
0.00730456
0.0084577
0.0098761
0.0115092
0.0133175
0.0151825
0.0170878
0.0189595
0.0208975
0.022825
0.0246424
0.0257041
0.0249838
0.022063
0.0172484
0.0128668
0.0101405
0.00959072
0.0104619
0.0129868
0.0167047
0.020677
0.0248071
0.0273912
0.0254247
0.0198226
0.00723271
-0.03412
-0.0361325
-0.0366886
-0.0361323
-0.0351179
-0.0340317
-0.0329473
-0.0317816
-0.0304287
-0.0288436
-0.0270332
-0.0250281
-0.022862
-0.0205648
-0.0181646
-0.0156921
-0.0131849
-0.0106848
-0.00823026
-0.00591039
-0.0037305
-0.00174231
1.35656e-05
0.00150934
0.00272814
0.00367537
0.00437472
0.00487606
0.00525082
0.0055714
0.00592714
0.00639165
0.00703754
0.00789154
0.00897816
0.0102689
0.0117386
0.0133493
0.0150286
0.0167466
0.0184482
0.0201675
0.021801
0.023241
0.0240297
0.0234781
0.0212807
0.0177341
0.0143503
0.012021
0.0115098
0.0120795
0.0141067
0.017105
0.0204151
0.0239535
0.0262624
0.0242066
0.0185482
0.00693571
-0.0285726
-0.0303125
-0.0308524
-0.0304644
-0.0296894
-0.0288552
-0.028024
-0.0271179
-0.0260612
-0.0248175
-0.0233888
-0.0217938
-0.0200576
-0.0182034
-0.0162525
-0.0142284
-0.0121598
-0.0100793
-0.0080231
-0.00603217
-0.00413586
-0.00237095
-0.000769416
0.00064848
0.00186722
0.00288922
0.00372772
0.00441489
0.00499623
0.00552448
0.00606272
0.00666419
0.0073857
0.00824981
0.00928435
0.0104703
0.0118001
0.0132378
0.0147415
0.0162742
0.0177896
0.0192858
0.0206515
0.0217846
0.02236
0.0219505
0.0203254
0.0177608
0.0151941
0.0133781
0.0128601
0.0132239
0.0148138
0.0171555
0.0198307
0.0225988
0.0244193
0.0223724
0.0167705
0.00635003
-0.0236005
-0.025102
-0.0256186
-0.0253644
-0.0247847
-0.024154
-0.0235278
-0.0228476
-0.0220447
-0.0210834
-0.0199644
-0.0187068
-0.0173298
-0.0158483
-0.0142787
-0.0126375
-0.0109453
-0.0092256
-0.00750572
-0.00581077
-0.0041785
-0.00262937
-0.00118885
0.000126911
0.00130781
0.00235086
0.00326127
0.00405767
0.00477019
0.00543522
0.00609659
0.00679169
0.00756401
0.00843077
0.009419
0.0105151
0.011722
0.013007
0.0143465
0.0157022
0.017033
0.0183176
0.0194511
0.0203492
0.0207748
0.0204882
0.0193065
0.0174882
0.0155805
0.0142158
0.0137267
0.0139445
0.0151446
0.0168947
0.0189779
0.0209234
0.0221365
0.0201331
0.0147465
0.00561176
-0.0191516
-0.0204429
-0.0209307
-0.0207823
-0.0203616
-0.0198974
-0.0194389
-0.0189395
-0.0183411
-0.0176131
-0.0167539
-0.0157761
-0.0146946
-0.0135232
-0.012273
-0.0109561
-0.00958669
-0.00817945
-0.00674673
-0.00532108
-0.00392349
-0.00257519
-0.00129488
-9.34545e-05
0.00101912
0.00203882
0.00296615
0.00381229
0.0045953
0.00533907
0.00607328
0.00682329
0.00762134
0.0084795
0.00942168
0.0104369
0.0115332
0.0126821
0.0138705
0.015062
0.0162197
0.0173153
0.0182554
0.0189794
0.0193078
0.0191273
0.0182859
0.0170208
0.0156307
0.0146144
0.0141857
0.0142948
0.0151532
0.016383
0.017916
0.0191116
0.019697
0.0177411
0.0127135
0.00483207
-0.0151734
-0.0162814
-0.0167379
-0.0166724
-0.0163804
-0.0160514
-0.0157283
-0.0153742
-0.0149411
-0.0144026
-0.0137552
-0.0130077
-0.0121712
-0.0112549
-0.0102665
-0.00921408
-0.00810802
-0.00696174
-0.00579456
-0.00461176
-0.00343226
-0.00227187
-0.00114592
-6.57668e-05
0.000958693
0.001924
0.00282894
0.00367929
0.00448499
0.00526093
0.0060264
0.00679779
0.00759811
0.00843495
0.00932776
0.0102672
0.0112625
0.012289
0.0133398
0.0143823
0.0153843
0.0163173
0.0171013
0.0176979
0.017968
0.0178753
0.0172938
0.0164285
0.0154309
0.0146812
0.0143155
0.0143345
0.0148995
0.0156847
0.0167181
0.017291
0.0173081
0.0153932
0.0108242
0.00408917
-0.0116216
-0.0125707
-0.0129946
-0.0129929
-0.012804
-0.0125836
-0.0123689
-0.0121309
-0.0118301
-0.0114435
-0.0109673
-0.0104072
-0.00977134
-0.00906602
-0.00829648
-0.00746825
-0.00658878
-0.00566723
-0.00471552
-0.00374027
-0.00275363
-0.00176658
-0.00079158
0.000162054
0.00108602
0.00197674
0.00283156
0.00365271
0.00444498
0.00521684
0.00598029
0.00674509
0.00752694
0.00832988
0.00916839
0.0100345
0.0109363
0.0118529
0.0127791
0.0136889
0.0145544
0.0153504
0.0160105
0.0165138
0.0167502
0.0167264
0.0163403
0.0157598
0.0150528
0.0144965
0.0141821
0.0141227
0.0144429
0.0148599
0.015452
0.0155473
0.0150964
0.0132168
0.00914929
0.00342598
-0.00845711
-0.00926796
-0.00965889
-0.00970526
-0.00959816
-0.00946434
-0.00933559
-0.00918927
-0.00899308
-0.00872766
-0.00838861
-0.00797981
-0.00750691
-0.0069743
-0.00638534
-0.00574328
-0.00505297
-0.00432033
-0.00355283
-0.00275774
-0.00194203
-0.0011135
-0.000281179
0.00054745
0.00136519
0.00216853
0.00295433
0.00372269
0.00447515
0.00521584
0.00595154
0.00668743
0.00743352
0.00819112
0.00897038
0.00976401
0.0105778
0.0113949
0.0122105
0.0130035
0.0137502
0.0144319
0.0149941
0.0154268
0.0156438
0.0156716
0.0154282
0.0150448
0.0145472
0.0141267
0.0138462
0.0137201
0.0138361
0.01396
0.014172
0.0139192
0.0131255
0.0112803
0.0077068
0.00285819
-0.00564326
-0.00633447
-0.0066929
-0.00677484
-0.00673193
-0.00666646
-0.00660518
-0.00653055
-0.00641647
-0.00624666
-0.00601675
-0.00572911
-0.00538766
-0.00499528
-0.00455393
-0.0040653
-0.00353211
-0.00295804
-0.00234803
-0.00170728
-0.00104224
-0.000356611
0.00034315
0.00105133
0.0017619
0.0024714
0.00317664
0.00387669
0.00457112
0.00526126
0.00595035
0.0066404
0.00733724
0.00804021
0.00875564
0.00947703
0.0102074
0.0109339
0.0116512
0.0123418
0.0129862
0.0135725
0.0140558
0.0144329