/*--------------------------------*- C++ -*----------------------------------*\
| =========                 |                                                 |
| \\      /  F ield         | OpenFOAM: The Open Source CFD Toolbox           |
|  \\    /   O peration     | Version:  2512                                  |
|   \\  /    A nd           | Website:  www.openfoam.com                      |
|    \\/     M anipulation  |                                                 |
\*---------------------------------------------------------------------------*/
FoamFile
{
    version     2.0;
    format      ascii;
    arch        "LSB;label=32;scalar=64";
    class       surfaceScalarField;
    location    "79.25";
    object      phi;
}
// * * * * * * * * * * * * * * * * * * * * * * * * * * * * * * * * * * * * * //

dimensions      [0 3 -1 0 0 0 0];

oriented        oriented;

internalField   nonuniform List<scalar> 
26232
(
0.000140237
0.000909704
-0.00104994
0.000660898
0.00153191
-0.00205257
0.00168014
0.00110709
-0.00212633
0.00332757
-0.000298452
-0.00134898
0.00574329
-0.00263954
0.000223821
0.00907003
-0.00588345
0.00255671
0.0134403
-0.0100001
0.00562979
0.0189594
-0.014947
0.00942799
0.0256853
-0.020655
0.0139291
0.0336118
-0.0270178
0.0190913
0.0426564
-0.0338891
0.0248445
0.0526583
-0.041088
0.0310861
0.0633875
-0.0484119
0.0376827
0.0745635
-0.0556536
0.0444776
0.085882
-0.0626202
0.0513018
0.0970441
-0.0691496
0.0579875
0.107786
-0.0751235
0.064382
0.1179
-0.0804742
0.0703596
0.127256
-0.085184
0.0758283
0.1358
-0.0892881
0.0807434
0.14355
-0.0928345
0.0850851
0.150586
-0.0959654
0.0889295
0.156889
-0.0985971
0.0922942
-0.101223
0.0956613
0.16245
0.000179364
0.00073034
0.000864923
0.00084635
0.00221041
-0.000238396
0.00437237
-0.00246042
0.00750734
-0.0057745
0.0117587
-0.0101348
0.0172351
-0.0154764
0.0239856
-0.0216975
0.0319781
-0.0286475
0.0410863
-0.0361261
0.0510915
-0.0438943
0.0616993
-0.0516958
0.07257
-0.0592826
0.0833557
-0.0664394
0.0937393
-0.0730038
0.103467
-0.0788777
0.112373
-0.0840294
0.120387
-0.0884881
0.127534
-0.0923308
0.133913
-0.0956666
0.13969
-0.0986122
0.145036
-0.101311
0.150217
-0.103779
-0.106426
0.15542
0.00023381
0.000496531
0.00112308
-4.29234e-05
0.0028549
-0.00197021
0.00560684
-0.00521236
0.00953827
-0.00970593
0.0147661
-0.0153627
0.0213346
-0.022045
0.0291883
-0.0295512
0.0381579
-0.0376172
0.0479674
-0.0459355
0.058261
-0.0541879
0.0686471
-0.062082
0.0787482
-0.0693836
0.088247
-0.0759382
0.0969213
-0.0816782
0.104661
-0.0866178
0.111469
-0.0908368
0.117439
-0.0944585
0.122734
-0.0976253
0.127546
-0.100479
0.132074
-0.10314
0.136485
-0.105722
0.140945
-0.108239
-0.110956
0.145476
0.000310225
0.000186306
0.00145323
-0.00118592
0.00363853
-0.00415551
0.00704894
-0.00862277
0.0118185
-0.0144755
0.0179966
-0.0215408
0.0255144
-0.0295627
0.0341679
-0.0382047
0.04363
-0.0470793
0.0534896
-0.0557951
0.0633108
-0.0640091
0.0726959
-0.0714671
0.0813384
-0.078026
0.0890546
-0.0836544
0.095792
-0.0884156
0.101613
-0.0924392
0.106665
-0.0958888
0.111139
-0.0989321
0.115234
-0.10172
0.119127
-0.104373
0.122966
-0.106979
0.126849
-0.109606
0.130866
-0.112255
-0.115112
0.135022
0.000410525
-0.000224219
0.00185695
-0.00263235
0.00455221
-0.00685077
0.00865634
-0.0127269
0.0142378
-0.0200569
0.0212304
-0.0285334
0.0294102
-0.0377425
0.0384092
-0.0472037
0.0477669
-0.056437
0.0570062
-0.0650344
0.0657106
-0.0727135
0.073583
-0.0793394
0.0804733
-0.0849164
0.0863752
-0.0895563
0.0913954
-0.0934358
0.0957105
-0.0967543
0.0995217
-0.0997
0.103019
-0.10243
0.10636
-0.105061
0.109661
-0.107674
0.113003
-0.110321
0.116432
-0.113035
0.119992
-0.115816
-0.118776
0.123657
0.000532386
-0.000756605
0.00232114
-0.00442111
0.00555491
-0.0100845
0.0103329
-0.0175049
0.0166113
-0.0263353
0.0241668
-0.0360889
0.0326056
-0.0461813
0.041424
-0.0560222
0.0501022
-0.0651152
0.058198
-0.0731302
0.0654133
-0.0799288
0.0716187
-0.0855449
0.0768384
-0.090136
0.081207
-0.0939249
0.0849171
-0.0971459
0.0881711
-0.100008
0.0911481
-0.102677
0.0939881
-0.10527
0.0967905
-0.107863
0.099621
-0.110504
0.102521
-0.11322
0.105513
-0.116027
0.10862
-0.118923
-0.121972
0.111816
0.000670504
-0.00142711
0.00282116
-0.00657176
0.00658152
-0.0138449
0.0119462
-0.0228696
0.018717
-0.0331061
0.0264954
-0.0438673
0.0347436
-0.0544295
0.0428945
-0.0641731
0.050467
-0.0726876
0.0571441
-0.0798073
0.0627983
-0.085583
0.0674673
-0.0902139
0.0713009
-0.0939696
0.0744997
-0.0971237
0.0772653
-0.0999116
0.079769
-0.102512
0.0821399
-0.105048
0.0844666
-0.107596
0.086806
-0.110202
0.0891929
-0.112891
0.0916479
-0.115675
0.0941819
-0.118561
0.0968055
-0.121547
-0.124661
0.0994942
0.000817492
-0.0022446
0.00332469
-0.00907896
0.0075529
-0.0180731
0.0133505
-0.0286671
0.0203409
-0.0400966
0.0279676
-0.051494
0.0356137
-0.0620756
0.0427414
-0.0713008
0.0489912
-0.0789375
0.0542145
-0.0850306
0.058445
-0.0898136
0.0618368
-0.0936057
0.0645952
-0.0967279
0.0669225
-0.099451
0.0689871
-0.101976
0.0709128
-0.104438
0.0727826
-0.106918
0.0746481
-0.109462
0.0765406
-0.112095
0.0784783
-0.114829
0.0804717
-0.117669
0.0825267
-0.120616
0.0846483
-0.123668
-0.126831
0.0868189
0.000964443
-0.00320904
0.00379507
-0.0119096
0.00838632
-0.0226644
0.0144106
-0.0346914
0.0213175
-0.0470036
0.0284453
-0.0586217
0.0351826
-0.0688129
0.0410997
-0.0772179
0.0459992
-0.083837
0.0498909
-0.0889223
0.0529222
-0.0928449
0.0553004
-0.0959839
0.0572316
-0.0986591
0.0588863
-0.101106
0.060388
-0.103478
0.0618179
-0.105868
0.0632257
-0.108325
0.0646402
-0.110876
0.0660786
-0.113533
0.0675509
-0.116301
0.069063
-0.119181
0.0706182
-0.122171
0.0722182
-0.125268
-0.128465
0.0738521
0.00110118
-0.00431022
0.00419455
-0.015003
0.00900589
-0.0274757
0.0150226
-0.0407081
0.0215564
-0.0535373
0.0279138
-0.0649791
0.0335659
-0.074465
0.0382341
-0.0818861
0.0418786
-0.0874815
0.0446259
-0.0916696
0.046681
-0.0949
0.0482559
-0.0975588
0.0495279
-0.0999311
0.0506255
-0.102203
0.0516322
-0.104485
0.0525978
-0.106833
0.053551
-0.109279
0.0545082
-0.111834
0.0554791
-0.114504
0.0564698
-0.117292
0.0574839
-0.120195
0.0585231
-0.12321
0.0595873
-0.126333
-0.12955
0.0606719
0.00121752
-0.00552774
0.0044894
-0.0182748
0.00935361
-0.0323399
0.0151286
-0.0464831
0.0210472
-0.059456
0.0264591
-0.070391
0.0309674
-0.0789734
0.0344494
-0.0853681
0.0369893
-0.0900214
0.038781
-0.0934613
0.040042
-0.0961611
0.0409609
-0.0984776
0.0416759
-0.100646
0.042277
-0.102804
0.0428174
-0.105025
0.0433267
-0.107343
0.0438214
-0.109773
0.0443114
-0.112323
0.0448028
-0.114996
0.0452996
-0.117789
0.0458038
-0.120699
0.0463161
-0.123722
0.0468346
-0.126851
-0.130073
0.047358
0.00130708
-0.00683482
0.00465698
-0.0216247
0.00939802
-0.037081
0.0147205
-0.0518056
0.0198485
-0.0645839
0.0242325
-0.074775
0.027625
-0.0823658
0.0300357
-0.0877788
0.0316299
-0.0916156
0.0326259
-0.0944573
0.0332256
-0.0967607
0.0335822
-0.0988342
0.033797
-0.100861
0.0339295
-0.102937
0.0340126
-0.105108
0.0340637
-0.107394
0.0340926
-0.109802
0.0341055
-0.112336
0.0341069
-0.114997
0.0340999
-0.117782
0.0340862
-0.120686
0.0340661
-0.123702
0.0340369
-0.126822
0.0339994
-0.130036
-0.0002572
-0.000368315
0.000625515
-0.000889748
-0.00131068
0.00194323
-0.00181625
-0.00236459
0.00329109
-0.00297795
-0.00343926
0.00460096
-0.00432955
-0.00448143
0.00583303
-0.00583477
-0.00547531
0.00698053
-0.00746366
-0.00643345
0.00806234
-0.00919102
-0.00738482
0.00911218
-0.0109954
-0.00836377
0.0101681
-0.012858
-0.0094014
0.0112641
-0.0147622
-0.0105205
0.0124247
-0.0166916
-0.0117337
0.0136632
-0.0186296
-0.0130432
0.0149811
-0.0205575
-0.0144419
0.0163697
-0.0224542
-0.0159136
0.0178104
-0.0242957
-0.0174338
0.0192753
-0.026055
-0.0189679
0.0207272
-0.0277027
-0.0204713
0.022119
-0.0292089
-0.0218873
0.0233935
-0.0305453
-0.023148
0.0244844
-0.0316875
-0.0241761
0.0253184
-0.0326184
-0.0248841
0.0258149
-0.0333406
-0.0251624
0.0258846
-0.0249022
-0.0338927
0.0254544
-0.000294923
-7.33915e-05
-0.00101529
-0.000590308
-0.00206358
-0.0013163
-0.00336918
-0.00213366
-0.00487857
-0.00297204
-0.00655077
-0.00380311
-0.00835427
-0.00462996
-0.0102648
-0.00547434
-0.0122633
-0.00636523
-0.0143346
-0.00733008
-0.0164654
-0.00838973
-0.0186428
-0.00955631
-0.0208529
-0.0108331
-0.0230796
-0.0122152
-0.0253039
-0.0136894
-0.0275034
-0.0152342
-0.0296526
-0.0168188
-0.0317232
-0.0184006
-0.0336866
-0.0199239
-0.0355168
-0.0213178
-0.0371951
-0.0224978
-0.0387123
-0.0233668
-0.04007
-0.0238047
-0.0236758
-0.0412964
-0.000310294
0.000236902
-0.00106746
0.000166862
-0.00216574
-0.000218022
-0.00352672
-0.000772681
-0.00509048
-0.00140827
-0.00681169
-0.00208191
-0.00865621
-0.00278544
-0.0105987
-0.00353184
-0.0126202
-0.00434375
-0.0147057
-0.00524457
-0.0168422
-0.00625323
-0.0190167
-0.00738179
-0.0212148
-0.00863499
-0.0234196
-0.0100104
-0.0256108
-0.0114982
-0.0277638
-0.0130812
-0.0298501
-0.0147326
-0.0318361
-0.0164146
-0.0336847
-0.0180753
-0.035358
-0.0196445
-0.0368251
-0.0210307
-0.0380667
-0.0221252
-0.0390712
-0.0228002
-0.0228694
-0.0398776
-0.000300873
0.000537775
-0.00103919
0.00090518
-0.00210982
0.000852602
-0.00343145
0.000548955
-0.00493944
9.97145e-05
-0.00658455
-0.000436796
-0.00832813
-0.00104186
-0.0101414
-0.0017186
-0.0120019
-0.0024832
-0.0138914
-0.00335508
-0.0157931
-0.00435154
-0.01769
-0.00548489
-0.0195635
-0.00676146
-0.0213926
-0.0081813
-0.0231529
-0.00973794
-0.0248164
-0.0114177
-0.0263505
-0.0131984
-0.027717
-0.0150481
-0.0288705
-0.0169219
-0.0297576
-0.0187573
-0.0303224
-0.020466
-0.0305173
-0.0219303
-0.0303004
-0.023017
-0.0235218
-0.0296481
-0.000267914
0.000805689
-0.000933277
0.00157054
-0.00190021
0.00181954
-0.0030888
0.00173755
-0.00443248
0.00144339
-0.00587558
0.00100631
-0.00737415
0.00045671
-0.00889284
-0.000199914
-0.0104017
-0.000974349
-0.0118745
-0.00188229
-0.0132859
-0.00294013
-0.01461
-0.00416078
-0.0158192
-0.00555222
-0.0168839
-0.00711663
-0.0177722
-0.0088496
-0.0184506
-0.0107393
-0.0188835
-0.0127656
-0.0190328
-0.0148987
-0.0188561
-0.0170986
-0.0183015
-0.0193119
-0.0173031
-0.0214643
-0.0157896
-0.0234438
-0.013704
-0.0251027
-0.0262644
-0.0109614
-0.000215796
0.00102149
-0.000762198
0.00211695
-0.00155849
0.00261583
-0.00252933
0.00270838
-0.00360618
0.00252023
-0.00472848
0.00212861
-0.00584409
0.00157232
-0.00690655
0.000862551
-0.00787387
-7.03642e-06
-0.00870848
-0.00104768
-0.00937052
-0.00227809
-0.0098198
-0.00371149
-0.0100144
-0.00535759
-0.00991103
-0.00722004
-0.00946562
-0.00929501
-0.00863506
-0.0115699
-0.00737835
-0.0140223
-0.00565788
-0.0166192
-0.00343952
-0.019317
-0.000690136
-0.0220613
0.00263221
-0.0247867
0.00659836
-0.0274099
0.0112639
-0.0297682
-0.0317557
0.0167552
-0.000151446
0.00117293
-0.000545842
0.00251134
-0.00111961
0.0031896
-0.00180316
0.00339193
-0.00252653
0.0032436
-0.00322271
0.00282479
-0.00382883
0.00217845
-0.00428589
0.00131961
-0.00453587
0.00024294
-0.00452451
-0.00105903
-0.00419421
-0.0026084
-0.00348713
-0.00441857
-0.0023445
-0.00650021
-0.000707874
-0.00885667
0.00147896
-0.0114818
0.00426757
-0.0143585
0.00770218
-0.0174569
0.0118177
-0.0207347
0.0166382
-0.0241375
0.0221772
-0.0276003
0.0284385
-0.031048
0.0354501
-0.0344215
0.0431653
-0.0374834
-0.0406857
0.0520953
-8.31495e-05
0.00125608
-0.000308455
0.00273665
-0.000626937
0.00350808
-0.000973649
0.00373865
-0.00127635
0.0035463
-0.00146024
0.00300868
-0.00145031
0.00216851
-0.0011718
0.0010411
-0.00055202
-0.000376836
0.000486804
-0.00209785
0.00201815
-0.00413975
0.00411653
-0.00651695
0.006854
-0.00923768
0.0102974
-0.0123
0.0145047
-0.0156892
0.019522
-0.0193757
0.0253799
-0.0233148
0.032092
-0.0274468
0.0396542
-0.0316997
0.048047
-0.0359931
0.05723
-0.040231
0.0671916
-0.0443831
0.0778024
-0.0480942
-0.0523788
0.0894955
-1.89115e-05
0.00127499
-7.38253e-05
0.00279156
-0.000123742
0.003558
-0.000104785
0.00371969
5.97176e-05
0.0033818
0.000453902
0.0026145
0.00116625
0.00145616
0.00228775
-8.03968e-05
0.0039103
-0.00199938
0.00612636
-0.00431392
0.00902495
-0.00703833
0.0126894
-0.0101814
0.0171929
-0.0137411
0.0225931
-0.0177002
0.0289277
-0.0220238
0.0362101
-0.0266582
0.0444277
-0.0315323
0.053541
-0.0365602
0.063487
-0.0416457
0.0741834
-0.0466895
0.0855362
-0.0515838
0.0974582
-0.0563052
0.109815
-0.0604511
-0.0652938
0.12273
3.54609e-05
0.00123953
0.000140199
0.00268682
0.000357261
0.00334093
0.000755003
0.00332195
0.001418
0.0027188
0.00244193
0.00159057
0.00392979
-3.17016e-05
0.00598868
-0.00213929
0.00872545
-0.00473616
0.0122426
-0.00783111
0.0166324
-0.0114281
0.0219697
-0.0155187
0.0283051
-0.0200766
0.0356584
-0.0250534
0.0440133
-0.0303787
0.0533162
-0.0359611
0.0634774
-0.0416936
0.0743769
-0.0474596
0.0858723
-0.0531411
0.0978082
-0.0586254
0.110036
-0.0638114
0.12239
-0.0686595
0.134823
-0.0728838
-0.0775446
0.147074
7.79398e-05
0.00116159
0.000327334
0.00243743
0.000804355
0.00286391
0.00158879
0.00253751
0.00277781
0.00152979
0.00448082
-0.000112441
0.00681635
-0.00236724
0.00990292
-0.00522585
0.0138539
-0.00868713
0.0187672
-0.0127444
0.0247152
-0.0173761
0.0317346
-0.0225381
0.039818
-0.02816
0.0489091
-0.0341445
0.058902
-0.0403716
0.0696466
-0.0467058
0.0809585
-0.0530055
0.092633
-0.0591341
0.104461
-0.0649692
0.11625
-0.0704142
0.127837
-0.0753983
0.139077
-0.0798996
0.14998
-0.0837869
-0.0875393
0.159975
0.000111651
0.00049651
0.0012341
0.00242262
0.00417623
0.0066205
0.00988305
0.0140852
0.0193271
0.0256741
0.0331425
0.0416905
0.0512132
0.0615463
0.0724765
0.0837583
0.0951348
0.10636
0.117219
0.127549
0.137235
0.146265
0.154773
0.162895
-0.0324375
-0.0342021
0.0327468
-0.0303658
-0.0310349
0.0289632
-0.0276115
-0.0258082
0.0230538
-0.0241016
-0.0182962
0.0147863
-0.0198058
-0.00826615
0.00397038
-0.0148297
0.00413004
-0.00910612
-0.00924047
0.0190093
-0.0245985
-0.00322667
0.0358575
-0.0418713
0.00296344
0.0539808
-0.0601709
0.00902703
0.0724784
-0.078542
0.0142928
0.0907408
-0.0960065
0.0186773
0.107203
-0.111588
0.0221011
0.121425
-0.124849
0.0250483
0.132587
-0.135534
0.0286804
0.139215
-0.142847
0.0344572
0.138971
-0.144748
0.0433513
0.129111
-0.138005
0.055149
0.107805
-0.119603
0.0686858
0.075012
-0.0885488
0.0828139
0.0320978
-0.0462259
0.0967163
-0.0178955
0.00399309
0.109706
-0.0697735
0.0567835
0.12076
-0.115503
0.104449
0.128801
-0.148583
0.140542
0.133379
-0.167747
0.163169
0.135053
-0.175727
0.174053
0.134285
-0.176155
0.176923
0.130267
-0.174821
0.17884
0.122473
-0.178907
0.1867
0.113258
-0.187372
0.196587
0.107421
-0.183912
0.189749
0.108396
-0.148257
0.147283
0.115844
-0.0770274
0.0695787
0.126597
0.0115322
-0.0222853
0.137147
0.0939847
-0.104534
0.145481
0.155022
-0.163356
0.151052
0.189756
-0.195327
0.152808
0.207033
-0.208789
0.149317
0.223323
-0.219832
0.141451
0.24682
-0.238954
0.133384
0.252771
-0.244704
0.129724
0.211629
-0.207969
0.131804
0.112396
-0.114476
0.138124
-0.00936179
0.00304172
0.145839
-0.117861
0.110147
0.151455
-0.187926
0.18231
0.151449
-0.226063
0.226069
0.145198
-0.258732
0.264983
0.136718
-0.267582
0.276062
0.131944
-0.251344
0.256119
0.133883
-0.143395
0.141455
0.140048
-0.0312489
0.0250838
0.144014
0.111695
-0.115661
0.142878
0.214744
-0.213608
0.137979
0.289638
-0.284738
0.134194
0.347338
-0.343553
0.134344
0.213994
-0.214144
0.134761
0.171878
-0.172295
0.133271
-0.0856382
0.0871279
-0.216574
0.218379
-0.0408246
-0.0346739
-0.0396962
-0.0321633
-0.0378387
-0.0276656
-0.0351106
-0.0210243
-0.0313702
-0.0120065
-0.0266934
-0.000546789
-0.0211486
0.0134645
-0.0148638
0.0295727
-0.00806716
0.0471841
-0.00107259
0.0654838
0.00604248
0.0836257
0.01286
0.100386
0.0194766
0.114809
0.0264441
0.12562
0.0346289
0.13103
0.0447908
0.128809
0.0570541
0.116847
0.0706541
0.0942053
0.0844139
0.0612521
0.0975649
0.0189468
0.10963
-0.0299605
0.120225
-0.0803687
0.128581
-0.123859
0.133974
-0.153976
0.13618
-0.169953
0.135849
-0.175397
0.133762
-0.174068
0.129242
-0.170301
0.121106
-0.170771
0.110867
-0.177132
0.103404
-0.17645
0.103166
-0.148019
0.11042
-0.0842816
0.121974
-2.20349e-05
0.133946
0.0820129
0.144041
0.144927
0.151215
0.182583
0.154054
0.204194
0.15133
0.226047
0.144313
0.253837
0.137105
0.259979
0.133796
0.214938
0.135372
0.11082
0.14048
-0.0144705
0.146808
-0.124189
0.151459
-0.192577
0.151009
-0.225613
0.144575
-0.252298
0.136
-0.259006
0.131314
-0.246659
0.133485
-0.145566
0.139876
-0.0376393
0.143939
0.107632
0.142908
0.215775
0.138135
0.294411
0.134283
0.35119
0.134605
0.213672
0.135275
0.171208
0.133949
-0.0843121
-0.21488
-0.0402365
-0.034315
-0.0399882
-0.0324116
-0.03902
-0.0286338
-0.0371711
-0.0228732
-0.034272
-0.0149057
-0.0301197
-0.00469902
-0.024919
0.00826377
-0.0186584
0.0233121
-0.011457
0.0399827
-0.00351321
0.05754
0.00525187
0.0748606
0.0145732
0.0910643
0.024336
0.105046
0.0348423
0.115113
0.0465246
0.119347
0.0595732
0.115761
0.0735899
0.102831
0.0876409
0.0801544
0.100696
0.0481971
0.112208
0.00743464
0.12215
-0.0399027
0.130201
-0.0884197
0.135792
-0.129449
0.138557
-0.156742
0.138561
-0.169957
0.136463
-0.173298
0.133203
-0.170808
0.128396
-0.165494
0.120386
-0.162762
0.10961
-0.166356
0.100617
-0.167458
0.098791
-0.146193
0.105394
-0.0908847
0.117403
-0.0120312
0.130629
0.0687873
0.142425
0.133131
0.151184
0.173824
0.155197
0.200181
0.153454
0.227789
0.147485
0.259806
0.14116
0.266304
0.138094
0.218004
0.139054
0.109859
0.142897
-0.018314
0.147771
-0.129062
0.151438
-0.196244
0.150622
-0.224797
0.144107
-0.245783
0.135489
-0.250389
0.130869
-0.242039
0.133194
-0.147891
0.139787
-0.0442323
0.143979
0.103441
0.143073
0.216681
0.138418
0.299065
0.134476
0.355132
0.134977
0.213171
0.135967
0.170217
0.134827
-0.0831717
-0.213282
-0.0307446
-0.0332186
-0.0312966
-0.0318595
-0.0310991
-0.0288313
-0.0300191
-0.0239532
-0.0278879
-0.0170369
-0.0245569
-0.00803
-0.0197372
0.00344412
-0.013668
0.0172428
-0.00656837
0.0328831
0.00220471
0.048767
0.0124676
0.0645977
0.0235888
0.0799431
0.0355831
0.0930513
0.0484721
0.102224
0.0622458
0.105574
0.0766647
0.101342
0.0910945
0.0884008
0.104592
0.066657
0.116333
0.0364562
0.125991
-0.00222334
0.133766
-0.0476776
0.139342
-0.0939962
0.142263
-0.132371
0.142495
-0.156974
0.14047
-0.167931
0.136849
-0.169677
0.132539
-0.166498
0.12753
-0.160484
0.120042
-0.155274
0.109365
-0.155679
0.0991579
-0.157251
0.095454
-0.142489
0.100876
-0.0963072
0.112897
-0.0240519
0.127189
0.0544952
0.140582
0.119738
0.150891
0.163514
0.156178
0.194895
0.155627
0.22834
0.150862
0.264571
0.145411
0.271756
0.142465
0.22095
0.142748
0.109577
0.145318
-0.0208834
0.148712
-0.132456
0.151376
-0.198909
0.15025
-0.223671
0.143741
-0.239274
0.135125
-0.241773
0.13054
-0.237454
0.132961
-0.150312
0.139753
-0.0510239
0.144117
0.0990761
0.143367
0.217431
0.138834
0.303599
0.134785
0.359181
0.135462
0.212494
0.136834
0.168845
0.135902
-0.08224
-0.211766
-0.0129686
-0.0312113
-0.0145576
-0.0302705
-0.0152673
-0.0281216
-0.0150208
-0.0241997
-0.0136774
-0.0183804
-0.011174
-0.0105334
-0.00684132
-0.000888526
-0.00152868
0.0119302
0.00631438
0.0250401
0.0156277
0.0394536
0.0261909
0.0540345
0.0380785
0.0680555
0.0511042
0.0800257
0.0650495
0.0882792
0.0795781
0.091045
0.0941642
0.0867558
0.108062
0.074503
0.120414
0.0543046
0.13059
0.0262806
0.138485
-0.0101187
0.144199
-0.0533913
0.14741
-0.0972074
0.147772
-0.132733
0.145602
-0.154804
0.141743
-0.164072
0.136886
-0.164821
0.131727
-0.161338
0.126541
-0.155298
0.119799
-0.148532
0.109844
-0.145724
0.0989855
-0.146392
0.0933459
-0.136849
0.0970605
-0.100022
0.108587
-0.0355788
0.12364
0.0394429
0.138441
0.104937
0.150239
0.151716
0.156899
0.188235
0.157739
0.2275
0.154309
0.268001
0.149706
0.276359
0.146769
0.223888
0.14634
0.110005
0.14768
-0.0222234
0.149603
-0.134379
0.151244
-0.20055
0.149859
-0.222286
0.143437
-0.232852
0.134851
-0.233187
0.130262
-0.232865
0.132733
-0.152783
0.139735
-0.0580258
0.144333
0.0944784
0.143785
0.217979
0.139389
0.307994
0.13522
0.36335
0.136062
0.211652
0.13787
0.167037
0.137169
-0.0815393
-0.210323
0.0134277
-0.0278839
0.0103826
-0.0272253
0.00819654
-0.0259356
0.00715416
-0.0231573
0.0074417
-0.0186679
0.00927967
-0.0123714
0.0126621
-0.00427099
0.0180809
0.00651147
0.0248617
0.0182592
0.0334964
0.0308189
0.043743
0.0437879
0.0554914
0.0563071
0.0684898
0.0670273
0.0823584
0.0744106
0.0965604
0.076843
0.110426
0.0728906
0.123202
0.0617271
0.134164
0.0433416
0.142865
0.01758
0.149284
-0.0165374
0.153187
-0.0572948
0.154152
-0.0981725
0.152095
-0.130675
0.147748
-0.150457
0.142284
-0.158608
0.136461
-0.158997
0.130682
-0.15556
0.125318
-0.149934
0.119363
-0.142578
0.110646
-0.137007
0.0998738
-0.135619
0.0925398
-0.129515
0.0941361
-0.101618
0.104599
-0.0460416
0.119984
0.0240581
0.135916
0.0890047
0.149104
0.138528
0.157228
0.180111
0.159633
0.225094
0.157665
0.26997
0.15389
0.280133
0.150872
0.226906
0.149721
0.111156
0.149917
-0.0224189
0.150413
-0.134875
0.15101
-0.201148
0.149404
-0.22068
0.143152
-0.2266
0.134616
-0.224651
0.129971
-0.22822
0.13245
-0.155262
0.139687
-0.0652627
0.144596
0.0895696
0.144313
0.218261
0.140086
0.312221
0.135789
0.367647
0.136782
0.21066
0.139071
0.164748
0.138622
-0.0810906
-0.208946
0.0474095
-0.0231981
0.043149
-0.0229649
0.0394433
-0.0222299
0.0366779
-0.0203919
0.0351569
-0.0171469
0.0351228
-0.0123373
0.0367057
-0.00585384
0.0404328
0.00278429
0.0458957
0.0127964
0.053337
0.0233775
0.0625916
0.0345333
0.0734828
0.045416
0.0856805
0.0548296
0.0987006
0.0613905
0.111902
0.0636416
0.12456
0.0602324
0.135968
0.0503198
0.145564
0.0337452
0.152957
0.0101872
0.158111
-0.0216912
0.160386
-0.0595707
0.159276
-0.0970621
0.155035
-0.126434
0.148814
-0.144236
0.142018
-0.151812
0.13547
-0.15245
0.129319
-0.149409
0.123803
-0.144418
0.118504
-0.137278
0.111306
-0.129809
0.101411
-0.125725
0.0929503
-0.121055
0.0922175
-0.100885
0.101058
-0.0548816
0.116218
0.00889766
0.132914
0.0723091
0.147348
0.124094
0.156999
0.17046
0.161145
0.220948
0.160764
0.270351
0.15783
0.283068
0.154665
0.230071
0.152793
0.113027
0.151956
-0.0215812
0.151106
-0.134025
0.150643
-0.200685
0.148839
-0.218876
0.142842
-0.220603
0.134375
-0.216184
0.129609
-0.223454
0.13205
-0.157703
0.139552
-0.0727649
0.144869
0.0842532
0.144934
0.218195
0.140926
0.31623
0.136503
0.372071
0.137625
0.209538
0.140434
0.161939
0.140253
-0.0809099
-0.20763
0.0840679
-0.0177705
0.0789865
-0.0178834
0.0742515
-0.0174949
0.0700674
-0.0162079
0.0667691
-0.0138486
0.0646924
-0.0102606
0.0641223
-0.00528376
0.0654999
0.00140664
0.0688129
0.00948347
0.0742474
0.017943
0.0817186
0.0270621
0.0910128
0.0361218
0.101742
0.0440999
0.113357
0.0497756
0.125164
0.0518349
0.136419
0.0489774
0.146447
0.040292
0.15477
0.0254225
0.161103
0.00385369
0.165025
-0.0256135
0.16569
-0.0602352
0.162616
-0.0939878
0.156456
-0.120275
0.148723
-0.136503
0.140912
-0.144
0.133853
-0.145391
0.127544
-0.1431
0.121961
-0.138834
0.117106
-0.132424
0.111412
-0.124114
0.10305
-0.117363
0.0942922
-0.112297
0.0913632
-0.0979563
0.0980262
-0.0615446
0.112331
-0.00540749
0.12935
0.0552907
0.144848
0.108596
0.156053
0.159255
0.162059
0.214942
0.163386
0.269024
0.161357
0.285096
0.15804
0.233389
0.155473
0.115594
0.153722
-0.0198308
0.151639
-0.131941
0.150106
-0.199152
0.148109
-0.216879
0.142461
-0.214954
0.134093
-0.207816
0.129128
-0.218489
0.131477
-0.160052
0.139272
-0.0805593
0.145109
0.0784158
0.145626
0.217679
0.141902
0.319953
0.137366
0.376607
0.138599
0.208305
0.141954
0.158584
0.142054
-0.0810101
-0.206375
0.117257
-0.0122972
0.112054
-0.0126808
0.10708
-0.0125207
0.102435
-0.0115624
0.0983537
-0.00976758
0.0951331
-0.00703997
0.0931124
-0.00326302
0.0924201
0.00209893
0.0934778
0.00842573
0.0965096
0.0149113
0.101594
0.0219779
0.108607
0.0291085
0.117215
0.035492
0.126887
0.0401035
0.136934
0.0417874
0.146607
0.0393046
0.155214
0.0316851
0.162207
0.0184301
0.167539
-0.00147921
0.170017
-0.0280916
0.168946
-0.0591642
0.164004
-0.0890451
0.156235
-0.112506
0.147382
-0.127651
0.138892
-0.135509
0.131512
-0.138011
0.125204
-0.136792
0.119688
-0.133318
0.115105
-0.127841
0.11066
-0.119669
0.104199
-0.110903
0.0960656
-0.104163
0.0914468
-0.0933374
0.095589
-0.0656868
0.108303
-0.0181217
0.125152
0.0384419
0.141476
0.0922719
0.154222
0.146509
0.162228
0.206936
0.165419
0.265832
0.164356
0.28616
0.160926
0.236819
0.157677
0.118843
0.155137
-0.0172912
0.151952
-0.128756
0.149354
-0.196554
0.147152
-0.214677
0.141956
-0.209758
0.133745
-0.199605
0.128498
-0.213243
0.130676
-0.162231
0.138789
-0.0886718
0.145268
0.0719371
0.146358
0.216589
0.143006
0.323305
0.138384
0.381229
0.139712
0.206977
0.143625
0.15467
0.144016
-0.0814003
-0.205185
0.142147
-0.00737093
0.137379
-0.00791276
0.13273
-0.00787192
0.128395
-0.0072265
0.124552
-0.00592537
0.121297
-0.00378492
0.118938
-0.000904055
0.117418
0.00361937
0.117318
0.00852543
0.118661
0.0135688
0.121676
0.0189625
0.126385
0.0243999
0.132612
0.0292648
0.13998
0.0327355
0.147916
0.033851
0.155715
0.0315059
0.162695
0.0247056
0.168329
0.0127955
0.172081
-0.00523055
0.172896
-0.0289068
0.169944
-0.0562124
0.163284
-0.0823855
0.154267
-0.103488
0.144686
-0.11807
0.13583
-0.126653
0.128301
-0.130482
0.122095
-0.130586
0.116797
-0.12802
0.112427
-0.123472
0.108874
-0.116115
0.104334
-0.106362
0.0976278
-0.097457
0.0921577
-0.0878674
0.0937299
-0.067259
0.104243
-0.0286348
0.120294
0.0223909
0.137146
0.0754201
0.151351
0.132304
0.161367
0.19692
0.166508
0.260691
0.166602
0.286066
0.163182
0.240239
0.159394
0.122631
0.156152
-0.0140489
0.152008
-0.124611
0.148365
-0.192911
0.145923
-0.212235
0.141277
-0.205113
0.133314
-0.191642
0.127719
-0.207647
0.129623
-0.164135
0.138036
-0.0970845
0.145294
0.0646796
0.147095
0.214787
0.144223
0.326177
0.139559
0.385893
0.14097
0.205566
0.145445
0.150194
0.146129
-0.082084
-0.204062
0.155996
-0.00339237
0.151977
-0.00389374
0.14802
-0.00391477
0.144434
-0.00364038
0.141372
-0.00286308
0.139013
-0.00142659
0.137088
0.00102152
0.136087
0.00462024
0.135958
0.0086545
0.136725
0.0128013
0.138747
0.0169405
0.142038
0.0211088
0.14651
0.0247931
0.151893
0.0273522
0.157789
0.0279557
0.163643
0.0256518
0.168802
0.019546
0.172513
0.00908502
0.174525
-0.00724281
0.1735
-0.0278818
0.168759
-0.0514709
0.160757
-0.0743837
0.150995
-0.0937271
0.141126
-0.1082
0.132209
-0.117737
0.124681
-0.122954
0.118588
-0.124494
0.113552
-0.122983
0.109369
-0.119289
0.106303
-0.113049
0.103334
-0.103393
0.0985065
-0.0926292
0.0931362
-0.0824971
0.0924889
-0.0666118
0.100305
-0.0364504
0.114817
0.00787834
0.131779
0.058458
0.147389
0.116694
0.159595
0.184714
0.166898
0.253387
0.168163
0.284801
0.164802
0.2436
0.160651
0.126782
0.15684
-0.0102383
0.151885
-0.119656
0.147242
-0.188269
0.144487
-0.20948
0.140433
-0.201059
0.132819
-0.184028
0.126842
-0.201671
0.128341
-0.165634
0.136962
-0.105705
0.145122
0.0565195
0.147795
0.212115
0.145529
0.328443
0.140881
0.390542
0.142382
0.204065
0.147403
0.145173
0.148383
-0.0830636
-0.203016
0.16014
-0.000637197
0.157101
-0.000854977
0.15412
-0.000934404
0.151388
-0.000908287
0.149035
-0.000509867
0.146947
0.000661535
0.14554
0.00242883
0.14515
0.00501004
0.145686
0.00811827
0.14704
0.011447
0.149096
0.0148849
0.151939
0.0182662
0.155538
0.0211937
0.15973
0.0231599
0.164191
0.0234954
0.168454
0.021388
0.171976
0.0160243
0.174369
0.00669198
0.174275
-0.00714863
0.171381
-0.0249879
0.165265
-0.0453546
0.156663
-0.0657822
0.146942
-0.0840057
0.137393
-0.0986518
0.128808
-0.109151
0.121479
-0.115625
0.1155
-0.118515
0.110662
-0.118146
0.10662
-0.115246
0.103677
-0.110106
0.101673
-0.10139
0.0986821
-0.089638
0.0941753
-0.0779903
0.0920015
-0.0644379
0.0968946
-0.0413434
0.109125
-0.00435251
0.12541
0.0421733
0.141792
0.100312
0.155934
0.170573
0.165591
0.24373
0.168417
0.281976
0.16556
0.246457
0.161373
0.130969
0.157151
-0.00601588
0.151542
-0.114048
0.14606
-0.182786
0.142942
-0.206362
0.139456
-0.197574
0.132266
-0.176837
0.125926
-0.195331
0.126919
-0.166627
0.135625
-0.114412
0.144724
0.0474205
0.148418
0.208421
0.146917
0.329944
0.142361
0.395098
0.143954
0.202472
0.149489
0.139639
0.150779
-0.0843542
-0.202032
0.186494
0.00230985
-0.189441
0.183979
0.00165996
0.181521
0.0015241
0.179003
0.00160964
0.176464
0.00202903
0.174149
0.00297591
0.172082
0.00449674
0.17047
0.00662165
0.169406
0.00918204
0.1689
0.0119531
0.169044
0.0147406
0.170003
0.0173074
0.1719
0.0192967
0.17482
0.0202404
0.178758
0.0195566
0.183564
0.0165827
0.188874
0.0107136
0.194016
0.00155049
0.198292
-0.0114248
0.200668
-0.0273637
0.200393
-0.0450802
0.197389
-0.0627777
0.192128
-0.078745
0.185295
-0.0918183
0.177573
-0.10143
0.169487
-0.10754
0.161457
-0.110484
0.153757
-0.110445
0.14627
-0.10776
0.139123
-0.102958
0.132738
-0.0950058
0.126147
-0.0830468
0.117833
-0.0696759
0.109354
-0.0559595
0.105066
-0.0370551
0.107518
-0.00680496
0.113859
0.0358326
0.12068
0.0934915
0.126153
0.1651
0.130908
0.238974
0.136944
0.27594
0.146373
0.237028
0.157567
0.119775
0.165436
-0.0138848
0.16676
-0.115372
0.162794
-0.17882
0.157515
-0.201083
0.150994
-0.191053
0.141886
-0.167728
0.132941
-0.186386
0.129122
-0.162808
0.130978
-0.116268
0.133075
0.0453236
0.132672
0.208824
0.130074
0.332542
0.128574
0.396598
0.132617
0.198429
0.139174
0.133082
0.140346
-0.0855265
-0.199229
0.19755
0.00424376
-0.199484
0.195678
0.00353226
0.1939
0.00330161
0.192116
0.00339359
0.190366
0.00377951
0.188786
0.00455589
0.187491
0.00579186
0.186625
0.00748757
0.186277
0.00953047
0.1865
0.0117301
0.187361
0.0138792
0.188929
0.015739
0.19125
0.0169764
0.19432
0.0171704
0.198053
0.0158234
0.202219
0.0124167
0.206426
0.00650604
0.210244
-0.00226692
0.212827
-0.0140084
0.213557
-0.0280935
0.211987
-0.0435101
0.208113
-0.0589038
0.202308
-0.0729394
0.195134
-0.0846451
0.18722
-0.0935154
0.179067
-0.0993858
0.171006
-0.102424
0.163307
-0.102747
0.155914
-0.100366
0.148731
-0.0957751
0.142251
-0.0885263
0.136183
-0.0769786
0.128828
-0.0623206
0.120327
-0.0474592
0.114443
-0.0311712
0.114662
-0.00702329
0.120126
0.0303688
0.127233
0.0863838
0.133804
0.15853
0.140067
0.232711
0.148083
0.267924
0.15931
0.225801
0.171395
0.107689
0.179258
-0.0217482
0.179861
-0.115975
0.174672
-0.173631
0.168268
-0.194678
0.161245
-0.18403
0.151747
-0.15823
0.142154
-0.176794
0.137553
-0.158206
0.139255
-0.117971
0.141726
0.0428525
0.141755
0.208796
0.139559