/*--------------------------------*- C++ -*----------------------------------*\
| =========                 |                                                 |
| \\      /  F ield         | OpenFOAM: The Open Source CFD Toolbox           |
|  \\    /   O peration     | Version:  2512                                  |
|   \\  /    A nd           | Website:  www.openfoam.com                      |
|    \\/     M anipulation  |                                                 |
\*---------------------------------------------------------------------------*/
FoamFile
{
    version     2.0;
    format      ascii;
    arch        "LSB;label=32;scalar=64";
    class       surfaceScalarField;
    location    "86.5";
    object      phi;
}
// * * * * * * * * * * * * * * * * * * * * * * * * * * * * * * * * * * * * * //

dimensions      [0 3 -1 0 0 0 0];

oriented        oriented;

internalField   nonuniform List<scalar> 
26232
(
-3.90555e-05
0.000961691
-0.000922635
9.72552e-05
0.00182685
-0.00196316
0.000621696
0.00181639
-0.00234083
0.00172898
0.000985874
-0.00209315
0.00360583
-0.000647022
-0.00122983
0.00643247
-0.0030839
0.000257257
0.0103786
-0.00633182
0.00238567
0.015591
-0.0103897
0.00517727
0.0221786
-0.0152341
0.00864655
0.0301948
-0.0208102
0.012794
0.0396219
-0.0270263
0.0175992
0.0503613
-0.0337564
0.023017
0.0622314
-0.040847
0.0289769
0.0749757
-0.0481289
0.0353846
0.0882782
-0.0554301
0.0421276
0.101786
-0.0625897
0.0490815
0.115138
-0.0694694
0.0561174
0.12799
-0.0759639
0.0631121
0.140047
-0.0820034
0.0699465
0.151074
-0.0875733
0.0765464
0.160937
-0.0926516
0.0827891
0.169524
-0.0974052
0.0888175
0.176762
-0.101514
0.0942762
-0.106016
0.100403
0.182374
3.3393e-05
0.000928298
0.000388068
0.00147217
0.00129575
0.000908704
0.00297408
-0.000692452
0.00563039
-0.00330333
0.00945448
-0.00690799
0.0146034
-0.0114808
0.0211804
-0.0169666
0.0292128
-0.0232665
0.038635
-0.0302323
0.0492812
-0.0376725
0.0608922
-0.0453674
0.0731345
-0.0530893
0.0856304
-0.0606248
0.0979939
-0.0677936
0.109868
-0.0744635
0.120956
-0.0805582
0.131052
-0.0860592
0.140049
-0.0910007
0.147936
-0.0954607
0.154819
-0.0995339
0.160782
-0.103368
0.166187
-0.106919
-0.110793
0.170964
0.000123745
0.000804553
0.000749756
0.000846162
0.0021246
-0.000466145
0.00448098
-0.00304883
0.00803033
-0.00685268
0.0129431
-0.0118208
0.0193216
-0.0178593
0.027172
-0.024817
0.0363848
-0.0324793
0.0467319
-0.0405794
0.057883
-0.0488236
0.0694399
-0.0569243
0.0809824
-0.0646318
0.0921167
-0.0717591
0.102519
-0.078196
0.111968
-0.0839121
0.120358
-0.0889485
0.1277
-0.0934014
0.134099
-0.0973999
0.139725
-0.101086
0.144771
-0.10458
0.149417
-0.108015
0.153846
-0.111348
-0.115017
0.15807
0.000228861
0.000575692
0.00116897
-9.39525e-05
0.00307584
-0.00237301
0.00618231
-0.0061553
0.0106767
-0.0113471
0.0166687
-0.0178128
0.0241534
-0.025344
0.0329877
-0.0336513
0.0428904
-0.042382
0.0534697
-0.0511588
0.064275
-0.0596289
0.0748584
-0.0675078
0.0848353
-0.0746087
0.0939291
-0.0808529
0.101996
-0.0862625
0.109022
-0.0909382
0.115103
-0.09503
0.120407
-0.0987055
0.125131
-0.102123
0.129458
-0.105414
0.133547
-0.108669
0.137492
-0.111959
0.141404
-0.11526
-0.118842
0.145229
0.000347334
0.000228358
0.00163613
-0.00138275
0.00411905
-0.00485593
0.00800537
-0.0100416
0.0134219
-0.0167636
0.020367
-0.0247579
0.0286789
-0.0336559
0.0380355
-0.0430079
0.0479931
-0.0523396
0.0580554
-0.061221
0.0677529
-0.0693264
0.0767131
-0.076468
0.0847039
-0.0825995
0.0916458
-0.0877948
0.0975933
-0.09221
0.102695
-0.0960401
0.107146
-0.0994807
0.111141
-0.1027
0.114845
-0.105828
0.118382
-0.10895
0.12183
-0.112118
0.125234
-0.115363
0.128644
-0.118669
-0.122194
0.131996
0.000479169
-0.000250812
0.00214295
-0.00304653
0.00522076
-0.00793374
0.00986429
-0.0146852
0.0160917
-0.022991
0.0237421
-0.0324083
0.032469
-0.0423828
0.0417858
-0.0523248
0.0511528
-0.0617066
0.0600754
-0.0701437
0.0681846
-0.0774356
0.075279
-0.0835623
0.0813245
-0.0886449
0.0864199
-0.0928902
0.0907437
-0.0965338
0.0944997
-0.0997961
0.0978753
-0.102856
0.101018
-0.105843
0.104032
-0.108842
0.106981
-0.111899
0.109904
-0.115041
0.112819
-0.118278
0.115752
-0.121602
-0.125095
0.118653
0.000623431
-0.000874243
0.00267611
-0.00509921
0.00633405
-0.0115917
0.0116489
-0.02
0.0184836
-0.0298257
0.0264891
-0.0404138
0.0351479
-0.0510416
0.0438761
-0.0610529
0.0521427
-0.0699732
0.0595647
-0.0775657
0.0659505
-0.0838215
0.0712901
-0.0889019
0.0757071
-0.0930619
0.0793958
-0.0965789
0.0825633
-0.0997013
0.0853904
-0.102623
0.0880138
-0.10548
0.0905255
-0.108355
0.092982
-0.111298
0.095415
-0.114332
0.0978415
-0.117467
0.100269
-0.120705
0.102708
-0.124041
-0.127508
0.105121
0.000776455
-0.0016507
0.00321294
-0.00753569
0.00739405
-0.0157728
0.013227
-0.025833
0.0203875
-0.0369862
0.0283455
-0.0483718
0.0364732
-0.0591693
0.0441881
-0.0687678
0.0510693
-0.0768544
0.0569092
-0.0834056
0.0616997
-0.0886119
0.0655738
-0.0927759
0.068734
-0.0962221
0.0713903
-0.0992352
0.0737212
-0.102032
0.0758583
-0.10476
0.0778884
-0.10751
0.0798633
-0.11033
0.0818116
-0.113246
0.0837483
-0.116269
0.0856808
-0.1194
0.0876127
-0.122637
0.0895488
-0.125977
-0.129424
0.0914649
0.00093122
-0.00258192
0.00372141
-0.0103259
0.00832282
-0.0203742
0.0144628
-0.0319729
0.0216258
-0.0441493
0.0291489
-0.0558948
0.0363838
-0.0664042
0.042844
-0.075228
0.048276
-0.0822864
0.0526495
-0.0877791
0.0560927
-0.0920551
0.0588112
-0.0954944
0.0610191
-0.09843
0.0628974
-0.101114
0.0645783
-0.103713
0.0661474
-0.106329
0.0676549
-0.109017
0.0691283
-0.111804
0.0705818
-0.1147
0.0720228
-0.11771
0.0734549
-0.120832
0.0748802
-0.124063
0.0763
-0.127397
-0.130825
0.0777007
0.00107796
-0.00365988
0.00416396
-0.0134119
0.00904153
-0.0252518
0.015242
-0.0381734
0.0220894
-0.0509966
0.0288643
-0.0626698
0.034987
-0.0725269
0.0401243
-0.0803653
0.0441956
-0.0863576
0.0473068
-0.0908904
0.0496602
-0.0944085
0.0514754
-0.0973096
0.0529405
-0.0998951
0.054193
-0.102366
0.0553217
-0.104842
0.0563781
-0.107386
0.05739
-0.110029
0.0583718
-0.112785
0.059331
-0.115659
0.0602716
-0.11865
0.0611956
-0.121756
0.0621044
-0.124972
0.0629974
-0.12829
-0.131696
0.0638693
0.00120603
-0.00486591
0.00450451
-0.0167104
0.00948539
-0.0302327
0.0154944
-0.0441825
0.021754
-0.0572562
0.0275715
-0.0684873
0.0324977
-0.0774531
0.0363664
-0.084234
0.0392381
-0.0892293
0.0413007
-0.092953
0.0427781
-0.0958859
0.043869
-0.0984005
0.0447215
-0.100748
0.0454316
-0.103076
0.0460551
-0.105465
0.0466219
-0.107953
0.0471471
-0.110554
0.0476386
-0.113277
0.048101
-0.116121
0.0485369
-0.119086
0.0489477
-0.122167
0.0493335
-0.125357
0.0496924
-0.128649
-0.132027
0.0500235
0.00130824
-0.00617415
0.0047172
-0.0201193
0.00961594
-0.0351314
0.0152026
-0.0497691
0.0206724
-0.062726
0.0254277
-0.0732426
0.0291753
-0.0812006
0.0318958
-0.0869546
0.0337442
-0.0910776
0.034942
-0.0941508
0.0357006
-0.0966445
0.0361831
-0.098883
0.0364976
-0.101062
0.0367076
-0.103286
0.0368468
-0.105605
0.036932
-0.108038
0.0369718
-0.110594
0.036971
-0.113276
0.0369329
-0.116083
0.0368599
-0.119013
0.0367533
-0.12206
0.0366133
-0.125217
0.0364374
-0.128473
0.0362272
-0.131817
-0.000268308
-0.000297013
0.00056532
-0.000916911
-0.000228822
0.000877425
-0.00185496
0.000304296
0.000633749
-0.00301999
0.00114443
2.06027e-05
-0.00436729
0.00216647
-0.000819176
-0.00586332
0.00328735
-0.00179132
-0.00748097
0.00446457
-0.00284693
-0.00919608
0.00568905
-0.00397394
-0.0109853
0.00697481
-0.00518554
-0.012825
0.0083479
-0.00650824
-0.01469
0.00983695
-0.00797196
-0.0165531
0.0114664
-0.00960333
-0.0183837
0.0132527
-0.011422
-0.0201472
0.0152023
-0.0134389
-0.0218034
0.0173113
-0.0156551
-0.0233066
0.0195639
-0.0180607
-0.024605
0.0219321
-0.0206336
-0.025642
0.0243743
-0.0233373
-0.0263571
0.0268349
-0.0261197
-0.0266889
0.0292444
-0.0289127
-0.0265777
0.0315221
-0.0316333
-0.0259702
0.0335774
-0.034185
-0.0248321
0.0353199
-0.036458
0.0367017
-0.0231783
-0.0383556
-0.000230492
-6.65206e-05
-0.000785044
0.00032573
-0.00158055
0.0010998
-0.00255904
0.00212292
-0.00367855
0.00328599
-0.0049066
0.0045154
-0.00621491
0.00577288
-0.00757569
0.00704984
-0.00895949
0.00835861
-0.0103342
0.00972259
-0.0116646
0.0111673
-0.0129122
0.012714
-0.0140349
0.0143754
-0.0149861
0.0161535
-0.0157142
0.0180394
-0.0161625
0.0200122
-0.0162688
0.0220384
-0.0159663
0.0240718
-0.0151844
0.0260529
-0.0138499
0.0279099
-0.0118906
0.0295629
-0.00923855
0.0309254
-0.00583924
0.0319206
0.0325485
-0.00168601
-0.000182408
0.000115887
-0.000618127
0.00076145
-0.00123436
0.00171603
-0.00197755
0.00286611
-0.00280761
0.00411605
-0.00369202
0.00539981
-0.00460061
0.00668147
-0.00550176
0.00795099
-0.0063601
0.00921694
-0.0071356
0.0104981
-0.00778361
0.0118153
-0.00825509
0.0131855
-0.00849697
0.0146172
-0.00845213
0.0161087
-0.00805849
0.0176458
-0.00725139
0.0192051
-0.00596156
0.0207486
-0.00411673
0.022227
-0.00164282
0.023579
0.00153474
0.0247324
0.00549278
0.0256048
0.010305
0.0261131
0.0160469
0.0261787
0.025785
0.0228104
-0.000133566
0.000249453
-0.000447153
0.00107504
-0.000876044
0.00214492
-0.00136908
0.00335915
-0.00188613
0.0046331
-0.0023932
0.00590687
-0.0028576
0.00714588
-0.00324416
0.00833754
-0.00351277
0.00948555
-0.00361724
0.0106026
-0.00350565
0.0117038
-0.00312085
0.0128007
-0.00240103
0.0138974
-0.00128078
0.0149884
0.000306662
0.0160583
0.00243363
0.0170781
0.00517244
0.0180098
0.00859572
0.0188037
0.0127755
0.0193992
0.017782
0.0197259
0.0236829
0.0197039
0.030547
0.019249
0.0384302
0.0182955
0.0166777
0.0475376
-9.31305e-05
0.000342584
-0.000301233
0.00128314
-0.00056261
0.0024063
-0.000824899
0.00362144
-0.00104524
0.00485344
-0.00118645
0.00604807
-0.00121254
0.00717197
-0.00108512
0.00821012
-0.000760632
0.00916106
-0.000189544
0.0100315
0.00068436
0.0108299
0.00192302
0.0115621
0.00359265
0.0122278
0.00576292
0.0128182
0.00850659
0.0133147
0.0118961
0.0136886
0.0160044
0.0139015
0.0209035
0.0139046
0.0266627
0.01364
0.0333477
0.0130409
0.0410175
0.0120341
0.0497464
0.0105201
0.0595307
0.00851116
0.00544144
0.070767
-6.78597e-05
0.000410444
-0.000202355
0.00141763
-0.000337873
0.00254182
-0.000416647
0.00370021
-0.00039027
0.00482707
-0.000216565
0.00587437
0.00014451
0.00681089
0.000734734
0.0076199
0.00160007
0.00829573
0.00279242
0.00883912
0.00436975
0.00925253
0.00639563
0.00953617
0.00893843
0.00968498
0.01207
0.00968659
0.0158644
0.00952022
0.0203969
0.00915616
0.0257424
0.00855598
0.0319743
0.00767273
0.0391678
0.00644653
0.0473934
0.00481526
0.0567072
0.00272025
0.0672133
1.40195e-05
0.0788125
-0.00308802
-0.00789887
0.0921528
-6.07222e-05
0.000471166
-0.000160224
0.00151714
-0.00022167
0.00260327
-0.000177904
0.00365645
2.75095e-05
0.00462165
0.00044363
0.00545825
0.00111625
0.00613828
0.00209148
0.00664467
0.00341882
0.00696839
0.00515298
0.00710496
0.00735471
0.0070508
0.0100908
0.00680011
0.0134334
0.00634231
0.0174597
0.00566033
0.0222505
0.00472946
0.0278895
0.00351713
0.0344628
0.00198273
0.0420464
8.9085e-05
0.0507426
-0.00224967
0.0606276
-0.00506969
0.0717577
-0.00840994
0.0842946
-0.0125228
0.0979735
-0.0167669
-0.0235281
0.113603
-6.97957e-05
0.000540962
-0.00016842
0.00161576
-0.000201479
0.00263632
-8.90232e-05
0.00354399
0.000236069
0.00429656
0.000832269
0.00486205
0.00175393
0.00521662
0.00305534
0.00534325
0.00479409
0.00522965
0.00703333
0.00486571
0.00984317
0.00424096
0.0133011
0.00334215
0.0174919
0.00215153
0.0225063
0.000645953
0.0284406
-0.00120481
0.0353935
-0.00343578
0.0434634
-0.00608716
0.0527555
-0.0092031
0.0633379
-0.0128321
0.0752964
-0.0170281
0.0886527
-0.0217663
0.103506
-0.0273765
0.119556
-0.0328164
-0.0413046
0.137332
-8.7968e-05
0.00062893
-0.000203392
0.00173118
-0.000229891
0.00266282
-7.15377e-05
0.00338564
0.000352868
0.00387216
0.00111568
0.00409923
0.00228568
0.00404662
0.00393273
0.0036962
0.00613139
0.00303099
0.00896331
0.00203379
0.0125183
0.000685943
0.0168942
-0.00103371
0.0221948
-0.00314911
0.0285276
-0.00568682
0.035998
-0.00867518
0.0447047
-0.0121426
0.054733
-0.0161155
0.0661465
-0.0206165
0.0789734
-0.025659
0.0932057
-0.0312604
0.108779
-0.0373401
0.125575
-0.0441719
0.143397
-0.0506382
-0.0599125
0.162005
-0.000104058
0.000732988
-0.000228306
0.00185543
-0.000232217
0.00266673
-4.60481e-07
0.00315388
0.000567179
0.00330452
0.00156372
0.00310269
0.00308069
0.00252965
0.00521286
0.00156403
0.00806111
0.000182738
0.011733
-0.00163805
0.0163412
-0.0039223
0.0219999
-0.00669241
0.0288184
-0.00996758
0.0368934
-0.0137618
0.0463
-0.0180818
0.0570826
-0.0229252
0.0692455
-0.0282783
0.0827454
-0.0341164
0.0974843
-0.0403979
0.113304
-0.0470803
0.130005
-0.0540412
0.147227
-0.0613939
0.164903
-0.068314
-0.0770047
0.181995
-0.000105811
0.000838799
-0.000202686
0.00195231
-0.000125853
0.0025899
0.00026255
0.00276548
0.00108794
0.00247913
0.00247075
0.00171988
0.00453203
0.000468367
0.00739628
-0.00130022
0.0111906
-0.00361159
0.0160408
-0.00648828
0.0220641
-0.00994555
0.0293592
-0.0139875
0.0379954
-0.0186038
0.0480015
-0.0237679
0.059356
-0.0294364
0.0719802
-0.0355493
0.085734
-0.0420322
0.100418
-0.0488007
0.115777
-0.0557563
0.131515
-0.0628183
0.147315
-0.0698413
0.162797
-0.076876
0.177874
-0.0833905
-0.0904755
0.191344
-8.38361e-05
-9.46878e-05
0.000154386
0.000826714
0.00207601
0.00405315
0.00690719
0.0107842
0.0158192
0.0221249
0.0297785
0.0388081
0.0491811
0.0607978
0.073489
0.0870212
0.101106
0.115418
0.129608
0.143336
0.156284
0.168225
0.179111
0.189039
-0.0193382
0.0500643
-0.0539044
-0.014587
0.0498865
-0.0546377
-0.00893083
0.047545
-0.0532011
-0.0023782
0.0426136
-0.0491662
0.00495003
0.0347209
-0.0420491
0.0129408
0.0235622
-0.031553
0.0214446
0.00899869
-0.0175024
0.0301514
-0.00877335
6.64909e-05
0.0390648
-0.0294333
0.0205199
0.0478895
-0.0522563
0.0434315
0.0564097
-0.0758868
0.0673666
0.0643489
-0.0983906
0.0904514
0.0712071
-0.117659
0.110801
0.0763117
-0.132078
0.126974
0.0788767
-0.141191
0.138626
0.0781502
-0.146188
0.146915
0.0741334
-0.149652
0.153669
0.0685291
-0.153345
0.158949
0.0646426
-0.154936
0.158823
0.0656052
-0.147382
0.146419
0.0723057
-0.123206
0.116506
0.0833699
-0.080279
0.0692148
0.0968653
-0.0233521
0.00985667
0.110753
0.0382501
-0.0521381
0.123271
0.0939988
-0.106516
0.132857
0.136358
-0.145944
0.138993
0.163453
-0.169589
0.142177
0.177233
-0.180418
0.142482
0.182739
-0.183043
0.139021
0.189309
-0.185848
0.131977
0.20273
-0.195686
0.124358
0.213603
-0.205984
0.120432
0.198201
-0.194275
0.12242
0.140167
-0.142155
0.129391
0.0478077
-0.0547786
0.13825
-0.0511653
0.0423059
0.146235
-0.13153
0.123546
0.152028
-0.182831
0.177038
0.154938
-0.205383
0.202474
0.153422
-0.216699
0.218214
0.14673
-0.227867
0.234559
0.137411
-0.240812
0.250132
0.130419
-0.221148
0.22814
0.129535
-0.156791
0.157674
0.134635
-0.048875
0.0437753
0.142903
0.0621841
-0.0704524
0.149881
0.146021
-0.152999
0.15135
0.213434
-0.214903
0.146381
0.250711
-0.245742
0.138872
0.293384
-0.285876
0.134706
0.24489
-0.240724
0.137048
0.168718
-0.17106
0.142894
0.0247856
-0.0306308
0.146543
-0.100794
0.0971447
0.144785
-0.177446
0.179204
0.140739
-0.317985
0.322031
0.138739
-0.262656
0.264656
0.138586
-0.285529
0.285681
0.137138
-0.0976057
0.0990539
0.133832
-0.131345
0.00357174
0.0448066
0.00936785
0.0440904
0.0157738
0.0411391
0.0227249
0.0356624
0.0300807
0.0273652
0.0376576
0.0159853
0.0452887
0.00136755
0.0528386
-0.0163233
0.0602093
-0.036804
0.0672803
-0.0593272
0.0738863
-0.0824928
0.0797446
-0.104249
0.0844319
-0.122346
0.0874691
-0.135115
0.088348
-0.14207
0.086393
-0.144233
0.0810119
-0.144271
0.0728757
-0.145209
0.0648594
-0.14692
0.0610516
-0.143574
0.0640823
-0.126237
0.0735505
-0.0897473
0.0872271
-0.0370287
0.102552
0.0229253
0.117078
0.0794729
0.128896
0.12454
0.137267
0.155082
0.142363
0.172137
0.143976
0.181125
0.141476
0.191809
0.13561
0.208596
0.129457
0.219757
0.126601
0.201056
0.128621
0.138148
0.134726
0.0417031
0.142152
-0.0585912
0.14845
-0.137829
0.152533
-0.186914
0.154156
-0.207006
0.151989
-0.214532
0.14495
-0.220828
0.135206
-0.231069
0.127812
-0.213753
0.127017
-0.155996
0.132887
-0.0547452
0.14218
0.052891
0.149955
0.138246
0.151855
0.211534
0.147229
0.255337
0.139887
0.300726
0.135593
0.249183
0.137686
0.166626
0.143364
0.0191071
0.147113
-0.104543
0.145226
-0.175559
0.141057
-0.313816
0.138972
-0.260571
0.138649
-0.285206
0.137075
-0.0960314
0.136401
0.0287967
0.0388202
0.0352316
0.0376555
0.0419862
0.0343845
0.0489495
0.0286991
0.0559576
0.0203571
0.0628121
0.00913072
0.0694696
-0.00528994
0.075743
-0.0225966
0.0815838
-0.0426448
0.0869137
-0.0646571
0.0915768
-0.0871559
0.0952939
-0.107966
0.0976956
-0.124748
0.098452
-0.135872
0.0974042
-0.141022
0.0942981
-0.141127
0.0883929
-0.138366
0.0792509
-0.136067
0.0685258
-0.136195
0.060333
-0.135381
0.0589211
-0.124825
0.0656117
-0.0964378
0.078543
-0.0499601
0.0946703
0.00679795
0.110819
0.063324
0.124742
0.110618
0.135354
0.144469
0.142398
0.165094
0.145461
0.178062
0.144239
0.193031
0.139884
0.212951
0.135305
0.224336
0.133354
0.203007
0.135162
0.13634
0.140038
0.0368266
0.145894
-0.0644467
0.150479
-0.142415
0.152885
-0.18932
0.153267
-0.207387
0.15058
-0.211845
0.143424
-0.213673
0.133457
-0.221102
0.125696
-0.205992
0.124869
-0.155169
0.131313
-0.0611888
0.141479
0.042725
0.150023
0.129702
0.152433
0.209124
0.148277
0.259493
0.14119
0.307813
0.136753
0.25362
0.138508
0.16487
0.143947
0.0136676
0.147797
-0.108392
0.145796
-0.173558
0.141445
-0.309465
0.139258
-0.258383
0.13882
-0.284768
0.137173
-0.0943849
0.139032
0.0539098
0.032448
0.0605861
0.0309792
0.0673971
0.0275735
0.0741562
0.02194
0.0807003
0.0138129
0.0868507
0.00298032
0.0926229
-0.0110621
0.0977747
-0.0277484
0.102266
-0.0471364
0.105992
-0.0683828
0.10876
-0.0899242
0.110296
-0.109502
0.110334
-0.124785
0.108753
-0.134291
0.105672
-0.13794
0.101283
-0.136739
0.0952184
-0.132301
0.0864198
-0.127268
0.0748726
-0.124648
0.0635522
-0.124061
0.0575162
-0.118789
0.0602533
-0.099175
0.071203
-0.0609097
0.0872797
-0.00927875
0.104554
0.04605
0.120368
0.0948032
0.133151
0.131687
0.142152
0.156093
0.146824
0.17339
0.147175
0.19268
0.144594
0.215532
0.141623
0.227307
0.140436
0.204193
0.14176
0.135017
0.145273
0.0333138
0.149406
-0.0685804
0.152297
-0.145305
0.153091
-0.190115
0.152264
-0.206559
0.149139
-0.20872
0.142069
-0.206604
0.132105
-0.211137
0.124052
-0.19794
0.123057
-0.154174
0.129877
-0.0680089
0.140759
0.0318426
0.150052
0.12041
0.153066
0.20611
0.14952
0.26304
0.142787
0.314546
0.138204
0.258204
0.139526
0.163547
0.144637
0.00855733
0.148578
-0.112333
0.146483
-0.171463
0.141897
-0.304879
0.139587
-0.256074
0.139084
-0.284265
0.137421
-0.0927218
0.141705
0.0772973
0.0259177
0.0839704
0.0243061
0.0906581
0.0208858
0.0971416
0.0154565
0.103168
0.00778698
0.109018
-0.00286975
0.113995
-0.0160394
0.11823
-0.0319836
0.12154
-0.0504461
0.12373
-0.0705732
0.12456
-0.0907539
0.123818
-0.108761
0.121457
-0.122424
0.117638
-0.130473
0.112684
-0.132986
0.107008
-0.131063
0.100723
-0.126015
0.0929159
-0.119462
0.0823374
-0.114069
0.0699398
-0.111663
0.0601426
-0.108992
0.0581756
-0.097208
0.0658254
-0.0685595
0.0805839
-0.0240373
0.098385
0.0282489
0.115726
0.0774619
0.130473
0.11694
0.141383
0.145183
0.147807
0.166966
0.149993
0.190493
0.149396
0.216129
0.148074
0.228629
0.147518
0.204749
0.148264
0.134271
0.150227
0.0313505
0.152608
-0.0709609
0.153839
-0.146536
0.153114
-0.18939
0.151125
-0.204571
0.147626
-0.205221
0.140815
-0.199793
0.131073
-0.201395
0.122833
-0.189699
0.121555
-0.152896
0.128532
-0.0749856
0.139971
0.0204033
0.149995
0.110386
0.153716
0.202388
0.15093
0.265825
0.144659
0.320817
0.139942
0.262921
0.140758
0.162732
0.14541
0.00390553
0.149435
-0.116359
0.147276
-0.169304
0.142407
-0.30001
0.139953
-0.253619
0.139429
-0.283742
0.137805
-0.0910972
0.144396
0.0985758
0.0194947
0.105046
0.0178359
0.111475
0.0144573
0.117674
0.00925706
0.123337
0.00212406
0.128634
-0.0081666
0.133022
-0.0204278
0.136425
-0.0353863
0.138586
-0.0526075
0.13923
-0.0712169
0.138102
-0.0896257
0.13511
-0.105768
0.130445
-0.117759
0.124574
-0.124602
0.118046
-0.126458
0.111335
-0.124353
0.104762
-0.119441
0.0979214
-0.112621
0.0892985
-0.105446
0.0779693
-0.100334
0.0663333
-0.0973558
0.0598843
-0.0907589
0.0629601
-0.0716354
0.075028
-0.0361052
0.092401
0.0108759
0.110705
0.0591581
0.127083
0.100562
0.139786
0.13248
0.148059
0.158693
0.15229
0.186262
0.153841
0.214578
0.154236
0.228235
0.154284
0.204701
0.154337
0.134218
0.15482
0.030868
0.155415
-0.0715565
0.15504
-0.146161
0.152912
-0.187261
0.149825
-0.201483
0.145986
-0.201381
0.139568
-0.193375
0.130255
-0.192083
0.12195
-0.181394
0.120305
-0.151251
0.127221
-0.0819017
0.13905
0.00857398
0.149792
0.0996447
0.15433
0.19785
0.15246
0.267695
0.146766
0.32651
0.141947
0.26774
0.142184
0.162495
0.146265
-0.000176258
0.150347
-0.12044
0.148157
-0.167114
0.142972
-0.294826
0.140348
-0.250995
0.139841
-0.283234
0.138309
-0.0895655
0.147076
0.119349
0.0137484
0.125227
0.0119582
0.131086
0.00859831
0.136553
0.00379014
0.142028
-0.00335169
0.146427
-0.0125653
0.149975
-0.0239753
0.152292
-0.0377037
0.153059
-0.0533744
0.151956
-0.0701142
0.148783
-0.0864529
0.143618
-0.100603
0.136886
-0.111028
0.129284
-0.116999
0.121534
-0.118708
0.114141
-0.11696
0.107383
-0.112683
0.10121
-0.106449
0.0945882
-0.0988243
0.0857451
-0.0914908
0.0746895
-0.0863001
0.065319
-0.0813884
0.0633274
-0.0696438
0.0711932
-0.0439709
0.0867409
-0.0046719
0.105154
0.040745
0.122717
0.0829995
0.137052
0.118145
0.147228
0.148518
0.153651
0.179838
0.157474
0.210755
0.159616
0.226092
0.160308
0.204009
0.159829
0.134697
0.158834
0.0318629
0.157747
-0.0704697
0.155828
-0.144243
0.152437
-0.18387
0.148335
-0.197381
0.144168
-0.197215
0.138234
-0.187441
0.129532
-0.183381
0.121293
-0.173155
0.119221
-0.149179
0.125873
-0.0885537
0.137926
-0.00347904
0.149371
0.0881997
0.154838
0.192384
0.15404
0.268493
0.149042
0.331509
0.144174
0.272608
0.143772
0.162897
0.147206
-0.00361081
0.151289
-0.124523
0.149105
-0.164931
0.143587
-0.289307
0.140768
-0.248176
0.140305
-0.282771
0.138919
-0.0881794
0.149712
0.141599
0.00948169
0.146203
0.00735483
0.150823
0.00397786
0.155305
-0.000691533
0.159364
-0.00741066
0.162534
-0.0157357
0.16468
-0.0261215
0.165407
-0.0384301
0.16437
-0.0523375
0.161277
-0.0670217
0.156046
-0.0812213
0.148935
-0.0934917
0.140557
-0.10265
0.131722
-0.108164
0.123198
-0.110184
0.115481
-0.109243
0.108753
-0.105955
0.103025
-0.100721
0.0978517
-0.0936509
0.0917349
-0.085374
0.0831579
-0.0777231
0.0733955
-0.0716261
0.0673838
-0.0636321
0.0700473
-0.0466344
0.0818303
-0.0164548
0.0990904
0.0234849
0.117158
0.0649319
0.132895
0.102408
0.14499
0.136423
0.153692
0.171136
0.159845
0.204602
0.163767
0.222171
0.165159
0.202617
0.164309
0.135548
0.162195
0.0339762
0.159513
-0.0677872
0.156129
-0.140859
0.151626
-0.179367
0.146618
-0.192373
0.142119
-0.192716
0.136717
-0.182038
0.128779
-0.175443
0.120733
-0.16511
0.118202
-0.146648
0.124409
-0.0947602
0.136527
-0.0155971
0.148657
0.0760698
0.155159
0.185882
0.155578
0.268074
0.151398
0.335688
0.146554
0.277453
0.145507
0.163944
0.148198
-0.00630184
0.152232
-0.128557
0.150096
-0.162795
0.144243
-0.283454
0.14121
-0.245144
0.14081
-0.282371
0.139619
-0.0869884
0.152266
0.164314
0.00717195
0.16713
0.00453888
0.169818
0.00129019
0.172542
-0.00341546
0.174532
-0.00940082
0.175826
-0.0170297
0.175993
-0.0262886
0.17469
-0.0371266
0.171594
-0.0492421
0.166503
-0.0619305
0.159472
-0.0741899
0.150897
-0.0849169
0.141475
-0.0932275
0.132014
-0.0987037
0.123211
-0.101381
0.115494
-0.101527
0.108991
-0.0994512
0.103655
-0.0953852
0.0993436
-0.0893392
0.0952924
-0.0813229
0.0898197
-0.0722504
0.0820465
-0.0638529
0.0744611
-0.0560467
0.0722792
-0.0444525
0.0789355
-0.0231112
0.093147
0.00927342
0.110526
0.0475524
0.12716
0.0857744
0.141075
0.122507
0.152133
0.160078
0.160712
0.196023
0.166438
0.216445
0.168576
0.200478
0.167589
0.136535
0.164611
0.0369537
0.160594
-0.0637695
0.155842
-0.136107
0.15038
-0.173905
0.144608
-0.1866
0.139771
-0.187879
0.134911
-0.177178
0.127872
-0.168404
0.120145
-0.157383
0.117134
-0.143637
0.122747
-0.100373
0.134782
-0.0276323
0.147567
0.0632847
0.155204
0.178244
0.15698
0.266298
0.153735
0.338933
0.149015
0.282172
0.147344
0.165615
0.149219
-0.00817662
0.153145
-0.132482
0.151101
-0.160751
0.144933
-0.277286
0.141672
-0.241883
0.141344
-0.282043
0.140397
-0.0860418
0.154699
0.182567
0.0066003
0.183551
0.00355433
0.18437
0.00047169
0.184792
-0.00383789
0.184752
-0.00936086
0.183957
-0.0162341
0.182055
-0.0243866
0.178759
-0.0338313
0.173822
-0.0443043
0.167151
-0.0552595
0.15891
-0.0659498
0.149557
-0.0755636
0.139765
-0.0834351
0.130248
-0.0891866
0.121578
-0.0927111
0.114098
-0.0940469
0.10792
-0.0932732
0.102993
-0.0904587
0.0992368
-0.0855825
0.0964197
-0.0785058
0.0935294
-0.0693601
0.0889334
-0.0592569
0.0825631
-0.0496764
0.077758
-0.0396474
0.0792194
-0.0245725
0.088707
-0.000214246
0.103649
0.0326106
0.120139
0.069284
0.135455
0.107191
0.148721
0.146812
0.159672
0.185072
0.1673
0.208817
0.170377
0.197401
0.169491
0.137421
0.166114
0.040331
0.160959
-0.0586149
0.154918
-0.130065
0.148618
-0.167605
0.142253
-0.180236
0.137084
-0.18271
0.132732
-0.172826
0.126711
-0.162383
0.119435
-0.150107
0.115928
-0.14013
0.120807
-0.105251
0.132622
-0.0394477
0.146029
0.0498776
0.154878
0.169395
0.158118
0.263059
0.155933
0.341118
0.151465
0.286641
0.149241
0.167839
0.150248
-0.00918348
0.153998
-0.136233
0.152094
-0.158847
0.145651
-0.270843
0.142156
-0.238388
0.141893
-0.28178
0.141238
-0.0853869
0.156967
0.191253
0.00669213
0.190939
0.00386768
0.190236
0.00117472
0.18918
-0.00278169
0.187611
-0.00779155
0.185248
-0.0138718
0.181852
-0.0209907
0.177201
-0.0291801
0.171144
-0.0382465
0.163685
-0.047801
0.155047
-0.0573114
0.14567
-0.0661872
0.136139
-0.0739032
0.127028
-0.080076
0.118785
-0.0844678
0.111675
-0.0869376
0.105811
-0.0874087
0.101192
-0.08584
0.0977726
-0.0821628
0.095535
-0.0762682
0.0941716
-0.0679968
0.0924638
-0.057549
0.0890126
-0.0462252
0.0845605
-0.0351953
0.0827479
-0.0227599
0.0872366
-0.00470296
0.0980491
0.0217981
0.112774
0.0545595
0.128546
0.0914189
0.143763
0.131595
0.157221
0.171615
0.166755
0.199282
0.170662
0.193494
0.17026
0.137824
0.166768
0.0438227
0.160829
-0.0526754
0.153585
-0.122821
0.146536
-0.160556
0.139743
-0.173444
0.134234
-0.177201
0.130251
-0.168843
0.125295
-0.157427
0.118597
-0.143409
0.114574
-0.136107
0.11855
-0.109227
0.129991
-0.050889
0.143952
0.0359163
0.154115
0.159231
0.158939
0.258235
0.157903
0.342154
0.153807
0.290737
0.151148
0.170498
0.151279
-0.00931529
0.154782
-0.139736
0.153054
-0.157119
0.146399
-0.264188
0.14266
-0.23465
0.142453
-0.281572
0.142132
-0.0850657
0.159023
0.188844
0.00688677
0.187795
0.00491661
0.186721
0.00224912
0.185204
-0.00126501
0.183001
-0.00558845
0.18
-0.0108709
0.176075
-0.017066
0.171069
-0.0241742
0.164906
-0.0320826
0.157648
-0.040544
0.149529
-0.0491922
0.14093
-0.0575878
0.13231
-0.0652832
0.124104
-0.0718705
0.11665
-0.0770135
0.110159
-0.0804469
0.104731
-0.0819806
0.100397
-0.0815062
0.0971511
-0.0789165
0.0950024
-0.0741196
0.0940085
-0.0670029
0.0937585
-0.057299
0.0929275
-0.0453942
0.0905817
-0.0328495
0.0881965
-0.0203747
0.0888557
-0.00536218
0.0952524
0.0154014
0.106565
0.043247
0.120931
0.0770528
0.136655
0.115871
0.151823
0.156446
0.163218
0.187888
0.168821
0.187891
0.169802
0.136842
0.167027
0.0465976
0.160243
-0.0458908
0.151947
-0.114526
0.144341
-0.152949
0.137306
-0.16641
0.131459
-0.171354
0.127624
-0.165007
0.123672
-0.153475
0.117653
-0.13739
0.113125
-0.131579
0.116113
-0.112215
0.127006
-0.0617825
0.141341
0.0215815
0.152745
0.147827
0.159212
0.251768
0.159479
0.341887
0.155956
0.29426
0.153003
0.173451
0.152296
-0.00860758
0.155478
-0.142918
0.153961
-0.155602
0.147165
-0.257392
0.143162
-0.230647
0.143028
-0.281439
0.143068
-0.0851056
0.16082
0.206901
0.00691272
-0.206927
0.207424
0.00439376
0.207889
0.0017836
0.208284
-0.00165991
0.208516
-0.00581959
0.208421
-0.0107767
0.207861
-0.0165057
0.20664
-0.0229531
0.204579
-0.0300213
0.201561
-0.0375258
0.197553
-0.0451851
0.192616
-0.05265
0.186878
-0.0595457
0.180512
-0.0655048
0.173704
-0.0702051
0.166637
-0.0733804
0.159482
-0.0748256
0.152391
-0.0744145
0.14549
-0.0720162
0.138866
-0.0674953
0.132661
-0.0607981
0.126996
-0.0516339
0.121388
-0.039786
0.114769
-0.0262308
0.106978
-0.0125837
0.0997518
0.00186439
0.0953772
0.019776
0.0952915
0.0433327
0.099215
0.0731293
0.106277
0.108809
0.115612
0.147112
0.127226
0.176274
0.142827
0.17229
0.161273
0.118396
0.175699
0.032171
0.182197
-0.0523888
0.180968
-0.113297
0.175245
-0.147226
0.167114
-0.158279
0.158425
-0.162664
0.150917
-0.157499
0.1437
-0.146258
0.134868
-0.128559
0.126564
-0.123275
0.123496
-0.109146
0.126543
-0.0648296
0.131713
0.0164119
0.135101
0.144439
0.136811
0.250058
0.138226
0.340471
0.141253
0.291234
0.145647
0.169056
0.14974
-0.0127008
0.153181
-0.146358
0.151273
-0.153694
0.143287
-0.249406
0.137024
-0.224383
0.13385
-0.278265
0.131059
-0.0823146
0.163143
0.217606
0.00674708
-0.217441
0.217863
0.00413674
0.218327
0.00131996
0.218655
-0.00198757
0.218713
-0.00587831
0.218373
-0.0104367
0.217518
-0.0156499
0.216015
-0.02145
0.213738
-0.027745
0.210601
-0.0343887
0.206576
-0.0411596
0.2017
-0.0477743
0.196072
-0.0539182
0.189839
-0.0592709
0.183173
-0.06354
0.176266
-0.066473
0.169298
-0.0678576
0.162428
-0.0675441
0.155795
-0.0653839
0.149496
-0.0611959
0.143611
-0.0549135
0.138308
-0.0463302
0.133526
-0.0350043
0.128487
-0.0211922
0.122247
-0.00634329
0.115206
0.00890487
0.10944
0.0255422
0.107158
0.0456147
0.109516
0.0707717
0.116287
0.102038
0.12657
0.136828
0.140552
0.162292
0.158958
0.153884
0.178407
0.0989476
0.192361
0.0182168
0.197196
-0.0572239
0.194233
-0.110334
0.187059
-0.140052
0.178023
-0.149243
0.168642
-0.153283
0.16059
-0.149447
0.153405
-0.139073
0.144716
-0.119869
0.135923
-0.114483
0.131994
-0.105217
0.134521
-0.0673571
0.139875
0.0110586
0.143757
0.140557
0.146319
0.247496
0.148897
0.337893
0.152944
0.287187
0.157833
0.164167
0.161537
-0.0164048
0.164578
-0.149399
0.162184
-0.1513
0.153308
-0.24053
0.146196
-0.217271
0.142637
-0.274706
0.139726
-0.0794029
0.16557
0.227443
0.00643791
-0.227134
0.22777
0.00380995