/*--------------------------------*- C++ -*----------------------------------*\
| =========                 |                                                 |
| \\      /  F ield         | OpenFOAM: The Open Source CFD Toolbox           |
|  \\    /   O peration     | Version:  2512                                  |
|   \\  /    A nd           | Website:  www.openfoam.com                      |
|    \\/     M anipulation  |                                                 |
\*---------------------------------------------------------------------------*/
FoamFile
{
    version     2.0;
    format      ascii;
    arch        "LSB;label=32;scalar=64";
    class       volVectorField;
    location    "175.25";
    object      U;
}
// * * * * * * * * * * * * * * * * * * * * * * * * * * * * * * * * * * * * * //

dimensions      [0 1 -1 0 0 0 0];

internalField   nonuniform List<vector> 
13248
(
(-0.0117063 0.0119801 9.34384e-20)
(-0.0164978 0.0232006 0)
(-0.00329687 0.0268048 -1.77201e-19)
(0.0257646 0.0245666 1.66919e-19)
(0.0693084 0.0182972 1.57e-19)
(0.126357 0.00961976 0)
(0.195942 -0.000187923 0)
(0.276831 -0.0101482 3.8469e-19)
(0.367276 -0.0195234 -1.67149e-21)
(0.464871 -0.0277797 -3.36258e-19)
(0.566554 -0.0345665 3.09292e-19)
(0.668778 -0.0397024 -1.9343e-19)
(0.767809 -0.0431581 0)
(0.860095 -0.0450309 -3.15347e-19)
(0.942615 -0.0455092 5.80619e-19)
(1.01315 -0.0448323 -1.38434e-19)
(1.07046 -0.0432483 -2.26656e-19)
(1.11429 -0.0409892 2.12796e-19)
(1.14527 -0.0382114 0)
(1.16474 -0.03515 0)
(1.17466 -0.0315217 0)
(1.17647 -0.0286438 0)
(1.17376 -0.0232586 5.12005e-20)
(1.16375 -0.0248652 1.66604e-19)
(-0.00971466 0.0089897 -2.81989e-19)
(-0.00796982 0.0153254 1.92173e-19)
(0.0147021 0.0158313 -1.32476e-21)
(0.0560837 0.0121116 -2.54402e-19)
(0.114601 0.00583442 -1.56831e-19)
(0.188832 -0.0014742 -1.48324e-19)
(0.277005 -0.00863386 -2.74714e-19)
(0.376691 -0.0147959 2.58797e-19)
(0.484633 -0.0194168 0)
(0.59678 -0.0222443 1.76137e-21)
(0.708555 -0.0232931 2.97681e-21)
(0.8153 -0.0227958 1.91063e-19)
(0.912787 -0.0211316 0)
(0.997667 -0.0187425 0)
(1.06778 -0.016052 2.06648e-19)
(1.12227 -0.0134002 -3.88002e-19)
(1.16152 -0.0110058 2.19394e-19)
(1.18696 -0.00895641 -2.0599e-19)
(1.20069 -0.00721906 -8.67712e-20)
(1.20519 -0.00569486 -1.49325e-19)
(1.20295 -0.00412212 -5.6757e-20)
(1.19624 -0.0027266 -1.03925e-19)
(1.18702 0.00028567 1.61175e-19)
(1.17517 -0.000862063 4.39478e-20)
(-0.00675927 0.00598906 0)
(0.00415758 0.0073381 0)
(0.0393652 0.00492382 9.00264e-20)
(0.0962762 0.000235293 8.34011e-20)
(0.172786 -0.00517413 -1.45911e-21)
(0.266546 -0.00990235 -1.51478e-19)
(0.374362 -0.0129808 0)
(0.491974 -0.0138897 -1.288e-19)
(0.614143 -0.0125348 1.19724e-19)
(0.735068 -0.009202 -5.3573e-22)
(0.84903 -0.00446219 -2.03287e-19)
(0.951087 0.000964016 -1.83019e-19)
(1.03764 0.00635447 5.9817e-21)
(1.10675 0.0111126 -1.43277e-19)
(1.15815 0.0148497 3.50503e-19)
(1.19305 0.0174133 0)
(1.21372 0.0188662 -2.12362e-19)
(1.223 0.0194283 1.04194e-19)
(1.22387 0.019416 8.6698e-20)
(1.21905 0.0191342 0)
(1.21085 0.0189746 6.66634e-20)
(1.20086 0.0188138 -2.2235e-19)
(1.19038 0.0198902 2.08726e-19)
(1.17948 0.0178327 1.23363e-19)
(-0.00246803 0.00298181 -9.86356e-20)
(0.0208091 -0.000407104 -1.017e-19)
(0.0720177 -0.00500421 9.26677e-20)
(0.147782 -0.00954553 0)
(0.244912 -0.012683 0)
(0.359433 -0.013281 -2.09832e-21)
(0.48601 -0.0108178 0)
(0.618057 -0.00539648 -3.86999e-19)
(0.748341 0.00235249 3.58586e-19)
(0.869895 0.0114381 -4.42174e-19)
(0.976963 0.0207328 1.01032e-19)
(1.0657 0.0292032 0)
(1.13445 0.0360868 1.61897e-19)
(1.18364 0.0409829 -2.97434e-19)
(1.21535 0.0438506 7.08995e-20)
(1.23265 0.044936 1.73006e-19)
(1.239 0.0446616 -1.19127e-20)
(1.2377 0.0435127 -1.89886e-19)
(1.23155 0.0419445 0)
(1.22267 0.040322 0)
(1.21256 0.0389445 -6.32124e-20)
(1.20209 0.0377486 5.55514e-20)
(1.19194 0.0376472 1.90579e-19)
(1.18169 0.0348829 -1.78957e-19)
(0.00360557 -7.79621e-06 -1.02768e-19)
(0.0429154 -0.00752514 -1.02827e-19)
(0.113693 -0.0130456 2.89598e-19)
(0.211232 -0.0158006 -1.76663e-19)
(0.330513 -0.0148845 1.66284e-19)
(0.465131 -0.00971602 3.03567e-19)
(0.607052 -0.00056404 -2.13787e-19)
(0.747374 0.0115381 -2.58325e-19)
(0.877601 0.0250819 6.2755e-21)
(0.990926 0.0384396 3.3113e-19)
(1.08312 0.0502042 0)
(1.15278 0.0594257 8.88224e-20)
(1.20102 0.0657001 0)
(1.23075 0.0691183 -1.41246e-19)
(1.24583 0.0701236 1.9827e-19)
(1.25023 0.0693365 1.85856e-21)
(1.24751 0.0673993 -5.02597e-20)
(1.24048 0.0648701 9.20798e-20)
(1.23116 0.0621722 7.87536e-20)
(1.22086 0.0595888 -6.95339e-20)
(1.21039 0.0572913 6.31957e-20)
(1.20017 0.0552659 -5.55362e-20)
(1.19041 0.0539776 0)
(1.18098 0.0507509 -4.16745e-20)
(0.0118981 -0.00285761 1.02754e-19)
(0.0712344 -0.0134609 1.07188e-19)
(0.164891 -0.0181708 -9.687e-20)
(0.28619 -0.0171281 1.80407e-19)
(0.427447 -0.0102715 -1.69799e-19)
(0.579175 0.00200321 1.53755e-19)
(0.730596 0.0182671 -7.35091e-20)
(0.871296 0.0363881 1.94047e-19)
(0.993009 0.0540986 -1.21299e-19)
(1.0908 0.0695039 2.12515e-19)
(1.16334 0.0814 -4.8821e-19)
(1.21234 0.0893567 1.78105e-19)
(1.24153 0.093599 -1.53746e-19)
(1.2555 0.0947761 1.44419e-19)
(1.25876 0.093712 1.22037e-19)
(1.25515 0.0912077 1.05148e-19)
(1.24755 0.0879248 -2.92237e-19)
(1.23792 0.0843448 1.80444e-19)
(1.2275 0.0807821 -7.87548e-20)
(1.217 0.0774206 2.02252e-19)
(1.20679 0.0743532 -6.53509e-20)
(1.19704 0.0715862 -1.55244e-19)
(1.18783 0.0693443 1.42682e-19)
(1.17899 0.0657964 4.16613e-20)
(0.0227614 -0.00531856 0)
(0.106187 -0.0174371 6.14082e-22)
(0.225391 -0.0191965 2.00134e-19)
(0.371033 -0.0121903 -1.88e-19)
(0.532046 0.00225484 -1.69922e-19)
(0.695685 0.0222972 3.15692e-19)
(0.849193 0.045121 -1.46553e-19)
(0.982229 0.0676313 1.94739e-19)
(1.0886 0.0872479 -4.72945e-21)
(1.16667 0.102374 -1.09629e-19)
(1.21856 0.112484 2.37317e-19)
(1.24877 0.117918 -3.48637e-19)
(1.26269 0.119542 0)
(1.26545 0.118404 -6.72273e-20)
(1.26125 0.115487 -1.77724e-19)
(1.25315 0.111575 5.61214e-20)
(1.24317 0.107225 2.6408e-21)
(1.23253 0.102792 -1.18391e-19)
(1.22188 0.0984877 9.04857e-21)
(1.21156 0.0944214 1.36117e-19)
(1.20172 0.0906419 -5.92579e-20)
(1.19241 0.0871691 -2.21381e-20)
(1.18359 0.0840348 6.95481e-20)
(1.17517 0.0801684 0)
(0.0364061 -0.00702283 0)
(0.147729 -0.0184861 5.41118e-20)
(0.29413 -0.0148622 -2.59011e-19)
(0.462994 0.000157215 9.43724e-20)
(0.639548 0.0232538 -8.88192e-20)
(0.808384 0.0507957 -8.07016e-20)
(0.956349 0.0786755 -1.42979e-19)
(1.07515 0.103329 7.13255e-20)
(1.16219 0.122513 6.22605e-20)
(1.21969 0.135457 0)
(1.25283 0.142569 1.39693e-19)
(1.26791 0.144945 -2.06394e-19)
(1.27081 0.1439 1.53676e-19)
(1.2663 0.140648 6.7262e-20)
(1.25777 0.136137 -5.43165e-20)
(1.24739 0.131028 -4.4714e-20)
(1.23641 0.12574 -4.1309e-20)
(1.22551 0.120514 1.25197e-19)
(1.215 0.115482 0)
(1.20502 0.110707 6.14525e-20)
(1.19558 0.106221 5.06977e-20)
(1.18667 0.102033 -1.26887e-19)
(1.17823 0.0980852 -8.50891e-20)
(1.17016 0.093912 7.89404e-20)
(0.0528563 -0.00751911 -5.72133e-20)
(0.195262 -0.0155544 -1.60478e-21)
(0.369186 -0.00399806 5.24511e-20)
(0.558398 0.0206744 1.45856e-19)
(0.744765 0.0526454 4.22273e-20)
(0.91166 0.0864675 -8.16141e-20)
(1.0476 0.117237 7.48841e-20)
(1.14805 0.141657 -6.57956e-20)
(1.21472 0.158436 1.17102e-19)
(1.25331 0.167935 4.97833e-20)
(1.27109 0.171484 -1.40809e-19)
(1.27497 0.170733 4.14726e-20)
(1.27051 0.167202 7.02498e-20)
(1.26162 0.162073 -3.46445e-20)
(1.25075 0.156158 0)
(1.23931 0.149962 5.09245e-20)
(1.22802 0.143771 8.55188e-20)
(1.21719 0.137742 1.4137e-20)
(1.20694 0.131954 -7.08556e-20)
(1.1973 0.126444 2.94716e-20)
(1.18824 0.121231 0)
(1.1797 0.116307 -2.28622e-20)
(1.17159 0.111596 -2.11984e-20)
(1.16382 0.107049 0)
(0.0719126 -0.00632326 0)
(0.2476 -0.00764485 2.98468e-20)
(0.447883 0.0142818 5.51744e-20)
(0.65306 0.0495825 -1.47717e-19)
(0.842808 0.0897264 4.74077e-20)
(1.00134 0.127866 0)
(1.1208 0.159113 7.14211e-20)
(1.20138 0.181185 -9.95584e-20)
(1.24889 0.194149 -5.82306e-20)
(1.27159 0.19953 2.64275e-20)
(1.27768 0.199384 -4.16292e-20)
(1.27382 0.195653 1.01439e-19)
(1.26473 0.189854 5.0612e-20)
(1.25336 0.183022 -3.53423e-20)
(1.24136 0.175792 -3.48068e-21)
(1.22954 0.168521 -9.56333e-20)
(1.21826 0.161394 4.34665e-20)
(1.20766 0.154509 -9.87648e-22)
(1.19774 0.14791 0)
(1.18848 0.141622 -2.95019e-20)
(1.17979 0.13565 0)
(1.17161 0.129967 6.60325e-20)
(1.16384 0.124539 -7.84504e-20)
(1.15637 0.119539 3.56472e-20)
(0.0931295 -0.00297013 -1.52467e-20)
(0.303005 0.00605193 -7.45901e-20)
(0.527001 0.0404315 8.45134e-20)
(0.742763 0.0865115 4.9832e-20)
(0.929658 0.133301 -2.39143e-20)
(1.07492 0.173392 3.99662e-20)
(1.17568 0.20283 -1.94902e-20)
(1.23696 0.220924 3.24281e-20)
(1.26785 0.229224 0)
(1.27805 0.23025 7.3253e-20)
(1.27575 0.226512 -3.02393e-21)
(1.26684 0.220011 -5.90806e-20)
(1.25503 0.212122 2.52851e-20)
(1.24239 0.20368 -2.84715e-20)
(1.22993 0.19515 -1.07949e-20)
(1.2181 0.186767 1.24903e-20)
(1.20703 0.178646 -9.64139e-21)
(1.19675 0.170843 -5.19431e-20)
(1.18721 0.163384 3.18464e-20)
(1.17834 0.15628 6.51767e-21)
(1.17005 0.14952 5.72163e-21)
(1.16225 0.143069 5.02297e-21)
(1.15483 0.136963 0)
(1.14765 0.131399 0)
(0.115889 0.002949 1.52573e-20)
(0.359423 0.0260684 -1.53189e-20)
(0.603236 0.0743988 -2.80896e-20)
(0.823822 0.130554 0)
(1.00251 0.181882 -1.18148e-20)
(1.13138 0.221517 -1.0539e-20)
(1.2131 0.247248 -1.81274e-20)
(1.25696 0.260266 0)
(1.27424 0.263506 0)
(1.27511 0.260207 0)
(1.2671 0.253068 0)
(1.2551 0.243982 0)
(1.24184 0.234107 -1.58736e-20)
(1.22869 0.224078 7.22902e-21)
(1.21621 0.214211 1.25548e-20)
(1.20461 0.204653 5.85385e-21)
(1.19389 0.195468 1.44968e-20)
(1.18402 0.186685 0)
(1.17493 0.178313 -3.46832e-21)
(1.16653 0.170354 -3.27173e-21)
(1.1587 0.162781 -5.73068e-21)
(1.15135 0.155566 -5.03094e-21)
(1.14434 0.148815 0)
(1.13756 0.142589 3.60445e-21)
(-0.00131117 -0.0126398 8.98369e-21)
(-0.00703313 -0.0407063 -9.33867e-21)
(-0.0181122 -0.0690794 -1.76967e-20)
(-0.0320711 -0.0955839 0)
(-0.0475452 -0.119198 -2.36516e-20)
(-0.0637827 -0.139912 7.39001e-21)
(-0.0801756 -0.158347 -1.40822e-20)
(-0.0962282 -0.175365 0)
(-0.111567 -0.191768 0)
(-0.125918 -0.208122 0)
(-0.139087 -0.224695 0)
(-0.150923 -0.241483 0)
(-0.161298 -0.258261 -4.29604e-23)
(-0.17009 -0.274638 -9.28529e-21)
(-0.177162 -0.290095 1.76224e-20)
(-0.182366 -0.304009 2.49131e-20)
(-0.185535 -0.315662 7.79737e-21)
(-0.186496 -0.324257 0)
(-0.185089 -0.328943 7.03216e-21)
(-0.181186 -0.328859 -1.95822e-20)
(-0.174667 -0.323197 -1.21988e-20)
(-0.165331 -0.311222 -1.14565e-20)
(-0.153158 -0.292246 0)
(-0.139369 -0.266012 0)
(-0.00139812 -0.00691175 -2.71099e-20)
(-0.0073119 -0.0275107 4.67428e-20)
(-0.0192121 -0.0510888 -1.78121e-20)
(-0.0342659 -0.0745601 -3.3721e-20)
(-0.050928 -0.0963898 4.75428e-20)
(-0.068371 -0.116254 -3.01004e-20)
(-0.0859418 -0.134551 4.23931e-20)
(-0.103131 -0.151972 2.70689e-20)
(-0.119582 -0.169188 0)
(-0.135058 -0.186671 -2.36837e-20)
(-0.14941 -0.204631 -1.40889e-22)
(-0.162538 -0.223036 2.09358e-20)
(-0.174368 -0.241663 3.00595e-20)
(-0.184827 -0.260143 3.75802e-20)
(-0.19384 -0.277991 -1.76053e-20)
(-0.201314 -0.294618 -4.97219e-20)
(-0.207148 -0.309343 1.54217e-20)
(-0.211227 -0.321391 -5.79932e-20)
(-0.213457 -0.329908 0)
(-0.213787 -0.334003 1.29683e-20)
(-0.212115 -0.332791 1.21871e-20)
(-0.208095 -0.325389 1.14455e-20)
(-0.201721 -0.310895 0)
(-0.195584 -0.288889 0)
(-0.00217178 -0.000475413 0)
(-0.00876801 -0.0127101 9.56606e-20)
(-0.0211329 -0.0309984 -3.60505e-20)
(-0.0364527 -0.0512206 3.4021e-20)
(-0.0531876 -0.0712186 -9.73295e-20)
(-0.0705184 -0.090253 0)
(-0.0877935 -0.108418 -5.79741e-20)
(-0.104511 -0.126186 2.74856e-20)
(-0.120331 -0.144074 -5.22296e-20)
(-0.135045 -0.162457 2.51907e-20)
(-0.148535 -0.181498 1.38312e-19)
(-0.160736 -0.201154 -6.4933e-20)
(-0.171613 -0.221215 -1.01248e-19)
(-0.181141 -0.241344 -3.82041e-20)
(-0.189297 -0.261092 3.75613e-22)
(-0.196055 -0.279917 1.32805e-19)
(-0.201381 -0.297177 -6.20986e-20)
(-0.205237 -0.312131 3.27919e-22)
(-0.207604 -0.323944 0)
(-0.208515 -0.331698 -4.77974e-20)
(-0.207919 -0.334419 0)
(-0.205327 -0.331087 -4.08381e-20)
(-0.200556 -0.320731 1.47803e-19)
(-0.19771 -0.303052 -1.71902e-21)
(-0.00360715 0.00601003 0)
(-0.0113191 0.00235885 8.26446e-22)
(-0.023693 -0.0104235 3.72945e-20)
(-0.0383384 -0.0272578 -3.54446e-20)
(-0.0539184 -0.0453515 3.23682e-20)
(-0.0697096 -0.0635057 1.88359e-19)
(-0.0851065 -0.0814689 -5.89917e-20)
(-0.0996281 -0.0994581 -5.66236e-20)
(-0.112948 -0.117823 1.05696e-19)
(-0.124869 -0.13684 -1.49054e-19)
(-0.135282 -0.156623 4.73909e-20)
(-0.144142 -0.17712 4.47139e-20)
(-0.151436 -0.198133 0)
(-0.157177 -0.219346 3.8389e-20)
(-0.161393 -0.240344 0)
(-0.164126 -0.260625 6.73999e-20)
(-0.165427 -0.279597 -1.22292e-19)
(-0.165349 -0.296581 3.13829e-20)
(-0.163956 -0.310799 1.05075e-19)
(-0.16136 -0.321363 4.77553e-20)
(-0.157607 -0.32724 0)
(-0.152181 -0.32725 -1.12187e-19)
(-0.144298 -0.320288 3.68024e-20)
(-0.138504 -0.306138 0)
(-0.00555096 0.0118803 0)
(-0.0146819 0.0163439 -1.19028e-19)
(-0.0265695 0.00900595 -3.84359e-20)
(-0.0395898 -0.0043607 -7.1609e-20)
(-0.0527777 -0.020433 6.7433e-20)
(-0.0655812 -0.037584 -6.32628e-20)
(-0.0774829 -0.0552004 1.21501e-19)
(-0.0880348 -0.0732283 5.72012e-20)
(-0.0969153 -0.0918416 -1.61508e-19)
(-0.103919 -0.111208 1.02333e-19)
(-0.108931 -0.13139 -1.43708e-19)
(-0.111903 -0.152316 3.18081e-19)
(-0.112836 -0.173786 -1.69753e-19)
(-0.111773 -0.195492 7.99102e-20)
(-0.108797 -0.217031 2.19711e-19)
(-0.10403 -0.237918 -7.00672e-20)
(-0.0976336 -0.257602 -6.58024e-20)
(-0.0897939 -0.275465 -5.8351e-20)
(-0.0807116 -0.29083 0)
(-0.0706118 -0.302933 -8.87094e-20)
(-0.0597372 -0.31085 -7.26752e-20)
(-0.0479356 -0.313389 1.11953e-19)
(-0.0337545 -0.309082 1.1823e-19)
(-0.018263 -0.29699 -1.09303e-19)
(-0.00774976 0.0165777 0)
(-0.0184145 0.0280597 -1.64169e-19)
(-0.029324 0.0258112 -1.53151e-21)
(-0.0398337 0.0158864 1.45855e-19)
(-0.0494795 0.00194027 0)
(-0.0579251 -0.0140403 0)
(-0.0647515 -0.0311127 0)
(-0.069567 -0.0489745 -5.83495e-20)
(-0.0720603 -0.0676048 -5.12588e-22)
(-0.0720014 -0.0870515 1.04601e-19)
(-0.0692554 -0.107311 -1.46242e-19)
(-0.0637638 -0.128278 1.74694e-22)
(-0.0555369 -0.149731 0)
(-0.0446532 -0.171345 -7.98651e-20)
(-0.0312628 -0.192697 7.3878e-20)
(-0.0155904 -0.213289 -2.08019e-19)
(0.00206592 -0.23256 2.48414e-19)
(0.0213453 -0.249916 4.92849e-20)
(0.0418488 -0.264745 -1.08894e-20)
(0.0631668 -0.276431 -1.84915e-19)
(0.0848306 -0.284339 -7.73243e-20)
(0.106336 -0.287685 2.27884e-19)
(0.127954 -0.284974 -1.45664e-19)
(0.156872 -0.272046 0)
(-0.00990192 0.0197355 8.17659e-20)
(-0.0219901 0.0366352 8.24906e-20)
(-0.0314755 0.038808 -8.00202e-20)
(-0.0387227 0.032126 -1.50139e-19)
(-0.0437948 0.0203396 1.41376e-19)
(-0.0466122 0.00567414 -1.34659e-19)
(-0.0469024 -0.0106792 1.90909e-19)
(-0.0443172 -0.0281772 -5.85104e-20)
(-0.0385449 -0.0466099 1.1336e-19)
(-0.0293551 -0.0659005 0)
(-0.0166004 -0.0859602 1.01888e-19)
(-0.000224595 -0.106632 -1.91305e-19)
(0.0197269 -0.127652 1.7592e-19)
(0.0431016 -0.148658 -1.65229e-19)
(0.0696334 -0.169191 0)
(0.0989419 -0.188715 1.38802e-19)
(0.130539 -0.206637 2.47542e-19)
(0.16385 -0.222343 -2.32089e-19)
(0.198242 -0.235228 -1.00516e-19)
(0.233078 -0.244737 -8.20969e-20)
(0.267669 -0.250438 2.36867e-19)
(0.301731 -0.251888 5.66945e-20)
(0.333344 -0.248523 -5.98801e-20)
(0.378215 -0.233673 4.32896e-20)
(-0.0117225 0.0212261 -8.17767e-20)
(-0.0248822 0.0416144 2.58112e-19)
(-0.032526 0.0472329 -8.16204e-20)
(-0.0358913 0.0433692 1.53489e-19)
(-0.0355282 0.0336263 -1.44526e-19)
(-0.0316064 0.0203157 8.50321e-22)
(-0.0240016 0.00480837 6.51542e-20)
(-0.0124501 -0.0121535 2.48176e-19)
(0.00333087 -0.0301987 8.82854e-22)
(0.0235638 -0.0491118 -1.08194e-19)
(0.0483635 -0.0687093 0)
(0.0777221 -0.0887568 -9.63321e-20)
(0.111489 -0.108933 1.80145e-19)
(0.14934 -0.128827 1.64759e-19)
(0.190783 -0.14794 -7.80422e-20)
(0.235162 -0.165709 2.04348e-22)
(0.281682 -0.181532 -6.31681e-20)
(0.329452 -0.194808 1.12798e-19)
(0.377541 -0.204978 1.00467e-19)
(0.425087 -0.211538 -8.79015e-20)
(0.470984 -0.214237 7.46675e-20)
(0.516171 -0.212242 -6.31754e-20)
(0.552934 -0.20761 0)
(0.612616 -0.190749 -4.31998e-20)
(-0.013002 0.0211585 8.49996e-20)
(-0.0266429 0.042984 -8.66413e-20)
(-0.0320012 0.0508107 8.35397e-20)
(-0.0309279 0.0490794 0)
(-0.0243582 0.0410605 0)
(-0.0126787 0.029021 1.42209e-19)
(0.00408264 0.0144186 -1.31668e-19)
(0.0260873 -0.00186774 1.26108e-19)
(0.0535422 -0.0193158 -5.88606e-19)
(0.0865909 -0.0375792 1.05802e-22)
(0.12524 -0.0563634 1.04302e-19)
(0.169305 -0.0753409 0)
(0.218375 -0.0941255 -1.79544e-19)
(0.271795 -0.112257 3.34046e-19)
(0.328667 -0.129213 -2.32002e-19)
(0.387889 -0.144437 -3.4391e-19)
(0.448212 -0.157369 1.14665e-20)
(0.508325 -0.167492 2.2955e-19)
(0.566931 -0.174376 0)
(0.623002 -0.177618 0)
(0.674894 -0.177388 -7.46483e-20)
(0.725061 -0.172188 6.31597e-20)
(0.761518 -0.166534 -1.96717e-19)
(0.823486 -0.148003 1.84607e-19)
(-0.013638 0.0198242 0)
(-0.0269422 0.0411292 0)
(-0.0294347 0.0497667 -2.52442e-19)
(-0.0232891 0.0492596 7.99563e-20)
(-0.00968489 0.042452 -3.68175e-22)
(0.0108236 0.0314701 1.43355e-19)
(0.0380623 0.0177784 0)
(0.0720566 0.00234174 -1.2664e-19)
(0.112866 -0.0141976 1.18268e-19)
(0.16044 -0.0313683 -2.23676e-19)
(0.214513 -0.0487619 6.0831e-22)
(0.274525 -0.0659661 1.94072e-19)
(0.339581 -0.0825365 -2.75847e-21)
(0.408451 -0.0979945 1.61237e-19)
(0.47962 -0.111845 -2.33746e-19)
(0.551374 -0.123608 0)
(0.621924 -0.132851 2.42839e-19)
(0.689544 -0.139228 -3.39562e-19)
(0.752685 -0.142516 9.66622e-20)
(0.810244 -0.142505 0)
(0.860728 -0.139662 7.26648e-20)
(0.906488 -0.132493 2.36873e-19)
(0.937425 -0.126076 -2.22318e-19)
(0.986878 -0.107858 -2.09949e-19)
(-0.0136204 0.0176129 2.65588e-19)
(-0.0255411 0.0367117 -3.65492e-19)
(-0.0243127 0.0447617 2.49822e-22)
(-0.0121831 0.0444808 8.15705e-20)
(0.00955455 0.0382839 -1.53206e-19)
(0.0402284 0.0281129 -1.42635e-19)
(0.0795117 0.015387 2.70354e-19)
(0.127226 0.0011123 -6.77036e-22)
(0.183147 -0.0139804 -2.39102e-19)
(0.246824 -0.0293203 4.47536e-19)
(0.317448 -0.0444155 -1.42302e-21)
(0.393778 -0.0588069 -1.95848e-19)
(0.474131 -0.0720536 0)
(0.556456 -0.0837394 0)
(0.638467 -0.0934938 -7.59839e-20)
(0.717819 -0.101017 -1.3525e-19)
(0.79231 -0.106098 -2.38572e-19)
(0.860055 -0.108639 2.23955e-19)
(0.91965 -0.108636 -9.67032e-20)
(0.970224 -0.10619 1.60543e-19)
(1.01137 -0.101639 -8.52104e-20)
(1.04433 -0.0943913 1.06437e-19)
(1.06508 -0.0879703 -2.74135e-19)
(1.09293 -0.0724841 4.39652e-20)
(-0.012979 0.0149026 8.98531e-20)
(-0.022191 0.0305005 0)
(-0.0159458 0.0367646 1.74565e-19)
(0.00357395 0.0358237 -1.64441e-19)
(0.0350454 0.0297355 1.5334e-19)
(0.0776931 0.02026 0)
(0.130973 0.00874518 0)
(0.194344 -0.00379771 -1.27828e-19)
(0.267036 -0.0165957 9.36737e-22)
(0.347853 -0.0290385 1.12642e-19)
(0.435055 -0.0406298 -1.02911e-19)
(0.526357 -0.050965 1.9495e-19)
(0.619033 -0.0597264 0)
(0.710119 -0.0666887 3.21762e-19)
(0.796672 -0.0717243 -5.9347e-19)
(0.87604 -0.0748029 4.08885e-19)
(0.946095 -0.0759806 2.33165e-19)
(1.00539 -0.0753977 -2.18893e-19)
(1.05325 -0.0732042 0)
(1.08968 -0.0697237 0)
(1.11561 -0.0649295 0)
(1.13193 -0.0594434 0)
(1.14028 -0.053568 5.25493e-20)
(1.14734 -0.0432014 -1.72379e-19)
(-0.123647 -0.228418 -7.68798e-21)
(-0.0954499 -0.1711 7.71265e-21)
(-0.0632386 -0.099894 -2.21248e-22)
(-0.0264384 -0.0163572 0)
(0.0137761 0.0770445 -6.92607e-21)
(0.0568055 0.176235 1.31571e-20)
(0.101831 0.277461 -4.25799e-22)
(0.146907 0.372991 -5.65675e-21)
(0.190393 0.456319 0)
(0.229806 0.522611 0)
(0.261859 0.570123 -2.02104e-22)
(0.282986 0.601088 -1.73485e-22)
(0.291382 0.61994 -2.57409e-21)
(0.290329 0.627759 2.3532e-21)
(0.290187 0.616616 0)
(0.305108 0.570623 0)
(0.34453 0.475908 2.57633e-21)
(0.406653 0.331294 2.45935e-22)
(0.481599 0.148993 -2.49027e-21)
(0.559475 -0.0500878 -1.77944e-22)
(0.632543 -0.237702 0)
(0.693547 -0.384839 0)
(0.737724 -0.476288 0)
(0.763494 -0.517016 0)
(0.773081 -0.523025 0)
(0.772218 -0.50952 0)
(0.762866 -0.494051 2.80999e-22)
(0.738489 -0.493938 -4.49364e-22)
(0.696314 -0.505657 0)
(0.650617 -0.489232 0)
(0.626232 -0.396712 -5.55269e-22)
(0.636051 -0.220774 5.39667e-22)
(0.673648 -0.00538941 2.73208e-22)
(0.722157 0.187947 0)
(0.768524 0.324077 0)
(0.805045 0.392343 3.02342e-22)
(0.830504 0.420274 -2.93889e-22)
(0.834421 0.436071 0)
(0.809888 0.462374 2.29148e-22)
(0.766173 0.462433 -3.43106e-22)
(0.729487 0.39406 1.41299e-22)
(0.720094 0.241776 0)
(0.740717 0.0378265 -2.93722e-22)
(0.774443 -0.135718 2.85605e-22)
(0.817655 -0.269063 0)
(0.838714 -0.323798 0)
(0.831877 -0.379174 -6.79114e-23)
(0.7906 -0.386038 1.89279e-22)
(0.75403 -0.351015 0)
(0.743898 -0.238934 0)
(0.773119 -0.0494191 -5.96818e-23)
(0.803395 0.0706403 5.00118e-24)
(0.824136 0.250597 -5.85213e-24)
(0.803704 0.299014 3.72447e-23)
(0.791724 0.364703 0)
(0.786431 0.314 0)
(0.803486 0.121143 0)
(0.799789 0.0548338 0)
(0.812179 -0.251814 0)
(0.789229 -0.253487 0)
(-0.1929 -0.256228 -6.37779e-22)
(-0.174637 -0.205305 -2.70739e-20)
(-0.151541 -0.139843 4.09686e-22)
(-0.122108 -0.0614871 2.50661e-20)
(-0.0868884 0.0276109 3.39119e-22)
(-0.0458197 0.124694 0)
(-0.00145847 0.224256 -1.96901e-20)
(0.0435639 0.322269 3.72378e-20)
(0.0891869 0.409953 -1.75494e-20)
(0.132877 0.483547 1.34708e-20)
(0.171366 0.541273 -1.28909e-20)
(0.202099 0.583561 1.01517e-20)
(0.225422 0.611094 -9.84899e-21)
(0.246679 0.620611 -2.76503e-22)
(0.275859 0.602279 -9.53374e-21)
(0.322853 0.543125 9.26467e-21)
(0.390322 0.435769 -1.12997e-20)
(0.471633 0.284037 1.06067e-20)
(0.556804 0.0998956 -1.23669e-20)
(0.638417 -0.0974303 2.34736e-20)
(0.709623 -0.279803 -1.1131e-20)
(0.763131 -0.417921 -5.69543e-22)
(0.795721 -0.497794 -6.27151e-21)
(0.808819 -0.527012 1.09027e-20)
(0.80641 -0.524366 -4.67266e-21)
(0.794825 -0.505247 2.06834e-22)
(0.777875 -0.483688 2.92341e-21)
(0.749554 -0.47536 1.07304e-22)
(0.703911 -0.481578 -5.66079e-21)
(0.650813 -0.469347 6.28085e-21)
(0.615162 -0.390984 -3.30159e-21)
(0.614358 -0.231317 4.69805e-22)
(0.645677 -0.0268185 -2.73767e-22)
(0.693168 0.16353 4.34671e-22)
(0.743089 0.302803 0)
(0.786953 0.376984 0)
(0.819497 0.413119 -9.86545e-22)
(0.828873 0.439109 7.30782e-22)
(0.808165 0.474125 7.35675e-22)
(0.77033 0.47669 2.86409e-22)
(0.740721 0.403092 -1.21401e-21)
(0.737231 0.242036 3.50385e-22)
(0.760462 0.0303657 0)
(0.791595 -0.147191 0)
(0.831167 -0.27877 0)
(0.848003 -0.325988 0)
(0.840601 -0.372362 2.84641e-22)
(0.796701 -0.375307 -1.23342e-22)
(0.758499 -0.344607 0)
(0.745674 -0.241334 0)
(0.77204 -0.0574139 0)
(0.8013 0.0642106 -8.82561e-23)
(0.818755 0.250263 1.48638e-23)
(0.800274 0.302255 -8.23785e-23)
(0.787401 0.366435 0)
(0.784918 0.312971 0)
(0.805859 0.119184 6.85576e-23)
(0.803886 0.0541741 2.16028e-22)
(0.819217 -0.250371 0)
(0.793678 -0.252082 0)
(-0.20515 -0.275934 -8.35995e-22)
(-0.200907 -0.233226 -4.65705e-20)
(-0.190261 -0.175028 4.37868e-20)
(-0.172824 -0.103693 -4.10507e-20)
(-0.147353 -0.0204865 -3.41505e-22)
(-0.11435 0.0717383 0)
(-0.0742145 0.168161 -3.25515e-20)
(-0.0314737 0.266562 3.17693e-20)
(0.012189 0.357697 2.35196e-22)
(0.0582059 0.43727 3.28969e-22)
(0.103353 0.503058 2.93766e-22)
(0.145974 0.553203 3.15682e-22)
(0.187569 0.585214 -1.77617e-20)
(0.233354 0.593335 1.7539e-20)
(0.290713 0.567982 0)
(0.364602 0.499965 6.29509e-22)
(0.452738 0.387061 -2.39189e-20)
(0.546463 0.23528 2.36142e-20)
(0.637393 0.0551864 0)
(0.720159 -0.136481 0)
(0.787952 -0.31119 -2.16099e-20)
(0.833024 -0.439583 3.83539e-20)
(0.853527 -0.509137 -2.94171e-20)
(0.85399 -0.52923 3.12127e-21)
(0.840409 -0.520236 1.69429e-20)
(0.819065 -0.497606 -1.37735e-20)
(0.794971 -0.471901 1.09945e-20)
(0.763482 -0.456236 -4.6195e-22)
(0.716096 -0.4564 -4.88593e-21)
(0.657477 -0.447506 0)
(0.611239 -0.383629 0)
(0.59914 -0.241919 2.70601e-21)
(0.62281 -0.0498745 -3.47494e-21)
(0.668096 0.136174 -5.85973e-23)
(0.720796 0.27788 2.52059e-21)
(0.771257 0.35816 -2.44956e-21)
(0.810265 0.403264 0)
(0.825056 0.440009 2.29124e-22)
(0.808806 0.483926 2.23496e-21)
(0.77738 0.489425 -4.83571e-21)
(0.75496 0.411648 2.28562e-21)
(0.757253 0.243272 3.98847e-22)
(0.783064 0.0252726 -3.52599e-21)
(0.811426 -0.155906 2.69429e-21)
(0.846832 -0.28646 5.07167e-22)
(0.859077 -0.32719 3.75252e-22)
(0.851085 -0.365042 -2.85352e-22)
(0.804863 -0.36438 0)
(0.765215 -0.338156 0)
(0.749654 -0.24405 -7.76572e-22)
(0.772892 -0.0655621 3.87224e-22)
(0.800972 0.0576127 -3.34536e-22)
(0.815084 0.249676 4.92931e-22)
(0.798307 0.305335 6.17747e-22)
(0.784178 0.36791 -1.55187e-22)
(0.784508 0.311642 3.09136e-22)
(0.809501 0.116789 -3.02458e-22)
(0.809301 0.053284 1.73507e-22)
(0.827384 -0.24876 0)
(0.799066 -0.250528 0)
(-0.151563 -0.28339 -8.10662e-20)
(-0.162976 -0.249676 5.00175e-21)
(-0.165858 -0.199899 7.17989e-20)
(-0.162923 -0.137322 -5.80193e-22)
(-0.151542 -0.0622674 0)
(-0.131062 0.0225353 0)
(-0.100312 0.114795 -4.84642e-20)
(-0.0637612 0.209984 2.63698e-21)
(-0.0242783 0.300227 6.26124e-20)
(0.0214478 0.382858 -1.72369e-21)
(0.0721428 0.453412 -1.76708e-20)
(0.126144 0.507871 -1.53691e-20)
(0.184879 0.541565 1.53563e-20)
(0.252003 0.547649 0)
(0.331594 0.517808 -1.93743e-20)
(0.424455 0.446392 1.7562e-20)
(0.525281 0.33466 0)
(0.625424 0.188749 0)
(0.718694 0.0163794 2.64609e-20)
(0.801218 -0.167402 -9.17367e-22)
(0.865255 -0.3334 -2.33621e-20)
(0.901809 -0.452001 -1.78954e-20)
(0.910368 -0.5123 1.774e-20)
(0.89852 -0.525164 -1.03574e-20)
(0.874612 -0.511541 2.37247e-21)
(0.844622 -0.48696 7.39859e-21)
(0.813779 -0.459173 6.63187e-22)
(0.779408 -0.437556 2.64555e-23)
(0.731907 -0.430822 0)
(0.670341 -0.423203 4.89797e-21)
(0.614911 -0.373168 -5.0484e-21)
(0.590932 -0.250994 4.00699e-22)
(0.60554 -0.0736648 0)
(0.647348 0.106485 -3.80885e-22)
(0.70179 0.249726 4.47054e-21)
(0.757879 0.336105 -7.74511e-21)
(0.80265 0.390608 -2.86945e-22)
(0.822797 0.438331 -1.66788e-22)
(0.811519 0.491215 3.11502e-21)
(0.786784 0.500312 5.38097e-22)
(0.771537 0.419808 -5.8652e-21)
(0.779402 0.245741 4.94476e-21)
(0.807895 0.0228096 -4.03051e-23)
(0.833592 -0.161817 2.42732e-21)
(0.864467 -0.292184 -2.8685e-21)
(0.87179 -0.327605 -2.49634e-21)
(0.863057 -0.357431 7.46801e-22)
(0.814775 -0.353261 8.42224e-22)
(0.773814 -0.331476 -1.57328e-21)
(0.755495 -0.246872 1.11311e-21)
(0.77544 -0.0737857 -3.45367e-22)
(0.802308 0.0508093 3.46687e-22)
(0.813101 0.248815 2.87285e-22)
(0.797834 0.308307 -9.04637e-22)
(0.782158 0.369178 -7.72012e-24)
(0.785294 0.310038 -3.49205e-22)
(0.814419 0.113957 0)
(0.816031 0.0521726 -1.63991e-22)
(0.836645 -0.246967 3.80721e-22)
(0.805361 -0.248805 0)
(-0.033502 -0.277296 6.9087e-20)
(-0.0597913 -0.251973 -1.27994e-19)
(-0.0757415 -0.211149 5.85055e-20)
(-0.0874555 -0.158013 4.67904e-20)
(-0.0912722 -0.0925723 -8.73523e-20)
(-0.0851639 -0.0153917 3.75221e-21)
(-0.066473 0.0684631 3.62214e-20)
(-0.0408732 0.154936 2.97096e-20)
(-0.00929641 0.240241 -2.91483e-20)
(0.0341429 0.32225 0)
(0.0867429 0.393836 -2.49104e-20)
(0.147961 0.449623 4.97169e-20)
(0.218441 0.483569 -2.48949e-20)
(0.299828 0.488547 0)
(0.393222 0.457667 0)
(0.496411 0.387959 6.33516e-22)
(0.602535 0.282569 -4.9028e-20)
(0.704087 0.146452 4.76191e-20)
(0.797739 -0.0160147 0)
(0.879802 -0.190189 5.14633e-20)
(0.939752 -0.346216 -9.16412e-20)
(0.967578 -0.454635 7.68514e-20)
(0.964567 -0.506756 -6.16321e-20)
(0.941187 -0.514653 5.91094e-21)
(0.908075 -0.498542 3.52285e-20)
(0.870913 -0.473487 -1.51184e-20)
(0.834156 -0.445512 -3.26716e-22)
(0.797037 -0.420032 -3.80449e-21)
(0.750471 -0.406455 1.14675e-22)
(0.688591 -0.397782 3.74047e-21)
(0.626186 -0.3596 2.92589e-22)
(0.590279 -0.257584 -4.93781e-21)
(0.594394 -0.0971024 9.72542e-21)
(0.63126 0.0750895 -5.31894e-21)
(0.686147 0.218706 0)
(0.74665 0.310899 -3.95206e-21)
(0.796392 0.37487 3.81184e-21)
(0.82179 0.433556 -3.18854e-21)
(0.815904 0.495533 3.96014e-21)
(0.797972 0.509188 -5.59341e-22)
(0.78973 0.427605 0)
(0.803012 0.249633 -8.23882e-22)
(0.834279 0.022693 2.47324e-21)
(0.857572 -0.164862 0)
(0.883776 -0.295761 4.89733e-21)
(0.885947 -0.327163 -2.12622e-21)
(0.876295 -0.349565 5.68655e-22)
(0.82617 -0.341987 4.10498e-22)
(0.783937 -0.324514 0)
(0.762835 -0.249676 0)
(0.779402 -0.0820545 -8.68399e-22)
(0.805157 0.0437444 1.33691e-21)
(0.812753 0.247642 -7.83316e-22)
(0.798877 0.3112 2.42279e-22)
(0.781451 0.370288 5.87108e-22)
(0.787353 0.308165 3.49541e-22)
(0.820601 0.110702 -7.21809e-22)
(0.824064 0.0508407 0)
(0.846954 -0.244951 -5.65054e-22)
(0.812519 -0.246884 -1.03613e-22)
(0.140254 -0.257245 6.05572e-20)
(0.102177 -0.23707 -5.99864e-20)
(0.0743259 -0.206585 3.97465e-22)
(0.0493934 -0.164647 -2.58317e-22)
(0.0320796 -0.110391 2.85917e-22)
(0.0218108 -0.045531 -2.56112e-22)
(0.0229722 0.0270677 2.5151e-22)
(0.037013 0.103829 0)
(0.060525 0.183499 -1.94823e-22)
(0.0975575 0.260852 1.89988e-22)
(0.147225 0.329861 2.03588e-22)
(0.209457 0.384368 -3.35592e-22)
(0.284166 0.417671 0)
(0.3713 0.422752 0)
(0.469757 0.393794 4.7073e-22)
(0.575424 0.329446 0)
(0.681004 0.233414 -6.75896e-22)
(0.780874 0.108841 0)
(0.873944 -0.0423647 -5.08087e-20)
(0.955007 -0.20562 9.84939e-20)
(1.01008 -0.350338 -8.91913e-20)
(1.0288 -0.448406 4.15474e-20)
(1.01488 -0.493617 2.67569e-20)
(0.981255 -0.498685 -2.59847e-20)
(0.940245 -0.482086 -1.55805e-20)
(0.897383 -0.457716 1.50156e-20)
(0.85572 -0.43089 0)
(0.815866 -0.403735 2.3526e-22)
(0.770726 -0.384225 0)
(0.710915 -0.37239 0)
(0.644518 -0.343074 6.79979e-21)
(0.597599 -0.260681 -6.95937e-21)
(0.589957 -0.119112 4.39145e-22)
(0.620152 0.0427709 5.37953e-22)
(0.673873 0.185252 -3.82729e-22)
(0.737336 0.28262 -3.05207e-21)
(0.791193 0.355814 2.96352e-21)
(0.821686 0.425232 -3.86145e-21)
(0.821462 0.496475 3.35037e-21)
(0.810296 0.515896 1.12306e-21)
(0.808806 0.435033 -6.314e-21)
(0.82718 0.25495 -1.61424e-21)
(0.861482 0.0250001 5.00063e-21)
(0.883001 -0.164989 0)
(0.90444 -0.297086 -2.2528e-21)
(0.901313 -0.325857 1.96343e-21)
(0.890543 -0.34152 -2.67467e-21)
(0.838783 -0.330564 -4.13095e-22)
(0.795238 -0.31716 0)
(0.771296 -0.252339 2.66969e-22)
(0.784459 -0.0903742 -5.03256e-22)
(0.809317 0.0363364 -4.17934e-23)