/*--------------------------------*- C++ -*----------------------------------*\
| =========                 |                                                 |
| \\      /  F ield         | OpenFOAM: The Open Source CFD Toolbox           |
|  \\    /   O peration     | Version:  2512                                  |
|   \\  /    A nd           | Website:  www.openfoam.com                      |
|    \\/     M anipulation  |                                                 |
\*---------------------------------------------------------------------------*/
FoamFile
{
    version     2.0;
    format      ascii;
    arch        "LSB;label=32;scalar=64";
    class       volScalarField;
    location    "53";
    object      p;
}
// * * * * * * * * * * * * * * * * * * * * * * * * * * * * * * * * * * * * * //

dimensions      [0 2 -2 0 0 0 0];

internalField   nonuniform List<scalar> 
13248
(
-0.309943
-0.308386
-0.306504
-0.304416
-0.302237
-0.30007
-0.29795
-0.295849
-0.29369
-0.291362
-0.288731
-0.285659
-0.282014
-0.277688
-0.272608
-0.266745
-0.260115
-0.25278
-0.244832
-0.236411
-0.227577
-0.218618
-0.209074
-0.199836
-0.31716
-0.314919
-0.312345
-0.309563
-0.306686
-0.303832
-0.301038
-0.298258
-0.295393
-0.292304
-0.288841
-0.284857
-0.280234
-0.274895
-0.26881
-0.262003
-0.254541
-0.246528
-0.238084
-0.229339
-0.220403
-0.211413
-0.202287
-0.193596
-0.325497
-0.322435
-0.319077
-0.315542
-0.311919
-0.308328
-0.304788
-0.301226
-0.297506
-0.293466
-0.288949
-0.283826
-0.278018
-0.271502
-0.264314
-0.256536
-0.248282
-0.239684
-0.230871
-0.221971
-0.213064
-0.204274
-0.195537
-0.187165
-0.335182
-0.331141
-0.326912
-0.322573
-0.318156
-0.313755
-0.309354
-0.304833
-0.300024
-0.29476
-0.288905
-0.282384
-0.27519
-0.267378
-0.259051
-0.250342
-0.24139
-0.232329
-0.223271
-0.214309
-0.205501
-0.196928
-0.188521
-0.180626
-0.346363
-0.341186
-0.336002
-0.330809
-0.325528
-0.320198
-0.314746
-0.309007
-0.302801
-0.295992
-0.288516
-0.280388
-0.271695
-0.26257
-0.253167
-0.243637
-0.234113
-0.224701
-0.215475
-0.20649
-0.197775
-0.189367
-0.18122
-0.17358
-0.359081
-0.352627
-0.34642
-0.340313
-0.334058
-0.327603
-0.320816
-0.313509
-0.30554
-0.296861
-0.287525
-0.277663
-0.267451
-0.257074
-0.246701
-0.236465
-0.226466
-0.216765
-0.207399
-0.198386
-0.189731
-0.181441
-0.17348
-0.166028
-0.373231
-0.365405
-0.358122
-0.351018
-0.343607
-0.335733
-0.327224
-0.317932
-0.307823
-0.297
-0.285659
-0.274039
-0.262374
-0.250857
-0.239634
-0.228795
-0.218391
-0.208441
-0.198947
-0.189898
-0.18128
-0.173076
-0.165263
-0.157937
-0.388541
-0.379306
-0.370908
-0.362676
-0.353836
-0.344139
-0.333444
-0.321735
-0.309167
-0.296028
-0.282652
-0.269345
-0.256349
-0.243825
-0.231864
-0.220506
-0.209751
-0.199581
-0.189969
-0.180882
-0.17229
-0.164163
-0.156481
-0.14926
-0.404541
-0.393929
-0.384375
-0.374818
-0.364175
-0.35217
-0.338811
-0.324318
-0.309093
-0.293605
-0.278277
-0.263427
-0.249256
-0.235862
-0.223272
-0.21147
-0.200416
-0.19006
-0.180352
-0.171242
-0.162685
-0.154643
-0.147092
-0.139974
-0.420543
-0.408651
-0.397879
-0.386716
-0.373815
-0.359003
-0.342577
-0.325082
-0.307169
-0.289439
-0.272337
-0.256136
-0.240959
-0.226831
-0.213715
-0.201547
-0.190252
-0.179755
-0.169986
-0.160881
-0.152383
-0.144448
-0.137032
-0.130032
-0.435647
-0.422608
-0.410513
-0.397383
-0.381742
-0.363689
-0.343942
-0.323401
-0.302921
-0.283158
-0.264511
-0.247166
-0.231156
-0.216431
-0.202897
-0.190451
-0.178989
-0.168415
-0.158642
-0.149593
-0.141202
-0.133415
-0.126156
-0.119318
-0.448817
-0.434813
-0.421265
-0.405772
-0.386915
-0.365265
-0.342055
-0.31853
-0.295676
-0.274123
-0.254173
-0.2359
-0.219242
-0.204076
-0.19026
-0.177655
-0.166133
-0.155579
-0.145892
-0.136985
-0.128783
-0.12122
-0.114192
-0.107633
-0.265463
-0.267375
-0.26859
-0.269398
-0.270057
-0.270634
-0.271158
-0.271644
-0.272099
-0.272517
-0.272887
-0.273198
-0.273435
-0.273586
-0.273637
-0.273575
-0.273391
-0.273076
-0.272628
-0.272051
-0.271349
-0.270521
-0.269613
-0.268825
-0.265692
-0.267711
-0.268993
-0.269845
-0.270538
-0.271134
-0.271657
-0.272118
-0.272515
-0.272834
-0.273058
-0.273162
-0.273122
-0.27291
-0.2725
-0.271862
-0.27097
-0.269799
-0.268331
-0.266557
-0.264466
-0.262023
-0.259285
-0.256722
-0.266774
-0.268797
-0.270084
-0.270943
-0.27164
-0.272234
-0.272741
-0.273168
-0.273504
-0.273728
-0.273812
-0.273722
-0.273421
-0.272868
-0.272021
-0.270834
-0.269263
-0.267263
-0.264798
-0.261844
-0.258378
-0.254332
-0.24975
-0.245403
-0.268707
-0.270634
-0.271863
-0.272686
-0.273357
-0.273927
-0.274406
-0.27479
-0.275064
-0.2752
-0.275158
-0.274896
-0.274366
-0.273513
-0.27228
-0.270605
-0.268426
-0.265678
-0.262304
-0.258261
-0.253521
-0.248002
-0.241646
-0.235377
-0.271427
-0.273163
-0.274273
-0.275018
-0.275628
-0.276145
-0.276574
-0.276905
-0.277115
-0.277167
-0.277015
-0.276607
-0.275881
-0.274776
-0.273218
-0.271133
-0.26844
-0.265059
-0.260908
-0.255921
-0.250064
-0.24327
-0.235278
-0.226419
-0.274821
-0.27629
-0.277221
-0.277842
-0.278347
-0.278776
-0.279125
-0.279381
-0.279512
-0.279475
-0.279216
-0.278674
-0.27778
-0.27646
-0.274631
-0.272205
-0.269091
-0.265195
-0.260422
-0.254687
-0.247932
-0.240072
-0.230815
-0.220485
-0.278754
-0.279896
-0.280595
-0.281037
-0.281386
-0.281676
-0.281902
-0.282044
-0.282065
-0.281914
-0.281531
-0.280847
-0.279787
-0.278259
-0.276178
-0.273445
-0.269963
-0.265631
-0.260352
-0.254034
-0.246608
-0.23799
-0.228093
-0.21614
-0.283093
-0.283868
-0.284282
-0.284485
-0.284614
-0.284701
-0.284742
-0.284712
-0.284569
-0.284258
-0.283707
-0.282846
-0.281582
-0.279823
-0.27747
-0.274421
-0.270576
-0.265837
-0.260115
-0.253333
-0.245455
-0.236301
-0.226525
-0.213309
-0.287742
-0.288123
-0.2882
-0.288096
-0.287928
-0.287733
-0.28751
-0.287233
-0.286856
-0.286317
-0.28554
-0.284432
-0.282903
-0.280853
-0.278174
-0.274764
-0.270528
-0.265382
-0.259263
-0.25212
-0.244035
-0.234589
-0.225397
-0.211928
-0.292665
-0.292631
-0.292314
-0.291827
-0.291277
-0.290711
-0.290134
-0.289523
-0.288827
-0.287975
-0.286883
-0.285453
-0.28358
-0.281155
-0.278071
-0.27423
-0.269552
-0.263979
-0.257496
-0.250092
-0.241995
-0.232736
-0.224416
-0.212685
-0.297908
-0.297425
-0.296654
-0.295703
-0.294678
-0.293644
-0.29262
-0.291579
-0.290469
-0.289212
-0.287711
-0.285856
-0.283533
-0.280628
-0.277034
-0.272667
-0.267469
-0.261418
-0.254543
-0.246903
-0.238741
-0.229874
-0.22188
-0.211614
-0.303603
-0.30262
-0.301323
-0.299823
-0.298235
-0.296644
-0.29508
-0.293525
-0.291914
-0.290157
-0.288144
-0.285751
-0.282852
-0.279331
-0.275092
-0.27007
-0.264238
-0.257614
-0.250254
-0.242281
-0.233823
-0.225094
-0.216719
-0.207897
-0.268172
-0.267349
-0.266451
-0.265328
-0.26384
-0.26189
-0.259409
-0.256164
-0.251995
-0.246865
-0.240937
-0.234607
-0.228535
-0.223662
-0.221091
-0.221893
-0.226601
-0.235443
-0.247337
-0.259776
-0.269668
-0.273159
-0.267098
-0.249923
-0.223233
-0.191644
-0.160838
-0.135226
-0.117253
-0.108514
-0.110772
-0.123387
-0.140284
-0.151519
-0.14974
-0.135125
-0.11356
-0.0921755
-0.0753258
-0.0637784
-0.0580002
-0.06
-0.0672001
-0.0719277
-0.068509
-0.0576381
-0.0435239
-0.0300298
-0.0189187
-0.0104671
-0.00530671
-0.00305517
-0.0033278
-0.00340683
-0.0028551
-0.00153946
0.000146631
0.00136084
0.00123464
0.00128912
-0.254367
-0.251331
-0.248322
-0.245178
-0.241855
-0.238399
-0.234932
-0.231342
-0.227582
-0.223728
-0.220101
-0.217158
-0.215466
-0.21588
-0.219325
-0.226668
-0.237554
-0.252267
-0.268827
-0.284541
-0.296003
-0.299368
-0.2913
-0.270327
-0.238446
-0.201026
-0.164438
-0.133498
-0.110676
-0.0970461
-0.0940293
-0.101789
-0.115702
-0.127117
-0.128558
-0.119137
-0.103336
-0.0874546
-0.0752533
-0.0673685
-0.0651355
-0.0705877
-0.0798327
-0.0841453
-0.0781581
-0.0641224
-0.0472026
-0.0316143
-0.0191148
-0.00977017
-0.00380838
-0.000895712
-0.000863409
-0.00115019
-0.00125612
-0.000522214
0.000631463
0.00156559
0.00115742
0.00118999
-0.241702
-0.236476
-0.231472
-0.226443
-0.221422
-0.216508
-0.212229
-0.208412
-0.20509
-0.202368
-0.200808
-0.200987
-0.203204
-0.208266
-0.216789
-0.229439
-0.245788
-0.265071
-0.285271
-0.303484
-0.316138
-0.319469
-0.309881
-0.285889
-0.24978
-0.207535
-0.166052
-0.130509
-0.103392
-0.0853903
-0.0774108
-0.0803322
-0.0910592
-0.102263
-0.106686
-0.102236
-0.0921587
-0.0818662
-0.0743787
-0.0703754
-0.0720522
-0.0811353
-0.0923567
-0.0959982
-0.0873403
-0.0701723
-0.0506262
-0.0331498
-0.0194084
-0.00927246
-0.00261188
0.00094188
0.00140838
0.00106559
0.00042387
0.000618347
0.00119002
0.00179877
0.00108303
0.00105029
-0.231031
-0.223664
-0.216875
-0.210189
-0.203646
-0.197293
-0.192368
-0.188403
-0.185522
-0.183743
-0.183689
-0.186775
-0.192088
-0.200722
-0.2133
-0.230073
-0.250409
-0.273104
-0.295993
-0.316044
-0.32966
-0.3331
-0.322594
-0.296501
-0.257303
-0.211423
-0.166178
-0.126994
-0.0962729
-0.0744856
-0.0620589
-0.0601044
-0.0672719
-0.0776399
-0.0845721
-0.0847678
-0.0801773
-0.0753244
-0.0724566
-0.0725144
-0.0784062
-0.0912927
-0.104465
-0.107253
-0.0959298
-0.0757432
-0.053778
-0.0346327
-0.0198096
-0.00898537
-0.00172903
0.00241674
0.00340672
0.00315106
0.00212859
0.00184703
0.00181085
0.00205258
0.00101845
0.000878991
-0.22313
-0.213353
-0.205074
-0.196991
-0.18911
-0.181798
-0.17635
-0.172174
-0.169503
-0.16849
-0.169838
-0.174265
-0.181946
-0.193347
-0.208827
-0.228391
-0.251346
-0.276292
-0.300951
-0.322224
-0.336542
-0.340313
-0.329474
-0.302269
-0.261248
-0.213078
-0.165392
-0.123632
-0.090074
-0.0650754
-0.0487554
-0.0421017
-0.0451972
-0.053943
-0.0624096
-0.0669486
-0.0673699
-0.0676164
-0.0691739
-0.0734291
-0.0838297
-0.100718
-0.115818
-0.117603
-0.103777
-0.0807876
-0.0566502
-0.0360604
-0.0203162
-0.00890619
-0.00115119
0.00351542
0.0050666
0.00501553
0.00379168
0.0031012
0.00246395
0.00230956
0.000965499
0.000689394
-0.217095
-0.206757
-0.196493
-0.187213
-0.178435
-0.17037
-0.163751
-0.159471
-0.156967
-0.156493
-0.158706
-0.164175
-0.173267
-0.186321
-0.203506
-0.224645
-0.248992
-0.275105
-0.300705
-0.322679
-0.33742
-0.341524
-0.33079
-0.30338
-0.261829
-0.212871
-0.164117
-0.120863
-0.0852894
-0.057684
-0.0380323
-0.0270693
-0.0257138
-0.0318896
-0.0408087
-0.0489513
-0.0535833
-0.0584369
-0.0641963
-0.0727868
-0.0879856
-0.109068
-0.126073
-0.126724
-0.110728
-0.0852586
-0.0592375
-0.0374288
-0.0209167
-0.00901983
-0.000854038
0.00425134
0.00635088
0.00658347
0.00526948
0.00430113
0.00310533
0.00254651
0.000922159
0.000497304
-0.213395
-0.203084
-0.191412
-0.180975
-0.171458
-0.162859
-0.155752
-0.150983
-0.148317
-0.147965
-0.150511
-0.156428
-0.166099
-0.179803
-0.19761
-0.219242
-0.243924
-0.27026
-0.296098
-0.318388
-0.333249
-0.337471
-0.327144
-0.300325
-0.259499
-0.211201
-0.16268
-0.118946
-0.0821441
-0.0525646
-0.0301435
-0.0153986
-0.00954226
-0.0122189
-0.0202248
-0.0309933
-0.0385992
-0.0474827
-0.0572715
-0.0703578
-0.0906065
-0.116021
-0.134932
-0.134283
-0.116651
-0.0891076
-0.061527
-0.0387264
-0.0215914
-0.00929967
-0.000801645
0.00465991
0.00725447
0.00780928
0.00650548
0.00536916
0.00368774
0.00274164
0.000885656
0.000318729
-0.211188
-0.20167
-0.18956
-0.178347
-0.168253
-0.159313
-0.151955
-0.146424
-0.143352
-0.14277
-0.145143
-0.150926
-0.160469
-0.173998
-0.191529
-0.212745
-0.236873
-0.262616
-0.288059
-0.310773
-0.324849
-0.328973
-0.319259
-0.293729
-0.254733
-0.20835
-0.161195
-0.117878
-0.0805532
-0.0496406
-0.0250481
-0.00715185
0.00293496
0.00437839
-0.0012188
-0.01332
-0.0223656
-0.0346621
-0.0482878
-0.066022
-0.0914762
-0.121288
-0.142145
-0.140139
-0.121517
-0.0922923
-0.0634963
-0.0399344
-0.0223152
-0.00971204
-0.000951087
0.00479088
0.00780293
0.00868371
0.00745822
0.00624696
0.00417358
0.00288154
0.000855486
0.00016742
-0.209393
-0.199872
-0.187911
-0.176489
-0.166484
-0.158077
-0.151066
-0.145243
-0.141719
-0.14064
-0.142429
-0.147563
-0.156366
-0.169035
-0.185567
-0.205636
-0.228494
-0.252877
-0.277185
-0.30111
-0.312831
-0.316785
-0.307901
-0.284275
-0.248029
-0.204545
-0.15964
-0.117481
-0.0802453
-0.0485853
-0.022442
-0.00207178
0.0116504
0.0174389
0.0156129
0.0102686
-0.00517932
-0.0202082
-0.037318
-0.0597534
-0.0905445
-0.12469
-0.147542
-0.147049
-0.125359
-0.0948098
-0.0651668
-0.0410729
-0.0230933
-0.0102427
-0.00127059
0.00469249
0.0080418
0.0092318
0.00859753
0.00690944
0.0045442
0.00296535
0.000834811
5.28696e-05
-0.211346
-0.204322
-0.192729
-0.181383
-0.171053
-0.161302
-0.153294
-0.147044
-0.142885
-0.141076
-0.141943
-0.146017
-0.153601
-0.164871
-0.179825
-0.198154
-0.219128
-0.241475
-0.263211
-0.280384
-0.296954
-0.301717
-0.29414
-0.273057
-0.240349
-0.200534
-0.158549
-0.11813
-0.0814674
-0.0494807
-0.0222668
2.61247e-05
0.016712
0.026563
0.0287423
0.0248257
0.0114561
-0.00477348
-0.0247661
-0.0516742
-0.0876645
-0.125984
-0.150811
-0.150687
-0.128044
-0.0967587
-0.0666687
-0.0422466
-0.0239926
-0.0109228
-0.00176213
0.00438983
0.00801196
0.00947192
0.00900308
0.00734615
0.00480208
0.0030044
0.000829948
-2.06238e-05
-0.208337
-0.201154
-0.192078
-0.182677
-0.173465
-0.164724
-0.156944
-0.150511
-0.145864
-0.143352
-0.143081
-0.145756
-0.151736
-0.16122
-0.17423
-0.190498
-0.209371
-0.229641
-0.249662
-0.266653
-0.279527
-0.284568
-0.27873
-0.26093
-0.232602
-0.197207
-0.158723
-0.120482
-0.0847305
-0.0526817
-0.0247188
-0.000959374
0.0181241
0.0315308
0.0378678
0.0368409
0.0265614
0.0106997
-0.0111198
-0.042022
-0.0831948
-0.125484
-0.151843
-0.152267
-0.12941
-0.098058
-0.0679275
-0.0433831
-0.0249524
-0.011706
-0.00238734
0.00392072
0.00775715
0.00944872
0.00916082
0.00758185
0.00496231
0.00301574
0.000847029
-5.39863e-05
-0.204175
-0.199186
-0.192789
-0.18485
-0.176522
-0.168574
-0.161242
-0.1548
-0.149719
-0.14647
-0.14536
-0.146618
-0.150718
-0.157934
-0.168334
-0.181742
-0.19757
-0.214855
-0.232651
-0.247991
-0.260009
-0.264324
-0.259913
-0.245361
-0.221364
-0.19037
-0.155552
-0.119909
-0.0857194
-0.0543745
-0.0265154
-0.00239088
0.0178208
0.033638
0.0436658
0.0460118
0.0389205
0.0246389
0.00226795
-0.0313186
-0.0765007
-0.122197
-0.150338
-0.150729
-0.128617
-0.0976573
-0.0678963
-0.0436343
-0.0253586
-0.0121713
-0.00285482
0.00348712
0.00742504
0.00926753
0.0091196
0.00764947
0.00503706
0.00300795
0.000882669
-5.552e-05
-0.195319
-0.195244
-0.189481
-0.181869
-0.174448
-0.167538
-0.161084
-0.155312
-0.150662
-0.147538
-0.146196
-0.147007
-0.150426
-0.156713
-0.165944
-0.177979
-0.192277
-0.207923
-0.223855
-0.237038
-0.246761
-0.249841
-0.244562
-0.229974
-0.20692
-0.177679
-0.145069
-0.111694
-0.0795262
-0.0497646
-0.0229849
0.000529415
0.0206591
0.0371415
0.0488456
0.054025
0.0504599
0.0386209
0.0167015
-0.0194602
-0.0698099
-0.12039
-0.150363
-0.150568
-0.126722
-0.0954709
-0.0662169
-0.0426407
-0.0249073
-0.0120675
-0.00294
0.00330162
0.0072227
0.00911151
0.00911521
0.00763037
0.00505064
0.00298471
0.000922086
-4.07543e-05
-0.186677
-0.18856
-0.183545
-0.176365
-0.169739
-0.163965
-0.158723
-0.154019
-0.150169
-0.147553
-0.14652
-0.147438
-0.150635
-0.156301
-0.16447
-0.174974
-0.187282
-0.200468
-0.21311
-0.224069
-0.231149
-0.232196
-0.225834
-0.211558
-0.190156
-0.163502
-0.133879
-0.103402
-0.0737272
-0.0459142
-0.0205416
0.00201983
0.0216982
0.0384224
0.0511722
0.0572125
0.0565128
0.0470063
0.0260066
-0.0116156
-0.0650641
-0.117841
-0.147497
-0.145844
-0.121992
-0.0917031
-0.0638152
-0.0414002
-0.0244455
-0.0120609
-0.00317698
0.00293907
0.00682796
0.00875225
0.00880597
0.00746677
0.00499743
0.00294923
0.000973191
-1.00263e-06
-0.177308
-0.180218
-0.17635
-0.170066
-0.164342
-0.159651
-0.155568
-0.151914
-0.148906
-0.146921
-0.146305
-0.147343
-0.150267
-0.15521
-0.162165
-0.170935
-0.180996
-0.191544
-0.201464
-0.209669
-0.214292
-0.213744
-0.207004
-0.19371
-0.174425
-0.150543
-0.123852
-0.0960981
-0.0687253
-0.0427355
-0.0187151
0.00290503
0.0219677
0.0384687
0.0515741
0.0588042
0.059387
0.0512721
0.0306776
-0.00807343
-0.062544
-0.114326
-0.141804
-0.138785
-0.115764
-0.0872065
-0.0610854
-0.0400079
-0.0239202
-0.0120438
-0.00344354
0.00251971
0.00634526
0.00828359
0.00838419
0.00720884
0.00490022
0.00290815
0.0010382
5.64552e-05
-0.16729
-0.171192
-0.168671
-0.163526
-0.158744
-0.155001
-0.151907
-0.149177
-0.146927
-0.145479
-0.145136
-0.146131
-0.148636
-0.152737
-0.158398
-0.165408
-0.173328
-0.181544
-0.189101
-0.194907
-0.197599
-0.195991
-0.189243
-0.177016
-0.159688
-0.138317
-0.114329
-0.0891624
-0.0640554
-0.0399259
-0.0173497
0.00321678
0.0215024
0.0374662
0.0503353
0.0582094
0.0596504
0.0526017
0.0325179
-0.00631585
-0.0597528
-0.108747
-0.133634
-0.129788
-0.108266
-0.0820058
-0.0579888
-0.0384358
-0.0233212
-0.012014
-0.0037342
0.00205871
0.00580572
0.00774864
0.00793911
0.00689101
0.00477319
0.00286439
0.00110968
0.000122537
-0.157215
-0.161935
-0.160664
-0.15667
-0.152803
-0.149881
-0.147612
-0.145666
-0.144061
-0.143041
-0.142872
-0.143755
-0.145817
-0.149108
-0.153574
-0.159023
-0.165107
-0.171288
-0.176757
-0.18059
-0.181798
-0.179429
-0.172773
-0.161545
-0.146011
-0.126961
-0.105496
-0.0827762
-0.0598506
-0.0375569
-0.0164686
0.00294797
0.0203368
0.0355549
0.0478949
0.0557557
0.0575975
0.0513596
0.0322471
-0.0051251
-0.0556392
-0.100744
-0.122872
-0.118924
-0.0996467
-0.0762225
-0.0545979
-0.0367142
-0.0226552
-0.0119699
-0.00404599
0.00155791
0.00521461
0.00715352
0.0074319
0.00652127
0.00461398
0.00281145
0.00117703
0.000189746
-0.147372
-0.152584
-0.152362
-0.149445
-0.146446
-0.144254
-0.142677
-0.141388
-0.140328
-0.139673
-0.139644
-0.140414
-0.142078
-0.144658
-0.148091
-0.152211
-0.156719
-0.161142
-0.164847
-0.167116
-0.167158
-0.164212
-0.157715
-0.147431
-0.133527
-0.116569
-0.0973947
-0.0769387
-0.056089
-0.0355984
-0.0160297
0.00214935
0.0185355
0.0328704
0.044475
0.0519427
0.0537833
0.0480823
0.0303304
-0.00417061
-0.0500894
-0.0903616
-0.109633
-0.106622
-0.0902706
-0.0700596
-0.050999
-0.0348721
-0.0219266
-0.0119076
-0.00437201
0.00102276
0.00457822
0.00650607
0.00687233
0.00610469
0.00441859
0.00274175
0.00123049
0.000251548
-0.137734
-0.143221
-0.143863
-0.141912
-0.139716
-0.138173
-0.137184
-0.136442
-0.135846
-0.135506
-0.135601
-0.136272
-0.137591
-0.139565
-0.142125
-0.14512
-0.148299
-0.151285
-0.153577
-0.154602
-0.153734
-0.15038
-0.1441
-0.134684
-0.122223
-0.107121
-0.0900124
-0.0716451
-0.0527637
-0.0340334
-0.0159947
0.000884873
0.0161793
0.0295404
0.0402955
0.0471882
0.0488267
0.0435161
0.0274238
-0.00313884
-0.0432013
-0.078154
-0.0952096
-0.0936292
-0.0805938
-0.0637389
-0.047285
-0.0329427
-0.0211427
-0.0118234
-0.00470469
0.000460868
0.00390558
0.00581675
0.00627063
0.00564768
0.00418538
0.00264926
0.00126244
0.000302818
-0.128341
-0.13397
-0.135299
-0.134177
-0.132692
-0.131719
-0.131225
-0.130936
-0.130726
-0.130653
-0.130853
-0.131439
-0.132469
-0.133936
-0.135773
-0.137845
-0.139945
-0.141798
-0.142976
-0.143032
-0.141483
-0.137871
-0.131841
-0.123211
-0.112026
-0.0985716
-0.0833268
-0.0668817
-0.0498557
-0.0328311
-0.0163155
-0.000770433
0.0133677
0.0256941
0.0355482
0.0418106
0.0432186
0.0383262
0.0241704
-0.00184692
-0.0355662
-0.0652925
-0.0806668
-0.0807951
-0.0710817
-0.0574784
-0.0435484
-0.0309606
-0.0203118
-0.0117148
-0.00503613
-0.000118756
0.0032063
0.00509546
0.00563551
0.00515683
0.00391491
0.00253021
0.00126791
0.000340217
-0.11931
-0.124939
-0.126775
-0.126337
-0.125461
-0.124975
-0.12489
-0.124969
-0.125072
-0.125218
-0.125505
-0.126024
-0.126819
-0.127878
-0.129138
-0.130481
-0.131702
-0.132693
-0.133015
-0.132346
-0.130311
-0.126558
-0.120804
-0.112896
-0.10285
-0.0908655
-0.0773012
-0.062621
-0.047336
-0.0319521
-0.0169368
-0.00273658
0.0102104
0.0214727
0.0304168
0.0360593
0.0372942
0.0329361
0.0208701
-0.000593343
-0.028255
-0.0531775
-0.0671276
-0.0688459
-0.0621166
-0.0514594
-0.0398707
-0.0289594
-0.0194441
-0.0115798
-0.00535868
-0.000706376
0.00249012
0.00435212
0.00497502
0.00463839
0.00360933
0.00238341
0.00124481
0.000362169
-0.11068
-0.116182
-0.118371
-0.118479
-0.118108
-0.118023
-0.118269
-0.118639
-0.11899
-0.119312
-0.119673
-0.120143
-0.120755
-0.121496
-0.122314
-0.123115
-0.123776
-0.123997
-0.123661
-0.122463
-0.120104
-0.11631
-0.110859
-0.103624
-0.0946031
-0.0839352
-0.0718885
-0.0588264
-0.0451685
-0.0313503
-0.0177966
-0.00492936
0.00682256
0.0170222
0.0250775
0.0301412
0.031276
0.0275411
0.0175079
0.000150457
-0.022159
-0.0427833
-0.0553065
-0.0582224
-0.0539385
-0.045809
-0.0363178
-0.0269702
-0.0185504
-0.0114177
-0.0056653
-0.00129201
0.00176718
0.00359689
0.00429735
0.00409876
0.00327104
0.00220838
0.00119378
0.000368714
-0.102443
-0.107739
-0.110155
-0.110683
-0.110714
-0.110949
-0.111453
-0.112047
-0.112588
-0.113049
-0.113471
-0.113907
-0.114382
-0.114882
-0.11536
-0.115735
-0.115889
-0.115648
-0.114857
-0.113301
-0.110755
-0.107006
-0.101883
-0.0952823
-0.0871922
-0.0777098
-0.067036
-0.0554555
-0.0433113
-0.0309754
-0.0188285
-0.0072612
0.00331862
0.0124828
0.0196915
0.0242294
0.0253183
0.0222254
0.0140244
0.000154799
-0.0176218
-0.0344617
-0.0454818
-0.0490824
-0.0466557
-0.040605
-0.0329409
-0.0250216
-0.0176424
-0.0112291
-0.00594989
-0.00186585
0.00104775
0.00283984
0.00361067
0.00354512
0.00290663
0.00200778
0.00111677
0.000361012
-0.0946111
-0.0996482
-0.102183
-0.103018
-0.103358
-0.103838
-0.104534
-0.105292
-0.105975
-0.10654
-0.107011
-0.107426
-0.107802
-0.108125
-0.108354
-0.10842
-0.108228
-0.107653
-0.106561
-0.10479
-0.10217
-0.0985388
-0.0937653
-0.0877661
-0.0805275
-0.0721176
-0.0626879
-0.0524617
-0.0417183
-0.0307739
-0.0199649
-0.00964585
-0.000195582
0.0079816
0.0144019
0.0184692
0.0195472
0.0170754
0.0104771
-0.0004959
-0.0145107
-0.0280793
-0.0375562
-0.0413935
-0.040286
-0.0358879
-0.0297785
-0.0231394
-0.0167328
-0.0110156
-0.00620742
-0.00241876
0.000341889
0.00209072
0.00292306
0.00298396
0.00252073
0.00178381
0.00101704
0.00034078
-0.0871975
-0.091931
-0.0944973
-0.0955433
-0.0961095
-0.0967673
-0.0975986
-0.0984698
-0.0992507
-0.0998908
-0.100399
-0.100802
-0.10111
-0.101311
-0.101368
-0.101224
-0.100803
-0.100012
-0.0987426
-0.0968701
-0.0942667
-0.0908114
-0.0864039
-0.0809792
-0.0745244
-0.0670886
-0.0587868
-0.0497953
-0.0403411
-0.0306909
-0.0211388
-0.0120023
-0.00362388
0.00362945
0.009329
0.0129819
0.0140767
0.0121924
0.00698326
-0.00159739
-0.0125275
-0.0233171
-0.031288
-0.0350298
-0.0347972
-0.0316733
-0.026859
-0.0213468
-0.0158343
-0.0107804
-0.0064342
-0.00294267
-0.000341016
0.00135879
0.00224253
0.00242126
0.00211954
0.00154063
0.000898312
0.000310008
-0.0801998
-0.0846006
-0.0871302
-0.0883081
-0.0890311
-0.0898093
-0.0907264
-0.0916671
-0.09251
-0.0931996
-0.0937346
-0.0941317
-0.0943978
-0.0945204
-0.0944685
-0.0941937
-0.0936353
-0.0927248
-0.0913751
-0.0894908
-0.086976
-0.0837408
-0.0797101
-0.0748347
-0.069104
-0.0625547
-0.0552756
-0.047406
-0.0391312
-0.0306741
-0.0222885
-0.0142553
-0.00687753
-0.000478232
0.00457027
0.0078647
0.0089968
0.00765644
0.00364544
-0.00296685
-0.0113845
-0.0198402
-0.0263983
-0.0298338
-0.0301308
-0.0279594
-0.0242016
-0.0196639
-0.0149598
-0.0105278
-0.00662799
-0.00343097
-0.000992552
0.000652497
0.00157679
0.00186331
0.00170958
0.00128246
0.000764373
0.000270747
-0.0736115
-0.0776648
-0.0801064
-0.0813529
-0.0821751
-0.0830261
-0.0839882
-0.0849627
-0.0858373
-0.086555
-0.0871071
-0.0875029
-0.0877463
-0.0878253
-0.0877131
-0.08737
-0.0867469
-0.0857922
-0.0844371
-0.0826095
-0.0802374
-0.0772543
-0.0736053
-0.0692541
-0.0641932
-0.0584513
-0.0520981
-0.0452444
-0.0380413
-0.0306747
-0.0233596
-0.0163396
-0.00988181
-0.00426494
0.000200252
0.00318781
0.00436856
0.00351943
0.000535293
-0.00446428
-0.010853
-0.017349
-0.0226353
-0.0256451
-0.0262169
-0.0247324
-0.0218175
-0.0181069
-0.0141215
-0.0102632
-0.00678814
-0.00387869
-0.00160559
-2.07571e-05
0.000933138
0.00131622
0.00129703
0.00101382
0.000619016
0.000225007
-0.0674244
-0.0711266
-0.073444
-0.0747095
-0.0755849
-0.0764705
-0.0774453
-0.0784248
-0.0793069
-0.0800351
-0.0805957
-0.0809928
-0.0812277
-0.0812893
-0.0811546
-0.0807914
-0.0801637
-0.0792151
-0.0779094
-0.0761891
-0.0739988
-0.0712889
-0.0680201
-0.0641669
-0.0597251
-0.0547179
-0.0492011
-0.0432636
-0.0370279
-0.0306484
-0.0243059
-0.0182059
-0.0125814
-0.00767231
-0.00372544
-0.00100301
0.000228863
-0.000190333
-0.00230768
-0.00598788
-0.0107434
-0.0156139
-0.0197977
-0.0223194
-0.0229797
-0.0219684
-0.0197101
-0.0166884
-0.0133308
-0.00999282
-0.00691553
-0.0042827
-0.00217452
-0.000654757
0.000318134
0.000785751
0.000887838
0.000739408
0.000465942
0.000174676
-0.0616287
-0.0649849
-0.0671538
-0.0684013
-0.0692945
-0.0701851
-0.0711477
-0.0721104
-0.0729812
-0.0737057
-0.0742673
-0.0746665
-0.0749026
-0.0749654
-0.0748353
-0.0744848
-0.0738795
-0.0729857
-0.0717731
-0.0701975
-0.0682151
-0.0657897
-0.0628939
-0.0595109
-0.0556395
-0.0512995
-0.0465358
-0.0414203
-0.0360525
-0.0305588
-0.025091
-0.0198194
-0.0149392
-0.0106576
-0.00716316
-0.00468746
-0.00341047
-0.00346263
-0.00485885
-0.00747005
-0.0109332
-0.0146471
-0.0177204
-0.0197211
-0.0203413
-0.0196361
-0.017876
-0.0154164
-0.0125974
-0.00972344
-0.00701253
-0.00464166
-0.00269543
-0.00124461
-0.00026259
0.000277203
0.000487622
0.00046398
0.000308679
0.000121485
-0.0562153
-0.0592359
-0.0612416
-0.0624445
-0.0633291
-0.064203
-0.0651353
-0.0660651
-0.0669106
-0.0676206
-0.0681771
-0.0685781
-0.0688215
-0.068898
-0.0687903
-0.0684758
-0.0679258
-0.0671141
-0.0660193
-0.0646088
-0.0628478
-0.0607091
-0.0581738
-0.0552313
-0.0518832
-0.0481467
-0.0440586
-0.0396769
-0.0350824
-0.0303781
-0.0256885
-0.0211559
-0.0169378
-0.0132077
-0.0101314
-0.00786839
-0.00655632
-0.00630156
-0.00710882
-0.00885885
-0.0112734
-0.0139237
-0.0162003
-0.0177187
-0.0182229
-0.0176984
-0.0163049
-0.0142946
-0.0119294
-0.00946183
-0.0070827
-0.00495595
-0.00316615
-0.00178685
-0.000804498
-0.000204693
0.000101489
0.000192119
0.000150536
6.69855e-05
-0.051173
-0.0538731
-0.055709
-0.0568494
-0.0577068
-0.0585487
-0.0594383
-0.0603243
-0.0611345
-0.061822
-0.0623685
-0.0627702
-0.0630244
-0.0631224
-0.0630494
-0.0627857
-0.0623103
-0.0616035
-0.0606392
-0.0594011
-0.0578637
-0.0560061
-0.053814
-0.0512808
-0.04841
-0.0452169
-0.0417319
-0.0380019
-0.0340921
-0.0300858
-0.0260839
-0.022203
-0.0185712
-0.015327
-0.0126134
-0.0105426
-0.00922474
-0.00872575
-0.00905934
-0.0101245
-0.0117079
-0.0135128
-0.0151184
-0.0162012
-0.0165491
-0.0161145
-0.0149817
-0.0133225
-0.0113322
-0.00921436
-0.0071305
-0.00522749
-0.00358615
-0.00227941
-0.00130423
-0.000655955
-0.000266073
-7.19078e-05
-5.44417e-06
1.25405e-05
-0.0464885
-0.0488874
-0.0505536
-0.0516207
-0.0524385
-0.0532384
-0.0540776
-0.0549131
-0.0556817
-0.0563412
-0.0568738
-0.0572749
-0.057541
-0.0576647
-0.0576332
-0.0574302
-0.0570385
-0.0564379
-0.0556121
-0.0545504
-0.0532352
-0.0516476
-0.0497768
-0.0476199
-0.0451814
-0.0424748
-0.0395253
-0.0363707
-0.0330633
-0.02967
-0.026272
-0.0229623
-0.0198448
-0.0170285
-0.0146239
-0.0127335
-0.0114323
-0.0107565
-0.0107183
-0.0112449
-0.0121905
-0.0133287
-0.014374
-0.0150719
-0.0152486
-0.0148416
-0.0138866
-0.0124956
-0.010809
-0.00898662
-0.00716087
-0.00545941
-0.00395645
-0.00272162
-0.00175962
-0.00107344
-0.000611305
-0.000324307
-0.000156537
-4.06753e-05
-0.0421502
-0.0442693
-0.0457702
-0.0467585
-0.0475294
-0.0482817
-0.0490666
-0.049848
-0.0505716
-0.0511997
-0.0517157
-0.0521145
-0.0523927
-0.0525434
-0.0525557
-0.0524158
-0.0521087
-0.0516196
-0.0509361
-0.0500453
-0.0489395
-0.0476042
-0.0460301
-0.0442156
-0.0421656
-0.0398919
-0.037415
-0.0347656
-0.0319853
-0.0291271
-0.0262554
-0.0234442
-0.0207754
-0.0183351
-0.016209
-0.0144757
-0.0131922
-0.0124028
-0.0120945
-0.0122175
-0.0126709
-0.0132924
-0.0138811
-0.0142492
-0.0142562
-0.0138368
-0.0129969
-0.0118056
-0.0103604
-0.00878301
-0.00717882
-0.00565571
-0.00427937
-0.00311413
-0.00216975
-0.00145495
-0.000931223
-0.000561886
-0.000300408
-9.16728e-05
-0.0381459
-0.0400076
-0.0413511
-0.0422592
-0.0429797
-0.0436821
-0.0444113
-0.0451379
-0.0458153
-0.0464103
-0.0469078
-0.0473028
-0.0475917
-0.0477686
-0.047824
-0.0477464
-0.0475233
-0.0471424
-0.0465925
-0.0458647
-0.0449539
-0.0438502
-0.0425467
-0.0410412
-0.0393376
-0.0374463
-0.0353842
-0.0331758
-0.0308539
-0.0284602
-0.0260452
-0.0236667
-0.021389
-0.019279
-0.0174031
-0.015821
-0.0145802
-0.0137105
-0.0132064
-0.0130324
-0.013115
-0.0133402
-0.0135686
-0.013663
-0.013513
-0.0130582
-0.0122879
-0.0112418
-0.00998454
-0.00860654
-0.00718906
-0.0058209
-0.00455818
-0.00345867
-0.00253479
-0.00179926
-0.00122369
-0.000782094
-0.00043515
-0.000139665
-0.0344623
-0.0360898
-0.0372862
-0.0381158
-0.0387852
-0.0394377
-0.0401125
-0.0407854
-0.0414168
-0.0419784
-0.0424564
-0.0428459
-0.0431438
-0.0433448
-0.0434408
-0.0434221
-0.0432784
-0.043
-0.0425774
-0.0420013
-0.0412645
-0.0403679
-0.0393065
-0.0380763
-0.0366791
-0.0351231
-0.0334225
-0.0315967
-0.0296714
-0.0276789
-0.0256582
-0.0236543
-0.0217166
-0.0198967
-0.0182456
-0.0168093
-0.015625
-0.0147144
-0.0140775
-0.0136902
-0.0135004
-0.0134294
-0.0133802
-0.013254
-0.0129666
-0.0124662
-0.0117341
-0.0107909
-0.00967726
-0.0084586
-0.00719561
-0.0059596
-0.00479684
-0.00375793
-0.00285592
-0.0021061
-0.00148746
-0.000983109
-0.000559277
-0.000184048
-0.0310869
-0.0325033
-0.0335643
-0.0343193
-0.0349389
-0.0355433
-0.0361661
-0.0367876
-0.0373748
-0.0379034
-0.0383614
-0.0387443
-0.039049
-0.039271
-0.0394033
-0.0394379
-0.039366
-0.0391793
-0.03887
-0.038431
-0.0378574
-0.0371459
-0.0362961
-0.0353063
-0.034177
-0.0329132
-0.0315254
-0.0300295
-0.0284454
-0.0267977
-0.0251163
-0.0234354
-0.0217929
-0.020228
-0.0187797
-0.0174832
-0.0163672
-0.015449
-0.0147312
-0.0141984
-0.0138155
-0.0135289
-0.0132714
-0.0129733
-0.0125715
-0.0120241
-0.0113101
-0.0104383
-0.00943253
-0.00833904
-0.00720161
-0.00607623
-0.00499969
-0.00401527
-0.00313523
-0.00237609
-0.00172207
-0.00116385
-0.000671802
-0.000224381
-0.0280073
-0.0292351
-0.030173
-0.0308585
-0.0314311
-0.0319902
-0.0325644
-0.0331379
-0.0336834
-0.0341803
-0.0346183
-0.0349933
-0.0353025
-0.0355419
-0.0357058
-0.035787
-0.0357785
-0.0356733
-0.0354649
-0.0351479
-0.0347174
-0.03417
-0.033505
-0.0327226
-0.0318239
-0.0308119
-0.0296935
-0.0284803
-0.0271879
-0.0258353
-0.0244446
-0.0230417
-0.0216551
-0.0203145
-0.0190492