/*--------------------------------*- C++ -*----------------------------------*\
| =========                 |                                                 |
| \\      /  F ield         | OpenFOAM: The Open Source CFD Toolbox           |
|  \\    /   O peration     | Version:  2512                                  |
|   \\  /    A nd           | Website:  www.openfoam.com                      |
|    \\/     M anipulation  |                                                 |
\*---------------------------------------------------------------------------*/
FoamFile
{
    version     2.0;
    format      ascii;
    arch        "LSB;label=32;scalar=64";
    class       volVectorField;
    location    "53";
    object      U;
}
// * * * * * * * * * * * * * * * * * * * * * * * * * * * * * * * * * * * * * //

dimensions      [0 1 -1 0 0 0 0];

internalField   nonuniform List<vector> 
13248
(
(-0.0121978 0.0115432 6.58235e-20)
(-0.0222707 0.0240778 0)
(-0.0190249 0.0301978 -1.24604e-19)
(-0.00361565 0.0318929 1.17379e-19)
(0.0232103 0.0308229 1.10146e-19)
(0.060943 0.0283298 0)
(0.109151 0.0254395 0)
(0.167345 0.0229197 2.67042e-19)
(0.234824 0.02133 -1.26946e-21)
(0.310546 0.021048 -2.33343e-19)
(0.393045 0.0222832 2.15819e-19)
(0.480422 0.0250877 -1.34912e-19)
(0.570415 0.029368 0)
(0.660528 0.034903 -2.28013e-19)
(0.748212 0.0413724 4.23936e-19)
(0.83105 0.0483908 -1.00467e-19)
(0.906934 0.055551 -1.75898e-19)
(0.974205 0.0624469 1.65126e-19)
(1.03176 0.068779 0)
(1.07902 0.0740986 0)
(1.1163 0.0787719 0)
(1.14311 0.0810237 0)
(1.16337 0.084975 4.82475e-20)
(1.17162 0.0805101 1.72354e-19)
(-0.0116551 0.00984925 -1.98848e-19)
(-0.0176687 0.0192118 1.35612e-19)
(-0.00731436 0.023159 -1.0905e-21)
(0.0179428 0.0236703 -1.79358e-19)
(0.0571349 0.0224157 -1.10027e-19)
(0.109486 0.0207564 -1.0409e-19)
(0.174137 0.0197065 -1.9173e-19)
(0.24994 0.0199805 1.81093e-19)
(0.335283 0.0220264 0)
(0.427994 0.0260385 9.28289e-22)
(0.525362 0.03197 1.88333e-21)
(0.624273 0.0395566 1.34547e-19)
(0.721443 0.0483592 0)
(0.813698 0.057823 0)
(0.89824 0.0673462 1.54446e-19)
(0.972869 0.0763508 -2.9001e-19)
(1.03613 0.0843443 1.71596e-19)
(1.08739 0.0909627 -1.61097e-19)
(1.12676 0.096001 -7.07467e-20)
(1.15511 0.0993807 -1.27442e-19)
(1.17362 0.101301 -5.28622e-20)
(1.18432 0.101491 -9.87887e-20)
(1.18848 0.10194 1.45765e-19)
(1.18767 0.0977152 4.19874e-20)
(-0.0102298 0.0078516 0)
(-0.00992918 0.0136681 0)
(0.0101798 0.0155108 6.34614e-20)
(0.048177 0.0152981 5.85644e-20)
(0.10269 0.0146764 -1.30258e-21)
(0.172387 0.0149838 -1.07064e-19)
(0.255562 0.0171379 0)
(0.349894 0.0216602 -9.00604e-20)
(0.452339 0.0287006 8.4375e-20)
(0.559189 0.0380575 3.25827e-22)
(0.666324 0.0492252 -1.44061e-19)
(0.769582 0.061476 -1.31608e-19)
(0.865167 0.0739685 2.70733e-21)
(0.950015 0.0858655 -1.07877e-19)
(1.02204 0.0964412 2.59607e-19)
(1.08025 0.10516 0)
(1.12471 0.111723 -1.66937e-19)
(1.15643 0.116062 8.09574e-20)
(1.17707 0.118336 7.06803e-20)
(1.1887 0.1188 0)
(1.19358 0.117982 5.75794e-20)
(1.1937 0.115877 -1.99517e-19)
(1.19072 0.114137 1.87292e-19)
(1.18694 0.109303 1.19038e-19)
(-0.00760241 0.0055867 -7.02483e-20)
(0.00180258 0.00773422 -7.25761e-20)
(0.0347359 0.00792684 6.57194e-20)
(0.0885977 0.0078895 0)
(0.161281 0.00914528 0)
(0.250423 0.0128896 -2.01488e-21)
(0.352884 0.0197619 0)
(0.464593 0.0298525 -2.73735e-19)
(0.580672 0.0427536 2.54239e-19)
(0.695829 0.0576463 -3.14002e-19)
(0.804916 0.0734428 7.19633e-20)
(0.903513 0.0889669 0)
(0.988384 0.103135 1.19264e-19)
(1.05773 0.115105 -2.20684e-19)
(1.1112 0.124358 5.24233e-20)
(1.14975 0.130729 1.34096e-19)
(1.17525 0.13436 -6.15542e-21)
(1.19016 0.135626 -1.49665e-19)
(1.19711 0.135029 0)
(1.19854 0.133093 0)
(1.19651 0.130377 -5.35403e-20)
(1.19254 0.127004 4.8145e-20)
(1.18781 0.124268 1.72833e-19)
(1.18277 0.119121 -1.62244e-19)
(-0.0033963 0.00312569 -7.39038e-20)
(0.018414 0.00180109 -7.36245e-20)
(0.0674965 0.00122501 2.0715e-19)
(0.140249 0.00270278 -1.25745e-19)
(0.233329 0.00743953 1.18363e-19)
(0.3427 0.0162579 2.15275e-19)
(0.463149 0.0292257 -1.52016e-19)
(0.588449 0.0456916 -1.84871e-19)
(0.711928 0.0644466 3.66571e-21)
(0.82729 0.0839589 2.36933e-19)
(0.92941 0.102654 0)
(1.0149 0.119177 6.52409e-20)
(1.08233 0.132583 0)
(1.13209 0.142417 -1.06425e-19)
(1.16602 0.148692 1.49562e-19)
(1.18687 0.151787 1.26225e-21)
(1.1977 0.152302 -3.93387e-20)
(1.2015 0.150912 7.33052e-20)
(1.20076 0.148254 6.36824e-20)
(1.1974 0.144847 -5.72429e-20)
(1.19273 0.141095 5.3527e-20)
(1.18756 0.137122 -4.81327e-20)
(1.18227 0.13367 0)
(1.17739 0.128459 -3.72616e-20)
(0.0027796 0.0006118 7.38933e-20)
(0.0407059 -0.00357222 7.74642e-20)
(0.10926 -0.00358428 -6.93791e-20)
(0.203405 0.00113117 1.29164e-19)
(0.317912 0.0111417 -1.21575e-19)
(0.446373 0.0265381 1.09979e-19)
(0.581064 0.0464429 -5.27515e-20)
(0.713688 0.0691825 1.3883e-19)
(0.836531 0.0926707 -8.72551e-20)
(0.943556 0.114835 1.54817e-19)
(1.03112 0.133991 -3.57458e-19)
(1.09812 0.149075 1.31427e-19)
(1.14571 0.159708 -1.15227e-19)
(1.17658 0.166106 1.0823e-19)
(1.19425 0.168892 9.36366e-20)
(1.20233 0.168886 8.23049e-20)
(1.20401 0.166914 -2.29276e-19)
(1.20182 0.16369 1.42255e-19)
(1.19754 0.159756 -6.3684e-20)
(1.19231 0.15548 1.67047e-19)
(1.18679 0.1511 -5.38363e-20)
(1.18132 0.146691 -1.32664e-19)
(1.17609 0.14266 1.22687e-19)
(1.17123 0.137422 3.72483e-20)
(0.0112798 -0.00171678 0)
(0.0692562 -0.00763137 6.11756e-22)
(0.160274 -0.00531056 1.44757e-19)
(0.277328 0.00460989 -1.35811e-19)
(0.412598 0.0216041 -1.22458e-19)
(0.556798 0.0445776 2.27635e-19)
(0.699764 0.071368 -1.05732e-19)
(0.831973 0.0991988 1.41156e-19)
(0.946096 0.125341 -2.94703e-21)
(1.03795 0.147656 -8.01142e-20)
(1.10661 0.164894 1.75291e-19)
(1.15387 0.17673 -2.5891e-19)
(1.18326 0.183581 0)
(1.19902 0.186323 -5.10241e-20)
(1.20527 0.185995 -1.36484e-19)
(1.20545 0.183576 4.29503e-20)
(1.20214 0.179864 1.6142e-21)
(1.19707 0.175431 -9.50075e-20)
(1.19128 0.170654 5.58985e-21)
(1.18537 0.165759 1.10043e-19)
(1.17962 0.160872 -4.92588e-20)
(1.17417 0.156058 -1.9179e-20)
(1.16901 0.151479 5.83977e-20)
(1.16423 0.146175 0)
(0.0223681 -0.00352569 0)
(0.104282 -0.00945048 3.92526e-20)
(0.220051 -0.00266346 -1.88811e-19)
(0.360135 0.0144567 6.86204e-20)
(0.513561 0.0397321 -6.45841e-20)
(0.668146 0.0704493 -5.90282e-20)
(0.81212 0.103033 -1.0451e-19)
(0.936276 0.13387 5.20622e-20)
(1.03537 0.160142 4.53838e-20)
(1.10834 0.180263 0)
(1.15744 0.193888 1.04101e-19)
(1.187 0.201617 -1.55207e-19)
(1.20202 0.20459 1.15568e-19)
(1.20718 0.204092 5.10495e-20)
(1.20628 0.201286 -4.20423e-20)
(1.20204 0.197082 -3.52939e-20)
(1.19622 0.192112 -3.30187e-20)
(1.18985 0.186779 9.84965e-20)
(1.1835 0.18132 0)
(1.17741 0.175866 5.00016e-20)
(1.17169 0.170489 4.24955e-20)
(1.16633 0.165232 -1.04984e-19)
(1.16129 0.160112 -7.26784e-20)
(1.15657 0.154714 6.7166e-20)
(0.0361669 -0.00440127 -4.23911e-20)
(0.145527 -0.00800384 -1.58366e-21)
(0.287272 0.00560411 3.84067e-20)
(0.448858 0.0316707 1.07263e-19)
(0.616017 0.0658074 3.12209e-20)
(0.77438 0.103447 -6.03432e-20)
(0.912141 0.139845 5.51316e-20)
(1.02223 0.171164 -4.84455e-20)
(1.10283 0.195203 8.70252e-20)
(1.15642 0.211439 3.71983e-20)
(1.18804 0.220613 -1.05548e-19)
(1.20353 0.224147 3.11719e-20)
(1.20832 0.223627 5.33665e-20)
(1.20667 0.220458 -2.62395e-20)
(1.20162 0.215715 0)
(1.19506 0.210127 3.93534e-20)
(1.18806 0.204146 6.68494e-20)
(1.18117 0.198031 1.16274e-20)
(1.17465 0.191925 -5.59058e-20)
(1.16857 0.185902 2.35166e-20)
(1.16294 0.180004 0)
(1.15769 0.174248 -1.86631e-20)
(1.15277 0.168595 -1.77816e-20)
(1.1481 0.163023 0)
(0.0526056 -0.00388416 0)
(0.192176 -0.00227628 2.22142e-20)
(0.359783 0.0205228 4.1046e-20)
(0.539706 0.0567564 -1.09384e-19)
(0.714896 0.099435 3.53366e-20)
(0.870271 0.142279 0)
(0.995913 0.180014 5.33122e-20)
(1.08839 0.20938 -7.4462e-20)
(1.14985 0.22939 -4.34761e-20)
(1.18592 0.240811 1.96784e-20)
(1.20339 0.245366 -3.16025e-20)
(1.20863 0.245019 7.66805e-20)
(1.20664 0.241507 3.85253e-20)
(1.20091 0.236145 -2.67352e-20)
(1.1936 0.229812 -2.45727e-21)
(1.18589 0.223043 -7.36472e-20)
(1.17839 0.216135 3.35743e-20)
(1.17135 0.209248 -8.7035e-22)
(1.16484 0.202463 0)
(1.15886 0.195824 -2.35411e-20)
(1.15336 0.189356 0)
(1.14826 0.183047 5.38682e-20)
(1.14347 0.176873 -6.43655e-20)
(1.13887 0.171038 2.94206e-20)
(0.0713821 -0.00151113 -1.15961e-20)
(0.242838 0.00862037 -5.59048e-20)
(0.43473 0.0427572 6.36029e-20)
(0.628491 0.0896333 3.73702e-20)
(0.805549 0.139631 -1.78315e-20)
(0.952064 0.185356 3.00632e-20)
(1.06173 0.221906 -1.45803e-20)
(1.13552 0.247341 2.43544e-20)
(1.17927 0.262209 0)
(1.2008 0.268505 5.53934e-20)
(1.20766 0.26866 -2.24774e-21)
(1.20588 0.264871 -4.47805e-20)
(1.19968 0.258804 1.92077e-20)
(1.19163 0.251569 -2.17173e-20)
(1.18317 0.243829 -8.29172e-21)
(1.17498 0.235949 9.56813e-21)
(1.16733 0.228113 -7.39812e-21)
(1.16032 0.220415 -4.03664e-20)
(1.15393 0.212903 2.47404e-20)
(1.14813 0.205602 5.08467e-21)
(1.14282 0.198517 4.49703e-21)
(1.1379 0.19162 3.98152e-21)
(1.13326 0.184948 0)
(1.12875 0.178738 0)
(0.0920135 0.00315062 1.16041e-20)
(0.295725 0.025356 -1.15923e-20)
(0.508959 0.0725049 -2.11929e-20)
(0.711255 0.129641 0)
(0.884372 0.185008 -8.86057e-21)
(1.01768 0.231076 -7.99812e-21)
(1.1096 0.264242 -1.37145e-20)
(1.16549 0.284375 0)
(1.19405 0.293587 0)
(1.20428 0.294846 0)
(1.2036 0.290972 0)
(1.1973 0.284146 0)
(1.18864 0.275831 -1.20563e-20)
(1.17941 0.266899 5.48983e-21)
(1.17046 0.257818 9.57061e-21)
(1.16216 0.248819 4.48292e-21)
(1.15459 0.240012 1.1103e-20)
(1.14775 0.231448 0)
(1.14159 0.223154 -2.67911e-21)
(1.13604 0.215141 -2.57746e-21)
(1.131 0.207394 -4.50419e-21)
(1.12634 0.19989 -3.98787e-21)
(1.12193 0.192739 0)
(1.11761 0.186041 2.89784e-21)
(-0.000960992 -0.0058735 6.96916e-21)
(-0.00521342 -0.016247 -7.23665e-21)
(-0.0132985 -0.0254247 -1.3707e-20)
(-0.0233725 -0.033298 0)
(-0.0343987 -0.0399104 -1.8345e-20)
(-0.0458281 -0.0454413 5.75669e-21)
(-0.0572699 -0.0501426 -1.08764e-20)
(-0.0684467 -0.0542817 0)
(-0.0791775 -0.0580988 0)
(-0.0893493 -0.0617791 0)
(-0.0988933 -0.0654402 0)
(-0.107768 -0.0691342 0)
(-0.115948 -0.0728557 6.36583e-24)
(-0.123413 -0.0765542 -7.10487e-21)
(-0.130147 -0.0801445 1.33248e-20)
(-0.136135 -0.0835143 1.87639e-20)
(-0.141363 -0.0865291 5.82808e-21)
(-0.145825 -0.0890345 0)
(-0.149534 -0.0908581 5.16532e-21)
(-0.152531 -0.0918138 -1.4439e-20)
(-0.154885 -0.0917111 -8.95556e-21)
(-0.156673 -0.0903485 -8.35506e-21)
(-0.158067 -0.0874758 0)
(-0.159678 -0.0828626 0)
(-0.00101713 -0.00221447 -2.09507e-20)
(-0.00537323 -0.00762498 3.61509e-20)
(-0.0136702 -0.0135653 -1.36479e-20)
(-0.0239816 -0.0194161 -2.59373e-20)
(-0.0352287 -0.0248797 3.66425e-20)
(-0.0468437 -0.0298929 -2.30936e-20)
(-0.0584235 -0.0345242 3.25952e-20)
(-0.0696832 -0.0389043 2.05339e-20)
(-0.0804392 -0.0431763 0)
(-0.0905787 -0.0474578 -1.815e-20)
(-0.100035 -0.0518233 -2.06814e-23)
(-0.108769 -0.0562998 1.60399e-20)
(-0.116756 -0.0608702 2.26458e-20)
(-0.123978 -0.0654809 2.83048e-20)
(-0.130416 -0.0700468 -1.33606e-20)
(-0.136048 -0.0744553 -3.7401e-20)
(-0.140853 -0.0785656 1.15453e-20)
(-0.144812 -0.0822055 -4.3497e-20)
(-0.147919 -0.0851684 0)
(-0.150203 -0.087212 9.57822e-21)
(-0.151714 -0.0880657 8.94451e-21)
(-0.152448 -0.087428 8.3446e-21)
(-0.152507 -0.0849416 0)
(-0.153031 -0.0803264 0)
(-0.00150288 0.00152698 0)
(-0.00638737 0.00117758 7.27254e-20)
(-0.0149044 -0.00147738 -2.74331e-20)
(-0.0252048 -0.00529682 2.59724e-20)
(-0.0362548 -0.00962761 -7.36261e-20)
(-0.0475141 -0.0141496 0)
(-0.0585958 -0.0187359 -4.3674e-20)
(-0.0692263 -0.0233743 2.05632e-20)
(-0.0792296 -0.0281046 -3.88178e-20)
(-0.0884975 -0.0329763 1.83366e-20)
(-0.0969667 -0.0380226 1.02788e-19)
(-0.104601 -0.0432491 -4.82703e-20)
(-0.111377 -0.0486317 -7.53891e-20)
(-0.117276 -0.05412 -2.81835e-20)
(-0.122277 -0.0596378 1.97373e-22)
(-0.126355 -0.065083 9.9049e-20)
(-0.129476 -0.0703225 -4.63845e-20)
(-0.131605 -0.0751846 1.66145e-22)
(-0.132707 -0.0794467 0)
(-0.132777 -0.082824 -3.69577e-20)
(-0.131827 -0.0849602 0)
(-0.129751 -0.0854223 -3.16815e-20)
(-0.12645 -0.0836991 1.17461e-19)
(-0.123563 -0.0793745 -8.38233e-22)
(-0.00238835 0.00509932 0)
(-0.00819179 0.00961782 2.35683e-22)
(-0.0169172 0.0101492 2.77884e-20)
(-0.0269417 0.00830597 -2.62894e-20)
(-0.037358 0.00507602 2.44884e-20)
(-0.0476967 0.00102983 1.3984e-19)
(-0.0576166 -0.00351264 -4.38401e-20)
(-0.0668707 -0.00839409 -4.14893e-20)
(-0.0752974 -0.0135514 7.7839e-20)
(-0.0827973 -0.0189658 -1.09662e-19)
(-0.0893101 -0.0246286 3.44717e-20)
(-0.094799 -0.0305248 3.23769e-20)
(-0.09924 -0.0366253 0)
(-0.102614 -0.0428833 2.83063e-20)
(-0.1049 -0.0492364 0)
(-0.106069 -0.0556018 4.95056e-20)
(-0.106089 -0.0618698 -9.16682e-20)
(-0.104914 -0.0678935 2.24511e-20)
(-0.102495 -0.0734715 7.98729e-20)
(-0.0987956 -0.0783208 3.6925e-20)
(-0.0938112 -0.0820423 0)
(-0.0873923 -0.0840753 -9.26935e-20)
(-0.0790351 -0.0836484 2.95095e-20)
(-0.0701199 -0.0799131 0)
(-0.00359985 0.00827727 0)
(-0.0106389 0.0172005 -8.84202e-20)
(-0.0195366 0.020675 -2.81933e-20)
(-0.0290121 0.020684 -5.27692e-20)
(-0.0383505 0.0184989 4.96895e-20)
(-0.047188 0.014915 -4.67222e-20)
(-0.0552511 0.0104321 8.8464e-20)
(-0.0623337 0.00534574 4.15517e-20)
(-0.0682947 -0.000181798 -1.17344e-19)
(-0.0730411 -0.00606292 7.36429e-20)
(-0.0765113 -0.0122459 -1.0362e-19)
(-0.0786627 -0.0186919 2.27442e-19)
(-0.0794607 -0.0253612 -1.2182e-19)
(-0.0788789 -0.0322085 5.70816e-20)
(-0.0768932 -0.0391797 1.59168e-19)
(-0.0734758 -0.0462069 -5.03442e-20)
(-0.0685993 -0.0532045 -4.71315e-20)
(-0.0622336 -0.0600608 -4.32225e-20)
(-0.0543425 -0.0666214 0)
(-0.0448984 -0.0726619 -7.18104e-20)
(-0.0339421 -0.0778406 -6.40401e-20)
(-0.0214821 -0.0815751 9.3164e-20)
(-0.00674465 -0.0826913 1.09015e-19)
(0.011207 -0.0791265 -1.02212e-19)
(-0.00503149 0.0108873 0)
(-0.0135138 0.0235239 -1.19734e-19)
(-0.022512 0.029559 -5.2004e-22)
(-0.0311542 0.0312158 1.06362e-19)
(-0.0389584 0.0299785 0)
(-0.0456905 0.0268283 0)
(-0.0511594 0.0224206 0)
(-0.0552076 0.0171745 -4.18083e-20)
(-0.0577149 0.0113462 -1.37865e-23)
(-0.0585898 0.0050901 7.42568e-20)
(-0.0577599 -0.00149677 -1.04017e-19)
(-0.0551651 -0.00834573 1.17539e-22)
(-0.0507519 -0.0154002 0)
(-0.044474 -0.0226084 -5.70575e-20)
(-0.0362924 -0.0299085 5.30692e-20)
(-0.0261748 -0.0372317 -1.49649e-19)
(-0.0141015 -0.0444971 1.83865e-19)
(-6.72726e-05 -0.0516077 4.05437e-20)
(0.0159206 -0.0584436 -3.16858e-21)
(0.0338335 -0.0648516 -1.46123e-19)
(0.0535679 -0.0706181 -6.58225e-20)
(0.0750139 -0.075304 2.07609e-19)
(0.0988968 -0.0775716 -1.36945e-19)
(0.127969 -0.0744713 0)
(-0.00656221 0.0128221 5.88536e-20)
(-0.0165592 0.0283082 6.00123e-20)
(-0.025529 0.0363905 -5.74498e-20)
(-0.0330223 0.0393982 -1.07771e-19)
(-0.0388032 0.0389516 1.01478e-19)
(-0.0427762 0.0361709 -9.57087e-20)
(-0.044839 0.0318365 1.35317e-19)
(-0.0448831 0.0264723 -4.17873e-20)
(-0.0428054 0.0204177 7.97087e-20)
(-0.0385079 0.0138904 0)
(-0.0318968 0.00703413 7.0406e-20)
(-0.022885 -4.79993e-05 -1.32407e-19)
(-0.0113935 -0.00727826 1.22974e-19)
(0.0026496 -0.0145809 -1.15503e-19)
(0.0192988 -0.0218753 0)
(0.0385802 -0.0290755 9.97857e-20)
(0.0604887 -0.0360828 1.83708e-19)
(0.0849774 -0.0427852 -1.72344e-19)
(0.111954 -0.0490561 -7.85917e-20)
(0.141276 -0.0547574 -7.00525e-20)
(0.172702 -0.059749 1.99037e-19)
(0.206068 -0.0638052 5.67518e-20)
(0.240436 -0.066259 -5.55064e-20)
(0.286507 -0.0628674 4.73218e-20)
(-0.00807337 0.0140453 -5.88616e-20)
(-0.0194996 0.0314087 1.84354e-19)
(-0.0282215 0.0409115 -5.81233e-20)
(-0.0341788 0.0448772 1.09068e-19)
(-0.0373703 0.0449921 -1.02698e-19)
(-0.0378338 0.0424695 5.08304e-22)
(-0.0355513 0.0381816 4.57214e-20)
(-0.0304579 0.0327354 1.71899e-19)
(-0.0224607 0.026541 -1.27278e-22)
(-0.0114494 0.0198742 -7.53263e-20)
(0.0026966 0.0129263 0)
(0.0200887 0.00583286 -6.62896e-20)
(0.0408218 -0.00129239 1.24373e-19)
(0.0649681 -0.00834124 1.15341e-19)
(0.0925549 -0.0152094 -5.43224e-20)
(0.12355 -0.0217839 1.20324e-22)
(0.157854 -0.0279402 -4.63016e-20)
(0.195283 -0.0335416 8.54325e-20)
(0.235569 -0.0384406 7.85702e-20)
(0.27838 -0.0424745 -7.18904e-20)
(0.323078 -0.0455472 6.50956e-20)
(0.370324 -0.047198 -5.87715e-20)
(0.413771 -0.0485301 0)
(0.480129 -0.0423675 -4.72438e-20)
(-0.00946217 0.0145844 6.03067e-20)
(-0.0220574 0.0328101 -6.17502e-20)
(-0.0301725 0.0430229 5.90707e-20)
(-0.0340733 0.0474692 0)
(-0.0339626 0.0478503 0)
(-0.0299949 0.0454327 9.87562e-20)
(-0.0222231 0.0411504 -9.19511e-20)
(-0.0106159 0.0356717 8.66304e-20)
(0.00491434 0.0294653 -4.05699e-19)
(0.0244865 0.0228597 1.99687e-22)
(0.0482234 0.0160898 7.14676e-20)
(0.0762329 0.00933579 0)
(0.108576 0.0027527 -1.24244e-19)
(0.145238 -0.00352449 2.32399e-19)
(0.186112 -0.00936418 -1.62652e-19)
(0.230977 -0.0146326 -2.49147e-19)
(0.279491 -0.019193 3.20791e-21)
(0.331183 -0.0229063 1.72099e-19)
(0.385449 -0.0256407 0)
(0.441716 -0.0272016 0)
(0.498447 -0.0277778 -6.50849e-20)
(0.558358 -0.0259691 5.87607e-20)
(0.607117 -0.0256326 -2.04995e-19)
(0.689282 -0.0154048 1.92415e-19)
(-0.0106461 0.0145131 0)
(-0.0239531 0.0326022 0)
(-0.0308985 0.0427749 -1.78048e-19)
(-0.0320044 0.0471762 5.65483e-20)
(-0.0276385 0.0474927 2.01606e-22)
(-0.0180482 0.045018 9.99375e-20)
(-0.00334189 0.0407249 0)
(0.0164839 0.0353257 -8.74005e-20)
(0.0415002 0.0293376 8.14063e-20)
(0.0718009 0.0231369 -1.53204e-19)
(0.107456 0.0170053 3.43339e-22)
(0.148463 0.0111666 1.33549e-19)
(0.19471 0.00580216 -9.44739e-22)
(0.245933 0.00106829 1.14647e-19)
(0.301696 -0.00289722 -1.63489e-19)
(0.361381 -0.00597339 0)
(0.424197 -0.00805681 1.82867e-19)
(0.489206 -0.00906213 -2.56792e-19)
(0.55532 -0.00895012 7.72967e-20)
(0.621667 -0.00752818 0)
(0.685897 -0.00541962 6.3926e-20)
(0.752005 -0.000392291 2.28297e-19)
(0.801797 0.00162789 -2.14253e-19)
(0.886494 0.0149585 -2.33221e-19)
(-0.0115559 0.0139261 1.86793e-19)
(-0.0248853 0.0309474 -2.57135e-19)
(-0.0298145 0.0403515 3.5001e-22)
(-0.0270727 0.044197 5.73206e-20)
(-0.0171549 0.0441514 -1.07163e-19)
(-0.000378183 0.0415239 -9.94013e-20)
(0.0230983 0.0373112 1.86988e-19)
(0.0532303 0.0322606 -1.2494e-21)
(0.0900207 0.0269277 -1.64721e-19)
(0.13344 0.0217279 3.07269e-19)
(0.183356 0.0169772 -9.94239e-22)
(0.239462 0.0129175 -1.34681e-19)
(0.301233 0.00973155 0)
(0.367892 0.00755074 0)
(0.438415 0.00645877 -5.39745e-20)
(0.511556 0.00649184 -9.90903e-20)
(0.585908 0.0076407 -1.81343e-19)
(0.659969 0.00985116 1.70224e-19)
(0.732224 0.0130203 -7.73241e-20)
(0.801379 0.0171296 1.37719e-19)
(0.86546 0.0215686 -6.84789e-20)
(0.926746 0.0279389 1.08635e-19)
(0.972349 0.0310221 -2.63223e-19)
(1.04085 0.0436685 4.67458e-20)
(-0.0121097 0.0129121 6.31378e-20)
(-0.0244849 0.0280397 0)
(-0.0261811 0.0360434 1.22611e-19)
(-0.018121 0.0389333 -1.15505e-19)
(-0.000910612 0.0383668 1.07259e-19)
(0.025066 0.0356657 0)
(0.0595735 0.0318446 0)
(0.102441 0.0276707 -8.82447e-20)
(0.153461 0.0237191 9.52898e-22)
(0.212274 0.0204192 7.78392e-20)
(0.278272 0.0180787 -7.15373e-20)
(0.350536 0.0169005 1.34854e-19)
(0.427803 0.0169911 0)
(0.508501 0.018367 2.29835e-19)
(0.590808 0.0209602 -4.28014e-19)
(0.672762 0.0246281 2.98386e-19)
(0.752385 0.0291703 1.79052e-19)
(0.8278 0.03433 -1.68079e-19)
(0.897399 0.0398802 0)
(0.959776 0.0454396 0)
(1.01423 0.0509816 0)
(1.06034 0.0560897 0)
(1.09578 0.0598826 5.14467e-20)
(1.13546 0.0674029 -1.82192e-19)
(-0.162723 -0.0757237 -5.2285e-21)
(-0.16587 -0.064783 5.251e-21)
(-0.168504 -0.0498235 -1.53408e-22)
(-0.170777 -0.0305962 0)
(-0.172441 -0.00676697 -4.74211e-21)
(-0.173517 0.0219236 9.18341e-21)
(-0.173887 0.055183 -4.87297e-23)
(-0.173129 0.092648 -4.2748e-21)
(-0.170933 0.133623 0)
(-0.167 0.177022 0)
(-0.161061 0.221296 -2.19436e-22)
(-0.15282 0.264339 -2.09004e-22)
(-0.141919 0.303711 -3.45374e-21)
(-0.127914 0.336581 3.16268e-21)
(-0.110139 0.359637 0)
(-0.0876952 0.369243 0)
(-0.0594846 0.361658 2.96481e-21)
(-0.0245713 0.333769 1.29054e-22)
(0.0173643 0.283206 -2.72959e-21)
(0.0655225 0.209412 -2.00385e-22)
(0.118138 0.11468 0)
(0.172993 0.00371545 0)
(0.228012 -0.116426 0)
(0.281563 -0.233929 0)
(0.330667 -0.336027 0)
(0.370481 -0.411816 0)
(0.395686 -0.45847 5.18307e-22)
(0.399648 -0.484064 -8.51396e-22)
(0.375669 -0.502763 0)
(0.327703 -0.518318 0)
(0.280711 -0.509076 -5.02887e-22)
(0.268698 -0.440669 4.88756e-22)
(0.300744 -0.30342 2.59829e-22)
(0.360137 -0.122966 0)
(0.430701 0.0621184 0)
(0.49959 0.218535 4.64173e-22)
(0.555095 0.327311 -4.51184e-22)
(0.594282 0.384135 0)
(0.61531 0.400823 2.38472e-22)
(0.599674 0.406951 -3.40998e-22)
(0.539173 0.41619 9.96494e-23)
(0.475807 0.394297 0)
(0.464041 0.299332 -2.1277e-22)
(0.51052 0.145327 2.06889e-22)
(0.581868 -0.0130044 0)
(0.651838 -0.133953 0)
(0.703403 -0.205111 -5.04575e-23)
(0.738807 -0.229523 1.31117e-22)
(0.753816 -0.224853 0)
(0.745761 -0.206106 0)
(0.710943 -0.185449 -5.14272e-24)
(0.685312 -0.148146 4.09726e-24)
(0.68036 -0.0977898 2.056e-25)
(0.715614 -0.0345055 1.34268e-24)
(0.750392 0.0169892 0)
(0.794489 0.0523551 0)
(0.811627 0.0741293 0)
(0.830323 0.0704309 0)
(0.824323 0.0779235 0)
(0.834929 0.0460412 0)
(-0.156546 -0.0730086 -4.78006e-22)
(-0.160121 -0.0627538 -1.96568e-20)
(-0.162718 -0.0484344 3.89193e-22)
(-0.16498 -0.0299521 1.80905e-20)
(-0.166519 -0.00700113 2.61879e-22)
(-0.167366 0.0204973 0)
(-0.167361 0.0524476 -1.57134e-20)
(-0.165915 0.0883998 3.07739e-20)
(-0.16252 0.127662 -1.50581e-20)
(-0.156666 0.16922 1.39508e-20)
(-0.147932 0.211651 -1.33405e-20)
(-0.135776 0.252667 1.26686e-20)
(-0.119568 0.289893 -1.22861e-20)
(-0.0988106 0.320468 -3.71748e-22)
(-0.0729539 0.340848 -1.21542e-20)
(-0.0414116 0.347507 1.18115e-20)
(-0.0034139 0.336874 -1.26033e-20)
(0.0411088 0.305816 1.18426e-20)
(0.0913755 0.252522 -1.36408e-20)
(0.145975 0.176945 2.69724e-20)
(0.2027 0.0815723 -1.33191e-20)
(0.25938 -0.0293461 -8.62559e-22)
(0.314583 -0.148543 -1.21756e-20)
(0.366742 -0.264528 2.2552e-20)
(0.41236 -0.362928 -1.04177e-20)
(0.446469 -0.432057 5.07617e-22)
(0.465307 -0.468754 5.96037e-21)
(0.465259 -0.480668 -8.53835e-22)
(0.439332 -0.484311 -8.25348e-21)
(0.384468 -0.49143 7.07451e-21)
(0.317755 -0.488941 -3.29297e-21)
(0.276234 -0.439979 3.81084e-22)
(0.284212 -0.321272 -2.60347e-22)
(0.330576 -0.150889 4.53382e-22)
(0.394841 0.0311554 0)
(0.461958 0.190484 0)
(0.520478 0.305686 -1.3871e-21)
(0.565783 0.370704 1.04953e-21)
(0.588276 0.39973 7.22667e-22)
(0.56786 0.42088 4.1299e-23)
(0.50817 0.436672 -9.59212e-22)
(0.460174 0.40514 2.39155e-22)
(0.469034 0.292606 0)
(0.529862 0.126417 0)
(0.608447 -0.0348111 0)
(0.680207 -0.152142 0)
(0.729708 -0.217579 2.68012e-22)
(0.760592 -0.236713 -8.21193e-23)
(0.774563 -0.226487 0)
(0.770341 -0.201441 0)
(0.739056 -0.177642 0)
(0.706421 -0.143228 5.13749e-25)
(0.688116 -0.0995464 5.35409e-24)
(0.708331 -0.0412927 -5.14513e-24)
(0.735226 0.00893488 0)
(0.774839 0.0460577 0)
(0.79108 0.0704079 -2.27276e-24)
(0.81232 0.0689201 -1.14236e-23)
(0.80748 0.0771888 0)
(0.828399 0.0444112 0)
(-0.125726 -0.0719274 -4.5279e-22)
(-0.129672 -0.0627671 -3.78886e-20)
(-0.131718 -0.0493313 3.58284e-20)
(-0.133372 -0.0318763 -3.35311e-20)
(-0.134167 -0.0100752 -2.63677e-22)
(-0.134088 0.0160403 0)
(-0.132974 0.0465108 -2.92191e-20)
(-0.130255 0.0807075 2.85872e-20)
(-0.125184 0.117972 2.20001e-22)
(-0.11702 0.157342 3.81639e-22)
(-0.105439 0.19777 3.69403e-22)
(-0.0897161 0.236352 3.90499e-22)
(-0.0688852 0.271052 -2.39003e-20)
(-0.0426193 0.298967 2.36009e-20)
(-0.0104682 0.316768 0)
(0.0280203 0.320993 7.65584e-22)
(0.0729155 0.308229 -2.645e-20)
(0.123685 0.275352 2.61071e-20)
(0.1791 0.221095 0)
(0.237282 0.1457 0)
(0.295874 0.0514333 -3.02744e-20)
(0.352956 -0.0578745 5.85271e-20)
(0.407517 -0.1754 -5.34129e-20)
(0.457669 -0.289234 3.30772e-21)
(0.498986 -0.383744 4.02458e-20)
(0.526194 -0.446744 -3.37718e-20)
(0.536725 -0.475384 2.52649e-20)
(0.530498 -0.476529 -2.9767e-21)
(0.503452 -0.466081 -8.59202e-21)
(0.447614 -0.461258 0)
(0.369223 -0.459855 0)
(0.301212 -0.429018 2.20299e-21)
(0.280973 -0.33336 -2.79982e-21)
(0.310402 -0.177494 -9.835e-23)
(0.366653 -0.000116588 3.22725e-21)
(0.431076 0.160803 -3.13635e-21)
(0.491653 0.28179 0)
(0.540394 0.356179 2.99988e-22)
(0.561345 0.399483 2.25276e-21)
(0.537042 0.435112 -4.3245e-21)
(0.482662 0.454247 1.85358e-21)
(0.45272 0.411077 3.05525e-22)
(0.480998 0.282185 -2.92116e-21)
(0.554428 0.106166 2.25116e-21)
(0.638668 -0.0565523 5.32548e-22)
(0.710804 -0.169482 4.12198e-22)
(0.757683 -0.228754 -2.68682e-22)
(0.783382 -0.242942 0)
(0.794239 -0.228452 0)
(0.792255 -0.198039 -1.52735e-22)
(0.766378 -0.170129 5.88626e-23)
(0.731122 -0.136557 1.60595e-23)
(0.702831 -0.098331 -2.36647e-23)
(0.707819 -0.0454996 -2.58542e-23)
(0.725275 0.00238227 -2.35647e-24)
(0.75845 0.0404227 -6.07588e-24)
(0.773354 0.0665544 9.95265e-24)
(0.797335 0.0669611 -8.01177e-24)
(0.794897 0.0752907 0)
(0.826608 0.0417961 0)
(-0.069847 -0.0717674 -7.47467e-20)
(-0.0751144 -0.0642253 2.81584e-21)
(-0.0770047 -0.0520553 6.81038e-20)
(-0.0783125 -0.0360074 -5.16682e-22)
(-0.0784783 -0.0155969 0)
(-0.077396 0.00904931 0)
(-0.0750103 0.0377365 -5.34297e-20)
(-0.0709231 0.0698484 5.09502e-22)
(-0.0641632 0.104835 7.38649e-20)
(-0.053587 0.141842 -5.0453e-22)
(-0.039467 0.179282 -2.32082e-20)
(-0.0211974 0.215177 -2.21962e-20)
(0.00301931 0.247423 2.2232e-20)
(0.0333886 0.272934 0)
(0.070059 0.288617 -2.45571e-20)
(0.113065 0.29104 2.23157e-20)
(0.162174 0.27694 0)
(0.21651 0.243693 0)
(0.274556 0.190119 3.02065e-20)
(0.334238 0.116488 1.61964e-21)
(0.393294 0.0245525 -2.91395e-20)
(0.45018 -0.0820817 -3.06125e-20)
(0.504007 -0.197397 3.06329e-20)
(0.55204 -0.308793 -2.44598e-20)
(0.588568 -0.399248 4.18401e-21)
(0.608182 -0.456177 1.89238e-20)
(0.609378 -0.477844 1.62484e-21)
(0.594701 -0.471218 1.63668e-23)
(0.56504 -0.449535 0)
(0.512046 -0.431269 4.91109e-21)
(0.43091 -0.424483 -5.01317e-21)
(0.343502 -0.406638 2.97428e-22)
(0.293101 -0.336487 0)
(0.300219 -0.200912 -3.59729e-22)
(0.345953 -0.0315731 5.26711e-21)
(0.406662 0.12972 -9.53218e-21)
(0.467747 0.256365 -2.64154e-22)
(0.516886 0.34144 2.21154e-22)
(0.534568 0.399942 3.60791e-21)
(0.508702 0.448397 4.8128e-22)
(0.463839 0.467916 -4.43833e-21)
(0.453254 0.41236 3.7645e-21)
(0.499554 0.268997 -7.25448e-23)
(0.583993 0.085254 2.44296e-21)
(0.672206 -0.0777119 -2.90907e-21)
(0.743102 -0.185726 -2.77544e-21)
(0.786609 -0.2386 8.2305e-22)
(0.807008 -0.247986 5.86001e-22)
(0.813405 -0.230287 -8.71425e-22)
(0.811608 -0.195821 3.85856e-22)
(0.791582 -0.163587 2.03484e-23)
(0.757466 -0.129109 3.35407e-23)
(0.723342 -0.0946761 -3.16628e-23)
(0.7145 -0.0470619 8.00764e-23)
(0.721838 -0.00238077 -1.2068e-23)
(0.747098 0.0356599 2.11984e-23)
(0.760387 0.0625848 0)
(0.787073 0.0644187 9.35303e-24)
(0.788135 0.0721032 -9.5574e-24)
(0.829997 0.0382073 0)
(0.0143807 -0.0715237 7.27879e-20)
(0.00569447 -0.0648524 -1.39098e-19)
(0.00242546 -0.055016 6.56994e-20)
(9.31986e-05 -0.0410559 5.9395e-20)
(-0.000595204 -0.0226773 -1.13653e-19)
(0.00020679 -0.000225112 2.25865e-21)
(0.00264336 0.0258481 5.10279e-20)
(0.00728354 0.0555278 4.69364e-20)
(0.0150758 0.0880236 -4.59895e-20)
(0.0268018 0.122419 0)
(0.0426327 0.156768 -4.33778e-20)
(0.0631644 0.190222 8.57373e-20)
(0.0895915 0.220239 -4.23929e-20)
(0.122306 0.243792 0)
(0.161438 0.257758 0)
(0.206813 0.259007 7.82043e-22)
(0.257956 0.244584 -5.59187e-20)
(0.313777 0.212143 5.43184e-20)
(0.372638 0.160491 0)
(0.432405 0.08974 6.59663e-20)
(0.491336 0.00127778 -1.26059e-19)
(0.548072 -0.102028 1.23478e-19)
(0.601377 -0.214595 -1.17764e-19)
(0.647291 -0.322907 5.88256e-21)
(0.678507 -0.408801 8.86613e-20)
(0.689887 -0.459656 -3.98424e-20)
(0.681594 -0.475177 -8.21066e-22)
(0.657681 -0.463342 -7.64125e-21)
(0.623073 -0.434552 2.19385e-21)
(0.573464 -0.404445 5.64757e-21)
(0.497004 -0.387709 2.44117e-22)
(0.400429 -0.375058 -2.98961e-21)
(0.322684 -0.32836 6.19946e-21)
(0.301646 -0.218321 -3.54737e-21)
(0.332232 -0.0621486 0)
(0.38736 0.097747 -4.67595e-21)
(0.446918 0.230025 4.52683e-21)
(0.494073 0.326719 -3.48389e-21)
(0.508442 0.400246 4.31975e-21)
(0.484288 0.459307 -4.9651e-22)
(0.452401 0.477061 0)
(0.461373 0.409485 -6.72398e-22)
(0.524224 0.253845 2.19198e-21)
(0.618176 0.0641615 0)
(0.708769 -0.0978164 5.60474e-21)
(0.776765 -0.200546 -2.37967e-21)
(0.815877 -0.247042 6.12287e-22)
(0.831041 -0.25175 3.95908e-22)
(0.832431 -0.231597 0)
(0.828872 -0.19449 0)
(0.813905 -0.158398 8.45613e-24)
(0.783581 -0.121807 -1.41596e-22)
(0.747922 -0.0893576 1.33236e-22)
(0.728109 -0.0462231 -6.2273e-23)
(0.725804 -0.00521504 -7.78455e-23)
(0.742429 0.0318961 -2.12186e-23)
(0.753983 0.0585256 4.64212e-23)
(0.782996 0.0612166 0)
(0.788303 0.0676373 1.72596e-23)
(0.838562 0.0337647 7.42678e-24)
(0.131543 -0.0685653 7.19809e-20)
(0.11954 -0.0627056 -7.13757e-20)
(0.110969 -0.0557125 5.05688e-22)
(0.10537 -0.0446466 -4.50811e-22)
(0.10143 -0.0292969 4.3747e-22)
(0.0992683 -0.0099514 -4.07453e-22)
(0.0995721 0.0130786 7.18633e-22)
(0.102908 0.0398135 0)
(0.1097 0.0693549 -6.48527e-22)
(0.120843 0.10079 6.28497e-22)
(0.136717 0.132616 6.20245e-22)
(0.157809 0.163495 -6.59592e-22)
(0.184831 0.191126 0)
(0.21819 0.21277 0)
(0.257959 0.225445 7.16756e-22)
(0.303871 0.226211 0)
(0.355307 0.212338 -8.30967e-22)
(0.411095 0.181621 0)
(0.469625 0.132791 -6.15104e-20)
(0.528923 0.0657199 1.24796e-19)
(0.587555 -0.0184746 -1.26462e-19)
(0.644339 -0.118014 6.32586e-20)
(0.697506 -0.227112 5.74142e-20)
(0.741146 -0.331396 -5.57469e-20)
(0.766418 -0.412101 -4.19487e-20)
(0.768881 -0.457243 4.04814e-20)
(0.751134 -0.467693 0)
(0.718631 -0.452454 5.85247e-22)
(0.677792 -0.420333 0)
(0.629656 -0.38199 0)
(0.561838 -0.353571 4.36338e-21)
(0.466821 -0.338384 -4.53271e-21)
(0.370037 -0.30868 1.4797e-22)
(0.317877 -0.22648 3.50647e-22)
(0.326322 -0.0894931 -2.41866e-22)
(0.371811 0.0657584 -3.16382e-21)
(0.427422 0.202979 3.07218e-21)
(0.471392 0.311467 -4.02633e-21)
(0.483932 0.399116 3.46445e-21)
(0.4651 0.466645 9.92844e-22)
(0.448605 0.481476 -5.24403e-21)
(0.476553 0.403099 -1.76509e-21)
(0.554439 0.237366 4.38178e-21)
(0.656423 0.0438204 0)
(0.747848 -0.116344 -2.61664e-21)
(0.811449 -0.213588 2.37699e-21)