/*--------------------------------*- C++ -*----------------------------------*\
| =========                 |                                                 |
| \\      /  F ield         | OpenFOAM: The Open Source CFD Toolbox           |
|  \\    /   O peration     | Version:  2512                                  |
|   \\  /    A nd           | Website:  www.openfoam.com                      |
|    \\/     M anipulation  |                                                 |
\*---------------------------------------------------------------------------*/
FoamFile
{
    version     2.0;
    format      ascii;
    arch        "LSB;label=32;scalar=64";
    class       surfaceScalarField;
    location    "161.25";
    object      phi;
}
// * * * * * * * * * * * * * * * * * * * * * * * * * * * * * * * * * * * * * //

dimensions      [0 3 -1 0 0 0 0];

oriented        oriented;

internalField   nonuniform List<scalar> 
26232
(
3.68208e-05
0.000802866
-0.000839687
0.000278192
0.00124196
-0.00148333
0.00088391
0.000725713
-0.00133143
0.00202633
-0.000655264
-0.000487161
0.00388186
-0.0028563
0.00100077
0.00662224
-0.00585531
0.00311493
0.0104034
-0.00963554
0.0058544
0.0153515
-0.0141684
0.00922036
0.0215476
-0.019399
0.0132029
0.0290135
-0.0252369
0.017771
0.0377021
-0.0315553
0.0228667
0.0474945
-0.0381969
0.0284044
0.0582066
-0.0449866
0.0342746
0.0696025
-0.051747
0.0403511
0.0814149
-0.0583141
0.0465016
0.0933677
-0.0645509
0.0525981
0.105199
-0.0703574
0.0585263
0.11668
-0.0756759
0.0641945
0.127634
-0.0804894
0.0695359
0.13794
-0.0848267
0.0745202
0.147539
-0.0887267
0.0791278
0.156434
-0.092318
0.0834227
0.164641
-0.0955613
0.0873546
-0.0988549
0.0914545
0.172041
0.000115954
0.000686912
0.000608497
0.000749413
0.00165139
-0.000317176
0.003429
-0.00243288
0.00612521
-0.00555252
0.00990808
-0.00963818
0.01491
-0.0146375
0.0212063
-0.0204647
0.0287953
-0.026988
0.0375873
-0.034029
0.0474044
-0.0413724
0.0579936
-0.048786
0.0690511
-0.0560441
0.080254
-0.0629498
0.0912928
-0.0693529
0.101902
-0.07516
0.111882
-0.0803374
0.121113
-0.0849066
0.129557
-0.0889337
0.137249
-0.0925188
0.144292
-0.0957698
0.150808
-0.0988341
0.156963
-0.101716
-0.104821
0.162929
0.000195608
0.000491304
0.000951048
-6.02713e-06
0.00245926
-0.00182539
0.00491442
-0.00488804
0.00849661
-0.0091347
0.0133464
-0.0144879
0.0195358
-0.0208269
0.0270426
-0.0279715
0.035736
-0.0356814
0.04538
-0.043673
0.0556559
-0.0516483
0.0662001
-0.0593302
0.0766484
-0.0664925
0.0866795
-0.0729809
0.0960487
-0.0787221
0.104609
-0.0837202
0.112315
-0.0880435
0.119214
-0.0918057
0.125424
-0.0951439
0.131105
-0.0982
0.136435
-0.101099
0.141561
-0.103961
0.146647
-0.106802
-0.109903
0.15173
0.000283259
0.000208044
0.00132522
-0.00104799
0.00333424
-0.00383441
0.00650448
-0.00805828
0.010989
-0.0136192
0.0168637
-0.0203626
0.0240935
-0.0280567
0.0325136
-0.0363916
0.0418359
-0.0450037
0.0516825
-0.0535195
0.0616383
-0.0616041
0.0713101
-0.0690021
0.0803786
-0.0755609
0.0886332
-0.0812355
0.0959853
-0.0860743
0.10246
-0.0901951
0.108172
-0.0937549
0.113287
-0.0969208
0.11799
-0.0998477
0.122455
-0.102664
0.12682
-0.105465
0.131182
-0.108322
0.135618
-0.111238
-0.1144
0.140114
0.000385618
-0.000177574
0.00174447
-0.00240684
0.00428903
-0.00637897
0.00819066
-0.0119599
0.0135397
-0.0189682
0.0203015
-0.0271245
0.0282902
-0.0360454
0.0371753
-0.0452767
0.0465262
-0.0543546
0.0558812
-0.0628745
0.064822
-0.070545
0.0730341
-0.0772142
0.0803398
-0.0828666
0.0867012
-0.0875968
0.0921969
-0.09157
0.0969832
-0.0949815
0.10125
-0.0980218
0.105183
-0.100854
0.108939
-0.103604
0.112634
-0.106359
0.116343
-0.109174
0.120108
-0.112086
0.123962
-0.115092
-0.118311
0.127872
0.000505339
-0.000682913
0.00221073
-0.00411223
0.00530934
-0.00947758
0.00991608
-0.0165667
0.0160141
-0.0250663
0.0234153
-0.0345257
0.0317617
-0.0443917
0.0405771
-0.0540921
0.049354
-0.0631315
0.0576449
-0.0711655
0.0651326
-0.0780327
0.0716609
-0.0837425
0.0772273
-0.0884331
0.0819461
-0.0923156
0.0859979
-0.0956217
0.0895806
-0.0985641
0.0928736
-0.101315
0.0960186
-0.103999
0.0991147
-0.1067
0.102225
-0.109469
0.105384
-0.112334
0.108609
-0.115311
0.111917
-0.1184
-0.121663
0.115269
0.00064086
-0.00132377
0.00271052
-0.00618189
0.00635007
-0.0131171
0.011576
-0.0217926
0.0182214
-0.0317117
0.0259217
-0.042226
0.0341658
-0.0526358
0.0423981
-0.0623244
0.0501311
-0.0708644
0.0570285
-0.0780629
0.0629379
-0.083942
0.0678742
-0.0886788
0.0719715
-0.0925304
0.0754233
-0.0957674
0.0784303
-0.0986287
0.081166
-0.1013
0.0837622
-0.103911
0.0863081
-0.106545
0.088859
-0.109251
0.091446
-0.112055
0.0940846
-0.114973
0.0967802
-0.118007
0.0995379
-0.121158
-0.124451
0.102327
0.000786592
-0.00211036
0.00321727
-0.00861257
0.00734204
-0.0172419
0.0130366
-0.0274871
0.0199566
-0.0386317
0.0275728
-0.0498422
0.0352811
-0.0603441
0.0425388
-0.0695821
0.0489683
-0.0772939
0.0543975
-0.0834922
0.05884
-0.0883845
0.0624366
-0.0922754
0.0653874
-0.0954812
0.0678956
-0.0982756
0.070133
-0.100866
0.0722263
-0.103393
0.07426
-0.105945
0.0762852
-0.10857
0.0783306
-0.111296
0.0804106
-0.114136
0.0825316
-0.117093
0.0846945
-0.12017
0.0869003
-0.123363
-0.126677
0.0891258
0.000934047
-0.00304441
0.00369591
-0.0113744
0.00820465
-0.0217506
0.014163
-0.0334454
0.0210493
-0.0455181
0.0282181
-0.0570109
0.0350568
-0.0671829
0.0411201
-0.0756453
0.0461888
-0.0823627
0.0502535
-0.0875568
0.0534492
-0.0915802
0.0559787
-0.0948048
0.0580492
-0.0975517
0.0598347
-0.100061
0.0614625
-0.102494
0.0630157
-0.104946
0.0645439
-0.107473
0.0660748
-0.110101
0.0676227
-0.112844
0.0691944
-0.115707
0.0707922
-0.118691
0.0724161
-0.121794
0.0740644
-0.125012
-0.128335
0.0757228
0.00107285
-0.00411726
0.00410808
-0.0144097
0.00885998
-0.0265025
0.0148458
-0.0394313
0.0213986
-0.0520708
0.0278295
-0.0634418
0.0335982
-0.0729516
0.0384064
-0.0804535
0.0421953
-0.0861516
0.045079
-0.0904405
0.0472574
-0.0937586
0.0489431
-0.0964905
0.0503168
-0.0989255
0.0515108
-0.101255
0.0526109
-0.103594
0.0536679
-0.106003
0.0547096
-0.108515
0.0557505
-0.111142
0.0567983
-0.113892
0.0578562
-0.116765
0.058925
-0.11976
0.0600039
-0.122873
0.0610901
-0.126098
-0.129422
0.0621764
0.00119244
-0.0053097
0.00441861
-0.0176358
0.00924641
-0.0313303
0.0150203
-0.0452051
0.0209851
-0.0580357
0.0264855
-0.0689422
0.0311083
-0.0775744
0.0347124
-0.0840576
0.0373686
-0.0888078
0.0392642
-0.0923362
0.0406166
-0.0951109
0.041617
-0.0974909
0.0424075
-0.0997159
0.0430805
-0.101928
0.0436906
-0.104204
0.0442673
-0.10658
0.0448261
-0.109073
0.0453751
-0.111691
0.0459186
-0.114435
0.0464583
-0.117305
0.0469944
-0.120296
0.0475254
-0.123404
0.0480475
-0.12662
-0.129932
0.0485579
0.001286
-0.00659571
0.00460323
-0.0209531
0.00932873
-0.0360558
0.0146725
-0.0505489
0.0198618
-0.063225
0.0243362
-0.0734166
0.0278312
-0.0810694
0.0303424
-0.0865688
0.0320268
-0.0904922
0.0331009
-0.0934102
0.0337683
-0.0957784
0.0341857
-0.0979083
0.0344569
-0.0999871
0.0346434
-0.102115
0.0347782
-0.104339
0.0348782
-0.10668
0.0349523
-0.109147
0.0350052
-0.111744
0.0350399
-0.11447
0.0350578
-0.117323
0.0350591
-0.120298
0.0350423
-0.123387
0.0350035
-0.126581
0.0349421
-0.129871
-0.000211058
-0.00259244
0.0028035
-0.000781872
-0.00638066
0.00695148
-0.00167244
-0.00915294
0.0100435
-0.00284018
-0.0110934
0.0122612
-0.0042403
-0.0123886
0.0137887
-0.00583021
-0.0132179
0.0148078
-0.00757283
-0.0137347
0.0154773
-0.00943781
-0.0140521
0.0159171
-0.0114009
-0.0142391
0.0162022
-0.0134418
-0.0143236
0.0163645
-0.0155421
-0.0142993
0.0163996
-0.0176819
-0.0141357
0.0162755
-0.0198387
-0.0137855
0.0159422
-0.0219845
-0.0131917
0.0153376
-0.0240859
-0.0122922
0.0143935
-0.0261023
-0.0110225
0.0130389
-0.0279861
-0.00931882
0.0112027
-0.0296854
-0.00711785
0.0088171
-0.0311348
-0.0043655
0.00581497
-0.0322909
-0.00098117
0.00213721
-0.0330672
0.00289478
-0.00211842
-0.0334382
0.00744296
-0.00707198
-0.0333795
0.012608
-0.0126667
0.0183667
-0.0329557
-0.0187905
-0.000303726
-0.00228872
-0.00107203
-0.00561236
-0.00221435
-0.00801062
-0.00365576
-0.00965204
-0.0053333
-0.010711
-0.00719665
-0.0113546
-0.00920791
-0.0117234
-0.0113397
-0.0119203
-0.013572
-0.0120068
-0.0158887
-0.0120069
-0.0182738
-0.0119143
-0.0207084
-0.011701
-0.0231687
-0.0113252
-0.0256238
-0.0107366
-0.0280348
-0.00988121
-0.0303537
-0.00870359
-0.0325242
-0.00714833
-0.0344783
-0.0051638
-0.0361602
-0.0026836
-0.0374145
0.000273176
-0.0382795
0.00375974
-0.038646
0.00780948
-0.0384671
0.0124291
0.0176611
-0.0377615
-0.00037446
-0.00191426
-0.00128758
-0.00469923
-0.00260532
-0.00669289
-0.00422444
-0.00803291
-0.00606528
-0.00887019
-0.00806885
-0.00935099
-0.0101935
-0.0095988
-0.0124102
-0.00970355
-0.014698
-0.00971903
-0.0170387
-0.00966617
-0.0194132
-0.00953975
-0.0217982
-0.009316
-0.024164
-0.00895942
-0.0264726
-0.00842799
-0.0286769
-0.00767687
-0.0307197
-0.0066608
-0.0325321
-0.00533595
-0.0340349
-0.00366098
-0.0351253
-0.0015932
-0.0357206
0.000868494
-0.0357403
0.00377939
-0.035094
0.00716318
-0.0337006
0.0110358
0.0154705
-0.03151
-0.000420074
-0.00149418
-0.00142144
-0.00369787
-0.00283663
-0.0052777
-0.00453971
-0.00632983
-0.00643641
-0.00697349
-0.00845843
-0.00732897
-0.0105575
-0.00749968
-0.0126992
-0.00756188
-0.0148564
-0.00756184
-0.0170042
-0.0075184
-0.0191154
-0.00742852
-0.0211577
-0.00727371
-0.0230914
-0.00702576
-0.0248681
-0.00665126
-0.0264301
-0.00611489
-0.0277091
-0.00538178
-0.0286258
-0.00441922
-0.0290882
-0.00319859
-0.0289852
-0.00169626
-0.0282198
0.000103105
-0.0266649
0.00222449
-0.0242055
0.00470378
-0.0207508
0.00758107
0.0108571
-0.0161373
-0.000440263
-0.00105392
-0.00147404
-0.00266409
-0.00291219
-0.00383955
-0.00461263
-0.00462939
-0.00646931
-0.00511682
-0.00840468
-0.0053936
-0.0103623
-0.0055421
-0.0122991
-0.00562499
-0.0141793
-0.00568172
-0.0159677
-0.00572992
-0.0176266
-0.0057696
-0.0191122
-0.00578816
-0.0203729
-0.00576501
-0.0213489
-0.00567533
-0.0219709
-0.00549282
-0.0221606
-0.0051921
-0.0218294
-0.00475049
-0.0208781
-0.00414982
-0.0191963
-0.00337813
-0.0166627
-0.00243045
-0.0131347
-0.00130355
-0.00843961
8.71506e-06
-0.00240232
0.00154378
0.00358682
0.00486791
-0.000436112
-0.000617809
-0.00144931
-0.00165089
-0.00284049
-0.00244837
-0.00445816
-0.00301171
-0.00618751
-0.00338746
-0.00794237
-0.00363874
-0.0096571
-0.00382737
-0.0112788
-0.00400326
-0.0127607
-0.00419989
-0.0140562
-0.00443442
-0.0151155
-0.00471031
-0.0158827
-0.00502091
-0.0162948
-0.00535295
-0.0162807
-0.00568939
-0.0157617
-0.0060118
-0.0146515
-0.00630236
-0.0128562
-0.00654578
-0.0102749
-0.00673108
-0.00679946
-0.00685357
-0.00231301
-0.0069169
0.00331764
-0.00693421
0.0102481
-0.00692169
0.0186353
-0.0068435
-0.00689783
0.02912
-0.00040919
-0.000208619
-0.00135162
-0.000708469
-0.00262869
-0.0011713
-0.00408527
-0.00155514
-0.00560023
-0.0018725
-0.00707898
-0.00216
-0.00844556
-0.00246078
-0.00963527
-0.00281355
-0.0105882
-0.00324699
-0.0112442
-0.00377841
-0.0115397
-0.00441485
-0.0114054
-0.00515517
-0.010766
-0.00599236
-0.0095398
-0.00691557
-0.00763966
-0.00791193
-0.00497381
-0.00896822
-0.00144694
-0.0100727
0.00303888
-0.0112169
0.00858354
-0.0123982
0.0152881
-0.0136214
0.0232527
-0.0148988
0.0326215
-0.0162905
0.0433948
-0.0176168
-0.019914
0.056411
-0.000361423
0.000152804
-0.0011855
0.000115606
-0.00228222
-7.45723e-05
-0.00349667
-0.000340693
-0.00470232
-0.000666846
-0.0057951
-0.00106722
-0.00668627
-0.00156961
-0.00729591
-0.00220391
-0.00754735
-0.00299554
-0.00736317
-0.0039626
-0.00666269
-0.00511532
-0.00536116
-0.0064567
-0.00337004
-0.00798349
-0.000598211
-0.0096874
0.00304614
-0.0115563
0.00765375
-0.0135758
0.0133122
-0.0157311
0.0201043
-0.018009
0.028106
-0.0203999
0.0373872
-0.0229027
0.0479916
-0.0255032
0.0600329
-0.0283318
0.0732938
-0.0308777
-0.0352181
0.0885979
-0.000295612
0.000448416
-0.000957964
0.000777958
-0.00180975
0.000777214
-0.00269791
0.00054747
-0.00348971
0.000124956
-0.00406947
-0.000487459
-0.00433204
-0.00130705
-0.00417837
-0.00235758
-0.00351148
-0.00366244
-0.00223403
-0.00524005
-0.000247821
-0.00710153
0.00254513
-0.00924965
0.00624027
-0.0116786
0.0109274
-0.0143745
0.0166873
-0.0173162
0.0235889
-0.0204775
0.0316866
-0.0238288
0.0410185
-0.0273409
0.0516046
-0.0309859
0.0634493
-0.0347474
0.076522
-0.0385759
0.0908348
-0.0426447
0.106149
-0.0461921
-0.0518875
0.122819
-0.000216589
0.000665006
-0.000680585
0.00124195
-0.00122851
0.00132514
-0.00170829
0.00102726
-0.00197981
0.000396468
-0.00191209
-0.00055518
-0.00138162
-0.00183751
-0.000268808
-0.0034704
0.00154303
-0.00547427
0.00416694
-0.00786396
0.00770978
-0.0106444
0.012268
-0.0138079
0.0179229
-0.0173335
0.0247353
-0.0211869
0.0327419
-0.0253229
0.0419527
-0.0296882
0.0523497
-0.0342258
0.0638877
-0.0388789
0.0764964
-0.0435947
0.0900815
-0.0483325
0.104535
-0.0530295
0.1197
-0.0578098
0.135516
-0.0620079
-0.0679396
0.151568
-0.000130673
0.000795678
-0.000370688
0.00148197
-0.000567041
0.00152149
-0.000566404
0.00102662
-0.000218716
4.87795e-05
0.000621988
-0.00139588
0.00209738
-0.0033129
0.00434334
-0.00571636
0.00748722
-0.00861815
0.0116426
-0.0120193
0.0169025
-0.0159043
0.0233321
-0.0202376
0.0309624
-0.0249638
0.0397855
-0.0300099
0.049753
-0.0352904
0.0607779
-0.0407131
0.0727386
-0.0461865
0.085486
-0.0516263
0.0988513
-0.0569599
0.112654
-0.062135
0.126726
-0.0671012
0.140825
-0.0719089
0.155053
-0.0762368
-0.0813515
0.168465
-4.40081e-05
-4.53665e-05
0.000144692
0.000684151
0.0017337
0.00345275
0.00599425
0.00949824
0.014083
0.0198346
0.0267971
0.034964
0.0442748
0.0546159
0.0658271
0.0777121
0.0900518
0.10262
0.115196
0.127581
0.139608
0.151122
0.16224
0.172343
-0.03026
0.0327328
-0.0354284
-0.027147
0.0451501
-0.0482632
-0.0235816
0.0583064
-0.0618718
-0.0195936
0.0715915
-0.0755794
-0.0151883
0.0843356
-0.0887409
-0.010199
0.0956811
-0.10067
-0.00431215
0.104683
-0.11057
0.00302247
0.110094
-0.117428
0.0122236
0.11066
-0.119861
0.0235877
0.105031
-0.116395
0.0369239
0.0921816
-0.105518
0.0515237
0.071874
-0.0864738
0.0664653
0.0444926
-0.0594343
0.0809396
0.0109
-0.0253742
0.0946663
-0.0275811
0.0138544
0.107276
-0.0684591
0.0558497
0.118186
-0.106616
0.095706
0.126574
-0.136434
0.128045
0.131847
-0.155013
0.149739
0.134105
-0.163456
0.161197
0.134052
-0.164879
0.164932
0.132012
-0.162711
0.164751
0.127433
-0.161509
0.166088
0.120246
-0.165335
0.172522
0.11259
-0.171175
0.17883
0.108261
-0.165536
0.169865
0.109871
-0.133118
0.131509
0.117151
-0.0711105
0.0638298
0.127726
0.00639436
-0.0169691
0.138566
0.0803781
-0.0912179
0.14738
0.136691
-0.145505
0.153361
0.171914
-0.177895
0.156566
0.188746
-0.191952
0.1564
0.197964
-0.197797
0.152089
0.211894
-0.207584
0.144741
0.229774
-0.222426
0.137752
0.231157
-0.224168
0.134482
0.187958
-0.184687
0.136161
0.101505
-0.103183
0.141466
-0.00920892
0.00390385
0.148275
-0.103862
0.0970527
0.154091
-0.172432
0.166616
0.156215
-0.207061
0.204937
0.152713
-0.229766
0.233268
0.144953
-0.248342
0.256103
0.137483
-0.239514
0.246983
0.135123
-0.198494
0.200854
0.138736
-0.0853526
0.0817387
0.145561
0.0142376
-0.0210625
0.149976
0.131078
-0.135493
0.148952
0.204767
-0.203744
0.144346
0.263248
-0.258641
0.141064
0.298885
-0.295603
0.141682
0.202034
-0.202653
0.144665
0.148054
-0.151037
0.14558
-0.047913
0.0469981
0.144408
-0.151996
0.153167
0.142663
-0.247495
0.249241
0.140912
-0.363103
0.364854
-0.125181
0.127006
-0.0343414
0.0293126
-0.0300838
0.0408926
-0.0249688
0.0531914
-0.0189104
0.065533
-0.0119031
0.0773283
-0.00383908
0.0876171
0.00565151
0.0951926
0.0165898
0.0991553
0.0290793
0.0981705
0.0429463
0.0911642
0.0576472
0.0774808
0.0724201
0.0571011
0.0864303
0.0304824
0.0992122
-0.00188194
0.110662
-0.0390307
0.120579
-0.078376
0.128461
-0.114498
0.133717
-0.14169
0.13609
-0.157386
0.135872
-0.163237
0.133861
-0.162868
0.130552
-0.159402
0.125308
-0.156265
0.117442
-0.157469
0.108478
-0.162211
0.102414
-0.159472
0.102843
-0.133547
0.110089
-0.0783571
0.121743
-0.00525924
0.134215
0.0679063
0.14493
0.125976
0.152825
0.164018
0.157635
0.183936
0.158661
0.196938
0.155379
0.215176
0.149104
0.236049
0.142936
0.237325
0.139765
0.191129
0.140687
0.100583
0.144612
-0.0131344
0.14977
-0.109019
0.154147
-0.176808
0.155431
-0.208345
0.151506
-0.225841
0.143478
-0.240314
0.135819
-0.231854
0.133666
-0.19634
0.137812
-0.0894986
0.145161
0.00688788
0.14996
0.126279
0.149148
0.205579
0.144753
0.267643
0.141408
0.30223
0.142074
0.201368
0.145294
0.144834
0.146308
-0.0489273
0.145106
-0.150793
0.1432
-0.24559
0.141368
-0.361271
-0.123331
-0.0274316
0.0252342
-0.0221419
0.0356029
-0.0157124
0.0467619
-0.00807092
0.0578915
0.00109086
0.0681665
0.0117775
0.0769305
0.0236219
0.0833482
0.0366593
0.0861178
0.0507008
0.0841289
0.0653194
0.0765457
0.0798753
0.0629248
0.0936361
0.0433403
0.105996
0.0181221
0.116659
-0.0125447
0.125677
-0.0480487
0.13287
-0.0855686
0.137762
-0.11939
0.139982
-0.14391
0.139643
-0.157046
0.137258
-0.160853
0.133614
-0.159224
0.129285
-0.155074
0.123705
-0.150684
0.115672
-0.149435
0.105863
-0.152403
0.0981278
-0.151736
0.0969613
-0.132381
0.103661
-0.0850572
0.115859
-0.0174568
0.129679
0.0540863
0.142184
0.113471
0.151984
0.154218
0.158455
0.177465
0.160848
0.194544
0.158854
0.21717
0.153837
0.241066
0.148491
0.242672
0.145284
0.194336
0.145309
0.100557
0.147774
-0.0155992
0.151235
-0.11248
0.154144
-0.179718
0.154642
-0.208843
0.150447
-0.221646
0.142303
-0.232171
0.134503
-0.224054
0.13247
-0.194308
0.137015
-0.0940439
0.144815
-0.000911568
0.150025
0.121069
0.14948
0.206124
0.145311
0.271813
0.141878
0.305662
0.142567
0.20068
0.146051
0.14135
0.147187
-0.0500629
0.145936
-0.149543
0.143858
-0.243511
0.141953
-0.359366
-0.121476
-0.0115269
0.0206238
-0.00571409
0.0297901
0.00186213
0.0391856
0.011076
0.0486777
0.0215685
0.0576741
0.0332231
0.0652759
0.0460254
0.0705459
0.0597132
0.07243
0.0738769
0.0699652
0.087978
0.0624447
0.101392
0.0495104
0.113522
0.0312104
0.123928
0.00771595
0.132494
-0.0211108
0.139236
-0.0547904
0.143888
-0.0902203
0.145964
-0.121467
0.145332
-0.143278
0.142498
-0.154212
0.138242
-0.156596
0.133269
-0.154251
0.128112
-0.149917
0.122398
-0.144971
0.114697
-0.141734
0.104711
-0.142416
0.0955908
-0.142616
0.0924781
-0.129268
0.0979388
-0.0905179
0.110085
-0.0296033
0.124928
0.0392434
0.13907
0.0993294
0.150729
0.14256
0.158911
0.169283
0.162845
0.19061
0.162377
0.217638
0.158767
0.244677
0.154249
0.247189
0.150907
0.197678
0.149898
0.101567
0.150876
-0.0165778
0.152647
-0.114251
0.154081
-0.181152
0.15382
-0.208582
0.149473
-0.217299
0.141356
-0.224054
0.133469
-0.216167
0.131462
-0.1923
0.136287
-0.098869
0.144482
-0.00910656
0.150149
0.115402
0.149947
0.206327
0.146036
0.275724
0.142501
0.309197
0.143173
0.200008
0.146934
0.137589
0.148205
-0.0513342
0.146894
-0.148232
0.144631
-0.241248
0.142657
-0.357391
-0.11964
0.0104104
0.0150813
0.0170664
0.023134
0.0249861
0.031266
0.0342498
0.0394139
0.0448516
0.0470723
0.0566083
0.0535191
0.0692909
0.0578633
0.0825447
0.0591762
0.095883
0.0566269
0.108749
0.0495791
0.120585
0.0376741
0.130904
0.0208915
0.139593
-0.000973137
0.146372
-0.0278899
0.151136
-0.0595549
0.153404
-0.0924874
0.152776
-0.120839
0.149489
-0.139991
0.144452
-0.149176
0.13866
-0.150804
0.132713
-0.148304
0.126962
-0.144165
0.121231
-0.13924
0.114182
-0.134685
0.104704
-0.132938
0.0947918
-0.132704
0.0896169
-0.124093
0.0931524
-0.0940534
0.104561
-0.0410122
0.119976
0.0238287
0.135509
0.0837967
0.148916
0.129152
0.158832
0.159368
0.164466
0.184976
0.165732
0.216372
0.163683
0.246726
0.160005
0.250867
0.156444
0.201239
0.154355
0.103656
0.153838
-0.0160611
0.153966
-0.114379
0.153934
-0.18112
0.152931
-0.207579
0.148533
-0.212901
0.140569
-0.21609
0.132646
-0.208245
0.130572
-0.190226
0.135562
-0.10386
0.144114
-0.0176576
0.150299
0.109216
0.150537
0.206089
0.146939
0.279321
0.143296
0.312841
0.143907
0.199396
0.147935
0.133562
0.149353
-0.0527525
0.147973
-0.146852
0.145516
-0.238791
0.14347
-0.355346
-0.11784
0.0345793
0.00962201
0.0409744
0.0167389
0.0485641
0.0236763
0.0574969
0.0304811
0.0676559
0.0369134
0.0788213
0.0423536
0.0907103
0.0459744
0.102933
0.0469534
0.114997
0.0445629
0.126383
0.0381935
0.136641
0.0274159
0.145393
0.0121397
0.152606
-0.00818643
0.157937
-0.0332212
0.160949
-0.0625668
0.160989
-0.0925271
0.157867
-0.117717
0.152259
-0.134383
0.145404
-0.142321
0.13842
-0.14382
0.131817
-0.141701
0.125703
-0.138051
0.120003
-0.13354
0.113742
-0.128424
0.105353
-0.12455
0.0954541
-0.122805
0.0885058
-0.117145
0.0896046
-0.0951522
0.0994857
-0.0508933
0.114882
0.00843196
0.131428
0.0672507
0.146386
0.114195
0.15801
0.147744
0.165465
0.17752
0.168646
0.213191
0.168301
0.247071
0.165536
0.253631
0.161751
0.205024
0.158533
0.106875
0.156567
-0.0140954
0.155133
-0.112945
0.153668
-0.179654
0.151933
-0.205844
0.14756
-0.208529
0.139861
-0.20839
0.131952
-0.200336
0.129724
-0.187999
0.134772
-0.108907
0.14365
-0.0265355
0.15043
0.102436
0.151225
0.205294
0.148021
0.282525
0.144278
0.316584
0.144775
0.198899
0.149043
0.129294
0.150615
-0.0543242
0.149164
-0.145401
0.146503
-0.23613
0.144379
-0.353222
-0.116098
0.060426
0.00560696
0.0655124
0.0116525
0.0719007
0.0172879
0.079706
0.0226758
0.0887318
0.0278876
0.0987215
0.032364
0.10937
0.0353259
0.120274
0.0360497
0.130954
0.0338824
0.140935
0.0282125
0.149843
0.0185076
0.157361
0.00462199
0.163332
-0.0141576
0.167291
-0.0371797
0.168525
-0.0638013
0.166389
-0.0903903
0.161017
-0.112345
0.153493
-0.126859
0.145262
-0.13409
0.137441
-0.135999
0.130453
-0.134712
0.124201
-0.131799
0.118566
-0.127906
0.113018
-0.122875
0.106047
-0.117579
0.0970336
-0.113792
0.0890414
-0.109152
0.0875465
-0.0936573
0.0951366
-0.0584833
0.109771
-0.00620274
0.126803
0.0502192
0.143013
0.0979847
0.15625
0.134507
0.165588
0.168182
0.170833
0.207947
0.172347
0.245558
0.170604
0.255374
0.166651
0.208977
0.162321
0.111205
0.158969
-0.0107434
0.156089
-0.110066
0.153248
-0.176813
0.150782
-0.203378
0.146494
-0.20424
0.139157
-0.201053
0.131304
-0.192483
0.128844
-0.185539
0.133845
-0.113909
0.143024
-0.0357144
0.150485
0.0949759
0.151976
0.203803
0.149268
0.285233
0.145452
0.320399
0.145781
0.19857
0.150248
0.124827
0.151975
-0.0560512
0.150454
-0.14388
0.147583
-0.23326
0.145372
-0.351011
-0.114435
0.0899523
0.00425254
0.0926696
0.00893531
0.0969112
0.0130463
0.102661
0.0169266
0.109691
0.0208571
0.117792
0.0242628
0.126664
0.0264544
0.135893
0.0268201
0.145013
0.0247631
0.153552
0.019673
0.161036
0.0110233
0.167553
-0.00189439
0.172086
-0.0186911
0.174413
-0.0395066
0.173663
-0.0630513
0.169385
-0.086112
0.162088
-0.105048
0.153135
-0.117907
0.144009
-0.124965
0.135701
-0.12769
0.128538
-0.127549
0.122322
-0.125583
0.116816
-0.1224
0.111806
-0.117865
0.106238
-0.112011
0.0987807
-0.106335
0.0907611
-0.101133
0.0870684
-0.0899646
0.0919272
-0.0633422
0.104739
-0.0190145
0.121675
0.0332832
0.138726
0.080934
0.153401
0.119831
0.164613
0.15697
0.171985
0.200575
0.175464
0.24208
0.174901
0.255936
0.170934
0.212944
0.165586
0.116553
0.160948
-0.00610563
0.156757
-0.105875
0.152628
-0.172683
0.14943
-0.20018
0.145265
-0.200076
0.138383
-0.194171
0.130627
-0.184727
0.127861
-0.182772
0.132717
-0.118765
0.142167
-0.0451647
0.150398
0.0867447
0.152736
0.201465
0.150655
0.287314
0.146811
0.324243
0.146922
0.198459
0.151533
0.120216
0.153414
-0.0579316
0.15183
-0.142296
0.148741
-0.230171
0.146434
-0.348703
-0.112872
0.121845
0.00522641
0.1223
0.0084804
0.124191
0.0111554
0.12747
0.0136467
0.132017
0.016311
0.137709
0.0185704
0.144278
0.0198851
0.151347
0.0197514
0.158489
0.0176206
0.165251
0.012911
0.171074
0.00520086
0.175791
-0.00661188
0.178582
-0.0214813
0.178893
-0.0398176
0.176001
-0.0601597
0.169766
-0.0798773
0.161006
-0.0962882
0.151171
-0.108072
0.141618
-0.115411
0.133138
-0.11921
0.125958
-0.12037
0.119883
-0.119508
0.114591
-0.117107
0.10997
-0.113244
0.105538
-0.107579
0.0999121
-0.100709
0.0928942
-0.094115
0.087907
-0.0849773
0.0898711
-0.0653063
0.100216
-0.0293594
0.116184
0.0173155
0.133527
0.0635906
0.149356
0.104002
0.162345
0.14398
0.171906
0.191014
0.177499
0.236487
0.178238
0.255197
0.174386
0.216797
0.168195
0.122744
0.162404
-0.00031413
0.157044
-0.100515
0.151743
-0.167381
0.147808
-0.196246
0.143796
-0.196064
0.13747
-0.187844
0.129857
-0.177115
0.126711
-0.179626
0.131329
-0.123382
0.141012
-0.0548479
0.150099
0.0776579
0.153444
0.19812
0.152139
0.288619
0.148331
0.328051
0.14819
0.1986
0.152883
0.115523
0.154912
-0.0599605
0.153273
-0.140658
0.14996
-0.226858
0.147548
-0.346291
-0.11144
0.149548
0.00724671
0.148846
0.00918195
0.149232
0.0107698
0.150611
0.0122677
0.153092
0.0138299
0.156584
0.0150782
0.160851
0.0156185
0.165595
0.0150069
0.170463
0.0127528
0.175066
0.00830779
0.178882
0.00138534
0.18135
-0.00908011
0.181972
-0.0221036
0.18007
-0.0379149
0.175159
-0.0552494
0.1674
-0.0721179
0.157759
-0.0866473
0.14758
-0.0978924
0.137985
-0.105817
0.129571
-0.110796
0.122489
-0.113288
0.116607
-0.113626
0.11161
-0.112111
0.107336
-0.108971
0.103705
-0.103948
0.0997812
-0.0967849
0.094478
-0.0888118
0.0893767
-0.079876
0.0889749
-0.0649045
0.096392
-0.0367765
0.110555
0.00315249
0.127501
0.0466444
0.144086
0.0874172
0.158644
0.129422
0.170279
0.179379
0.177996
0.228771
0.180241
0.252951
0.176788
0.22025
0.170015
0.129517
0.16325
0.00645085
0.156889
-0.0941541
0.150554
-0.161046
0.145881
-0.191573
0.142022
-0.192205
0.136361
-0.182183
0.12896
-0.169714
0.125362
-0.176028
0.129632
-0.127652
0.139496
-0.0647117
0.149513
0.0676401
0.154021
0.193612
0.15366
0.288981
0.149981
0.33173
0.149569
0.199012
0.154274
0.110819
0.156448
-0.0621345
0.154765
-0.138975
0.151224
-0.223317
0.1487
-0.343767
-0.110168
0.166622
0.00908983
0.16581
0.00999372
0.165645
0.0109356
0.166126
0.0117865
0.167474
0.0124818
0.169572
0.0129798
0.172216
0.0129751
0.175171
0.0120521
0.178133
0.00978992
0.180641
0.00579984
0.18239
-0.000363712
0.182848
-0.00953808
0.181451
-0.0207065
0.177697
-0.0341607
0.171348
-0.0489005
0.162778
-0.0635478
0.152938
-0.0768074
0.142938
-0.0878927
0.133637
-0.0965148
0.125477
-0.102637
0.118573
-0.106384
0.112867
-0.10792
0.108144
-0.107388
0.104175
-0.105002
0.101014
-0.100787
0.0983216
-0.0940921
0.0948896
-0.0853798
0.0907042
-0.0756907
0.0889121
-0.0631123
0.0934271
-0.0412916
0.105082
-0.00850192
0.120814
0.0309123
0.137618
0.0706131
0.153553
0.113487
0.167344
0.165588
0.177371
0.218744
0.181163
0.249159
0.178153
0.22326
0.171245
0.136425
0.163505
0.0141909
0.156409
-0.0870586
0.149194
-0.153831
0.143777
-0.186156
0.140006
-0.188434
0.135073
-0.17725
0.127958
-0.162599
0.123856
-0.171927
0.127639
-0.131434
0.137556
-0.0746285
0.148559
0.0566365
0.154397
0.187774
0.155158
0.28822
0.151712
0.335175
0.151043
0.199681
0.155683
0.106179
0.158004
-0.0644547
0.156285
-0.137256
0.152513
-0.219545
0.149882
-0.341136
-0.109094
0.171617
0.00981577
0.1711
0.0105101
0.171027
0.0110091
0.171416
0.0113968
0.17226
0.0116387
0.173571
0.0116683
0.175232
0.0113141
0.177024
0.01026
0.178699
0.00811475
0.180001
0.00449863
0.180504
-0.000867069
0.179392
-0.00842598
0.176653
-0.0179679
0.171884
-0.0293916
0.165068
-0.0420848
0.156646
-0.0551255
0.147408
-0.0675695
0.138174
-0.0786585
0.129553
-0.087894
0.121885
-0.0949685
0.11528
-0.0997785
0.109742
-0.102382
0.105194
-0.10284
0.101425
-0.101233
0.0984471
-0.0978083
0.0963652
-0.0920102
0.0943999
-0.0834145
0.0916159
-0.0729066
0.0894899
-0.0609863
0.0916885
-0.0434901
0.1001
-0.0169134
0.113904
0.0171081
0.12999
0.0545275
0.146422
0.0970545
0.161815
0.150194
0.174174
0.206386
0.179956
0.243377
0.178078
0.225138
0.171383
0.143119
0.163471
0.0221034
0.155567
-0.0791548
0.147723
-0.145986
0.141645
-0.180078
0.137865
-0.184654
0.133652
-0.173037
0.12688
-0.155827
0.122271
-0.167318
0.125482
-0.134645
0.135297
-0.0844435
0.147207
0.0447267
0.154449
0.180531
0.156519
0.28615
0.153482
0.338213
0.152598
0.200565
0.157088
0.101689
0.159554
-0.0669211
0.157806
-0.135508
0.153826
-0.215565
0.151087
-0.338398
-0.108249
0.190867
0.0107539
-0.191805
0.190485
0.0108925
0.19038
0.0111136
0.190575
0.0112015
0.191146
0.0110675
0.192164
0.0106511
0.193674
0.009804
0.195673
0.0082611
0.198062
0.00572564
0.200578
0.00198192
0.203071
-0.00335985
0.205049
-0.0104033
0.206165
-0.0190847
0.205974
-0.0292004
0.204186
-0.0402966
0.20077
-0.0517097
0.195931
-0.0627306
0.189989
-0.0727165
0.183279
-0.0811839
0.176112
-0.0878018
0.168749
-0.0924156
0.161387
-0.0950195
0.154193
-0.0956463
0.147183
-0.0942227
0.140326
-0.0909511
0.133836
-0.0855205
0.1276
-0.077178
0.120658
-0.0659647
0.11289
-0.0532182
0.106701
-0.0373017
0.10527
-0.0154821
0.109029
0.0133488
0.116029
0.0475277
0.12361
0.0894732
0.130574
0.14323
0.137314
0.199646
0.144687
0.236004
0.154225
0.2156
0.164721
0.132623
0.171829
0.0149954
0.173985
-0.08131
0.170313
-0.142315
0.163778
-0.173543
0.157099
-0.177975
0.14974
-0.165678
0.140767
-0.146854
0.132843
-0.159395
0.13035
-0.132152
0.132465
-0.0865589
0.136012
0.0411798
0.137668
0.178876
0.137877
0.285941
0.1383
0.337789
0.141774
0.197091
0.149008
0.0944551
0.152704
-0.0706171
0.150336
-0.13314
0.145327
-0.210556
0.139873
-0.332944
-0.105354
0.203163
0.0109289
-0.203338
0.203267
0.0107888
0.203648
0.0107324
0.204291
0.0105591
0.205214
0.0101444
0.206457
0.0094082
0.208033
0.00822758
0.209884
0.00641045
0.21187
0.00373898
0.213875
-2.23726e-05
0.215601
-0.0050863
0.216734
-0.0115358
0.216966
-0.0193171
0.216015
-0.0282493
0.213701
-0.0379823
0.210004
-0.0480133
0.205057
-0.0577832
0.199094
-0.0667533
0.192401
-0.0744912
0.185275
-0.0806756
0.177982
-0.0851228
0.170705
-0.0877428
0.163589
-0.0885298
0.156701
-0.0873347
0.149976
-0.0842262
0.143521
-0.0790655
0.137538
-0.071195
0.131436
-0.0598623
0.124484
-0.0462666
0.117926
-0.0307434
0.114662
-0.0122186
0.116665
0.0113457
0.122756
0.0414366
0.130591
0.0816389
0.138594
0.135227
0.146698
0.191542
0.155834
0.226869
0.167192
0.204242
0.178583
0.121231
0.186032
0.00754624
0.18737
-0.0826477
0.182667
-0.137612
0.174982
-0.165858
0.167471
-0.170464
0.15985
-0.158057
0.150617
-0.13762
0.142126
-0.150904
0.138938
-0.128964
0.140832
-0.0884532
0.144777
0.0372352
0.147135
0.176518
0.148296
0.28478
0.149405
0.33668
0.153033
0.193463
0.160489
0.0869986
0.16413
-0.0742578
0.161305