/*--------------------------------*- C++ -*----------------------------------*\
| =========                 |                                                 |
| \\      /  F ield         | OpenFOAM: The Open Source CFD Toolbox           |
|  \\    /   O peration     | Version:  2512                                  |
|   \\  /    A nd           | Website:  www.openfoam.com                      |
|    \\/     M anipulation  |                                                 |
\*---------------------------------------------------------------------------*/
FoamFile
{
    version     2.0;
    format      ascii;
    arch        "LSB;label=32;scalar=64";
    class       surfaceScalarField;
    location    "30.25";
    object      phi;
}
// * * * * * * * * * * * * * * * * * * * * * * * * * * * * * * * * * * * * * //

dimensions      [0 3 -1 0 0 0 0];

oriented        oriented;

internalField   nonuniform List<scalar> 
26232
(
3.48987e-05
0.00097612
-0.00101102
0.00030843
0.00195829
-0.00223182
0.000968039
0.00211604
-0.00277565
0.00215196
0.0015
-0.00268392
0.00399768
0.00013975
-0.00198547
0.00664432
-0.00194996
-0.00069668
0.010229
-0.0047614
0.00117673
0.0148794
-0.00828645
0.00363603
0.0207017
-0.0125063
0.006684
0.0277666
-0.017383
0.010318
0.0360956
-0.0228535
0.0145246
0.0456497
-0.028828
0.0192739
0.0563246
-0.0351924
0.0245174
0.0679517
-0.041814
0.0301869
0.0803061
-0.0485508
0.0361964
0.093121
-0.0552613
0.0424465
0.106106
-0.0618144
0.0488293
0.118969
-0.0680992
0.0552364
0.131437
-0.0740284
0.0615606
0.143277
-0.0795593
0.0677188
0.154303
-0.0846405
0.0736147
0.164394
-0.0893719
0.0792809
0.173427
-0.0935453
0.0845119
-0.0977739
0.0901777
0.181024
7.45267e-05
0.000901593
0.000495505
0.00153731
0.00143969
0.00117186
0.00307357
-0.00013388
0.00556006
-0.00234674
0.00905453
-0.00544444
0.0136952
-0.00940207
0.0195869
-0.0141781
0.0267829
-0.0197024
0.0352689
-0.0258689
0.0449518
-0.0325364
0.0556594
-0.0395356
0.0671485
-0.0466815
0.0791239
-0.0537893
0.0912628
-0.0606897
0.103244
-0.0672423
0.114775
-0.0733456
0.125618
-0.0789426
0.135611
-0.0840207
0.144663
-0.0886117
0.152789
-0.0927664
0.160031
-0.0966135
0.166582
-0.100097
-0.103754
0.172562
0.00013364
0.000767953
0.000753836
0.000917117
0.00206391
-0.000138221
0.00425425
-0.00232422
0.00750223
-0.00559472
0.0119598
-0.00990196
0.0177331
-0.0151754
0.0248596
-0.0213047
0.0332889
-0.0281317
0.0428732
-0.0354532
0.0533723
-0.0430356
0.0644737
-0.0506369
0.075823
-0.0580309
0.0870621
-0.0650284
0.0978659
-0.0714934
0.107975
-0.0773512
0.117217
-0.082588
0.12552
-0.0872451
0.132904
-0.0914048
0.139469
-0.0951769
0.145375
-0.0986725
0.150786
-0.102025
0.155924
-0.105234
-0.10869
0.16086
0.000213457
0.000554496
0.0010859
4.46761e-05
0.00284018
-0.0018925
0.00567864
-0.00516268
0.0097719
-0.00968798
0.0152341
-0.0153642
0.0220938
-0.0220351
0.0302707
-0.0294815
0.0395672
-0.0374282
0.0496815
-0.0455675
0.06024
-0.0535941
0.0708432
-0.0612401
0.0811155
-0.0683032
0.0907494
-0.0746622
0.0995362
-0.0802803
0.107381
-0.0851956
0.114296
-0.0895036
0.120385
-0.0933338
0.125807
-0.0968269
0.130746
-0.100115
0.13538
-0.103306
0.139849
-0.106494
0.144293
-0.109678
-0.113107
0.14871
0.000313487
0.00024101
0.00148666
-0.0011285
0.00374929
-0.00415513
0.00729484
-0.00870823
0.0122539
-0.014647
0.0186576
-0.0217679
0.0264078
-0.0297852
0.0352675
-0.0383412
0.0448815
-0.0470422
0.0548233
-0.0555092
0.064657
-0.0634278
0.0739995
-0.0705827
0.0825687
-0.0768724
0.0902092
-0.0823026
0.0968934
-0.0869645
0.102701
-0.0910034
0.107784
-0.0945867
0.112327
-0.0978762
0.116509
-0.101009
0.120482
-0.104089
0.124363
-0.107187
0.128219
-0.11035
0.132114
-0.113574
-0.117013
0.13602
0.00043198
-0.00019097
0.00194487
-0.00264138
0.00475555
-0.00696581
0.00901789
-0.0129706
0.0147795
-0.0204086
0.021941
-0.0289294
0.0302412
-0.0380854
0.0392818
-0.0473819
0.0485891
-0.0563495
0.0576933
-0.0646134
0.0662035
-0.071938
0.0738589
-0.0782381
0.0805474
-0.0835608
0.0862925
-0.0880477
0.0912178
-0.0918899
0.0955011
-0.0952867
0.0993307
-0.0984162
0.102873
-0.101419
0.106259
-0.104395
0.109578
-0.107408
0.112886
-0.110495
0.116215
-0.113679
0.119596
-0.116955
-0.120408
0.122991
0.000565898
-0.000756869
0.00244282
-0.0045183
0.00580703
-0.01033
0.0107336
-0.0178972
0.0171417
-0.0268167
0.0247656
-0.0365534
0.0331776
-0.0464974
0.0418604
-0.0560648
0.0503065
-0.0647956
0.0581074
-0.0724143
0.06501
-0.0788405
0.0709283
-0.0841565
0.0759186
-0.0885511
0.0801304
-0.0922595
0.0837536
-0.0955131
0.0869742
-0.0985073
0.0899472
-0.101389
0.0927866
-0.104258
0.0955685
-0.107177
0.0983391
-0.110178
0.101125
-0.113282
0.103941
-0.116494
0.106799
-0.119813
-0.123278
0.109669
0.000710548
-0.00146742
0.00295583
-0.00676358
0.00683683
-0.014211
0.0123074
-0.0233677
0.0191214
-0.0336307
0.0268399
-0.0442718
0.0349075
-0.0545649
0.0427702
-0.0639275
0.0499851
-0.0720105
0.056286
-0.0787152
0.061593
-0.0841475
0.0659771
-0.0885406
0.0696017
-0.0921757
0.0726631
-0.095321
0.0753456
-0.0981955
0.0777969
-0.100959
0.0801222
-0.103715
0.0823894
-0.106526
0.0846391
-0.109426
0.0868941
-0.112433
0.0891665
-0.115554
0.0914618
-0.118789
0.0937856
-0.122137
-0.125607
0.0961142
0.000859013
-0.00232643
0.00345239
-0.00935696
0.0077676
-0.0185262
0.0135999
-0.0292001
0.0205239
-0.0405547
0.0279569
-0.0517049
0.0352909
-0.0618989
0.0420269
-0.0706635
0.0478598
-0.0778434
0.052692
-0.0835475
0.056593
-0.0880485
0.059731
-0.0916785
0.0623068
-0.0947515
0.0645059
-0.0975201
0.0664743
-0.100164
0.0683135
-0.102798
0.0700876
-0.105489
0.0718338
-0.108272
0.0735726
-0.111165
0.0753151
-0.114176
0.0770666
-0.117306
0.0788297
-0.120552
0.0806053
-0.123913
-0.12738
0.0823782
0.00100222
-0.00332865
0.00389635
-0.0122511
0.00852039
-0.0231503
0.014489
-0.0351687
0.0212137
-0.0472793
0.0280308
-0.058522
0.0343645
-0.0682325
0.0398403
-0.0761394
0.0443162
-0.0823193
0.0478409
-0.0870722
0.0505787
-0.0907862
0.0527338
-0.0938336
0.0544965
-0.0965143
0.056016
-0.0990396
0.0573949
-0.101543
0.0586968
-0.1041
0.059958
-0.10675
0.0611982
-0.109512
0.0624278
-0.112395
0.0636525
-0.115401
0.0648747
-0.118528
0.0660955
-0.121773
0.0673132
-0.125131
-0.128586
0.0685196
0.00113017
-0.00445882
0.00425221
-0.0153731
0.00902729
-0.0279253
0.0148901
-0.0410316
0.0211353
-0.0535245
0.0270953
-0.064482
0.0322956
-0.0734328
0.0365164
-0.0803602
0.0397621
-0.0855649
0.0421804
-0.0894905
0.0439762
-0.092582
0.0453474
-0.0952048
0.0464509
-0.0976178
0.0473952
-0.0999838
0.0482467
-0.102394
0.0490432
-0.104896
0.0498043
-0.107511
0.0505408
-0.110248
0.0512583
-0.113112
0.05196
-0.116102
0.0526473
-0.119215
0.0533198
-0.122446
0.0539743
-0.125785
-0.129219
0.0546068
0.00123582
-0.00569464
0.00449303
-0.0186303
0.0092432
-0.0326755
0.0147684
-0.0465568
0.0203127
-0.0590688
0.0252751
-0.0694444
0.0293209
-0.0774786
0.0323776
-0.0834169
0.0345568
-0.0877442
0.0360565
-0.0909902
0.0370825
-0.0936081
0.0378041
-0.0959264
0.03834
-0.0981537
0.0387638
-0.100408
0.0391163
-0.102747
0.039419
-0.105199
0.0396828
-0.107775
0.0399137
-0.110479
0.0401152
-0.113314
0.0402895
-0.116277
0.0404378
-0.119363
0.0405593
-0.122567
0.040651
-0.125877
0.0407123
-0.12928
-0.000207116
0.000394947
-0.000187831
-0.000723981
0.00100972
-0.00049285
-0.00148548
0.00150938
-0.000747884
-0.00244195
0.00191491
-0.000958436
-0.00355466
0.00224336
-0.00113065
-0.00479374
0.00251106
-0.00127197
-0.00613653
0.00273326
-0.00139047
-0.00756606
0.00292337
-0.00149385
-0.00906974
0.00309233
-0.00158866
-0.0106382
0.00324827
-0.00167983
-0.0122642
0.00339641
-0.00177042
-0.0139418
0.00353927
-0.00186165
-0.0156657
0.00367707
-0.00195313
-0.0174308
0.00380822
-0.00204314
-0.0192317
0.00392984
-0.00212888
-0.0210633
0.00403825
-0.00220672
-0.0229206
0.00412957
-0.00227227
-0.0248002
0.00420021
-0.00232054
-0.0267019
0.00424766
-0.00234595
-0.0286307
0.00427124
-0.00234249
-0.0305993
0.00427249
-0.00230389
-0.0326309
0.00425535
-0.00222369
-0.0347672
0.00422983
-0.00209359
0.00421488
-0.037077
-0.00190511
-0.000187387
0.000582334
-0.000658699
0.00148103
-0.00135594
0.00220662
-0.00223349
0.00279246
-0.00325473
0.00326461
-0.0043905
0.00364682
-0.00561773
0.00396049
-0.00691831
0.00422396
-0.00827798
0.004452
-0.0096853
0.00465559
-0.0111308
0.00484192
-0.0126062
0.00501464
-0.0141035
0.00517442
-0.0156148
0.00531955
-0.0171316
0.00544663
-0.0186446
0.00555125
-0.0201439
0.00562882
-0.0216192
0.00567551
-0.0230611
0.00568957
-0.024463
0.00567316
-0.0258243
0.00563376
-0.0271542
0.00558523
-0.02848
0.00555566
0.00560879
-0.0298739
-0.000158034
0.000740368
-0.000560521
0.00188351
-0.001159
0.0028051
-0.00191302
0.00354647
-0.00278842
0.00414001
-0.00375652
0.00461493
-0.00479329
0.00499727
-0.00587854
0.0053092
-0.00699509
0.00556855
-0.00812806
0.00578857
-0.00926409
0.00597795
-0.0103907
0.0061412
-0.0114954
0.00627917
-0.0125656
0.00638972
-0.0135873
0.0064684
-0.0145453
0.0065092
-0.0154219
0.00650541
-0.016197
0.00645061
-0.0168477
0.00634029
-0.017349
0.00617442
-0.0176766
0.00596134
-0.0178133
0.00572198
-0.0177546
0.00549697
0.00537351
-0.0175193
-0.000122882
0.00086325
-0.000441144
0.00220178
-0.000916428
0.00328038
-0.00151355
0.00414359
-0.00220065
0.00482712
-0.00294921
0.00536348
-0.00373364
0.0057817
-0.00453092
0.00610648
-0.00532003
0.00635766
-0.00608142
0.00654996
-0.00679646
0.00669299
-0.0074469
0.00679164
-0.0080143
0.00684657
-0.00847949
0.00685491
-0.00882193
0.00681084
-0.00901904
0.00670631
-0.00904529
0.00653166
-0.00887119
0.00627651
-0.00846193
0.00593103
-0.00777548
0.00548797
-0.00676201
0.00494788
-0.00536701
0.00432697
-0.00354574
0.0036757
0.00316037
-0.0013326
-8.64459e-05
0.000949696
-0.000314624
0.00242995
-0.000654713
0.00362047
-0.00107568
0.00456455
-0.00154719
0.00529863
-0.00204021
0.0058565
-0.00252703
0.00626851
-0.0029811
0.00656054
-0.00337669
0.00675326
-0.00368853
0.0068618
-0.00389135
0.00689581
-0.0039595
0.00685979
-0.0038665
0.00675357
-0.00358457
0.00657298
-0.00308418
0.00631044
-0.00233345
0.00595558
-0.00129755
0.00549576
6.234e-05
0.00491662
0.00179063
0.00420273
0.00393942
0.00333918
0.00657269
0.00231461
0.0097679
0.00113176
0.0136166
-0.000172948
-0.00148749
0.0182644
-5.3211e-05
0.00100291
-0.000195024
0.00257177
-0.000400559
0.00382601
-0.000640638
0.00480463
-0.000884937
0.00554293
-0.00110284
0.0060744
-0.00126364
0.00642931
-0.00133632
0.00663323
-0.00128949
0.00670643
-0.0010908
0.0066631
-0.000706652
0.00651166
-0.000101829
0.00625497
0.0007609
0.00589084
0.00192115
0.00541272
0.00342127
0.00481033
0.00530655
0.0040703
0.00762554
0.00317676
0.0104302
0.00211198
0.013776
0.000856971
0.0177228
-0.00060766
0.0223377
-0.0023003
0.0277065
-0.00423707
0.0338946
-0.00636104
-0.00884826
0.0412554
-2.67899e-05
0.0010297
-9.36911e-05
0.00263867
-0.000175592
0.00390791
-0.000241809
0.00487085
-0.000259817
0.00556094
-0.000195661
0.00601024
-1.40734e-05
0.00624772
0.000321716
0.00629745
0.000850749
0.00617739
0.00161449
0.00589936
0.00265737
0.00546879
0.00402719
0.00488514
0.00577545
0.00414258
0.00795748
0.0032307
0.0106326
0.0021352
0.0138637
0.000839209
0.0177168
-0.000676311
0.02226
-0.00243123
0.027562
-0.00444508
0.0336908
-0.00673646
0.0407053
-0.00931479
0.0486997
-0.0122315
0.0576122
-0.0152735
-0.0192803
0.0680443
-9.12503e-06
0.00103882
-1.65134e-05
0.00264606
9.31671e-06
0.00388208
0.000104194
0.00477597
0.000306379
0.00535876
0.000655735
0.00566089
0.00119458
0.00570888
0.00196851
0.00552351
0.00302697
0.00511894
0.00442399
0.00450234
0.00621862
0.00367416
0.00847509
0.00262868
0.0112627
0.00135495
0.0146552
-0.000161773
0.0187305
-0.00194015
0.0235682
-0.00399847
0.0292479
-0.00635595
0.0358461
-0.00902951
0.0434331
-0.0120321
0.0520714
-0.0153747
0.0617906
-0.019034
0.0726822
-0.0231231
0.0845213
-0.0271126
-0.0327794
0.0980204
-3.18747e-08
0.00103885
3.77538e-05
0.00260827
0.000157254
0.00376258
0.000404732
0.0045285
0.000827473
0.00493601
0.00147523
0.00501313
0.00240154
0.00478257
0.00366497
0.00426009
0.0053301
0.00345381
0.00746802
0.00236442
0.0101562
0.00098594
0.0134779
-0.000693036
0.0175206
-0.00268769
0.0223736
-0.00501481
0.0281245
-0.00769105
0.0348563
-0.0107302
0.0426418
-0.0141415
0.0515395
-0.0179272
0.0615875
-0.0220801
0.072803
-0.0265902
0.0851569
-0.0313879
0.0986646
-0.0366308
0.113044
-0.0414917
-0.0484838
0.128748
3.79892e-06
0.00103506
7.93963e-05
0.00253267
0.000289599
0.00355237
0.000695467
0.00412263
0.00135858
0.0042729
0.00234364
0.00402806
0.00372069
0.00340553
0.00556655
0.00241422
0.00796563
0.00105473
0.011009
-0.000678938
0.0147927
-0.00279781
0.0194147
-0.00531501
0.02497
-0.00824301
0.0315457
-0.0115905
0.0392144
-0.0153597
0.0480279
-0.0195438
0.058012
-0.0241255
0.0691607
-0.029076
0.0814343
-0.0343537
0.0947556
-0.0399116
0.109015
-0.0456478
0.124061
-0.0516766
0.139727
-0.0571575
-0.0645687
0.155812
7.14966e-06
0.00102791
0.000125729
0.0024141
0.000441888
0.00323622
0.00103658
0.00352793
0.00199101
0.00331847
0.00339047
0.00262861
0.00532672
0.00146927
0.00789834
-0.000157401
0.0112106
-0.00225757
0.0153703
-0.00483864
0.0204813
-0.00790874
0.0266368
-0.0114706
0.0339117
-0.0155178
0.0423532
-0.0200321
0.0519743
-0.0249807
0.0627472
-0.0303167
0.0746007
-0.035979
0.0874202
-0.0418955
0.101051
-0.0479847
0.115306
-0.0541666
0.129993
-0.0603346
0.144834
-0.0665177
0.159838
-0.0721612
-0.0788547
0.174124
1.68874e-05
0.00019916
0.00065973
0.00150374
0.00283675
0.00476868
0.00741468
0.0108933
0.0153197
0.0207991
0.027415
0.0352183
0.0442179
0.0543727
0.0655883
0.0777181
0.0905684
0.103909
0.117485
0.131037
0.144317
0.157081
0.169431
0.180754
-0.0386587
0.00375534
-0.00217362
-0.0403055
0.00317294
-0.00152613
-0.0420052
0.0023645
-0.00066476
-0.0437467
0.00133295
0.000408516
-0.045532
5.04505e-05
0.00173489
-0.047364
-0.00148581
0.00331778
-0.0492227
-0.00330074
0.00515939
-0.0510859
-0.00538263
0.00724584
-0.0529228
-0.00770761
0.00954458
-0.0546918
-0.0102312
0.0120001
-0.0563381
-0.0128832
0.0145295
-0.057792
-0.015564
0.0170179
-0.0589659
-0.0181412
0.0193151
-0.0597529
-0.020448
0.021235
-0.0600276
-0.0222866
0.0225613
-0.0596503
-0.0234387
0.0230615
-0.0584681
-0.0236805
0.0224983
-0.0563268
-0.0228122
0.0206708
-0.0530872
-0.0206882
0.0174486
-0.048626
-0.0172519
0.0127907
-0.0428823
-0.0125927
0.00684907
-0.0359015
-0.00694273
-3.81197e-05
-0.0277069
-0.000725797
-0.00746876
-0.0184376
0.00575024
-0.0150196
-0.00827798
0.0116734
-0.021833
0.00251177
0.0164816
-0.0272713
0.0137202
0.0195215
-0.0307298
0.0251618
0.0205042
-0.0319459
0.0366726
0.0193394
-0.0308502
0.0481176
0.0162854
-0.0277303
0.0593525
0.0117578
-0.0229928
0.0702057
0.00644826
-0.0173015
0.0805347
0.000803084
-0.011132
0.0901568
-0.0043981
-0.00522405
0.0989723
-0.008979
0.000163517
0.106908
-0.0124047
0.00446853
0.113966
-0.0148107
0.00775277
0.120211
-0.0158469
0.00960262
0.125749
-0.0159579
0.0104195
0.130714
-0.0147778
0.00981273
0.135233
-0.0129842
0.00846573
0.139406
-0.0100864
0.00591349
0.143299
-0.00704013
0.00314661
0.146935
-0.00315844
-0.000477337
0.150312
0.00025452
-0.0036317
0.153408
0.00421239
-0.00730851
0.156208
0.00706507
-0.0098653
0.158705
0.0102817
-0.0127786
0.160915
0.0119429
-0.0141522
0.162851
0.0141504
-0.0160867
0.164552
0.0146087
-0.0163096
0.166042
0.0160658
-0.0175562
0.167392
0.0156611
-0.0170111
0.168626
0.016851
-0.0180844
0.169819
0.0161764
-0.0173694
0.170903
0.0177368
-0.0188211
0.171945
0.0173151
-0.0183565
0.172736
0.0195028
-0.0202946
0.173458
0.0195118
-0.020234
0.0222831
-0.0225856
-0.0311479
0.00502937
-0.0325026
0.00452763
-0.0339102
0.00377211
-0.0353759
0.00279866
-0.0369044
0.00157891
-0.0384784
8.81739e-05
-0.040111
-0.00166818
-0.041783
-0.00371062
-0.0434764
-0.00601417
-0.0451638
-0.0085438
-0.0468062
-0.0112408
-0.0483508
-0.0140194
-0.0497275
-0.0167645
-0.0508451
-0.0193304
-0.0515903
-0.0215414
-0.0518271
-0.0232019
-0.0513979
-0.0241097
-0.0501324
-0.0240777
-0.0478597
-0.022961
-0.0444222
-0.0206893
-0.0397041
-0.0173109
-0.0336596
-0.0129872
-0.0262967
-0.00808875
-0.0175326
-0.00301387
-0.00763767
0.00177844
0.00318224
0.00566165
0.0147586
0.00794507
0.0268485
0.00841435
0.0392023
0.00698558
0.0515782
0.00390944
0.0636957
-0.000359662
0.0752535
-0.00510954
0.0860398
-0.00998321
0.0958825
-0.0142408
0.104645
-0.0177418
0.112296
-0.0200557
0.118878
-0.0213923
0.124501
-0.02147
0.129317
-0.020774
0.133503
-0.018964
0.13723
-0.0167113
0.140645
-0.0135013
0.143855
-0.0102495
0.146917
-0.00622049
0.149845
-0.00267415
0.152626
0.00143199
0.155235
0.00445584
0.157646
0.00787043
0.159852
0.0097374
0.161841
0.0121611
0.163629
0.0128208
0.165222
0.0144723
0.166681
0.0142024
0.168022
0.0155096
0.169323
0.014876
0.17051
0.0165498
0.171652
0.0161725
0.172532
0.0186234
0.173339
0.0187048
0.0219197
-0.0183088
0.00581882
-0.0191459
0.00536477
-0.0200664
0.00469259
-0.021039
0.00377122
-0.0220679
0.00260784
-0.0231624
0.00118268
-0.0243102
-0.000520422
-0.0255136
-0.00250718
-0.0267629
-0.0047649
-0.0280418
-0.00726486
-0.0293253
-0.00995733
-0.0305768
-0.0127679
-0.0317452
-0.0155961
-0.032761
-0.0183146
-0.033532
-0.0207703
-0.0339399
-0.022794
-0.0338391
-0.0242105
-0.0330617
-0.0248551
-0.031426
-0.0245966
-0.0287506
-0.0233647
-0.0248797
-0.0211818
-0.0197073
-0.0181595
-0.0131566
-0.0146394
-0.0052463
-0.0109242
0.00400565
-0.00747352
0.0144706
-0.00480325
0.0258676
-0.00345201
0.0379125
-0.00363049
0.050288
-0.00538997
0.0626471
-0.00844963
0.0746651
-0.0123776
0.0860384
-0.0164829
0.0964574
-0.0204022
0.10576
-0.0235433
0.113852
-0.0258338
0.120739
-0.0269423
0.126495
-0.0271488
0.131256
-0.0262313
0.135189
-0.024706
0.13848
-0.0222558
0.141316
-0.0195473
0.143865
-0.0160502
0.14626
-0.0126443
0.148589
-0.00855002
0.150898
-0.00498313
0.153174
-0.000843457
0.155407
0.00222236
0.157557
0.00572038
0.1596
0.00769469
0.161503
0.0102581
0.163259
0.0110651
0.164854
0.0128768
0.166335
0.0127212
0.16771
0.0141349
0.169052
0.013534
0.170286
0.0153159
0.171483
0.0149756
0.172419
0.0176868
0.17329
0.0178346
0.0214947
-0.00126831
0.00575454
-0.001627
0.00572345
-0.00201388
0.00507947
-0.0024265
0.00418384
-0.00289182
0.00307316
-0.00341687
0.00170774
-0.00399593
5.86346e-05
-0.00462824
-0.00187487
-0.00530998
-0.00408316
-0.00603162
-0.00654321
-0.00677545
-0.0092135
-0.00751508
-0.0120283
-0.00821631
-0.0148949
-0.00883434
-0.0176966
-0.00929914
-0.0203055
-0.00951376
-0.0225794
-0.00935485
-0.0243694
-0.00867428
-0.0255357
-0.00730442
-0.0259665
-0.00506844
-0.0256007
-0.00180699
-0.0244433
0.0027032
-0.0226697
0.00846589
-0.0204021
0.0155414
-0.0179997
0.0239137
-0.0158458
0.033483
-0.0143725
0.0440176
-0.0139867
0.0552392
-0.014852
0.0668039
-0.0169547
0.0783221
-0.0199678
0.0894104
-0.0234659
0.0997595
-0.0268321
0.1091
-0.0297422
0.117292
-0.031736
0.12429
-0.0328314
0.130133
-0.0327851
0.134914
-0.0319299
0.138771
-0.0300879
0.141856
-0.0277919
0.144341
-0.0247409
0.146393
-0.0215992
0.148174
-0.0178303
0.14982
-0.0142908
0.15144
-0.0101695
0.153097
-0.00664098
0.154816
-0.00256172
0.156576
0.000461782
0.158356
0.00394071
0.160121
0.00593
0.161825
0.00855361
0.163445
0.00944543
0.16495
0.0113719
0.166371
0.0113002
0.167705
0.0128003
0.169022
0.0122168
0.170247
0.0140918
0.171449
0.0137729
0.172411
0.0167255
0.173319
0.0169259
0.0210095
0.0185158
0.00550311
0.0186608
0.00557849
0.0187207
0.0050196
0.0187762
0.00412834
0.0188023
0.00304705
0.0187836
0.00172644
0.0187301
0.000112068
0.0186411
-0.00178587
0.0185175
-0.0039595
0.0183625
-0.00638823
0.0181844
-0.00903538
0.0179964
-0.0118404
0.0178211
-0.0147195
0.0176973
-0.0175728
0.0176801
-0.0202883
0.0178441
-0.0227434
0.0182867
-0.024812
0.0191278
-0.0263768
0.0205056
-0.0273443
0.0225682
-0.0276634
0.0254685
-0.0273435
0.0293257
-0.026527
0.034291
-0.0253673
0.0404335
-0.0241423
0.0477481
-0.0231604
0.0561359
-0.0227604
0.0653958
-0.0232466
0.0752535
-0.0247097
0.0853716
-0.0270727
0.0953784
-0.0299746
0.104916
-0.0330037
0.1137
-0.0356158
0.121519
-0.0375617
0.128283
-0.0384993
0.133984
-0.0385326
0.138691
-0.0374919
0.142501
-0.0357399
0.145538
-0.0331252
0.147928
-0.0301822
0.149804
-0.0266167
0.151295
-0.0230906
0.152533
-0.0190674
0.153636
-0.0153947
0.154712
-0.0112452
0.155837
-0.00776608
0.157057
-0.00378111
0.158366
-0.000847802
0.159756
0.00255075
0.161199
0.00448734
0.162647
0.00710584
0.164067
0.00802483
0.165419
0.0100201
0.166721
0.00999855
0.16796
0.0115607
0.169201
0.0109759
0.17037
0.0129225
0.171539
0.0126044
0.172498
0.0157661
0.173425
0.0159994
0.0204638
0.0415092
0.00524934
0.0417633
0.00532439
0.0420104
0.00477244
0.0422964
0.00384239
0.0425771
0.00276631
0.0428383
0.00146531
0.043096
-0.000145649
0.0433409
-0.00203076
0.043568
-0.00418663
0.043776
-0.0065962
0.0439688
-0.00922819
0.044157
-0.0120286
0.0443597
-0.0149222
0.0446051
-0.0178183
0.0449333
-0.0206165
0.0453988
-0.0232089
0.0460737
-0.0254868
0.0470485
-0.0273517
0.0484322
-0.0287279
0.0503477
-0.0295789
0.0529306
-0.0299264
0.0562938
-0.0298902
0.0605497
-0.0296232
0.0657562
-0.0293488
0.0719166
-0.0293208
0.0789489
-0.0297926
0.086679
-0.0309767
0.0948582
-0.0328889
0.103182
-0.0353962
0.111324
-0.0381171
0.118989
-0.0406688
0.125955
-0.0425811
0.132079
-0.0436865
0.137323
-0.0437427
0.141713
-0.0429227
0.145331
-0.0411097
0.148268
-0.0386772
0.150626
-0.0354833
0.152498
-0.032054
0.153973
-0.0280926
0.15514
-0.0242567
0.156084
-0.0200116
0.156895
-0.0162056
0.157658
-0.0120082
0.158449
-0.00855748
0.159318
-0.00464988
0.160293
-0.00182303
0.161356
0.00148826
0.162508
0.00333524
0.163704
0.00590939
0.164915
0.0068136
0.166095
0.00884003
0.167255
0.00883923
0.168375
0.0104406
0.169514
0.00983691
0.170604
0.0118318
0.171716
0.0114926
0.17266
0.0148223
0.173593
0.0150658
0.0198526
0.0678485
0.00544513
0.0677924
0.00538042
0.0678432
0.0047217
0.0679905
0.0036951
0.0681747
0.00258208
0.0683855
0.00125449
0.0686405
-0.000400693
0.0689081
-0.00229829
0.0691817
-0.00446028
0.0694568
-0.00687125
0.0697335
-0.00950489
0.0700186
-0.0123137
0.0703252
-0.0152288
0.0706738
-0.0181668
0.0710946
-0.0210373
0.0716292
-0.0237435
0.0723316
-0.0261893
0.0732705
-0.0282906
0.0745302
-0.0299875
0.076208
-0.0312568
0.0784124
-0.0321308
0.0812304
-0.0327082
0.0847389
-0.0331317
0.0889776
-0.0335875
0.0939399
-0.0342831
0.0995488
-0.0354015
0.105651
-0.0370793
0.112033
-0.0392705
0.118439
-0.0418025
0.124614
-0.0442918
0.130341
-0.0463955
0.135476
-0.047716
0.139949
-0.0481595
0.143762
-0.0475564
0.146966
-0.0461261
0.149637
-0.0437812
0.151853
-0.040893
0.153687
-0.0373169
0.1552
-0.0335668
0.156445
-0.0293377
0.15747
-0.0252818
0.158322
-0.0208641
0.159055
-0.0169381
0.159723
-0.0126766
0.160389
-0.00922303
0.161097
-0.00535766
0.161886
-0.00261197
0.162745
0.000629283
0.163694
0.00238548
0.1647
0.00490403
0.165741
0.0057721
0.166775
0.00780627
0.167808
0.00780638
0.168818
0.00943024
0.16986
0.0087953
0.170874
0.0108172
0.171929
0.0104379
0.17286
0.013891
0.173804
0.0141226
0.0191636
0.0970475
0.00641809
0.0963089
0.00611906
0.0957847
0.00524586
0.0953839
0.00409585
0.0950745
0.00289152
0.0948789
0.00145009
0.0947796
-0.000301431
0.0947222
-0.00224085
0.0947065
-0.00444454
0.0947217
-0.00688652
0.0947613
-0.00954448
0.0948268
-0.0123792
0.0949255
-0.0153275
0.0950714
-0.0183128
0.0952882
-0.0212541
0.0956086
-0.0240639
0.0960747
-0.0266554
0.0967391
-0.0289549
0.0976653
-0.0309137
0.0989255
-0.032517
0.100597
-0.0338025
0.102746
-0.0348574
0.10542
-0.0358053
0.108634
-0.0368019
0.112367
-0.038016
0.116541
-0.0395753
0.121021
-0.0415586
0.125627
-0.0438772
0.130167
-0.0463421
0.134461
-0.0485861
0.13838
-0.0503146
0.141858
-0.0511935
0.144882
-0.0511841
0.147484
-0.0501585
0.149716
-0.0483583
0.151641
-0.045706
0.153313
-0.0425645
0.154774
-0.0387784
0.156061
-0.0348532
0.157197
-0.0304736
0.158202
-0.0262871
0.159093
-0.0217551
0.159892
-0.0177375
0.160626
-0.0134101
0.161333
-0.00993021
0.162048
-0.00607243
0.162804
-0.00336797
0.163597
-0.000163916
0.16446
0.00152252
0.165367
0.00399635
0.166314
0.00482588
0.167261
0.00685916
0.168215
0.00685169
0.169156
0.0084896
0.170133
0.00781827
0.171099
0.00985101
0.172119
0.00941815
0.173059
0.0129515
0.174029
0.0131521
0.0183763
0.126884
0.0082823
0.125319
0.00768365
0.124
0.00656524
0.122787
0.00530897
0.121731
0.00394695
0.120841
0.00234018
0.120113
0.00042689
0.11946
-0.00158787
0.118864
-0.00384843
0.118329
-0.00635139
0.117847
-0.00906284
0.117417
-0.0119488
0.117038
-0.0149486
0.116718
-0.0179932
0.116476
-0.0210118
0.116337
-0.0239247
0.116334
-0.0266528
0.116509
-0.0291298
0.116909
-0.0313141
0.117587
-0.0331942
0.118589
-0.0348049
0.119959
-0.0362271
0.121723
-0.0375693
0.123878
-0.0389571
0.126389
-0.0405267
0.129177
-0.0423642
0.132128
-0.0445088
0.135101
-0.0468504
0.137964
-0.0492058
0.140618
-0.0512392
0.143008
-0.0527047
0.145129
-0.0533152
0.147009
-0.0530638
0.148687
-0.0518361
0.150204
-0.0498752
0.151599
-0.0471014
0.152905
-0.0438704
0.154136
-0.0400099
0.155306
-0.0360228
0.156419
-0.0315861
0.157477
-0.0273455
0.158478
-0.0227561
0.159424
-0.0186835
0.160317
-0.0143027
0.161175
-0.0107884
0.162016
-0.00691415
0.16286
-0.00421168
0.16372
-0.0010242
0.164605
0.000637751
0.165518
0.00308358
0.166458
0.00388551
0.167397
0.00592066
0.168342
0.00590671
0.169273
0.00755797
0.170239
0.00685225
0.171205
0.00888566
0.172231
0.00839233
0.173214
0.0119679
0.174243
0.0121229
0.0174621
0.153294
0.0108002
0.151117
0.00986031
0.149041
0.00864147
0.147049
0.00730171
0.145261
0.00573464
0.143634
0.0039672
0.142084
0.00197635
0.140827
-0.00033052
0.139567
-0.00258822
0.138365
-0.00515003
0.137226
-0.00792311
0.136153
-0.0108761
0.135146
-0.0139416
0.13421
-0.0170573
0.13336
-0.020162
0.132617
-0.0231821
0.132009
-0.0260446
0.131569
-0.0286893
0.131333
-0.0310782
0.131338
-0.0331995
0.131615
-0.0350819
0.13218
-0.0367919
0.133042
-0.0384315
0.134185
-0.0401001
0.135567
-0.0419085
0.137116
-0.0439133
0.138739
-0.0461312
0.140338
-0.0484496
0.141839
-0.0507072
0.143205
-0.0526054
0.144441
-0.0539402
0.145577
-0.0544514
0.146656
-0.0541424
0.147711
-0.0528918
0.148768
-0.0509315
0.149839
-0.0481722
0.150938
-0.04497
0.152064
-0.041136
0.15321
-0.0371682
0.154365
-0.0327411
0.155523
-0.028504
0.156671
-0.0239043
0.157801
-0.0198131
0.158898
-0.0153997
0.159966
-0.0118561
0.161006
-0.0079543
0.162027
-0.00523324
0.16304
-0.00203656
0.164042
-0.000364146
0.165053
0.00207245
0.166075
0.00286356
0.167086
0.00490963
0.168096
0.00489624
0.169089
0.00656535
0.170109
0.00583244
0.171132
0.00786176
0.172218
0.007307
0.173293
0.0108931
0.174422
0.0109934
0.0163861
0.171658
0.0132663
0.169335
0.0121826
0.166919
0.0110574
0.164589
0.00963195
0.162408
0.00791602
0.160334
0.00604147
0.158314
0.00399558
0.156305
0.00167906
0.15455
-0.000833428
0.152785
-0.00338515
0.151063
-0.0062015
0.149398
-0.00921053
0.147788
-0.0123314
0.146243
-0.0155125
0.144781
-0.0186996
0.143422
-0.0218234
0.142194
-0.0248168
0.141128
-0.0276236
0.140257
-0.0302067
0.139609
-0.0325511
0.139203
-0.0346765
0.139044
-0.0366328
0.139121
-0.0385084
0.139412
-0.0403913
0.139874
-0.0423705
0.140444
-0.0444831
0.141051
-0.0467383
0.141637
-0.0490355
0.142173
-0.0512435
0.142665
-0.0530973
0.143149
-0.054424
0.14367
-0.0549722
0.144269
-0.0547417
0.14497
-0.0535931
0.145782
-0.0517434
0.1467
-0.0490902
0.147721
-0.0459902
0.148833
-0.0422487
0.150024
-0.0383585
0.151271
-0.0339881
0.152563
-0.0297962
0.15388
-0.0252218
0.15521
-0.0211433
0.15653
-0.0167195
0.157833
-0.0131593
0.159109
-0.00923006
0.16036
-0.00648391
0.161578
-0.00325482
0.162778
-0.00156379
0.163953
0.000897151
0.165131
0.00168553
0.166288
0.00375322
0.167435
0.00374891
0.168558
0.00544231
0.169699
0.00469169
0.170845
0.00671576
0.172049
0.00610277
0.173267
0.00967473
0.174546
0.00971506
0.0151091
0.179182
0.0148388
0.17721
0.0141546
0.175213
0.0130542
0.173182
0.0116633
0.1711
0.00999794
0.169002
0.00813887
0.166894
0.0061042
0.164751
0.0038223
0.162658
0.00125939
0.160639
-0.00136588
0.158572
-0.00413485
0.156501
-0.0071398
0.154447
-0.0102774
0.152436
-0.0135016
0.150494
-0.0167574
0.14865
-0.0199794
0.146937
-0.0231043
0.14539
-0.0260758
0.144038
-0.028855
0.142907
-0.0314197
0.142009
-0.0337793
0.141343
-0.0359663
0.140884
-0.0380495
0.140591
-0.0400986
0.140417
-0.0421959
0.140308
-0.0443748
0.140231
-0.046661
0.14016
-0.0489646
0.140094
-0.0511779
0.140058
-0.0530613
0.140099
-0.0544648
0.140263
-0.0551355
0.140587
-0.055066
0.141088
-0.0540944
0.14177
-0.052425
0.142618
-0.0499386
0.143623
-0.0469947
0.144763
-0.0433888
0.146024
-0.0396195
0.14738
-0.0353447
0.148817
-0.031233
0.150309
-0.026714
0.151842
-0.0226761
0.153387
-0.0182644
0.154932
-0.0147042
0.156458
-0.0107559
0.15796
-0.00798632
0.159426
-0.00472017
0.160861
-0.00299962
0.162258
-0.000499463
0.163648
0.000295898
0.165009
0.00239218
0.166355
0.00240308
0.16767
0.00412663
0.168995
0.00336688
0.170325
0.00538621
0.171707
0.00471995
0.173123
0.00825911
0.174601
0.00823734
0.0135904
0.195676
0.0160829
-0.19692
0.194914
0.014917
0.194103
0.013865
0.193284
0.0124819
0.192464
0.0108186
0.191647
0.00895528
0.190848
0.00690353
0.190035
0.00463546
0.189098
0.00219571
0.188076
-0.000343835
0.187139
-0.00319772
0.18612
-0.00612023
0.18503
-0.00918737
0.18387
-0.0123417
0.182638
-0.0155256
0.181342
-0.0186832
0.179999
-0.0217616
0.178635
-0.0247116
0.177279
-0.0274993
0.175964
-0.0301042
0.174718
-0.0325339
0.173564
-0.0348124
0.17251
-0.0369955
0.171548
-0.0391357
0.170651
-0.0412996
0.169781
-0.0435045
0.168885
-0.0457648
0.167912
-0.0479917
0.166828
-0.0500943
0.165623
-0.0518562
0.164316
-0.0531571
0.162945
-0.0537652
0.161566
-0.0536869
0.160232
-0.0527608
0.158993
-0.0511853
0.157883
-0.048829
0.15693
-0.0460419
0.156153
-0.0426111
0.155559
-0.0390256
0.155146
-0.0349321
0.154906
-0.0309924
0.154822
-0.0266301
0.154876
-0.0227304
0.155044
-0.018432
0.155301
-0.0149615
0.155622
-0.0110769
0.155984
-0.00834845
0.156363
-0.00509919
0.156738
-0.00337413
0.157099
-0.000861042
0.157442
-4.72035e-05
0.157749
0.00208525
0.158024
0.00212827
0.158247
0.00390336
0.158437
0.0031768
0.158593
0.0052308
0.15875
0.00456315
0.158913
0.00809537
0.159105
0.00804536
0.0133572
0.208447
0.0163261
-0.20869
0.208219
0.0151457
0.20808
0.0140031
0.207862
0.0127005
0.207526
0.011154