/*--------------------------------*- C++ -*----------------------------------*\
| =========                 |                                                 |
| \\      /  F ield         | OpenFOAM: The Open Source CFD Toolbox           |
|  \\    /   O peration     | Version:  2512                                  |
|   \\  /    A nd           | Website:  www.openfoam.com                      |
|    \\/     M anipulation  |                                                 |
\*---------------------------------------------------------------------------*/
FoamFile
{
    version     2.0;
    format      ascii;
    arch        "LSB;label=32;scalar=64";
    class       volScalarField;
    location    "142";
    object      p;
}
// * * * * * * * * * * * * * * * * * * * * * * * * * * * * * * * * * * * * * //

dimensions      [0 2 -2 0 0 0 0];

internalField   nonuniform List<scalar> 
13248
(
-0.466275
-0.463154
-0.45944
-0.45546
-0.451631
-0.448403
-0.446067
-0.444703
-0.444174
-0.444139
-0.444091
-0.443417
-0.441482
-0.437712
-0.431667
-0.423097
-0.411955
-0.398383
-0.38265
-0.365114
-0.34601
-0.325734
-0.303333
-0.279694
-0.475315
-0.471617
-0.467323
-0.462754
-0.458284
-0.45431
-0.451045
-0.448471
-0.446353
-0.444276
-0.441713
-0.438107
-0.432965
-0.425924
-0.416795
-0.405572
-0.392399
-0.377526
-0.361244
-0.343837
-0.325533
-0.306539
-0.286718
-0.266896
-0.486477
-0.481916
-0.4769
-0.471687
-0.466534
-0.461733
-0.457374
-0.453315
-0.449232
-0.444687
-0.439221
-0.432436
-0.424062
-0.413987
-0.402252
-0.389018
-0.374515
-0.358997
-0.342697
-0.325825
-0.308523
-0.290977
-0.273083
-0.255341
-0.499798
-0.494111
-0.488227
-0.482274
-0.476314
-0.470482
-0.464715
-0.458754
-0.452238
-0.444801
-0.436152
-0.426129
-0.414714
-0.402011
-0.388209
-0.373531
-0.358198
-0.342405
-0.32631
-0.310043
-0.293709
-0.277437
-0.261189
-0.245441
-0.515162
-0.508141
-0.501257
-0.494432
-0.487453
-0.480261
-0.472645
-0.464282
-0.454873
-0.44423
-0.432313
-0.419215
-0.405126
-0.390283
-0.374918
-0.359237
-0.343397
-0.327518
-0.311685
-0.295966
-0.28042
-0.265111
-0.250027
-0.235445
-0.532342
-0.523853
-0.515861
-0.507993
-0.499687
-0.490679
-0.480662
-0.469359
-0.456658
-0.442641
-0.427538
-0.411656
-0.395305
-0.378755
-0.362209
-0.345804
-0.329626
-0.313723
-0.298124
-0.28285
-0.267924
-0.253368
-0.239184
-0.225537
-0.550977
-0.540968
-0.531779
-0.522641
-0.512589
-0.501188
-0.488155
-0.473413
-0.45715
-0.439756
-0.421691
-0.403383
-0.385168
-0.367271
-0.349822
-0.332881
-0.316464
-0.300564
-0.285167
-0.270259
-0.25583
-0.241872
-0.228388
-0.215422
-0.570542
-0.559037
-0.54856
-0.537846
-0.525511
-0.511065
-0.494425
-0.475866
-0.455947
-0.43533
-0.414616
-0.394252
-0.374517
-0.355553
-0.337401
-0.32005
-0.303458
-0.287577
-0.272359
-0.257765
-0.243758
-0.230315
-0.217429
-0.205046
-0.590297
-0.577388
-0.565511
-0.552821
-0.53759
-0.519456
-0.498743
-0.476189
-0.452712
-0.429158
-0.406159
-0.384093
-0.363138
-0.343334
-0.324641
-0.306985
-0.290282
-0.27445
-0.259416
-0.245116
-0.231496
-0.21852
-0.206159
-0.19429
-0.609271
-0.595097
-0.581662
-0.56652
-0.547774
-0.525432
-0.5004
-0.47391
-0.447153
-0.421043
-0.396138
-0.372699
-0.350783
-0.330333
-0.31124
-0.293381
-0.276636
-0.260898
-0.246069
-0.232069
-0.218828
-0.206298
-0.194418
-0.18304
-0.626285
-0.611004
-0.595794
-0.577685
-0.554876
-0.528003
-0.498647
-0.468475
-0.438829
-0.410572
-0.384129
-0.359616
-0.336973
-0.316059
-0.296708
-0.278758
-0.262058
-0.24648
-0.231908
-0.218243
-0.205406
-0.19333
-0.181914
-0.171032
-0.64007
-0.623864
-0.606642
-0.585058
-0.557734
-0.52615
-0.492592
-0.459065
-0.426933
-0.396925
-0.369289
-0.343992
-0.320863
-0.299687
-0.280249
-0.26235
-0.245818
-0.230502
-0.216272
-0.203018
-0.190649
-0.179084
-0.168191
-0.157911
-0.361187
-0.363211
-0.36452
-0.365619
-0.366952
-0.368656
-0.370761
-0.373248
-0.376068
-0.379148
-0.382395
-0.385693
-0.388896
-0.391822
-0.394208
-0.395882
-0.396572
-0.396019
-0.393983
-0.390274
-0.38478
-0.377479
-0.368473
-0.358082
-0.375116
-0.376507
-0.377594
-0.378786
-0.380458
-0.382744
-0.385675
-0.389229
-0.39335
-0.397959
-0.402952
-0.408193
-0.413509
-0.418668
-0.423377
-0.427324
-0.430143
-0.431428
-0.43078
-0.427834
-0.422299
-0.41396
-0.402679
-0.388813
-0.388905
-0.389529
-0.390283
-0.391462
-0.393349
-0.396075
-0.39967
-0.404106
-0.409321
-0.415225
-0.421698
-0.428583
-0.435669
-0.442687
-0.449299
-0.455067
-0.459526
-0.462145
-0.462373
-0.45968
-0.453619
-0.44383
-0.429976
-0.412166
-0.401912
-0.401702
-0.402029
-0.403061
-0.404988
-0.407939
-0.411946
-0.416976
-0.422956
-0.429782
-0.437315
-0.44537
-0.453696
-0.461969
-0.469814
-0.476741
-0.482128
-0.485352
-0.485741
-0.482641
-0.475482
-0.463806
-0.447231
-0.425679
-0.413603
-0.41258
-0.412409
-0.413144
-0.414897
-0.417801
-0.421901
-0.427163
-0.433503
-0.440801
-0.448896
-0.457576
-0.466558
-0.475482
-0.483903
-0.491159
-0.496691
-0.499761
-0.499607
-0.495494
-0.486794
-0.472998
-0.454041
-0.429
-0.423627
-0.421901
-0.421198
-0.421493
-0.422847
-0.425414
-0.429263
-0.434367
-0.44064
-0.447946
-0.456102
-0.464863
-0.473911
-0.482831
-0.491106
-0.498106
-0.503125
-0.505386
-0.504091
-0.498484
-0.487985
-0.472032
-0.451221
-0.423489
-0.431878
-0.429623
-0.428396
-0.428134
-0.428887
-0.430847
-0.434119
-0.438703
-0.444516
-0.451415
-0.459194
-0.467578
-0.476194
-0.484592
-0.492201
-0.498343
-0.50226
-0.503147
-0.500214
-0.492745
-0.480332
-0.462387
-0.440209
-0.410933
-0.438504
-0.435927
-0.434217
-0.433321
-0.43332
-0.43446
-0.436898
-0.440669
-0.445711
-0.451876
-0.458935
-0.466571
-0.474384
-0.481839
-0.488315
-0.493092
-0.495384
-0.494394
-0.489409
-0.479827
-0.465485
-0.445919
-0.422842
-0.39327
-0.4439
-0.441189
-0.439051
-0.437488
-0.436647
-0.436841
-0.438287
-0.441063
-0.44513
-0.450336
-0.456431
-0.463055
-0.469728
-0.475859
-0.480763
-0.483683
-0.483843
-0.480529
-0.473183
-0.46143
-0.445363
-0.424788
-0.401443
-0.372687
-0.448654
-0.445932
-0.443413
-0.441186
-0.439494
-0.438713
-0.439117
-0.440826
-0.443817
-0.447935
-0.452882
-0.458231
-0.46343
-0.467819
-0.470662
-0.471207
-0.468761
-0.462777
-0.452936
-0.439182
-0.421851
-0.401099
-0.378424
-0.35146
-0.453485
-0.450767
-0.447882
-0.44502
-0.442518
-0.440808
-0.440203
-0.440849
-0.442724
-0.445634
-0.449222
-0.452987
-0.4563
-0.458453
-0.458718
-0.456426
-0.451047
-0.442267
-0.430024
-0.414558
-0.396364
-0.376012
-0.354753
-0.330569
-0.459143
-0.456323
-0.453044
-0.449582
-0.446345
-0.443796
-0.442262
-0.44188
-0.442591
-0.444141
-0.446097
-0.447882
-0.448826
-0.448238
-0.445484
-0.440068
-0.431691
-0.420282
-0.405983
-0.389162
-0.370226
-0.349928
-0.328971
-0.307467
-0.345026
-0.328739
-0.313482
-0.30071
-0.291952
-0.288305
-0.289604
-0.294842
-0.301695
-0.306937
-0.306121
-0.29788
-0.278423
-0.248733
-0.212814
-0.176721
-0.146106
-0.124348
-0.112195
-0.108719
-0.113212
-0.126446
-0.148649
-0.17515
-0.195322
-0.197946
-0.181021
-0.151822
-0.120997
-0.0958529
-0.0791595
-0.0704611
-0.0681875
-0.0727619
-0.0857357
-0.103823
-0.116804
-0.115132
-0.100677
-0.0824702
-0.0680719
-0.0594367
-0.0563156
-0.0609637
-0.0713244
-0.0787693
-0.0766609
-0.0666002
-0.0553357
-0.046332
-0.0398238
-0.0381814
-0.0368898
-0.0353829
-0.0337311
-0.0296838
-0.0211805
-0.0158818
-0.0109534
-0.00496764
-0.371711
-0.348064
-0.324071
-0.301285
-0.28176
-0.267599
-0.258965
-0.255793
-0.256251
-0.259017
-0.258394
-0.251168
-0.236138
-0.212826
-0.184373
-0.155793
-0.131984
-0.116015
-0.108626
-0.109162
-0.117528
-0.134971
-0.161393
-0.191162
-0.212593
-0.213987
-0.194071
-0.161183
-0.126924
-0.0988814
-0.0796188
-0.0685451
-0.0639827
-0.0659185
-0.075789
-0.0911766
-0.10295
-0.10227
-0.0904864
-0.0756044
-0.0643765
-0.058486
-0.0579382
-0.0652428
-0.0782378
-0.0870601
-0.0845335
-0.0722828
-0.0584687
-0.0472962
-0.0387246
-0.0354354
-0.0324279
-0.0308822
-0.0294255
-0.0265942
-0.0199497
-0.0159358
-0.0124913
-0.00603155
-0.392335
-0.361984
-0.330191
-0.298228
-0.268463
-0.245394
-0.226626
-0.214071
-0.207594
-0.204482
-0.204946
-0.200104
-0.18856
-0.172052
-0.151451
-0.13074
-0.114058
-0.104075
-0.101485
-0.105961
-0.118038
-0.139302
-0.169315
-0.201738
-0.224329
-0.225262
-0.203337
-0.16778
-0.130918
-0.100603
-0.0792213
-0.0660594
-0.059397
-0.0588432
-0.0656468
-0.0782743
-0.0887875
-0.0890348
-0.0798563
-0.0682093
-0.060078
-0.0569415
-0.0590274
-0.0689922
-0.0845896
-0.0948164
-0.0919895
-0.0776237
-0.0612632
-0.0480193
-0.037567
-0.0328199
-0.0281849
-0.026495
-0.0250874
-0.0234409
-0.0186737
-0.0159582
-0.0140167
-0.00710464
-0.403009
-0.368586
-0.33031
-0.290658
-0.250266
-0.225075
-0.195453
-0.173185
-0.158814
-0.151078
-0.147527
-0.145544
-0.137545
-0.128358
-0.115486
-0.102461
-0.0926991
-0.0884386
-0.0902772
-0.0983114
-0.113677
-0.138241
-0.171335
-0.206118
-0.230068
-0.231322
-0.208509
-0.171418
-0.132905
-0.101052
-0.0780976
-0.0632247
-0.0547219
-0.0519025
-0.055799
-0.0656791
-0.0748403
-0.0759382
-0.069084
-0.0604653
-0.0552598
-0.0547809
-0.0594371
-0.0719637
-0.0900936
-0.101782
-0.0988376
-0.0825227
-0.0636847
-0.0484927
-0.0363571
-0.0303521
-0.024199
-0.0222672
-0.0207675
-0.0202558
-0.0173662
-0.0159459
-0.0155154
-0.00817722
-0.40404
-0.366867
-0.325154
-0.281744
-0.238733
-0.200804
-0.165787
-0.135989
-0.113052
-0.101696
-0.094599
-0.0923424
-0.0899324
-0.0839341
-0.0776636
-0.0716016
-0.0681313
-0.0689533
-0.0746738
-0.0858649
-0.104158
-0.131597
-0.167354
-0.204261
-0.229694
-0.231989
-0.209522
-0.172151
-0.133039
-0.100398
-0.0764095
-0.0602327
-0.050199
-0.0454127
-0.0466216
-0.0538185
-0.0615572
-0.0638221
-0.058443
-0.0525381
-0.0499857
-0.0519641
-0.0590291
-0.0739513
-0.0945004
-0.107698
-0.104863
-0.086878
-0.0657116
-0.0487221
-0.0351007
-0.028036
-0.0204977
-0.0182409
-0.016517
-0.0170715
-0.0160397
-0.0158959
-0.0169701
-0.00923771
-0.396477
-0.358277
-0.316194
-0.271758
-0.226592
-0.183406
-0.143411
-0.108311
-0.0803473
-0.0610822
-0.0490726
-0.0435936
-0.0415783
-0.03981
-0.0391926
-0.0389229
-0.0407807
-0.0459117
-0.0550636
-0.0691648
-0.0901488
-0.120072
-0.157957
-0.196654
-0.22365
-0.227545
-0.206489
-0.170098
-0.131482
-0.0988127
-0.0743054
-0.0572167
-0.0459708
-0.0395617
-0.0384048
-0.0430439
-0.0492465
-0.0516405
-0.0481348
-0.0445947
-0.044329
-0.0484881
-0.0577292
-0.0748047
-0.0976046
-0.112326
-0.109906
-0.0906017
-0.0673277
-0.0487131
-0.0337985
-0.0258619
-0.0170981
-0.0144496
-0.012384
-0.013916
-0.0147045
-0.0158041
-0.0183611
-0.0102743
-0.382384
-0.344699
-0.305008
-0.262432
-0.217712
-0.173337
-0.131197
-0.0928813
-0.0602894
-0.0348379
-0.016899
-0.0062481
-0.00164755
-0.00126395
-0.0026907
-0.00615933
-0.0118886
-0.0204987
-0.0326752
-0.0494972
-0.0729534
-0.104928
-0.144312
-0.184264
-0.212768
-0.218653
-0.199826
-0.165531
-0.128436
-0.0964633
-0.0719159
-0.054269
-0.0421119
-0.0344064
-0.0312667
-0.033559
-0.0381978
-0.0405305
-0.0384526
-0.036818
-0.0384128
-0.0444089
-0.0555097
-0.0744296
-0.0992574
-0.115503
-0.113858
-0.0936101
-0.0685157
-0.0484715
-0.032452
-0.0238088
-0.0139992
-0.0109164
-0.00841241
-0.0108109
-0.0133692
-0.0156655
-0.0196691
-0.011276
-0.363931
-0.328035
-0.292704
-0.25422
-0.212389
-0.169761
-0.128224
-0.0890801
-0.0538359
-0.0239456
-0.000400189
0.0162164
0.0259041
0.0294313
0.0283855
0.0237803
0.0160606
0.00513214
-0.00945595
-0.0286687
-0.0542501
-0.087725
-0.127897
-0.168454
-0.198144
-0.206048
-0.190042
-0.158763
-0.124074
-0.0934577
-0.0693154
-0.0514358
-0.03865
-0.0299595
-0.0252174
-0.0254412
-0.0285665
-0.0306932
-0.0296242
-0.0293965
-0.0323908
-0.0398177
-0.0524115
-0.0728047
-0.0993881
-0.117146
-0.116651
-0.0958303
-0.0692663
-0.0480102
-0.031071
-0.0218704
-0.0111914
-0.00765015
-0.00464061
-0.00777124
-0.0120419
-0.0154757
-0.0208765
-0.012233
-0.343409
-0.310491
-0.280461
-0.246985
-0.209418
-0.170387
-0.131457
-0.0935561
-0.0579089
-0.0258644
0.00148509
0.023279
0.0387652
0.047595
0.0500151
0.0471468
0.0397958
0.0282244
0.0123025
-0.00858475
-0.0356629
-0.0699402
-0.110144
-0.150546
-0.180805
-0.190526
-0.177774
-0.150254
-0.118699
-0.0900142
-0.0666846
-0.0488645
-0.0356978
-0.026291
-0.0202965
-0.0187504
-0.0204299
-0.0222082
-0.0217912
-0.0224943
-0.0264422
-0.0348353
-0.0484617
-0.0699649
-0.0980323
-0.117233
-0.118296
-0.097233
-0.0696219
-0.0473884
-0.0296863
-0.0200682
-0.00869882
-0.00465536
-0.00109804
-0.00480492
-0.0107303
-0.01523
-0.0219683
-0.0131358
-0.32329
-0.294458
-0.269604
-0.240733
-0.207658
-0.172968
-0.137641
-0.102285
-0.0677985
-0.0354409
-0.00640557
0.0183626
0.0380643
0.0519304
0.0597787
0.0608771
0.0562793
0.0460384
0.0302707
0.00887501
-0.0186514
-0.0526987
-0.0919914
-0.131424
-0.161678
-0.172953
-0.163916
-0.140783
-0.112964
-0.0866898
-0.0645064
-0.0469511
-0.0335509
-0.0235968
-0.0165938
-0.0135269
-0.0138429
-0.0151489
-0.0150655
-0.0162498
-0.0206947
-0.0296011
-0.0438786
-0.0660541
-0.0952063
-0.115775
-0.11896
-0.0977944
-0.0696656
-0.04671
-0.0283452
-0.0183933
-0.00656778
-0.00197537
0.0021794
-0.00191187
-0.00944329
-0.0149229
-0.0229289
-0.0139733
-0.305583
-0.282177
-0.261704
-0.236385
-0.207466
-0.177117
-0.145598
-0.113255
-0.0807178
-0.049041
-0.0192584
0.00765008
0.0305731
0.0484677
0.0604706
0.064958
0.0644271
0.0574215
0.0436027
0.0230879
-0.00386698
-0.0369594
-0.0747419
-0.112338
-0.141645
-0.154196
-0.148635
-0.130301
-0.106782
-0.0833629
-0.062639
-0.0455282
-0.0320014
-0.0216486
-0.0138459
-0.00945703
-0.00852114
-0.00941391
-0.00952147
-0.0108909
-0.0154161
-0.0241824
-0.0385229
-0.061119
-0.0912832
-0.112862
-0.119161
-0.0972191
-0.0692317
-0.0458667
-0.0269778
-0.0167033
-0.0046597
0.000373707
0.00508914
0.000916146
-0.00818277
-0.0145524
-0.0237448
-0.0147294
-0.289078
-0.273306
-0.256044
-0.233284
-0.20837
-0.182395
-0.154774
-0.125692
-0.0959225
-0.0663838
-0.0379122
-0.0112682
0.0128164
0.034248
0.0498269
0.0601115
0.0632226
0.0600958
0.0500212
0.0325848
0.008339
-0.0218803
-0.0563256
-0.090826
-0.118251
-0.131429
-0.129293
-0.116098
-0.0972054
-0.0770232
-0.0582894
-0.0421979
-0.0290536
-0.018791
-0.0107175
-0.00546887
-0.00349453
-0.00408837
-0.00460021
-0.00615549
-0.0107429
-0.0191578
-0.0331765
-0.0555231
-0.0858957
-0.108277
-0.116097
-0.0948654
-0.0676122
-0.0442009
-0.0251898
-0.0147574
-0.00253996
0.00270469
0.00777872
0.00363489
-0.00697755
-0.0141091
-0.0243944
-0.0153992
-0.263466
-0.261727
-0.244013
-0.220629
-0.196855
-0.172814
-0.147498
-0.120778
-0.0932453
-0.0656961
-0.0389078
-0.0135581
0.00987663
0.0311182
0.0460761
0.0564538
0.0615616
0.0608101
0.0529027
0.0372357
0.0143895
-0.0145925
-0.0479834
-0.0812527
-0.10834
-0.118541
-0.115759
-0.103507
-0.0864312
-0.0683027
-0.0514004
-0.0366961
-0.0244561
-0.0147309
-0.00687563
-0.00139816
0.00127201
0.00121146
0.00083812
-0.000119728
-0.00439952
-0.0119972
-0.0257537
-0.0486744
-0.0808601
-0.10523
-0.117038
-0.09266
-0.0651697
-0.0417041
-0.0229566
-0.0127431
-0.000245906
0.00520021
0.0110164
0.00651282
-0.00575575
-0.0136026
-0.0249235
-0.0160081
-0.239056
-0.240943
-0.224883
-0.202469
-0.180323
-0.158782
-0.136441
-0.112762
-0.0881915
-0.063493
-0.0393781
-0.0164734
0.00461099
0.0226006
0.0380727
0.0487166
0.0544206
0.0545222
0.0479851
0.034259
0.0137995
-0.0122962
-0.0420127
-0.0706997
-0.0903753
-0.101032
-0.0988763
-0.0887205
-0.0745269
-0.0592111
-0.0446
-0.0315403
-0.0203544
-0.011292
-0.0037935
0.00171765
0.00473006
0.00489131
0.00445189
0.00331315
-8.18996e-05
-0.00678009
-0.0198458
-0.0427346
-0.0757218
-0.100271
-0.101937
-0.0882962
-0.0616455
-0.0388155
-0.0205788
-0.0105946
0.00180436
0.00710776
0.0134906
0.00872303
-0.00475654
-0.0131737
-0.0251995
-0.0163883
-0.217225
-0.21941
-0.205949
-0.185933
-0.165891
-0.146689
-0.127015
-0.106124
-0.0842971
-0.0622415
-0.0406392
-0.0200726
-0.00107598
0.0156007
0.0296013
0.0396299
0.0451374
0.0455389
0.0400586
0.0283048
0.0107441
-0.0113854
-0.0359147
-0.0589275
-0.0753237
-0.0838185
-0.0827325
-0.075083
-0.0637454
-0.0509744
-0.038362
-0.0267611
-0.0165319
-0.00806883
-0.000950372
0.00446901
0.00771331
0.00811994
0.00772727
0.00655579
0.00349137
-0.00281622
-0.0154958
-0.0379807
-0.0701237
-0.0936953
-0.0970106
-0.0831088
-0.0575989
-0.0356513
-0.01806
-0.00837504
0.00379818
0.00890759
0.0156794
0.0105358
-0.0039183
-0.0127508
-0.0251901
-0.0165851
-0.196261
-0.198864
-0.18802
-0.170686
-0.152802
-0.135681
-0.118347
-0.100006
-0.080766
-0.0612245
-0.0420099
-0.0236391
-0.00659725
0.00849989
0.0210942
0.0303518
0.0356726
0.0365266
0.0323359
0.022864
0.00859159
-0.00928015
-0.028898
-0.047337
-0.0610169
-0.068226
-0.0681825
-0.0626332
-0.0536969
-0.0431562
-0.0323712
-0.0221657
-0.0128942
-0.00504221
0.00165898
0.00690024
0.0103017
0.0110239
0.0108158
0.00978461
0.00700038
0.00099026
-0.0113177
-0.0328179
-0.0633411
-0.0861169
-0.0907015
-0.076999
-0.0529595
-0.0321705
-0.0154045
-0.00607474
0.00574329
0.0106188
0.0176609
0.0121799
-0.00310002
-0.0122222
-0.0248919
-0.0165983
-0.176602
-0.179868
-0.171173
-0.156289
-0.140527
-0.125385
-0.110195
-0.0942052
-0.0773876
-0.0602149
-0.04325
-0.0269743
-0.0118403
0.00165483
0.0129743
0.0215031
0.0266999
0.0281032
0.0252936
0.0181358
0.00703534
-0.00701569
-0.0225079
-0.0371804
-0.0484482
-0.0546775
-0.0553448
-0.0514704
-0.0445562
-0.0359553
-0.0267921
-0.0178621
-0.00950838
-0.00225392
0.00402889
0.009036
0.0125152
0.0135541
0.0136232
0.0128746
0.0104885
0.00499915
-0.00653633
-0.0265883
-0.0555078
-0.0775645
-0.0828437
-0.0699475
-0.0477478
-0.0284148
-0.01264
-0.00372106
0.00764101
0.0122054
0.0193903
0.0137122
-0.0022308
-0.0115486
-0.0242736
-0.0163903
-0.158976
-0.162377
-0.155338
-0.142658
-0.128959
-0.115727
-0.102523
-0.0886818
-0.0740976
-0.0591309
-0.0442739
-0.0299708
-0.0166394
-0.00463136
0.00553072
0.0133672
0.0184199
0.0203074
0.0187269
0.0136013
0.00525272
-0.00551954
-0.0174878
-0.0289081
-0.0379901
-0.0433021
-0.044379
-0.0417481
-0.0364252
-0.0294264
-0.0216608
-0.0138749
-0.00639207
0.000275437
0.00615113
0.0108918
0.0143733
0.0157036
0.0161397
0.0157973
0.013921
0.00921285
-0.00118879
-0.0196162
-0.0468378
-0.0679822
-0.0736623
-0.0620358
-0.0420299
-0.0244299
-0.009798
-0.00134293
0.00948648
0.0136553
0.0208208
0.0150951
-0.00129088
-0.010703
-0.0232659
-0.0159147
-0.142837
-0.146123
-0.140508
-0.129838
-0.118079
-0.106649
-0.095269
-0.083376
-0.0708258
-0.0578858
-0.0449722
-0.0324774
-0.0207444
-0.0101775
-0.00110475
0.00605443
0.010918
0.013177
0.012611
0.00918598
0.00316613
-0.00482381
-0.0138325
-0.0225175
-0.0296451
-0.0340422
-0.0352332
-0.0334283
-0.0292982
-0.0235935
-0.0170179
-0.010242
-0.00356901
0.00252617
0.00801325
0.0124853
0.0159129
0.0174996
0.0183528
0.0185284
0.0172644
0.0134962
0.00439662
-0.0122302
-0.0374516
-0.0575284
-0.0634676
-0.0534309
-0.035907
-0.0202756
-0.00691687
0.00102937
0.0112758
0.0149738
0.0219158
0.0162878
-0.000235115
-0.00962086
-0.021795
-0.0151272
-0.127789
-0.131113
-0.126758
-0.117861
-0.107862
-0.0980838
-0.0883628
-0.0782223
-0.0675053
-0.0564055
-0.0452677
-0.0344368
-0.0242175
-0.0149271
-0.0068608
-0.000351674
0.00429163
0.0068226
0.00708071
0.00505617
0.000955558
-0.00474426
-0.0113268
-0.0178441
-0.0231961
-0.0266519
-0.0277166
-0.0264111
-0.0231476
-0.0184642
-0.0128849
-0.00698682
-0.00105114
0.00449235
0.00960528
0.0138302
0.0171735
0.0189729
0.0202344
0.0210057
0.0204793
0.0177572
0.0100817
-0.00458079
-0.0276353
-0.0465521
-0.0526443
-0.044382
-0.0295246
-0.0160238
-0.00403828
0.00336716
0.0130042
0.0161839
0.0226615
0.0172977
0.00103309
-0.00821273
-0.0198013
-0.01399
-0.114081
-0.117391
-0.114051
-0.106679
-0.0982505
-0.0899675
-0.0817408
-0.0731684
-0.0640911
-0.0546469
-0.0451183
-0.0357999
-0.0269468
-0.0188247
-0.0116838
-0.00578924
-0.00138814
0.00132444
0.00222731
0.00131938
-0.00124363
-0.00509978
-0.00969514
-0.0143632
-0.0182674
-0.0208267
-0.0216218
-0.0205765
-0.0179185
-0.014022
-0.00926447
-0.00412189
0.00115454
0.00617758
0.0109234
0.014927
0.0181824
0.02016
0.0217777
0.023127
0.0235032
0.0219794
0.0158309
0.00304969
-0.0178947
-0.0355184
-0.0416339
-0.0352043
-0.0230654
-0.011757
-0.00120429
0.00564387
0.014662
0.0173331
0.0230886
0.0181958
0.00264179
-0.00638394
-0.0172495
-0.012483
-0.101724
-0.104806
-0.102273
-0.0962363
-0.0892094
-0.0822655
-0.0753703
-0.0681884
-0.0605656
-0.052595
-0.0445073
-0.0365458
-0.0289187
-0.0218553
-0.0155604
-0.0102462
-0.00610836
-0.00330198
-0.00192097
-0.00196519
-0.00331774
-0.00570284
-0.00868648
-0.011852
-0.0145401
-0.0162844
-0.0167392
-0.015788
-0.0135366
-0.0102351
-0.00614629
-0.00164804
0.00304633
0.00759031
0.0119745
0.0157709
0.0189485
0.0210852
0.0230064
0.0250896
0.0261947
0.0259696
0.0213222
0.0101315
-0.0087834
-0.0248836
-0.0308884
-0.0262476
-0.0167381
-0.00756729
0.00154437
0.00783534
0.0162339
0.0184899
0.0232848
0.0191078
0.00472186
-0.00405291
-0.0141516
-0.0106201
-0.0903686
-0.0932937
-0.0914377
-0.0865376
-0.0807267
-0.0749555
-0.0692302
-0.0632706
-0.0569266
-0.0502511
-0.0434515
-0.0366599
-0.0301406
-0.0240357
-0.0185161
-0.0137505
-0.00989445
-0.00707136
-0.00535578
-0.0047502
-0.00516847
-0.00641024
-0.00818595
-0.0100923
-0.0117557
-0.0127772
-0.0128709
-0.0119083
-0.00991865
-0.00705985
-0.00350854
0.000445044
0.00462893
0.00874025
0.0127734
0.0163635
0.019467
0.0217442
0.0238913
0.0263171
0.0282615
0.0291815
0.0258382
0.0160527
-0.000701896
-0.0150112
-0.0208268
-0.0178583
-0.0107569
-0.00355381
0.0041665
0.00991686
0.0176972
0.0197198
0.0234046
0.020196
0.00736946
-0.00118743
-0.0105954
-0.00846744
-0.0799743
-0.0827705
-0.0815057
-0.0775675
-0.0727833
-0.0680192
-0.0633059
-0.0584101
-0.0532021
-0.0476129
-0.0418745
-0.0361938
-0.0306588
-0.0254152
-0.0206023
-0.0163534
-0.012792
-0.0100167
-0.00808895
-0.00701325
-0.0067279
-0.00708824
-0.00789767
-0.0088568
-0.0096877
-0.0100907
-0.00983841
-0.0088052
-0.00697612
-0.0044432
-0.00132049
0.00217637
0.00591406
0.00963776
0.0133376
0.0167172
0.0197326
0.0221216
0.0244296
0.0270463
0.0294795
0.0310731
0.0287253
0.0203985
0.00610903
-0.00622878
-0.0118268
-0.0103436
-0.00531196
0.000186098
0.00661848
0.0118563
0.0190214
0.0210478
0.0236182
0.021613
0.0105796
0.00214267
-0.00676242
-0.00615262
-0.0705835
-0.0731943
-0.0723656
-0.0692325
-0.065342
-0.0614475
-0.0575926
-0.0535699
-0.0492363
-0.0447037
-0.0399805
-0.0352205
-0.0305447
-0.0260653
-0.0218905
-0.0181249
-0.0148657
-0.0121912
-0.0101529
-0.00875976
-0.00796915
-0.00767858
-0.00774868
-0.00797892
-0.00815153
-0.0080452
-0.00748398
-0.00635426
-0.00461945
-0.00232611
0.000455688
0.0035712
0.00691978
0.0102963
0.0136835
0.01685
0.0197532
0.0222016
0.0245952
0.0272424
0.0297673
0.03151
0.0298676
0.0230925
0.0114419
0.00110691
-0.00420311
-0.00391561
-0.000537108
0.00357124
0.00885787
0.0136107
0.0201631
0.0224204
0.024122
0.0234233
0.0141746
0.00571455
-0.00292818
-0.00385358
-0.0620707
-0.0644607
-0.0639719
-0.0615146
-0.0583842
-0.0552345
-0.0521212
-0.0488778
-0.0453861
-0.0416574
-0.0377607
-0.0338
-0.0298728
-0.0260666
-0.0224651
-0.0191491
-0.0161944
-0.0136632
-0.0115982
-0.0100101
-0.00887336
-0.00812158
-0.00765488
-0.0073334
-0.00699927
-0.00648957
-0.00566932
-0.00444112
-0.00276128
-0.000646484
0.00186276
0.00465952
0.00766912
0.0107337
0.0138288
0.016777
0.0195415
0.0219885
0.0243862
0.0269135
0.0292523
0.0308091
0.0296322
0.0243275
0.0151798
0.00676138
0.00189589
0.00135444
0.0035085
0.00654639
0.0108495
0.0151365
0.0210675
0.0236848
0.0250135
0.025514
0.0177852
0.00915185
0.000584062
-0.00176475
-0.0543119
-0.0565037
-0.0562879
-0.0543897
-0.0518958
-0.0493739
-0.0468859
-0.044294
-0.0414896
-0.0384637
-0.0352741
-0.0320016
-0.0287232
-0.0255073
-0.0224181
-0.0195179
-0.0168645
-0.0145078
-0.0124838
-0.0108012
-0.00944951
-0.00838712
-0.00754473
-0.00682384
-0.0061152
-0.00529958
-0.00427564
-0.00296278
-0.00131866
0.000658321
0.00294633
0.00547467
0.00818902
0.010971
0.0137919
0.0165175
0.0191185
0.0215023
0.0238371
0.0261197
0.0281457
0.0293981
0.0285117
0.0244558
0.0174734
0.010793
0.00650985
0.00551934
0.00683155
0.00908341
0.0125654
0.0164038
0.0216937
0.0246424
0.0261547
0.0275259
0.0209241
0.0120431
0.00350311
-3.90482e-05
-0.0472754
-0.04928
-0.0492685
-0.0478233
-0.0458559
-0.0438568
-0.0418889
-0.0398376
-0.0376047
-0.0351725
-0.0325826
-0.0298978
-0.0271786
-0.024478
-0.0218447
-0.0193258
-0.0169657
-0.0148043
-0.0128794
-0.0111721
-0.00971006
-0.00845731
-0.00736887
-0.00637729
-0.00540755
-0.00437377
-0.00320216
-0.00182796
-0.00021469
0.00164925
0.00375308
0.00605235
0.00850743
0.0110315
0.0135957
0.0160984
0.0185115
0.0207683
0.0229874
0.0249615
0.0266614
0.0276197
0.0269246
0.0238782
0.0186642
0.0134721
0.00974792
0.00871538
0.00948179
0.011177
0.0139817
0.0173889
0.0220269
0.0251511
0.0271392
0.0289035
0.0231327
0.0141176
0.0056925
0.00124822
-0.040916
-0.0427264
-0.0428586
-0.0417777
-0.0402437
-0.0386766
-0.0371377
-0.0355318
-0.0337715
-0.0318343
-0.0297486
-0.0275623
-0.0253221
-0.0230686
-0.0208386
-0.0186668
-0.0165856
-0.0146238
-0.0128033
-0.0111647
-0.00967706
-0.00833063
-0.00710071
-0.00594247
-0.0048061
-0.00363087
-0.00236477
-0.000957346
0.000620362
0.00238414
0.00432899
0.00642875
0.00865377
0.0109428
0.0132666
0.0155474
0.0177537
0.019811
0.0216741
0.0235409
0.0249774
0.0257077
0.0251671
0.0229178
0.0190964
0.0151559
0.0121999
0.0111278
0.0115293
0.0128355
0.0150833
0.0180681
0.0220495
0.0251506
0.027529
0.0291617
0.0241341
0.0153169
0.00715778
0.00211099
-0.0351543
-0.0367774
-0.0370105
-0.0362218
-0.0350418
-0.0338286
-0.0326402
-0.0313983
-0.0300257
-0.0284977
-0.0268324
-0.0250658
-0.0232335
-0.0213662
-0.0194911
-0.0176332
-0.0158184
-0.0140734
-0.0124115
-0.0108493
-0.0093869
-0.00801807
-0.00672707
-0.00548452
-0.00425857
-0.00300706
-0.00169469
-0.000283337
0.0012483
0.00291647
0.00471841
0.00664027
0.00865914
0.0107327
0.0128318
0.0148965
0.0168956
0.0187613
0.0204626
0.0220367
0.0232355
0.023808
0.0234121
0.0217827
0.0190375
0.0161214
0.0138523
0.012868
0.0130442
0.0140762
0.0158674
0.0184303
0.0217601
0.0246422
0.0270743
0.0281741
0.0239478
0.0157291
0.00798644
0.00262676
-0.0299341
-0.0313844
-0.0316855
-0.0311276
-0.0302335
-0.0293072
-0.0284027
-0.0274556
-0.0263986
-0.0252061
-0.0238889
-0.0224733
-0.0209863
-0.0194507
-0.0178863
-0.0163121
-0.0147468
-0.0132079
-0.0117103
-0.0102627
-0.00887185
-0.00753509
-0.00624443
-0.00498168
-0.00372758
-0.00245356
-0.00113685
0.000250448
0.00172266
0.00329442
0.00496332
0.00672287
0.0085544
0.0104287
0.012319
0.0141782
0.0159771
0.0176542
0.0191808
0.0205163
0.0215254
0.0220003
0.0217427
0.0205968
0.0186703
0.0165646
0.0148677
0.014049
0.0140981
0.0149271
0.0163445
0.0184883
0.0211843
0.0236364
0.025292
0.0262325
0.0228208
0.0154945
0.00829538
0.00285302
-0.0252162
-0.0265035
-0.0268439
-0.0264657
-0.0258006
-0.0251054
-0.024429
-0.0237188
-0.0229165
-0.0219972
-0.0209662
-0.0198425
-0.0186462
-0.0173939
-0.0160998
-0.0147777
-0.0134419
-0.0121019
-0.0107706
-0.00945664
-0.00816712
-0.00690154
-0.00565685
-0.00442248
-0.00318788
-0.00193438
-0.000648355
0.000689893
0.00208888
0.00356055
0.00510189
0.00671016
0.00836947
0.0100594
0.0117565
0.0134229
0.0150318
0.0165275
0.017883
0.0190333
0.0199004
0.0203219
0.0201933
0.019425
0.018111
0.0166336
0.0154024
0.0147732
0.0147599
0.0154269
0.0165361
0.0182778
0.0203846
0.0223351
0.0235709
0.023872
0.0210929
0.0147787
0.00821552
0.00287134
-0.0209544
-0.0220891
-0.0224475
-0.0222082
-0.0217256
-0.0212151
-0.0207205
-0.0201992
-0.019601
-0.0189026
-0.0181055
-0.017223
-0.0162699
-0.0152582
-0.0141975
-0.0130975
-0.0119678
-0.0108167
-0.00965163
-0.0084804
-0.00730993
-0.00614138
-0.00497455
-0.00380375
-0.00262418
-0.00142431
-0.000196886
0.00107134
0.00238442
0.00375122
0.00516772
0.00663276
0.00813262
0.00965228
0.011171
0.0126585
0.0140914
0.0154191
0.0166171
0.0176251
0.0183876
0.0187862
0.018774
0.0182977
0.0174371
0.0164396
0.0155741
0.0151239
0.0150908
0.0156214
0.0164738
0.0178396
0.0194152
0.0208665
0.0216599
0.0214263
0.0190758
0.0137504
0.00786959
0.00275793
-0.0171066
-0.0181015
-0.0184631
-0.0183297
-0.0179913
-0.0176274
-0.0172768
-0.0169049
-0.0164691
-0.0159479
-0.0153407
-0.0146566
-0.013906
-0.0130973
-0.012237
-0.0113312
-0.0103872
-0.0094103
-0.00840552
-0.00737859
-0.006336
-0.00527996
-0.00421174
-0.00312859
-0.00202921
-0.0009071
0.000240687
0.0014225
0.00263914
0.0038965
0.00518974
0.0065179
0.00786886
0.00923126
0.0105869
0.0119102
0.013183
0.0143628
0.0154377
0.0163162
0.0169995
0.0173934
0.0174803
0.0172269
0.0166981
0.0160589
0.0154758
0.0151779
0.0151466
0.0155592
0.0161927
0.0172176
0.0183292
0.0193138
0.0197126
0.0190876
0.0170037
0.0125535
0.00735796
0.00257055
-0.0136388
-0.0145063
-0.0148598
-0.0148061
-0.0145807
-0.0143324
-0.0140948
-0.0138402
-0.0135328
-0.0131532
-0.0126992
-0.0121771
-0.0115942
-0.010956
-0.0102667
-0.00952978
-0.00874991
-0.00793144
-0.00707769
-0.006192
-0.0052795
-0.00434318
-0.00338526
-0.00240462
-0.00140189
-0.000373812
0.000679676
0.00176332
0.00287584
0.00402046
0.0051918
0.00638863
0.00760001
0.00881651
0.0100232
0.0111982
0.0123258
0.0133701
0.0143186
0.0151095
0.0157374
0.0161352
0.0163009
0.0162149
0.0159262
0.0155491
0.0151791
0.0149999
0.0149775
0.015286
0.0157325
0.0164557
0.0171792
0.0177491
0.0178236
0.0169435
0.0150225
0.011297
0.0067556
0.00234876
-0.0105193
-0.0112712
-0.0116092
-0.0116145
-0.0114771
-0.0113193
-0.01117
-0.0110069
-0.0108002
-0.0105329
-0.0102021
-0.0098117
-0.00936678
-0.00887089
-0.0083265
-0.00773532
-0.00709968
-0.00642301
-0.00570828
-0.0049569
-0.00417197
-0.0033565
-0.00251342
-0.00164272
-0.000745794
0.00017859
0.00112882
0.00210716
0.00311089
0.00414133
0.00519291
0.00626351
0.00734379
0.00842528
0.00949539
0.0105365
0.0115346
0.0124582
0.0132999
0.0140153
0.0145988
0.0150001
0.0152239
0.0152605
0.0151426
0.0149526
0.0147369
0.0146435
0.0146287
0.0148457
0.0151342
0.0155964
0.0160056
0.0162296
0.0160468
0.0150211
0.0132085
0.0100589
0.00611694
0.00211771
-0.00771938
-0.00836777
-0.00868542
-0.00873365
-0.00866443
-0.00857717
-0.00849625
-0.00840401
-0.00827589
-0.00809733
-0.00786492
-0.00758107
-0.00724919
-0.00687143
-0.00644891
-0.0059824
-0.00547268
-0.00492168
-0.00433221
-0.00370523
-0.00304185
-0.00234409
-0.00161512
-0.00085586
-6.80331e-05
0.000748563
0.00159157
0.00246148
0.00335496