/*--------------------------------*- C++ -*----------------------------------*\
| =========                 |                                                 |
| \\      /  F ield         | OpenFOAM: The Open Source CFD Toolbox           |
|  \\    /   O peration     | Version:  2512                                  |
|   \\  /    A nd           | Website:  www.openfoam.com                      |
|    \\/     M anipulation  |                                                 |
\*---------------------------------------------------------------------------*/
FoamFile
{
    version     2.0;
    format      ascii;
    arch        "LSB;label=32;scalar=64";
    class       volScalarField;
    location    "38.5";
    object      p;
}
// * * * * * * * * * * * * * * * * * * * * * * * * * * * * * * * * * * * * * //

dimensions      [0 2 -2 0 0 0 0];

internalField   nonuniform List<scalar> 
13248
(
-0.283131
-0.281679
-0.279797
-0.277625
-0.275313
-0.273003
-0.270778
-0.268663
-0.26664
-0.264652
-0.262617
-0.260437
-0.258008
-0.25523
-0.252022
-0.248324
-0.244106
-0.239373
-0.234151
-0.228519
-0.22248
-0.216302
-0.2095
-0.203107
-0.290024
-0.287934
-0.285409
-0.282598
-0.279652
-0.27673
-0.273916
-0.271222
-0.268608
-0.265992
-0.263267
-0.260319
-0.257038
-0.253337
-0.249159
-0.244479
-0.239311
-0.233696
-0.227699
-0.221397
-0.214863
-0.208198
-0.201325
-0.194844
-0.29814
-0.295259
-0.29199
-0.288478
-0.284854
-0.281277
-0.277819
-0.274464
-0.271136
-0.267723
-0.2641
-0.26015
-0.255785
-0.250954
-0.245648
-0.239897
-0.23376
-0.227319
-0.22066
-0.213876
-0.207024
-0.200208
-0.193368
-0.186856
-0.307679
-0.303836
-0.299726
-0.295458
-0.291108
-0.286815
-0.282615
-0.278448
-0.274195
-0.269725
-0.264917
-0.259688
-0.254002
-0.247871
-0.241351
-0.234524
-0.227489
-0.220344
-0.213175
-0.206055
-0.199027
-0.192162
-0.185388
-0.179096
-0.318768
-0.313797
-0.308755
-0.303676
-0.298536
-0.293421
-0.288311
-0.283092
-0.27762
-0.271773
-0.265478
-0.258724
-0.251555
-0.24406
-0.23635
-0.228542
-0.220739
-0.213026
-0.205466
-0.1981
-0.190947
-0.18404
-0.177332
-0.1711
-0.331439
-0.325195
-0.319149
-0.313202
-0.30717
-0.301055
-0.29477
-0.288163
-0.281104
-0.273536
-0.26548
-0.257028
-0.248313
-0.239482
-0.230674
-0.222002
-0.213547
-0.205363
-0.197477
-0.1899
-0.182633
-0.175678
-0.168998
-0.162796
-0.345596
-0.337981
-0.330877
-0.323986
-0.316898
-0.309506
-0.301674
-0.293261
-0.28422
-0.274619
-0.264612
-0.254396
-0.244168
-0.234098
-0.224311
-0.21489
-0.205878
-0.197289
-0.18912
-0.181357
-0.173982
-0.166976
-0.160313
-0.154108
-0.360987
-0.351959
-0.343762
-0.33581
-0.32741
-0.318354
-0.308511
-0.297844
-0.286466
-0.274617
-0.262584
-0.25064
-0.239003
-0.22782
-0.217177
-0.207108
-0.197613
-0.188672
-0.180253
-0.172325
-0.164854
-0.157807
-0.151165
-0.144953
-0.377166
-0.366756
-0.357432
-0.348237
-0.338168
-0.326968
-0.314622
-0.301299
-0.287342
-0.273165
-0.259154
-0.245604
-0.232705
-0.220551
-0.209169
-0.198543
-0.188634
-0.179392
-0.170765
-0.162703
-0.15516
-0.148097
-0.141489
-0.135286
-0.393475
-0.381773
-0.371271
-0.360567
-0.348383
-0.33453
-0.319249
-0.303008
-0.286393
-0.269957
-0.25412
-0.239144
-0.22515
-0.212166
-0.200159
-0.189066
-0.178815
-0.16933
-0.160544
-0.15239
-0.144813
-0.137767
-0.131209
-0.12504
-0.409036
-0.396177
-0.384398
-0.371837
-0.357051
-0.340088
-0.321576
-0.302328
-0.283137
-0.264623
-0.247173
-0.230973
-0.21606
-0.20239
-0.189873
-0.178411
-0.167901
-0.158249
-0.14937
-0.141187
-0.133634
-0.126656
-0.120179
-0.114097
-0.422834
-0.408998
-0.395823
-0.381011
-0.363136
-0.342676
-0.320751
-0.298518
-0.276913
-0.256546
-0.237717
-0.220507
-0.204861
-0.190666
-0.177783
-0.166077
-0.155424
-0.145711
-0.136838
-0.128718
-0.121279
-0.114453
-0.108138
-0.102267
-0.242218
-0.244134
-0.245366
-0.2462
-0.246892
-0.247504
-0.248063
-0.248588
-0.249083
-0.249545
-0.249963
-0.250326
-0.25062
-0.250831
-0.250946
-0.250951
-0.250834
-0.250586
-0.250204
-0.24969
-0.249049
-0.24829
-0.247461
-0.246706
-0.24282
-0.24473
-0.245959
-0.246792
-0.247484
-0.248095
-0.248648
-0.24916
-0.24963
-0.250052
-0.250412
-0.250693
-0.250877
-0.250942
-0.250868
-0.250633
-0.250216
-0.249598
-0.248765
-0.247712
-0.246434
-0.244915
-0.243208
-0.241638
-0.244196
-0.246006
-0.247174
-0.247969
-0.24863
-0.249214
-0.249742
-0.250224
-0.250659
-0.251035
-0.251334
-0.251535
-0.251612
-0.25154
-0.251287
-0.250824
-0.250119
-0.249141
-0.247862
-0.246266
-0.244336
-0.242027
-0.239369
-0.236937
-0.246279
-0.247909
-0.248962
-0.249679
-0.250276
-0.250805
-0.251283
-0.251717
-0.252103
-0.252424
-0.252658
-0.25278
-0.252759
-0.252561
-0.252149
-0.251484
-0.250523
-0.24922
-0.247531
-0.245427
-0.242877
-0.239819
-0.236203
-0.232697
-0.248962
-0.250347
-0.251236
-0.251835
-0.252331
-0.25277
-0.253169
-0.25353
-0.253845
-0.254095
-0.254255
-0.254295
-0.254178
-0.253866
-0.253316
-0.252478
-0.251301
-0.249726
-0.247699
-0.245154
-0.242062
-0.238392
-0.233986
-0.228547
-0.252114
-0.253211
-0.253895
-0.254333
-0.254685
-0.254993
-0.255272
-0.255524
-0.255738
-0.255892
-0.255957
-0.2559
-0.25568
-0.255255
-0.254573
-0.253582
-0.252221
-0.250426
-0.248117
-0.245226
-0.241695
-0.237434
-0.232172
-0.226125
-0.25561
-0.256397
-0.256841
-0.257075
-0.257232
-0.257357
-0.257466
-0.25756
-0.257628
-0.257646
-0.257583
-0.2574
-0.257055
-0.256497
-0.255674
-0.254525
-0.252984
-0.250979
-0.248432
-0.245263
-0.241394
-0.236721
-0.231148
-0.223754
-0.25936
-0.25983
-0.26
-0.25998
-0.259886
-0.259766
-0.259643
-0.259522
-0.259389
-0.25922
-0.258981
-0.25863
-0.258119
-0.257394
-0.256395
-0.255057
-0.253311
-0.251083
-0.248297
-0.244872
-0.240757
-0.235728
-0.230429
-0.221904
-0.263325
-0.263477
-0.26334
-0.263012
-0.262601
-0.26217
-0.261748
-0.261344
-0.260948
-0.260534
-0.260064
-0.259493
-0.258767
-0.257825
-0.256601
-0.255025
-0.253027
-0.250534
-0.247481
-0.24379
-0.239517
-0.234163
-0.229393
-0.220546
-0.26754
-0.267368
-0.266881
-0.266186
-0.265393
-0.264578
-0.263786
-0.263033
-0.26231
-0.261591
-0.260833
-0.259984
-0.258982
-0.257758
-0.25624
-0.254353
-0.252027
-0.249199
-0.245825
-0.241842
-0.23743
-0.231953
-0.227529
-0.219296
-0.272119
-0.27159
-0.270706
-0.269576
-0.268327
-0.267058
-0.265827
-0.264658
-0.263545
-0.262456
-0.261344
-0.260146
-0.258789
-0.257193
-0.255278
-0.252968
-0.250196
-0.246914
-0.243104
-0.238754
-0.23405
-0.228654
-0.224202
-0.217202
-0.277243
-0.276299
-0.274947
-0.273313
-0.27154
-0.269752
-0.268022
-0.26638
-0.264819
-0.263299
-0.261761
-0.260127
-0.25831
-0.256217
-0.253762
-0.25087
-0.247487
-0.243584
-0.239159
-0.234265
-0.228966
-0.223397
-0.218187
-0.212437
-0.245985
-0.245002
-0.24399
-0.242918
-0.24176
-0.240452
-0.239293
-0.23798
-0.236524
-0.234917
-0.233164
-0.231299
-0.229397
-0.227575
-0.225987
-0.224792
-0.2241
-0.22391
-0.224015
-0.223901
-0.222702
-0.219272
-0.212284
-0.200559
-0.183649
-0.161627
-0.135799
-0.108189
-0.0809655
-0.0561873
-0.0351638
-0.0183484
-0.00537159
0.00467907
0.0129924
0.0190218
0.0241099
0.0279498
0.0304894
0.0316509
0.0315593
0.030438
0.0286298
0.0264396
0.0241229
0.0218509
0.0197388
0.0178223
0.0160201
0.0143652
0.01272
0.011163
0.00957684
0.00814145
0.00669174
0.00546608
0.00416093
0.00310452
0.00181245
0.000775992
-0.240285
-0.238257
-0.236233
-0.234185
-0.23212
-0.2301
-0.228302
-0.226669
-0.225215
-0.223982
-0.223042
-0.222488
-0.222428
-0.222995
-0.224336
-0.226543
-0.229579
-0.233233
-0.237059
-0.240234
-0.241534
-0.239581
-0.233007
-0.21995
-0.200991
-0.175714
-0.145952
-0.114185
-0.0829772
-0.0545667
-0.0304705
-0.0113315
0.00300475
0.0133165
0.0206913
0.0255165
0.0289165
0.0310894
0.0322539
0.0323213
0.0314134
0.0297229
0.0275882
0.025291
0.0230253
0.020908
0.0190039
0.0173048
0.0157042
0.0142155
0.0126966
0.011236
0.00970338
0.00829823
0.00683971
0.00559917
0.00426025
0.00317982
0.0018544
0.000796592
-0.23527
-0.232189
-0.229174
-0.226201
-0.223281
-0.220528
-0.218212
-0.216315
-0.214882
-0.214005
-0.213827
-0.21449
-0.21613
-0.218878
-0.222863
-0.228102
-0.234406
-0.241362
-0.248289
-0.25415
-0.257274
-0.256419
-0.249959
-0.236318
-0.215298
-0.187246
-0.154206
-0.119063
-0.0847127
-0.0535386
-0.027117
-0.00612818
0.00947265
0.0202939
0.0272977
0.0312717
0.0333446
0.0339977
0.033861
0.032821
0.0310742
0.0288129
0.0263864
0.0240426
0.0218821
0.0199633
0.0182773
0.0167957
0.0153837
0.0140464
0.0126429
0.011272
0.00979488
0.00842429
0.00696463
0.00571659
0.00434929
0.00324764
0.0018931
0.000812318
-0.231282
-0.227163
-0.223196
-0.219399
-0.215708
-0.212263
-0.2095
-0.207374
-0.205955
-0.205374
-0.20584
-0.207536
-0.210618
-0.215207
-0.221375
-0.229061
-0.237969
-0.24753
-0.256864
-0.264769
-0.269528
-0.269462
-0.263348
-0.24909
-0.226569
-0.196437
-0.160953
-0.123319
-0.0866999
-0.0535888
-0.02554
-0.0031933
0.0134754
0.0249458
0.0320321
0.0356143
0.0368091
0.0362394
0.0350534
0.033018
0.030511
0.0277432
0.0250973
0.0227746
0.0207695
0.0190669
0.0175969
0.0163141
0.0150669
0.01386
0.012558
0.0112671
0.00984519
0.00851171
0.00705935
0.00581252
0.00442243
0.00330405
0.00192641
0.000822311
-0.228618
-0.223409
-0.218455
-0.213997
-0.209659
-0.205646
-0.202523
-0.200178
-0.198727
-0.198341
-0.199271
-0.201721
-0.205851
-0.211776
-0.219548
-0.229059
-0.239901
-0.251398
-0.262538
-0.271966
-0.277967
-0.278932
-0.272818
-0.2583
-0.234933
-0.203539
-0.166547
-0.127377
-0.0893727
-0.0550764
-0.025987
-0.00269676
0.0148261
0.0269808
0.0344511
0.0380661
0.0388741
0.0374198
0.0355932
0.0327938
0.0297055
0.0265495
0.0237717
0.0215432
0.0197668
0.0182481
0.0169731
0.0158589
0.0147495
0.0136517
0.0124373
0.011217
0.00984944
0.00855479
0.00711872
0.00588975
0.00447433
0.00334545
0.00195231
0.000826058
-0.226583
-0.221479
-0.215539
-0.210346
-0.205566
-0.201045
-0.197408
-0.194766
-0.193215
-0.192887
-0.19406
-0.196963
-0.20177
-0.208583
-0.217397
-0.228048
-0.240104
-0.252834
-0.265159
-0.275621
-0.282516
-0.284107
-0.278426
-0.264039
-0.240482
-0.208682
-0.171159
-0.131427
-0.092889
-0.0580725
-0.0284253
-0.00450823
0.0136992
0.0265302
0.03456
0.0385267
0.0394326
0.038541
0.0353928
0.0321121
0.0286839
0.025268
0.0224384
0.0206631
0.0188518
0.0175108
0.0163975
0.01542
0.014423
0.0134154
0.0122771
0.0111198
0.00980593
0.00855134
0.00713984
0.00592298
0.00450135
0.00336956
0.0019694
0.000823573
-0.225271
-0.220462
-0.213725
-0.2078
-0.202664
-0.198066
-0.194115
-0.191201
-0.189488
-0.18909
-0.190286
-0.19333
-0.198404
-0.205601
-0.214891
-0.22607
-0.238686
-0.252007
-0.264952
-0.275977
-0.283334
-0.285532
-0.280358
-0.266426
-0.243283
-0.211912
-0.174827
-0.135475
-0.0971847
-0.0624199
-0.032596
-0.00828175
0.0104972
0.0239978
0.0326961
0.0372325
0.0385115
0.0375026
0.0343903
0.031004
0.0275027
0.0239112
0.0220173
0.0196823
0.0180355
0.0168426
0.0158568
0.0149867
0.0140802
0.0131476
0.0120768
0.010977
0.00971643
0.00850284
0.00712278
0.00591682
0.00450313
0.00337571
0.00197709
0.000815412
-0.224466
-0.220522
-0.213283
-0.206764
-0.201374
-0.196788
-0.192587
-0.189389
-0.187431
-0.186839
-0.187851
-0.190744
-0.195706
-0.202826
-0.21207
-0.223221
-0.235825
-0.249168
-0.262243
-0.273665
-0.281167
-0.283609
-0.278943
-0.265744
-0.243532
-0.213299
-0.177502
-0.139376
-0.102013
-0.0677717
-0.0380743
-0.0135418
0.00572114
0.0198825
0.02932
0.0345809
0.0364492
0.0357922
0.0332698
0.0296021
0.0262675
0.0237566
0.0209238
0.018809
0.0173071
0.0162264
0.0153386
0.0145514
0.013718
0.0128493
0.0118394
0.0107933
0.00958565
0.00841376
0.0070706
0.00587926
0.00448104
0.00336475
0.00197555
0.000802547
-0.223302
-0.220284
-0.213531
-0.207027
-0.201477
-0.196665
-0.192374
-0.188971
-0.186748
-0.185878
-0.186535
-0.189036
-0.193572
-0.200232
-0.208989
-0.21964
-0.231745
-0.244597
-0.257286
-0.269084
-0.276224
-0.2787
-0.274553
-0.262313
-0.241477
-0.212986
-0.17913
-0.142872
-0.106983
-0.0736463
-0.0443213
-0.0197265
-7.33822e-05
0.0147099
0.0249042
0.0309767
0.0335905
0.033523
0.0314645
0.0284974
0.0252434
0.022519
0.0199685
0.018035
0.0166424
0.0156475
0.0148338
0.0141108
0.013338
0.012525
0.0115714
0.0105761
0.00942053
0.00829064
0.00698833
0.00581551
0.00443742
0.00333871
0.00196556
0.000786179
-0.22122
-0.218361
-0.212585
-0.206955
-0.201843
-0.197083
-0.192822
-0.18936
-0.186943
-0.185781
-0.18597
-0.18789
-0.191756
-0.197659
-0.205583
-0.21535
-0.226552
-0.238499
-0.250165
-0.260187
-0.268495
-0.271274
-0.267776
-0.256717
-0.237643
-0.211382
-0.179957
-0.146008
-0.111992
-0.0798524
-0.0510765
-0.0265171
-0.00652842
0.00885014
0.0198012
0.0267136
0.0301652
0.0308704
0.0294684
0.0269199
0.0240192
0.0214428
0.0191176
0.0173265
0.0160254
0.0150955
0.0143377
0.0136653
0.0129441
0.0121811
0.01128
0.0103334
0.0092289
0.00814098
0.00688219
0.00573159
0.00437398
0.00330034
0.00194844
0.000767625
-0.2176
-0.214872
-0.210702
-0.206265
-0.201735
-0.197387
-0.193443
-0.190067
-0.187509
-0.186037
-0.185789
-0.187028
-0.190041
-0.194975
-0.201844
-0.210509
-0.220632
-0.231568
-0.242536
-0.251899
-0.25881
-0.261794
-0.259126
-0.249589
-0.232758
-0.209257
-0.180715
-0.149372
-0.117476
-0.0867424
-0.0586288
-0.0341273
-0.0137685
0.00226554
0.014048
0.0218739
0.026224
0.0278228
0.0272396
0.0252967
0.0228076
0.0204494
0.0183249
0.0166632
0.0154393
0.0145592
0.0138446
0.0132135
0.0125375
0.0118206
0.0109694
0.0100701
0.00901578
0.00797002
0.00675711
0.00563486
0.00429185
0.00325111
0.00192526
0.00074807
-0.211935
-0.210276
-0.207496
-0.203766
-0.199888
-0.196287
-0.192932
-0.189878
-0.187397
-0.185783
-0.185243
-0.185889
-0.187998
-0.191768
-0.197253
-0.204379
-0.212839
-0.222146
-0.23197
-0.240909
-0.247323
-0.249865
-0.247806
-0.239817
-0.225353
-0.204769
-0.179267
-0.150663
-0.120937
-0.0918233
-0.0647838
-0.0407951
-0.0204676
-0.00409952
0.00828633
0.0168888
0.022095
0.0244549
0.024643
0.0233941
0.0214209
0.0193707
0.0174741
0.0159576
0.0148229
0.0140003
0.013333
0.012745
0.0121144
0.0114433
0.0106408
0.00978805
0.0087827
0.00777917
0.00661293
0.00552788
0.0043622
0.00319236
0.00189515
0.000727585
-0.20354
-0.205701
-0.203305
-0.199626
-0.19624
-0.193268
-0.190482
-0.187895
-0.185752
-0.184322
-0.183808
-0.18436
-0.186225
-0.189589
-0.194512
-0.200945
-0.208619
-0.217081
-0.22579
-0.233351
-0.238716
-0.240694
-0.238205
-0.230174
-0.216193
-0.196649
-0.172669
-0.14589
-0.118079
-0.0907944
-0.0653214
-0.0425748
-0.0231393
-0.00731656
0.00483728
0.0134676
0.0189079
0.021666
0.0223039
0.0214778
0.0198774
0.0181172
0.0164674
0.0151326
0.0141262
0.0133945
0.0127999
0.0122717
0.0116968
0.0110759
0.010323
0.00951506
0.00855482
0.00758999
0.00646476
0.00541278
0.00425578
0.00312667
0.00185955
0.00070599
-0.194857
-0.19903
-0.197252
-0.193605
-0.190488
-0.188113
-0.186058
-0.184163
-0.182581
-0.181564
-0.181325
-0.182037
-0.183891
-0.187027
-0.191479
-0.197181
-0.203875
-0.211105
-0.218211
-0.224297
-0.228345
-0.229195
-0.225919
-0.217739
-0.204371
-0.18619
-0.164161
-0.139657
-0.11417
-0.0890461
-0.0654204
-0.0441368
-0.0257583
-0.0106027
0.00123434
0.00984756
0.0155056
0.0186329
0.0197224
0.0193744
0.0182176
0.0168105
0.0154383
0.0142988
0.0134219
0.0127749
0.0122424
0.0117637
0.011236
0.0106599
0.00995517
0.00919226
0.00828158
0.00735886
0.00628237
0.0052667
0.0041368
0.00304653
0.00181573
0.000681454
-0.185485
-0.190798
-0.189862
-0.186637
-0.183914
-0.182132
-0.180801
-0.179604
-0.178603
-0.178032
-0.178109
-0.178994
-0.180821
-0.183679
-0.18758
-0.192436
-0.197994
-0.203861
-0.209457
-0.214088
-0.21678
-0.216603
-0.212817
-0.204818
-0.192381
-0.175801
-0.155848
-0.133638
-0.110422
-0.0873752
-0.0655174
-0.0456387
-0.0282913
-0.0138079
-0.00231753
0.00623192
0.0120516
0.0155009
0.0170222
0.0171522
0.0164472
0.0154093
0.0143262
0.013393
0.0126544
0.0120984
0.0116318
0.0112054
0.0107275
0.0101984
0.0095449
0.00883001
0.00797291
0.00709601
0.00607338
0.00509767
0.00400639
0.00295366
0.00176446
0.000654961
-0.175755
-0.181759
-0.181784
-0.179284
-0.177085
-0.175842
-0.175123
-0.174529
-0.174039
-0.173848
-0.174163
-0.175125
-0.176832
-0.179335
-0.182628
-0.186613
-0.191074
-0.195725
-0.200017
-0.203318
-0.204862
-0.203923
-0.199874
-0.192223
-0.180777
-0.165754
-0.147766
-0.127721
-0.106665
-0.0856195
-0.0654895
-0.0470044
-0.030697
-0.0169076
-0.00579331
0.00265767
0.00860446
0.0123495
0.0142804
0.0148683
0.0146015
0.0139313
0.0131399
0.0124195
0.0118281
0.0113721
0.0109791
0.0106113
0.0101878
0.0097097
0.00911053
0.00844633
0.00764511
0.00681617
0.00584945
0.00491535
0.00386753
0.00285238
0.00170846
0.000627945
-0.165864
-0.172353
-0.173302
-0.171621
-0.169994
-0.169227
-0.169005
-0.168914
-0.168861
-0.168987
-0.169479
-0.170466
-0.17202
-0.174168
-0.176892
-0.180097
-0.183607
-0.187149
-0.190297
-0.192471
-0.1931
-0.191589
-0.187407
-0.180153
-0.169666
-0.156108
-0.139957
-0.121943
-0.102931
-0.0837948
-0.0653326
-0.0482118
-0.0329408
-0.0198609
-0.00915129
-0.000834201
0.00520365
0.00921067
0.0115183
0.0125358
0.0126892
0.0123814
0.0118823
0.0113804
0.0109448
0.0105975
0.0102856
0.00998228
0.00961802
0.00919446
0.0086525
0.00804151
0.00729837
0.0065195
0.00561057
0.00471977
0.0037191
0.0027431
0.00164773
0.000600333
-0.156047
-0.162839
-0.164562
-0.163659
-0.162604
-0.162272
-0.162463
-0.162791
-0.163112
-0.163514
-0.164155
-0.165151
-0.16656
-0.168392
-0.17062
-0.173154
-0.175844
-0.178438
-0.180582
-0.181842
-0.181744
-0.179797
-0.175567
-0.168733
-0.159158
-0.146957
-0.132497
-0.116357
-0.0992467
-0.0819061
-0.0650347
-0.0492366
-0.0349897
-0.0226298
-0.0123508
-0.00420366
0.00188459
0.00611201
0.00875668
0.0101702
0.0107207
0.010765
0.0105557
0.010276
0.0100031
0.0097726
0.00954916
0.00931637
0.00901592
0.0086507
0.00816894
0.00761384
0.00693116
0.00620474
0.00535556
0.00451034
0.00356056
0.00262605
0.00158198
0.000571996
-0.146479
-0.153352
-0.155672
-0.155465
-0.154954
-0.155023
-0.155569
-0.156244
-0.156883
-0.157525
-0.158296
-0.159298
-0.160578
-0.162138
-0.163941
-0.165905
-0.167894
-0.1697
-0.17104
-0.171569
-0.1709
-0.168637
-0.164432
-0.158025
-0.149302
-0.138337
-0.12541
-0.110978
-0.0956179
-0.079952
-0.0645869
-0.0500622
-0.0368205
-0.0251861
-0.015361
-0.00741929
-0.00132315
0.00307991
0.00601829
0.00779002
0.00870972
0.00909053
0.00916472
0.00910808
0.00900333
0.00889695
0.00876894
0.00861277
0.00838094
0.00807798
0.0076595
0.00716311
0.00654325
0.00587185
0.00508438
0.00428749
0.00339194
0.00250153
0.00151121
0.000542916
-0.137182
-0.143983
-0.146751
-0.14714
-0.147121
-0.147552
-0.148398
-0.14936
-0.15026
-0.151105
-0.151987
-0.152993
-0.154163
-0.155493
-0.156941
-0.158432
-0.159849
-0.161028
-0.161735
-0.161693
-0.160593
-0.158122
-0.154001
-0.148021
-0.140082
-0.130234
-0.118689
-0.105805
-0.0920473
-0.0779345
-0.0639865
-0.0506797
-0.0384182
-0.0275096
-0.0181582
-0.0104558
-0.00439427
0.0001384
0.00332496
0.00541395
0.00667119
0.00736869
0.00771661
0.00788117
0.00794795
0.00797166
0.00794543
0.00787165
0.00771317
0.00747639
0.00712426
0.00668945
0.00613472
0.00552099
0.00479715
0.00405155
0.0032131
0.00236981
0.00143548
0.000513027
-0.128192
-0.134831
-0.137913
-0.138787
-0.13919
-0.139931
-0.141025
-0.142214
-0.143323
-0.144332
-0.145307
-0.146317
-0.147396
-0.148537
-0.149698
-0.150813
-0.151773
-0.152469
-0.152687
-0.152215
-0.150809
-0.148223
-0.144234
-0.138673
-0.131458
-0.12262
-0.112319
-0.100833
-0.0885364
-0.0758563
-0.0632339
-0.0510851
-0.0397735
-0.029586
-0.0207243
-0.0132924
-0.00730681
-0.00269078
0.000697241
0.00306064
0.00462096
0.0056118
0.00622033
0.00660135
0.00684074
0.00699884
0.00707971
0.00709354
0.00701283
0.00684604
0.00656326
0.00619289
0.00570552
0.00515219
0.0044938
0.00380263
0.00302383
0.00223097
0.00135483
0.000482203
-0.119583
-0.125975
-0.129243
-0.13049
-0.131237
-0.132232
-0.13352
-0.134884
-0.136153
-0.137289
-0.138337
-0.139351
-0.140358
-0.141349
-0.142288
-0.143116
-0.143751
-0.144054
-0.143904
-0.143124
-0.14152
-0.138896
-0.135077
-0.129929
-0.123383
-0.11546
-0.106277
-0.0960532
-0.0850843
-0.0737204
-0.062332
-0.0512779
-0.0408813
-0.0314055
-0.0230452
-0.015912
-0.0100417
-0.00538783
-0.00184532
0.000748574
0.00257546
0.00383336
0.00468626
0.00527604
0.00568664
0.00598152
0.00617354
0.00627941
0.00628045
0.00618722
0.00597662
0.0056735
0.00525562
0.00476544
0.00417428
0.00354073
0.002824
0.00208503
0.00126928
0.000450309
-0.111384
-0.117451
-0.1208
-0.12232
-0.123332
-0.124522
-0.125955
-0.127443
-0.128827
-0.130058
-0.131161
-0.132178
-0.133128
-0.134004
-0.134772
-0.135379
-0.135752
-0.135791
-0.135387
-0.134403
-0.132689
-0.130092
-0.126476
-0.121734
-0.11581
-0.108716
-0.100542
-0.0914546
-0.0816894
-0.0715302
-0.0612854
-0.0512611
-0.0417407
-0.0329627
-0.0251111
-0.0183009
-0.0125825
-0.00793479
-0.00428415
-0.00150402
0.000551499
0.00204773
0.0031259
0.00391389
0.00449171
0.00492372
0.00522945
0.0054308
0.00551697
0.00550051
0.0053647
0.00513153
0.00478515
0.00436079
0.00383861
0.0032659
0.00261351
0.00193195
0.00117888
0.000417231
-0.10358
-0.109285
-0.112631
-0.114336
-0.115542
-0.116871
-0.118399
-0.119967
-0.121427
-0.122721
-0.123861
-0.124877
-0.125784
-0.126573
-0.127215
-0.127661
-0.127851
-0.127707
-0.127137
-0.126036
-0.124286
-0.121771
-0.118383
-0.114038
-0.108694
-0.102355
-0.0950893
-0.0870256
-0.0783496
-0.0692898
-0.0601005
-0.05104
-0.042354
-0.0342555
-0.0269155
-0.0204486
-0.0149156
-0.0103155
-0.0066018
-0.00367937
-0.00143399
0.000269923
0.00155174
0.00252468
0.00326316
0.00383048
0.00425085
0.00454998
0.00472388
0.00478695
0.00472821
0.00456747
0.00429444
0.00393849
0.00348699
0.00297825
0.00239241
0.0017717
0.00108374
0.0003829
-0.0961755
-0.1015
-0.104779
-0.10659
-0.107924
-0.10934
-0.110919
-0.112528
-0.114027
-0.115356
-0.116515
-0.117526
-0.118399
-0.119125
-0.119676
-0.120012
-0.120082
-0.119822
-0.119159
-0.118011
-0.116286
-0.113894
-0.110752
-0.106797
-0.101992
-0.0963418
-0.0898963
-0.0827548
-0.075063
-0.0670036
-0.0587848
-0.0506222
-0.0427267
-0.0352858
-0.0284559
-0.0223481
-0.0170299
-0.012516
-0.00878221
-0.00576045
-0.00336418
-0.00148458
-2.28898e-05
0.00111921
0.00200932
0.00270792
0.00324207
0.00363999
0.00390333
0.00404804
0.00406824
0.00398213
0.00378411
0.00349898
0.00311978
0.00267798
0.00216086
0.0016043
0.000983928
0.000347271
-0.0891838
-0.0941098
-0.0972669
-0.0991207
-0.100527
-0.101985
-0.103578
-0.105192
-0.106699
-0.108037
-0.1092
-0.110201
-0.111046
-0.111726
-0.112216
-0.112482
-0.11248
-0.112159
-0.111461
-0.110319
-0.108665
-0.106428
-0.103546
-0.0999687
-0.0956682
-0.0906468
-0.0849425
-0.0786315
-0.0718279
-0.0646768
-0.0573471
-0.0500176
-0.042867
-0.0360584
-0.0297328
-0.0239956
-0.0189174
-0.0145247
-0.0108111
-0.00773129
-0.0052227
-0.00320019
-0.00158409
-0.000290818
0.000739499
0.00156317
0.00220841
0.00270471
0.00305814
0.00328589
0.00338638
0.00337669
0.0032551
0.00304292
0.00273756
0.00236544
0.00191917
0.00142987
0.000879615
0.000310318
-0.0825947
-0.0871159
-0.090113
-0.0919591
-0.0933919
-0.0948542
-0.0964291
-0.0980183
-0.0995069
-0.100833
-0.101985
-0.102969
-0.103789
-0.104436
-0.104888
-0.105114
-0.105079
-0.10474
-0.10405
-0.102957
-0.101408
-0.0993492
-0.0967325
-0.0935197
-0.0896896
-0.0852431
-0.0802092
-0.0746462
-0.0686432
-0.0623149
-0.0557975
-0.0492377
-0.0427855
-0.0365814
-0.0307505
-0.0253907
-0.0205732
-0.0163325
-0.012676
-0.00957737
-0.00699397
-0.0048615
-0.00311765
-0.00169302
-0.000536045
0.000404371
0.00115615
0.00174888
0.00219191
0.00250322
0.00268473
0.00275278
0.00270869
0.00257127
0.00234118
0.00204116
0.00166779
0.00124864
0.000770996
0.000272071
-0.0763927
-0.0805163
-0.0833287
-0.0851286
-0.0865507
-0.0879872
-0.0895177
-0.091059
-0.0925074
-0.0938034
-0.0949308
-0.0958924
-0.0966893
-0.0973123
-0.0977418
-0.0979511
-0.0979092
-0.0975829
-0.0969337
-0.0959202
-0.0945005
-0.0926339
-0.0902835
-0.0874204
-0.0840281
-0.0801072
-0.0756797
-0.0707904
-0.0655085
-0.0599243
-0.0541469
-0.0482956
-0.0424954
-0.0368656
-0.0315162
-0.0265365
-0.0219956
-0.0179334
-0.0143673
-0.011286
-0.00866358
-0.00645365
-0.00460934
-0.0030746
-0.00180635
-0.000759468
9.2455e-05
0.000778144
0.001309
0.0017034
0.00196596
0.00211248
0.00214659
0.00208534
0.00193172
0.00170587
0.00140733
0.00106092
0.000658329
0.000232622
-0.0705687
-0.0743077
-0.0769199
-0.0786447
-0.0800279
-0.0814151
-0.0828816
-0.0843568
-0.0857479
-0.0869989
-0.0880912
-0.0890244
-0.0897977
-0.0904021
-0.09082
-0.0910282
-0.091
-0.0907085
-0.0901222
-0.0892081
-0.0879329
-0.0862651
-0.0841769
-0.0816461
-0.0786602
-0.0752194
-0.0713405
-0.0670576
-0.0624245
-0.057512
-0.052407
-0.0472057
-0.0420114
-0.0369245
-0.0320402
-0.0274389
-0.0231862
-0.0193241
-0.0158775
-0.0128464
-0.0102186
-0.00796268
-0.00604526
-0.00442258
-0.00305993
-0.0019186
-0.000974641
-0.000201062
0.000414566
0.000890534
0.00123335
0.00145836
0.00157091
0.00158677
0.00151057
0.00136058
0.00113857
0.000867176
0.000541922
0.000192083
-0.0651131
-0.0684829
-0.0708869
-0.0725166
-0.0738405
-0.0751616
-0.07655
-0.077946
-0.0792675
-0.0804621
-0.0815106
-0.0824101
-0.0831586
-0.0837472
-0.0841602
-0.0843771
-0.0843751
-0.0841335
-0.0836243
-0.0828208
-0.0816972
-0.0802289
-0.0783945
-0.0761769
-0.0735666
-0.0705635
-0.0671802
-0.0634429
-0.0593931
-0.055086
-0.0505905
-0.0459837
-0.0413501
-0.0367735
-0.0323356
-0.0281072
-0.0241494
-0.0205045
-0.017202
-0.0142504
-0.0116481
-0.00937593
-0.00741222
-0.00572417
-0.00428509
-0.00306277
-0.00203643
-0.00118152
-0.0004855
6.93758e-05
0.000490779
0.000793562
0.00098422
0.00107757
0.00107942
0.00100655
0.000862535
0.000668057
0.000422142
0.000150562
-0.0600119
-0.0630319
-0.0652267
-0.066749
-0.0679997
-0.0692434
-0.0705446
-0.071853
-0.0730963
-0.0742266
-0.0752246
-0.0760861
-0.076808
-0.0773819
-0.0777937
-0.078025
-0.0780553
-0.0778728
-0.0774473
-0.076759
-0.0757878
-0.0745143
-0.0729218
-0.0709968
-0.0687319
-0.0661267
-0.0631906
-0.0599436
-0.0564175
-0.0526552
-0.0487109
-0.0446461
-0.0405294
-0.0364301
-0.0324173
-0.028553
-0.0248927
-0.0214775
-0.0183392
-0.0154922
-0.012943
-0.0106823
-0.00869806
-0.0069671
-0.00547016
-0.00418142
-0.0030837
-0.00215538
-0.00138461
-0.000754651
-0.000257266
0.000121767
0.000389605
0.000560195
0.000640235
0.000645287
0.000580397
0.000464442
0.000299487
0.000108179
-0.0552509
-0.0579439
-0.0599338
-0.0613422
-0.0625113
-0.0636711
-0.0648802
-0.0660963
-0.0672564
-0.0683173
-0.0692603
-0.0700804
-0.0707741
-0.0713338
-0.071747
-0.0719988
-0.0720749
-0.0719418
-0.071598
-0.0710236
-0.0702008
-0.0691134
-0.0677479
-0.0660937
-0.0641445
-0.0618997
-0.0593663
-0.056559
-0.0535023
-0.0502293
-0.0467824
-0.0432103
-0.0395683
-0.035913
-0.0323027
-0.0287906
-0.0254263
-0.0222488
-0.0192902
-0.0165688
-0.0140968
-0.0118726
-0.009892
-0.00813994
-0.00660386
-0.00526398
-0.00410694
-0.00311435
-0.00227563
-0.00157548
-0.00100571
-0.000552874
-0.000209448
3.75977e-05
0.000195471
0.000278611
0.000293462
0.000257209
0.00017452
6.51526e-05
-0.0508186
-0.053208
-0.0550007
-0.0562934
-0.0573769
-0.0584501
-0.0595656
-0.0606881
-0.061763
-0.0627518
-0.063637
-0.0644131
-0.0650764
-0.0656197
-0.066032
-0.066299
-0.0664046
-0.0663338
-0.0660751
-0.065613
-0.0649324
-0.06402
-0.062865
-0.0614588
-0.0597964
-0.0578766
-0.0557044
-0.0532906
-0.0506538
-0.0478192
-0.04482
-0.0416943
-0.0384864
-0.0352423
-0.0320104
-0.028836
-0.0257629
-0.0228266
-0.0200588
-0.0174798
-0.0151054
-0.0129399
-0.0109849
-0.00923247
-0.00767563
-0.0063002
-0.00509658
-0.00404982
-0.00315102
-0.00238663
-0.00174893
-0.00122558
-0.000809046
-0.000487114
-0.000252178
-9.11168e-05
3.55588e-06
4.74708e-05
4.77698e-05
2.16536e-05
-0.0467027
-0.0488124
-0.0504185
-0.0515972
-0.0525946
-0.0535815
-0.0546046
-0.0556348
-0.0566249
-0.057541
-0.0583672
-0.0590979
-0.0597291
-0.0602544
-0.0606638
-0.0609446
-0.0610831
-0.0610675
-0.0608874
-0.0605295
-0.0599807
-0.0592296
-0.0582672
-0.0570863
-0.0556823
-0.054054
-0.0522046
-0.0501418
-0.0478795
-0.0454368
-0.0428393
-0.0401167
-0.0373043
-0.034439
-0.0315606
-0.0287073
-0.0259171
-0.023222
-0.0206519
-0.0182277
-0.0159674
-0.0138793
-0.0119698
-0.010236
-0.00867594
-0.0072804
-0.00604331
-0.00495315
-0.00400294
-0.00318121
-0.00248099
-0.00189117
-0.00140458
-0.00101017
-0.000699973
-0.000461852
-0.00028747
-0.000163077
-7.97014e-05
-2.21168e-05
-0.042891
-0.0447451
-0.046177
-0.0472462
-0.0481596
-0.0490629
-0.049997
-0.050938
-0.0518456
-0.0526904
-0.0534579
-0.0541428
-0.0547411
-0.0552469
-0.0556513
-0.0559437
-0.0561124
-0.0561465
-0.0560375
-0.0557742
-0.055345
-0.0547399
-0.0539511
-0.0529724
-0.0517996
-0.050431
-0.0488687
-0.0471177
-0.0451884
-0.0430947
-0.0408565
-0.0384966
-0.0360429
-0.0335246
-0.0309744
-0.0284239
-0.0259057
-0.023448
-0.0210784
-0.0188174
-0.016684
-0.0146889
-0.0128416
-0.0111435
-0.00959666
-0.00819587
-0.00693839
-0.00581595
-0.00482362
-0.00395208
-0.00319553
-0.0025443
-0.0019915
-0.00152728
-0.00114397
-0.000830773
-0.000578172
-0.000373679
-0.000206971
-6.54812e-05
-0.0393723
-0.0409948
-0.0422659
-0.0432319
-0.0440653
-0.0448892
-0.0457393
-0.0465958
-0.0474249
-0.048201
-0.0489115
-0.0495511
-0.0501162
-0.0506014
-0.0509988
-0.051299
-0.0514924
-0.0515698
-0.0515249
-0.0513462
-0.0510239
-0.0505491
-0.0499147
-0.0491155
-0.0481476
-0.047009
-0.0457003
-0.044225
-0.0425903
-0.0408065
-0.0388883
-0.0368534
-0.0347234
-0.0325213
-0.0302738
-0.0280064
-0.025747
-0.02352
-0.0213501
-0.0192568
-0.017259
-0.0153688
-0.0135977
-0.0119502
-0.0104312
-0.00903909
-0.00777388
-0.00663031
-0.0056055
-0.00469232
-0.00388611
-0.00317894
-0.00256477
-0.00203474
-0.00158093
-0.00119416
-0.000864944
-0.000582229
-0.00033395
-0.000108848
-0.0361365
-0.0375502
-0.0386746
-0.0395449
-0.0403035
-0.0410537
-0.0418256
-0.0426035
-0.0433589
-0.0440702
-0.0447263
-0.0453224
-0.045855
-0.0463192
-0.0467078
-0.0470118
-0.0472218
-0.0473269
-0.0473472
-0.0472449
-0.0470164
-0.0466558
-0.0461571
-0.0455155
-0.0447274
-0.0437905
-0.0427047
-0.0414717
-0.0400965
-0.0385863
-0.0369519
-0.0352066
-0.0333673
-0.0314517
-0.0294812
-0.0274765
-0.0254608
-0.0234548
-0.0214807
-0.0195561
-0.017699
-0.0159221
-0.0142381
-0.0126533
-0.0111749
-0.00980396
-0.00854288
-0.00738904
-0.00634135
-0.00539495
-0.00454652
-0.00378956
-0.0031188
-0.00252724
-0.00200741
-0.00155051
-0.00114633
-0.000786084
-0.000457472
-0.000151251
-0.0331738
-0.0344009
-0.0353927
-0.0361754