/*--------------------------------*- C++ -*----------------------------------*\
| =========                 |                                                 |
| \\      /  F ield         | OpenFOAM: The Open Source CFD Toolbox           |
|  \\    /   O peration     | Version:  2512                                  |
|   \\  /    A nd           | Website:  www.openfoam.com                      |
|    \\/     M anipulation  |                                                 |
\*---------------------------------------------------------------------------*/
FoamFile
{
    version     2.0;
    format      ascii;
    arch        "LSB;label=32;scalar=64";
    class       surfaceScalarField;
    location    "169";
    object      phi;
}
// * * * * * * * * * * * * * * * * * * * * * * * * * * * * * * * * * * * * * //

dimensions      [0 3 -1 0 0 0 0];

oriented        oriented;

internalField   nonuniform List<scalar> 
26232
(
-3.21315e-05
0.00108495
-0.00105282
0.000185519
0.00207293
-0.00229058
0.000901626
0.00206677
-0.00278287
0.00233528
0.00111179
-0.00254544
0.00469218
-0.000786726
-0.00157017
0.00816621
-0.00364201
0.000167987
0.0129339
-0.00746771
0.00269998
0.0191364
-0.0122601
0.00605768
0.0268588
-0.0179807
0.0102583
0.0361071
-0.0245449
0.0152965
0.0467897
-0.0318181
0.0211355
0.0587084
-0.0396205
0.0277018
0.0715637
-0.0477395
0.0348843
0.0849728
-0.0559466
0.0425375
0.0985007
-0.0640174
0.0504895
0.111699
-0.0717509
0.0585524
0.124151
-0.0789865
0.0665347
0.135511
-0.0856178
0.0742581
0.145544
-0.0915964
0.0815626
0.154133
-0.0969462
0.0883572
0.161308
-0.101696
0.0945216
0.167103
-0.106065
0.10027
0.171488
-0.109669
0.105285
-0.113828
0.1109
0.174415
4.15738e-05
0.00104338
0.000477322
0.00163718
0.00157863
0.000965454
0.0035921
-0.000901673
0.00674594
-0.00394058
0.0112401
-0.00813618
0.0172255
-0.0134531
0.0247762
-0.0198108
0.0338631
-0.0270676
0.0443362
-0.0350179
0.0559235
-0.0434054
0.0682492
-0.0519463
0.080869
-0.0603593
0.0933171
-0.0683947
0.105158
-0.0758581
0.116034
-0.0826269
0.125703
-0.088656
0.134059
-0.0939736
0.141129
-0.0986667
0.147043
-0.102859
0.152028
-0.106682
0.156241
-0.110277
0.16018
-0.113609
-0.117299
0.163651
0.000141388
0.000901992
0.000867922
0.000910646
0.00246368
-0.000630308
0.0051889
-0.00362689
0.00926995
-0.00802163
0.0148733
-0.0137395
0.0220708
-0.0206506
0.0308076
-0.0285477
0.0408849
-0.0371448
0.0519665
-0.0460995
0.0636123
-0.0550513
0.0753325
-0.0636664
0.0866502
-0.0716771
0.0971629
-0.0789074
0.106588
-0.0852835
0.114789
-0.0908279
0.121773
-0.0956393
0.127663
-0.0998641
0.13266
-0.103664
0.136992
-0.107191
0.140866
-0.110555
0.144451
-0.113863
0.147885
-0.117043
-0.120534
0.15112
0.000259959
0.000642033
0.00132926
-0.000158659
0.00349473
-0.00279578
0.00700881
-0.00714097
0.0120602
-0.013073
0.0187309
-0.0204102
0.0269555
-0.0288752
0.0365005
-0.0380927
0.0469783
-0.0476226
0.057896
-0.0570172
0.0687291
-0.0658844
0.0790004
-0.0739377
0.0883458
-0.0810225
0.0965544
-0.087116
0.103576
-0.0923048
0.109496
-0.0967485
0.114495
-0.100638
0.11879
-0.104159
0.122591
-0.107466
0.126071
-0.110671
0.12936
-0.113844
0.132531
-0.117033
0.135692
-0.120205
-0.123635
0.138793
0.00039231
0.000249723
0.00184001
-0.00160636
0.00461729
-0.00557306
0.00893875
-0.0114624
0.0149094
-0.0190437
0.0224717
-0.0279725
0.031376
-0.0377794
0.0411966
-0.0479133
0.0513954
-0.0578215
0.0614157
-0.0670375
0.0707769
-0.0752455
0.0791447
-0.0823055
0.0863625
-0.0882403
0.0924408
-0.0931944
0.0975159
-0.09738
0.101792
-0.101025
0.105486
-0.104332
0.108789
-0.107462
0.111848
-0.110524
0.114761
-0.113584
0.117596
-0.116679
0.12039
-0.119827
0.123195
-0.12301
-0.126375
0.125936
0.000536611
-0.000286889
0.00238477
-0.00345451
0.0057821
-0.00897039
0.0108659
-0.0165463
0.0176063
-0.0257841
0.0257601
-0.0361263
0.0348803
-0.0468996
0.0443893
-0.0574223
0.0536935
-0.0671257
0.0622964
-0.0756404
0.0698751
-0.0828243
0.0763051
-0.0887354
0.0816344
-0.0935696
0.0860279
-0.0975879
0.0897018
-0.101054
0.092869
-0.104192
0.0957062
-0.107169
0.0983422
-0.110098
0.100863
-0.113044
0.10332
-0.116042
0.105749
-0.119108
0.108167
-0.122246
0.110604
-0.125446
-0.128786
0.113015
0.000691176
-0.000978065
0.00294626
-0.0057096
0.00693286
-0.012957
0.0126649
-0.0222783
0.0199321
-0.0330513
0.0282885
-0.0444826
0.0371253
-0.0557364
0.0458041
-0.0661011
0.0537927
-0.0751143
0.0607547
-0.0826025
0.0665723
-0.0886419
0.0713101
-0.0934732
0.0751475
-0.097407
0.078307
-0.100747
0.0809992
-0.103746
0.0833927
-0.106585
0.0856071
-0.109384
0.0877191
-0.11221
0.0897747
-0.1151
0.0918009
-0.118068
0.0938142
-0.121121
0.0958245
-0.124256
0.0978469
-0.127469
-0.130786
0.0998466
0.000851914
-0.00182998
0.00349946
-0.00835714
0.00799957
-0.0174571
0.0141984
-0.0284772
0.0216811
-0.0405339
0.0298238
-0.0526254
0.0379374
-0.06385
0.0454311
-0.0735948
0.0519251
-0.0816082
0.0572801
-0.0879575
0.0615573
-0.092919
0.0649399
-0.0968558
0.0676549
-0.100122
0.0699144
-0.103007
0.0718855
-0.105717
0.0736843
-0.108384
0.0753837
-0.111083
0.0770264
-0.113853
0.0786363
-0.11671
0.080228
-0.11966
0.0818108
-0.122704
0.083392
-0.125837
0.0849803
-0.129057
-0.132362
0.0865572
0.00101137
-0.00284135
0.00401085
-0.0113566
0.00890291
-0.0223492
0.0153348
-0.0349091
0.0226965
-0.0478956
0.0302522
-0.0601811
0.0373315
-0.0709294
0.0434777
-0.079741
0.0484987
-0.0866292
0.0524294
-0.0918882
0.0554463
-0.0959359
0.0577792
-0.0991888
0.0596456
-0.101988
0.0612168
-0.104578
0.0626108
-0.107111
0.0639009
-0.109674
0.0651286
-0.112311
0.0663172
-0.115041
0.0674798
-0.117872
0.0686249
-0.120805
0.0697586
-0.123838
0.0708863
-0.126965
0.0720124
-0.130183
-0.133478
0.073128
0.0011594
-0.00400075
0.00444247
-0.0146397
0.00956654
-0.0274732
0.0159726
-0.0413151
0.0229003
-0.0548233
0.0295891
-0.0668699
0.035472
-0.0768123
0.0402669
-0.0845359
0.0439543
-0.0903167
0.0466893
-0.0946231
0.0487005
-0.0979471
0.0502135
-0.100702
0.0514092
-0.103184
0.0524127
-0.105582
0.0533011
-0.108
0.054118
-0.110491
0.0548868
-0.11308
0.0556204
-0.115775
0.0563268
-0.118579
0.0570119
-0.12149
0.0576801
-0.124506
0.0583357
-0.127621
0.0589816
-0.130829
-0.134113
0.0596168
0.00128519
-0.00528594
0.00475918
-0.0181137
0.00993187
-0.0326459
0.0160589
-0.0474421
0.0222998
-0.0610643
0.0279524
-0.0725224
0.0326031
-0.081463
0.0361416
-0.0880744
0.0386781
-0.0928532
0.0404312
-0.0963762
0.0416346
-0.0991506
0.0424832
-0.10155
0.0431144
-0.103815
0.0436137
-0.106081
0.0440288
-0.108415
0.0443851
-0.110847
0.044696
-0.113391
0.0449695
-0.116048
0.0452111
-0.11882
0.0454253
-0.121704
0.0456155
-0.124696
0.0457845
-0.12779
0.0459331
-0.130977
-0.134244
0.0460637
0.00138187
-0.00666781
0.00493761
-0.0216694
0.00996906
-0.0376774
0.0155946
-0.0530677
0.0209729
-0.0664426
0.0255208
-0.0770703
0.0289909
-0.084933
0.0314134
-0.090497
0.0329783
-0.0944181
0.0339228
-0.0973206
0.0344582
-0.099686
0.0347395
-0.101832
0.0348651
-0.103941
0.0348907
-0.106106
0.0348451
-0.108369
0.034743
-0.110745
0.0345926
-0.11324
0.0343993
-0.115855
0.0341676
-0.118589
0.0339013
-0.121438
0.0336037
-0.124398
0.0332772
-0.127463
0.0329215
-0.130622
0.0325415
-0.133864
-0.00019761
0.00145752
-0.00125991
-0.000702615
0.00416915
-0.00366414
-0.00147017
0.00672179
-0.00595423
-0.00246555
0.00905323
-0.00805785
-0.00365453
0.0111355
-0.0099465
-0.00499993
0.0129867
-0.0116413
-0.0064613
0.0146584
-0.013197
-0.00799651
0.0162162
-0.014681
-0.00956344
0.0177223
-0.0161553
-0.011121
0.0192227
-0.0176651
-0.012629
0.0207407
-0.0192328
-0.0140465
0.0222758
-0.0208582
-0.0153304
0.0238052
-0.0225214
-0.016433
0.0252872
-0.0241846
-0.0173012
0.0266633
-0.0257952
-0.0178755
0.0278599
-0.0272856
-0.0180909
0.0287897
-0.0285744
-0.0178774
0.029353
-0.0295665
-0.0171626
0.0294404
-0.0301552
-0.0158828
0.0289457
-0.0302255
-0.0139634
0.0277399
-0.0296594
-0.011346
0.0257259
-0.0283434
-0.0079938
0.02282
-0.0261721
0.0190358
-0.00392668
-0.0231029
-9.57651e-05
0.00155329
-0.000360717
0.0044341
-0.000786519
0.00714759
-0.00136286
0.00962958
-0.00207192
0.0118445
-0.00288522
0.0138
-0.00376389
0.015537
-0.00466107
0.0171133
-0.00552516
0.0185864
-0.00630267
0.0200002
-0.00693973
0.0213778
-0.00738226
0.0227183
-0.00757552
0.0239985
-0.00746318
0.0251749
-0.00698668
0.0261868
-0.00608567
0.0269589
-0.00469939
0.0274034
-0.00276947
0.0274231
-0.000242131
0.0269131
0.00294763
0.025756
0.00682854
0.023859
0.0114383
0.0211162
0.0168064
0.0174519
0.0128546
0.0229877
1.7012e-06
0.00155159
-2.59836e-05
0.00446178
-0.000102712
0.00722432
-0.00023735
0.00976421
-0.000425641
0.0120328
-0.000647849
0.0140222
-0.000868591
0.0157578
-0.00103931
0.0172841
-0.00110209
0.0186491
-0.000993753
0.0198919
-0.000649078
0.0210331
-3.05764e-06
0.0220723
0.00100866
0.0229867
0.00244925
0.0237343
0.00437974
0.0242563
0.00685837
0.0244802
0.00993897
0.0243228
0.0136691
0.023693
0.018088
0.0224942
0.0232159
0.0206281
0.0290761
0.0179988
0.0356798
0.0145125
0.0430127
0.0101189
0.00464931
0.051218
8.12164e-05
0.00147037
0.000258212
0.00428479
0.000496471
0.00698606
0.000777426
0.00948326
0.00109669
0.0117136
0.00146684
0.0136521
0.00191827
0.0153064
0.00249753
0.0167048
0.0032638
0.0178829
0.00428439
0.0188713
0.00563051
0.019687
0.00737389
0.0203289
0.00958406
0.0207766
0.0123267
0.0209917
0.0156623
0.0209207
0.0196449
0.0204976
0.0243204
0.0196473
0.0297254
0.018288
0.0358854
0.0163342
0.0428157
0.0136978
0.0505189
0.0102956
0.0590153
0.00601605
0.0682154
0.000918809
-0.00560094
0.0784656
0.00013343
0.00133694
0.000458104
0.00396011
0.00094058
0.00650358
0.00156326
0.00886058
0.00232053
0.0109563
0.00322138
0.0127512
0.0042914
0.0142363
0.00557238
0.0154238
0.00711977
0.0163355
0.00899878
0.0169923
0.0112799
0.0174059
0.0140347
0.0175741
0.0173327
0.0174786
0.0212384
0.017086
0.02581
0.0163491
0.0310978
0.0152098
0.0371439
0.0136012
0.0439822
0.0114497
0.0516402
0.00867626
0.0601395
0.00519852
0.0694698
0.000965282
0.0797281
-0.0042423
0.0907985
-0.0101516
-0.0178652
0.103063
0.000152826
0.00118411
0.000552691
0.00356025
0.00118248
0.0058738
0.00203634
0.00800671
0.00311508
0.00987756
0.00442908
0.0114372
0.00600125
0.0126642
0.00786813
0.0135569
0.0100788
0.0141248
0.012692
0.014379
0.0157728
0.0143251
0.0193885
0.0139584
0.0236056
0.0132614
0.0284878
0.0122038
0.0340941
0.0107428
0.040479
0.00882493
0.0476951
0.00638505
0.0557879
0.00335694
0.0648047
-0.000340557
0.0748046
-0.00480132
0.0858352
-0.0100654
0.0979531
-0.0163602
0.111001
-0.0231997
-0.0323499
0.125486
0.000138991
0.00104512
0.000538327
0.00316091
0.0012099
0.00520222
0.00216828
0.00704833
0.00342745
0.00861839
0.00500454
0.00986013
0.00692387
0.0107448
0.00921944
0.0112614
0.0119356
0.0114087
0.015126
0.0111887
0.0188516
0.0105995
0.0231786
0.0096314
0.0281762
0.00826382
0.0339159
0.00646411
0.0404716
0.00418708
0.0479135
0.00138303
0.0563268
-0.00202825
0.0657884
-0.00610466
0.0763736
-0.0109257
0.0881397
-0.0165675
0.101127
-0.0230531
0.115358
-0.030591
0.130636
-0.0384771
-0.048896
0.147182
9.71215e-05
0.000948002
0.000431454
0.00282658
0.00105287
0.0045808
0.00200225
0.00609895
0.00331221
0.00730843
0.0050124
0.00815994
0.00713494
0.00862231
0.00971848
0.00867782
0.0128108
0.00831638
0.0164699
0.00752958
0.0207639
0.0063055
0.0257706
0.00462463
0.0315766
0.00245783
0.038274
-0.000233246
0.0459651
-0.00350408
0.054753
-0.00740483
0.0647244
-0.0119997
0.0759622
-0.0173424
0.0885152
-0.0234787
0.102376
-0.0304283
0.117493
-0.0381704
0.133663
-0.0467604
0.150709
-0.0555232
-0.0663204
0.168133
3.85094e-05
0.000909492
0.000269895
0.00259519
0.000786953
0.00406375
0.0016607
0.00522521
0.00294754
0.0060216
0.00469701
0.00641047
0.0069589
0.00636042
0.00978905
0.00584768
0.0132535
0.00485196
0.0174306
0.0033524
0.022412
0.00132417
0.0283005
-0.00126391
0.035207
-0.00444869
0.0432451
-0.00827128
0.0525149
-0.0127739
0.0631017
-0.0179917
0.0750499
-0.0239479
0.0883518
-0.0306444
0.102928
-0.0380547
0.118603
-0.046104
0.135132
-0.0546984
0.152049
-0.0636778
0.16918
-0.0726546
-0.0824835
0.185343
-2.00688e-05
0.000929561
0.00010979
0.00246534
0.000526426
0.00364711
0.00133397
0.00441766
0.00261891
0.00473666
0.0044603
0.00456908
0.00693829
0.00388244
0.0101405
0.0026455
0.0141654
0.000827014
0.0191229
-0.0016051
0.0251304
-0.00468334
0.0323052
-0.00843867
0.040753
-0.0128966
0.0505536
-0.0180719
0.0617427
-0.023963
0.0742964
-0.0305454
0.0881153
-0.0377667
0.103014
-0.0455433
0.118714
-0.0537545
0.13486
-0.0622497
0.151007
-0.0708457
0.166641
-0.0793114
0.181457
-0.0874713
-0.0952838
0.194258
-5.93864e-05
0.000988948
1.48239e-05
0.00239113
0.00040046
0.00326147
0.00123819
0.00357994
0.00265119
0.00332366
0.00475716
0.0024631
0.00767584
0.000963759
0.0115329
-0.00121154
0.0164581
-0.00409816
0.0225783
-0.0077253
0.0300053
-0.0121104
0.0388197
-0.0172531
0.0490527
-0.0231295
0.0606686
-0.0296878
0.0735513
-0.0368456
0.087496
-0.0444902
0.10221
-0.0524804
0.117322
-0.0606558
0.132402
-0.0688339
0.14701
-0.0768582
0.160685
-0.0845206
0.173151
-0.0917777
0.184051
-0.0983707
-0.104208
0.192975
-6.38747e-05
3.66725e-05
0.000515274
0.00154977
0.00330325
0.00593434
0.00959808
0.0144442
0.0206044
0.0281755
0.0372006
0.0476494
0.0594041
0.0722538
0.0858977
0.0999599
0.114014
0.127617
0.140345
0.151844
0.161845
0.170337
0.177251
0.183943
0.00196787
0.0190836
-0.0249781
0.00829361
0.00860187
-0.0149276
0.0149571
-0.00463333
-0.00203019
0.0221303
-0.0202666
0.0130935
0.0294552
-0.0379733
0.0306483
0.0368424
-0.0570566
0.0496694
0.0440186
-0.0764934
0.0693173
0.0506657
-0.0948935
0.0882464
0.0563385
-0.110837
0.105164
0.0604378
-0.123263
0.119164
0.0622792
-0.131948
0.130107
0.0614576
-0.137704
0.138525
0.058494
-0.141932
0.144895
0.0552891
-0.144991
0.148196
0.0546142
-0.144376
0.14505
0.0586057
-0.134923
0.130932
0.0674898
-0.111788
0.102904
0.0798204
-0.0738709
0.0615403
0.0939474
-0.0243953
0.0102683
0.108183
0.0301614
-0.0443973
0.121205
0.0817364
-0.0947579
0.131653
0.122848
-0.133296
0.138737
0.150429
-0.157513
0.142659
0.165664
-0.169585
0.144092
0.171966
-0.173399
0.143009
0.174898
-0.173816
0.138824
0.181839
-0.177654
0.13219
0.194215
-0.187581
0.126002
0.200146
-0.193958
0.123621
0.178949
-0.176568
0.126446
0.119601
-0.122427
0.133524
0.0321218
-0.0391995
0.142128
-0.0585711
0.0499671
0.149815
-0.130878
0.12319
0.155247
-0.176727
0.171296
0.158083
-0.197063
0.194227
0.157443
-0.206109
0.206748
0.152354
-0.214648
0.219737
0.143946
-0.228125
0.236533
0.135946
-0.222723
0.230723
0.132363
-0.178949
0.182532
0.13453
-0.0920892
0.0899226
0.140988
0.0160347
-0.0224932
0.148763
0.10582
-0.113595
0.153799
0.178995
-0.184031
0.153037
0.218462
-0.2177
0.147107
0.264462
-0.258532
0.140138
0.265816
-0.258847
0.137352
0.226183
-0.223397
0.140293
0.125177
-0.128118
0.14612
-0.0133792
0.00755248
0.149407
-0.0959028
0.0926158
0.147725
-0.222434
0.224116
0.144087
-0.248241
0.251879
0.142381
-0.299482
0.301188
0.142866
-0.236561
0.236075
0.143455
-0.0722811
0.0716919
0.142884
-0.00359102
0.00416262
0.140933
0.277663
-0.275712
0.246034
-0.244281
0.0287479
0.0133233
0.0346622
0.00268758
0.0406346
-0.0106057
0.0466327
-0.0262647
0.052523
-0.0438636
0.0582109
-0.0627446
0.0635324
-0.0818149
0.068233
-0.0995942
0.0719587
-0.114563
0.0742711
-0.125576
0.0745769
-0.132254
0.0722136
-0.13534
0.0669632
-0.136681
0.0599778
-0.138006
0.0540946
-0.138492
0.0526617
-0.13349
0.0575139
-0.11664
0.0680536
-0.0844106
0.0822948
-0.0386364
0.0980799
0.0143762
0.113343
0.0664731
0.126314
0.109877
0.135905
0.140838
0.142107
0.159463
0.145357
0.168716
0.145588
0.174667
0.142586
0.184841
0.137423
0.199378
0.13279
0.204779
0.131291
0.180448
0.133856
0.117036
0.139641
0.0263366
0.146495
-0.0654252
0.152281
-0.136663
0.155865
-0.180311
0.15719
-0.198389
0.155602
-0.204522
0.149956
-0.209002
0.141029
-0.219197
0.132548
-0.214242
0.128876
-0.175276
0.131696
-0.0949094
0.139344
0.00838696
0.148346
0.096818
0.154227
0.173114
0.154045
0.218644
0.148591
0.269916
0.141822
0.272585
0.13887
0.229135
0.141272
0.122774
0.146769
-0.0188763
0.149902
-0.0990355
0.148014
-0.220546
0.144196
-0.244422
0.142323
-0.297609
0.142736
-0.236973
0.143077
-0.072622
0.142395
-0.00290906
0.140456
0.279602
0.247788
0.0563646
0.00817678
0.0616835
-0.00263131
0.0668232
-0.0157455
0.071679
-0.0311205
0.0761579
-0.0483425
0.080192
-0.0667786
0.0836438
-0.0852667
0.0862859
-0.102236
0.0878427
-0.116119
0.0880508
-0.125784
0.0866592
-0.130862
0.0832163
-0.131897
0.0770454
-0.13051
0.068142
-0.129102
0.0584539
-0.128804
0.051736
-0.126772
0.0514964
-0.116401
0.058746
-0.0916602
0.071905
-0.0517954
0.0884395
-0.00215835
0.105417
0.0494954
0.120667
0.0946268
0.13274
0.128765
0.1413
0.150903
0.14649
0.163526
0.148269
0.172888
0.146797
0.186313
0.143371
0.202805
0.140307
0.207843
0.139496
0.181258
0.141475
0.115057
0.145757
0.0220543
0.150653
-0.0703217
0.154488
-0.140498
0.156271
-0.182094
0.156159
-0.198277
0.15376
-0.202122
0.147799
-0.203041
0.138593
-0.209991
0.129714
-0.205364
0.125851
-0.171413
0.129126
-0.0981846
0.137769
-0.000256204
0.147889
0.0866978
0.154641
0.166363
0.155176
0.218109
0.150344
0.274748
0.143849
0.27908
0.140692
0.232292
0.14245
0.121017
0.14752
-0.0239467
0.150503
-0.102019
0.14841
-0.218452
0.14436
-0.240372
0.142294
-0.295543
0.142685
-0.237365
0.142838
-0.0727744
0.142063
-0.00213447
0.140137
0.281528
0.249531
0.0831433
0.00349914
0.0879176
-0.00740566
0.0923516
-0.0201795
0.0962391
-0.035008
0.0994778
-0.0515811
0.10199
-0.0692908
0.103607
-0.0868842
0.104123
-0.102751
0.10337
-0.115366
0.101288
-0.123702
0.0979417
-0.127516
0.0933292
-0.127285
0.0869508
-0.124132
0.0779663
-0.120118
0.0666986
-0.117537
0.0560258
-0.1161
0.0504163
-0.110791
0.0529935
-0.0942374
0.0635794
-0.0623813
0.0795262
-0.0181052
0.0975453
0.0314764
0.11469
0.0774819
0.129117
0.114338
0.140043
0.139977
0.147281
0.156287
0.150833
0.169335
0.151177
0.185969
0.149679
0.204302
0.148165
0.209358
0.147874
0.181549
0.149045
0.113886
0.151657
0.0194424
0.154517
-0.0731811
0.156418
-0.142399
0.156478
-0.182154
0.155001
-0.1968
0.151875
-0.198997
0.145798
-0.196964
0.136578
-0.200771
0.127436
-0.196222
0.123272
-0.16725
0.126787
-0.101699
0.136206
-0.00967547
0.147339
0.0755643
0.155001
0.158701
0.156398
0.216712
0.152341
0.278805
0.146208
0.285213
0.142822
0.235678
0.143828
0.12001
0.148361
-0.0284797
0.151188
-0.104846
0.148898
-0.216162
0.144571
-0.236045
0.142276
-0.293248
0.142695
-0.237784
0.142726
-0.0728058
0.141878
-0.00128582
0.139972
0.283434
0.251247
0.107937
-0.00137472
0.112306
-0.0117753
0.116187
-0.0240602
0.119253
-0.0380741
0.121357
-0.053685
0.12236
-0.0702938
0.122077
-0.0866011
0.12039
-0.101065
0.117324
-0.1123
0.113035
-0.119413
0.107776
-0.122257
0.101842
-0.121351
0.0952286
-0.117518
0.0871218
-0.112011
0.0765374
-0.106952
0.0643904
-0.103953
0.0545344
-0.100935
0.0517043
-0.0914073
0.0580507
-0.0687278
0.07195
-0.0320045
0.0899783
0.0134481
0.108411
0.0590492
0.124878
0.0978712
0.138043
0.126812
0.147365
0.146965
0.152867
0.163833
0.155254
0.183583
0.155828
0.203728
0.155877
0.209308
0.155979
0.181447
0.156329
0.113537
0.15712
0.0186512
0.157992
-0.0740535
0.158002
-0.142408
0.156442
-0.180595
0.153694
-0.194051
0.149921
-0.195224
0.14389
-0.190933
0.134905
-0.191786
0.125674
-0.186991
0.121147
-0.162722
0.124642
-0.105194
0.13459
-0.0196232
0.146626
0.0635286
0.155245
0.150081
0.157658
0.2143
0.154528
0.281935
0.148851
0.29089
0.145233
0.239296
0.1454
0.119843
0.149277
-0.0323569
0.151931
-0.107499
0.149462
-0.213694
0.144823
-0.231405
0.142257
-0.290683
0.142745
-0.238271
0.142729
-0.0727897
0.141828
-0.000384584
0.139956
0.285305
0.252914
0.13025
-0.00613924
0.134339
-0.0158641
0.137696
-0.0274172
0.139902
-0.0402798
0.14079
-0.0545731
0.140188
-0.0696915
0.137933
-0.0843461
0.134038
-0.0971705
0.12874
-0.107003
0.122437
-0.113109
0.115561
-0.115381
0.108497
-0.114287
0.101508
-0.110529
0.0942849
-0.104788
0.0855947
-0.098262
0.0745512
-0.0929091
0.0629254
-0.0893094
0.055369
-0.0838509
0.056292
-0.0696508
0.0663655
-0.0420779
0.083032
-0.00321841
0.101872
0.0402093
0.119865
0.0798784
0.134999
0.111678
0.146349
0.135615
0.153902
0.15628
0.158478
0.179007
0.161217
0.200989
0.162861
0.207664
0.163393
0.180914
0.162905
0.114025
0.162044
0.0195124
0.160978
-0.072987
0.159171
-0.140601
0.156116
-0.17754
0.152209
-0.190145
0.147849
-0.190864
0.141978
-0.185061
0.133455
-0.183263
0.124342
-0.177878
0.119429
-0.15781
0.122649
-0.108413
0.132856
-0.029831
0.145666
0.0507195
0.155293
0.140454
0.158869
0.210724
0.156824
0.28398
0.151705
0.296009
0.147876
0.243125
0.147139
0.12058
0.150248
-0.0354658
0.152697
-0.109948
0.15008
-0.211077
0.14511
-0.226435
0.142225
-0.287798
0.142815
-0.238861
0.142828
-0.0728025
0.141899
0.000544262
0.140084
0.28712
0.254502
0.151143
-0.0101008
0.15456
-0.0192805
0.15692
-0.029778
0.157822
-0.0411809
0.157123
-0.0538747
0.154653
-0.0672211
0.150321
-0.0800139
0.144296
-0.0911459
0.136993
-0.0996993
0.128978
-0.105095
0.120836
-0.107238
0.113001
-0.106453
0.105742
-0.103271
0.0990857
-0.0981311
0.092299
-0.0914754
0.0838764
-0.0844865
0.0733499
-0.0787829
0.0634101
-0.0739111
0.0590894
-0.0653301
0.0638907
-0.0468792
0.0771383
-0.016466
0.0951673
0.0221803
0.113923
0.061123
0.130636
0.0949641
0.143886
0.122366
0.153518
0.146648
0.160349
0.172176
0.165295
0.196043
0.168533
0.204427
0.169568
0.179879
0.168527
0.115065
0.166186
0.0218538
0.163367
-0.0701685
0.15985
-0.137084
0.155443
-0.173133
0.150512
-0.185213
0.145618
-0.185971
0.139969
-0.179411
0.132087
-0.175381
0.123307
-0.169098
0.118043
-0.152546
0.120757
-0.111128
0.130946
-0.0400194
0.144373
0.0372925
0.155048
0.129778
0.159928
0.205844
0.159121
0.284787
0.154668
0.300461
0.150677
0.247117
0.149005
0.122252
0.151247
-0.0377079
0.153451
-0.112153
0.150726
-0.208352
0.145426
-0.221135
0.142172
-0.284545
0.142886
-0.239574
0.143007
-0.0729238
0.142079
0.00147227
0.140352
0.288848
0.255978
0.170609
-0.0125769
0.172457
-0.0211281
0.173021
-0.0303424
0.171998
-0.0401579
0.169302
-0.0511787
0.164776
-0.0626953
0.158435
-0.073673
0.150588
-0.0832982
0.141756
-0.0908673
0.132567
-0.0959057
0.123631
-0.0983022
0.115404
-0.0982263
0.108119
-0.0959856
0.101848
-0.0918606
0.0963523
-0.0859792
0.0905599
-0.0786941
0.0829646
-0.0711876
0.0737249
-0.0646714
0.066265
-0.0578702
0.0654511
-0.0460653
0.0735178
-0.0245327
0.0887956
0.00690247
0.107065
0.0428533
0.124736
0.0772933
0.139663
0.107439
0.151351
0.13496
0.160456
0.163071
0.167612
0.188886
0.172457
0.199582
0.174099
0.178237
0.172693
0.116471
0.169375
0.025172
0.16503
-0.0658239
0.159964
-0.132017
0.154358
-0.167527
0.148553
-0.179408
0.143178
-0.180597
0.137771
-0.174004
0.130654
-0.168264
0.122408
-0.160853
0.116886
-0.147023
0.11892
-0.113162
0.128801
-0.0499001
0.142667
0.0234258
0.154409
0.118036
0.160712
0.199542
0.161284
0.284215
0.157619
0.304126
0.153545
0.251191
0.150944
0.124853
0.152246
-0.0390097
0.154155
-0.114062
0.15137
-0.205567
0.145765
-0.21553
0.142089
-0.280869
0.142936
-0.240421
0.143247
-0.0732346
0.142352
0.00236742
0.140751
0.290448
0.257302
0.185857
-0.0130905
0.185573
-0.0208441
0.183876
-0.0286458
0.180708
-0.0369898
0.176018
-0.0464881
0.169671
-0.0563488
0.161787
-0.0657888
0.152745
-0.0742559
0.143078
-0.0812011
0.133387
-0.0862142
0.124222
-0.0891372
0.115993
-0.0899972
0.108912
-0.0889046
0.103027
-0.0859761
0.0982877
-0.0812395
0.0942576
-0.074664
0.089699
-0.066629
0.083329
-0.0583014
0.0759431
-0.0504843
0.0712947
-0.0414169
0.0735834
-0.0268214
0.0840606
-0.00357475
0.0999482
0.0269657
0.117424
0.059817
0.133526
0.0913374
0.14713
0.121356
0.158515
0.151686
0.167918
0.179484
0.174416
0.193084
0.176792
0.175861
0.175359
0.117904
0.171355
0.0291761
0.16585
-0.0603189
0.159412
-0.125579
0.152757
-0.160872
0.146245
-0.172896
0.140454
-0.174806
0.135278
-0.168829
0.129002
-0.161988
0.121472
-0.153322
0.115819
-0.14137
0.117072
-0.114416
0.126381
-0.0592087
0.140482
0.00932479
0.153274
0.105243
0.161103
0.191713
0.163188
0.28213
0.160435
0.30688
0.156364
0.255261
0.152898
0.128319
0.153206
-0.0393184
0.154766
-0.115621
0.151977
-0.202779
0.146116
-0.209668
0.141966
-0.276719
0.142946
-0.241402
0.143529
-0.073817
0.142702
0.00319428
0.141276
0.291874
0.25843
0.193171
-0.012004
0.190989
-0.0186622
0.187386
-0.0250422
0.182593
-0.0321972
0.176525
-0.0404204
0.169089
-0.0489124
0.160475
-0.0571745
0.151053
-0.064834
0.141299
-0.0714468
0.131732
-0.0766477
0.122819
-0.0802244
0.114901
-0.0820787
0.108171
-0.0821752
0.102696
-0.0805008
0.0984727
-0.077016
0.0954022
-0.0715935
0.0929252
-0.0641521
0.0897792
-0.0551554
0.0849992
-0.0457043
0.0798325
-0.0362502
0.0779585
-0.0249473
0.0827283
-0.00834456
0.0942054
0.0154885
0.109664
0.0443583
0.125851
0.0751508
0.140889
0.106317
0.154357
0.138219
0.165925
0.167916
0.17419
0.184819
0.17756
0.172491
0.176406
0.119058
0.172208
0.0333735
0.165804
-0.0539143
0.158142
-0.117917
0.150558
-0.153289
0.143511
-0.165848
0.137391
-0.168686
0.132413
-0.163851
0.127013
-0.156587
0.120351
-0.14666
0.114702
-0.135721
0.115135
-0.114849
0.123648
-0.0677217
0.13777
-0.00479651
0.151561
0.091452
0.160959
0.182315
0.164659
0.27843
0.162958
0.308581
0.159034
0.259185
0.154796
0.132557
0.154099
-0.0386216
0.155249
-0.11677
0.152517
-0.200047
0.146464
-0.203615
0.141801
-0.272056
0.142903
-0.242504
0.143837
-0.0747511
0.143115
0.00391603
0.14192
0.293069
0.259315
0.191204
-0.0102334
0.187994
-0.0154523
0.183517
-0.0205651
0.178108
-0.0267877
0.171608
-0.0339204
0.164017
-0.0413217
0.155545
-0.0487026
0.146499
-0.0557876
0.137273
-0.0622215
0.128301
-0.067675
0.119963
-0.0718867
0.112545
-0.074661
0.106228
-0.075858
0.101105
-0.0753776
0.0972059
-0.0731172
0.0945372
-0.0689247
0.0930174
-0.0626323
0.0920922
-0.0542302
0.090535
-0.0441471
0.0876487
-0.0333639
0.0849024
-0.022201
0.0856513
-0.00909347
0.0918435
0.00929635
0.103368
0.0328335
0.117866
0.0606528
0.133244
0.0909396
0.1484
0.123063
0.162168
0.154149
0.172182
0.174804
0.176516
0.168157
0.176147
0.119427
0.172054
0.037467
0.165139
-0.0469997
0.156416
-0.109194
0.148007
-0.14488
0.140565
-0.158406
0.13419
-0.162312
0.129305
-0.158965
0.124717
-0.151999
0.11902
-0.140963
0.11349
-0.130192
0.113076
-0.114435
0.120583
-0.0752286
0.13448
-0.0186939
0.149183
0.0767495
0.160229
0.171269
0.165666
0.272992
0.165092
0.309156
0.161433
0.262844
0.156602
0.137388
0.154931
-0.0369506
0.155594
-0.117433
0.152981
-0.197435
0.146799
-0.197433
0.141616
-0.266873
0.142813
-0.2437
0.144161
-0.076099
0.143576
0.00450093
0.14268
0.293966
0.259908
0.182072
-0.00836206
0.17858
-0.0119606
0.174371
-0.0163561
0.169336
-0.0217528
0.163321
-0.0279055
0.156463
-0.0344637
0.148939
-0.0411779
0.140974
-0.0478228
0.13288
-0.0541274
0.124997
-0.0597924
0.117634
-0.0645237
0.11103
-0.0680567
0.10534
-0.0701681
0.100648
-0.0706854
0.0970004
-0.0694698
0.094451
-0.0663753
0.0930669
-0.0612483
0.0927904
-0.0539537
0.0930527
-0.0444094
0.0927852
-0.0330964
0.0916091
-0.0210249
0.0908783
-0.00836263
0.0934742
0.00670038
0.10052
0.025788
0.111565
0.0496078
0.125262
0.0772426
0.140441
0.107884
0.15535
0.139239
0.16695
0.163205
0.17321
0.161896
0.174604
0.118034
0.17158
0.0404903
0.163998
-0.039417
0.154349
-0.0995458
0.145335
-0.135865
0.137676
-0.150747
0.131122
-0.155758
0.126175
-0.154018
0.122224
-0.148048
0.117512
-0.136251
0.112198
-0.124878
0.11095
-0.113187
0.117413
-0.0816916
0.130729
-0.0320098
0.146091
0.0613871
0.158608
0.158752
0.165855
0.265746
0.166598
0.308413
0.163436
0.266005
0.158244
0.14258
0.155662
-0.0343683
0.155783
-0.117554
0.153358
-0.195011
0.1471
-0.191175
0.141429
-0.261202
0.142697
-0.244968
0.1445
-0.0779018
0.144078
0.00492279
0.143547
0.294496
0.260155
0.209828
-0.00681391
-0.211376
0.208984
-0.0111166
0.207888
-0.0152598
0.206262
-0.0201271
0.203965
-0.0256086
0.200951
-0.03145
0.197216
-0.0374422
0.192761
-0.0433678
0.18763
-0.0489963
0.181915
-0.0540777
0.17574
-0.0583487
0.169242
-0.0615589
0.162561
-0.0634867
0.155827
-0.0639512
0.149161
-0.0628044
0.142682
-0.0598958
0.136509
-0.0550757
0.130792
-0.0482364
0.125539
-0.039157
0.12027
-0.0278266
0.11427
-0.0150255
0.107794
-0.00188621
0.101912
0.0125824
0.0986031
0.0290966
0.0989003
0.0493106
0.10287
0.0732731
0.110026
0.100728
0.119635
0.12963
0.131955
0.150885
0.148533
0.145318
0.167461
0.0991063
0.181699
0.0262521
0.187881
-0.0455991
0.186194
-0.0978586
0.179951
-0.129623
0.171732
-0.142529
0.162896
-0.146921
0.1547
-0.145822
0.147366
-0.140714
0.139518
-0.128403
0.130709
-0.116068
0.124214
-0.106693
0.123528
-0.0810051
0.12808
-0.0365621
0.133917
0.0555507
0.138348
0.15432
0.141445
0.262649
0.144572
0.305286
0.148879
0.261699
0.152921
0.138538
0.155717
-0.0371646
0.157299
-0.119136
0.154453
-0.192165
0.147207
-0.183928
0.139748
-0.253743
0.136615
-0.241835
0.134797
-0.0760833
0.131445
0.00827448
0.130331
0.29561
0.259793
0.218991
-0.00565674
-0.220148
0.217718
-0.00984422
0.216477
-0.0140189
0.214799
-0.0184483
0.212487
-0.0232973
0.209512
-0.0284752
0.205863
-0.0337931
0.201544
-0.0390484
0.196588
-0.0440402
0.191068
-0.0485582
0.185097
-0.052377
0.17881
-0.055272
0.172356
-0.0570326
0.165879
-0.0574749
0.159517
-0.0564421
0.153397
-0.0537753
0.147625
-0.049304
0.142315
-0.0429267
0.137603
-0.0344446
0.133391
-0.0236148
0.129085
-0.0107195
0.12397
0.00322844
0.118681
0.0178715
0.114438
0.0333395
0.113001
0.0507478
0.115508
0.0707666
0.12209
0.094145
0.132365
0.119355
0.146957
0.136293
0.16604
0.126235
0.18535
0.0797964
0.198516
0.0130859
0.202634
-0.0497169
0.19917
-0.0943949
0.191527
-0.12198
0.182459
-0.13346
0.173115
-0.137578
0.164451
-0.137158
0.15692
-0.133183
0.149297
-0.120779
0.140515
-0.107287
0.133411
-0.0995886
0.131901
-0.0794958
0.136134
-0.0407949
0.142329
0.049356
0.147494
0.149155
0.151637
0.258507
0.155952
0.30097
0.161239
0.256412
0.165626
0.134151
0.168015
-0.0395541
0.168921
-0.120042
0.165534
-0.188778
0.157526
-0.175921
0.148996
-0.245213
0.145527
-0.238366
0.143597
-0.0741531
0.139954
0.0119168
0.138934
0.296631
0.259207
0.227688
-0.00488457
-0.22846
0.226546
-0.00870284
0.225182
-0.0126547
0.22345
-0.0167167
0.221181
-0.0210282
0.2183
-0.0255941
0.214794
-0.0302869
0.210674
-0.0349284
0.205971
-0.0393367
0.200743
-0.0433301
0.195082
-0.0467163
0.189108
-0.0492978
0.182955