/*--------------------------------*- C++ -*----------------------------------*\
| =========                 |                                                 |
| \\      /  F ield         | OpenFOAM: The Open Source CFD Toolbox           |
|  \\    /   O peration     | Version:  2512                                  |
|   \\  /    A nd           | Website:  www.openfoam.com                      |
|    \\/     M anipulation  |                                                 |
\*---------------------------------------------------------------------------*/
FoamFile
{
    version     2.0;
    format      ascii;
    arch        "LSB;label=32;scalar=64";
    class       volVectorField;
    location    "141.75";
    object      U;
}
// * * * * * * * * * * * * * * * * * * * * * * * * * * * * * * * * * * * * * //

dimensions      [0 1 -1 0 0 0 0];

internalField   nonuniform List<vector> 
13248
(
(-0.0132284 0.0127288 9.96492e-20)
(-0.0212685 0.0265823 0)
(-0.0101585 0.0337973 -1.88191e-19)
(0.0189479 0.0357569 1.77268e-19)
(0.0651561 0.0337867 1.66043e-19)
(0.127653 0.0290915 0)
(0.205424 0.0226591 0)
(0.29702 0.0152787 4.06305e-19)
(0.400307 0.00754929 -1.71286e-22)
(0.512296 -0.000124532 -3.58067e-19)
(0.629139 -0.0075258 3.35527e-19)
(0.746331 -0.0146028 -2.10247e-19)
(0.859098 -0.021428 0)
(0.96287 -0.028144 -3.61576e-19)
(1.05378 -0.0349025 6.72611e-19)
(1.12905 -0.0418118 -1.61362e-19)
(1.18727 -0.0488983 -2.77032e-19)
(1.2284 -0.0561021 2.60105e-19)
(1.25369 -0.0632472 0)
(1.26527 -0.070282 0)
(1.26598 -0.0764729 0)
(1.2578 -0.0838071 0)
(1.24488 -0.0859052 6.81434e-20)
(1.22366 -0.102857 2.2976e-19)
(-0.0118901 0.0101789 -3.00634e-19)
(-0.0130066 0.01831 2.04644e-19)
(0.00866923 0.0206632 -1.78465e-21)
(0.0515272 0.0190882 -2.70388e-19)
(0.114339 0.0151548 -1.65865e-19)
(0.195747 0.0101781 -1.57108e-19)
(0.293771 0.0051305 -2.90466e-19)
(0.405488 0.000669884 2.74284e-19)
(0.526875 -0.00284887 0)
(0.652894 -0.0053689 7.77786e-22)
(0.777874 -0.00709707 9.94136e-22)
(0.896096 -0.00842993 2.07933e-19)
(1.00245 -0.00985007 0)
(1.09302 -0.011814 0)
(1.16545 -0.0146563 2.40314e-19)
(1.2191 -0.0185295 -4.5174e-19)
(1.25492 -0.0233901 2.63134e-19)
(1.27507 -0.0290234 -2.4707e-19)
(1.28248 -0.0351037 -1.05723e-19)
(1.2803 -0.0412479 -1.88144e-19)
(1.27142 -0.0470347 -7.34122e-20)
(1.25827 -0.0523681 -1.36473e-19)
(1.2427 -0.0551711 2.06736e-19)
(1.22468 -0.0623006 5.68098e-20)
(-0.00943683 0.00752099 0)
(-0.000715902 0.0102645 0)
(0.0351148 0.00872228 9.56835e-20)
(0.0955979 0.00495337 8.83636e-20)
(0.178663 0.000658092 -1.76472e-21)
(0.281721 -0.00281762 -1.61658e-19)
(0.400995 -0.00464939 0)
(0.531303 -0.00451484 -1.36686e-19)
(0.666254 -0.00255346 1.28286e-19)
(0.79884 0.000705173 -5.60184e-23)
(0.922292 0.00447469 -2.20544e-19)
(1.03095 0.00788989 -2.0181e-19)
(1.12095 0.0101869 4.30161e-21)
(1.19051 0.0108419 -1.64467e-19)
(1.23991 0.0096409 3.97509e-19)
(1.27112 0.0066733 0)
(1.28721 0.00226723 -2.50678e-19)
(1.2917 -0.00311215 1.22953e-19)
(1.28797 -0.00894501 1.05641e-19)
(1.27889 -0.0147979 0)
(1.26665 -0.0201177 8.35407e-20)
(1.25256 -0.0251553 -2.78901e-19)
(1.23786 -0.0278853 2.61818e-19)
(1.22203 -0.0350155 1.56578e-19)
(-0.00533365 0.00460909 -1.0551e-19)
(0.0167549 0.00233379 -1.08948e-19)
(0.070527 -0.00188019 9.89268e-20)
(0.15223 -0.00612852 0)
(0.258259 -0.0088109 0)
(0.383923 -0.00877083 -3.0556e-21)
(0.522807 -0.00561341 0)
(0.666998 0.000334217 -4.15077e-19)
(0.807933 0.00817488 3.85765e-19)
(0.937597 0.0166712 -4.76979e-19)
(1.04967 0.0245288 1.09773e-19)
(1.14028 0.0306646 0)
(1.20825 0.0343891 1.8032e-19)
(1.2548 0.0354711 -3.33054e-19)
(1.28285 0.0340894 7.95822e-20)
(1.29623 0.0307097 1.99917e-19)
(1.29889 0.0259348 -1.09794e-20)
(1.29433 0.0203758 -2.19903e-19)
(1.28527 0.0145597 0)
(1.27365 0.00890593 0)
(1.2607 0.00372937 -7.58888e-20)
(1.24713 -0.000953873 6.72395e-20)
(1.23355 -0.00401273 2.35261e-19)
(1.21944 -0.0102794 -2.20937e-19)
(0.000917411 0.00146841 -1.10438e-19)
(0.0403938 -0.00524626 -1.1045e-19)
(0.115818 -0.0106098 3.10813e-19)
(0.221602 -0.0133062 -1.89407e-19)
(0.351759 -0.0121898 1.78273e-19)
(0.498602 -0.00666689 3.25239e-19)
(0.652551 0.00282984 -2.2962e-19)
(0.803187 0.0150071 -2.79085e-19)
(0.940886 0.028097 5.75395e-21)
(1.05835 0.0402984 3.58324e-19)
(1.15153 0.0501616 0)
(1.21971 0.0568229 9.76111e-20)
(1.26495 0.0600514 0)
(1.29109 0.0601394 -1.5843e-19)
(1.30265 0.0577068 2.22936e-19)
(1.30398 0.0534956 2.51757e-21)
(1.29871 0.0482122 -5.75439e-20)
(1.2895 0.0424378 1.0739e-19)
(1.27816 0.0366051 9.17452e-20)
(1.26579 0.031009 -8.16719e-20)
(1.25304 0.0258534 7.58697e-20)
(1.24025 0.0211661 -6.72216e-20)
(1.22765 0.0175299 0)
(1.21499 0.0116961 -5.03009e-20)
(0.00972822 -0.00169583 1.10422e-19)
(0.070898 -0.011845 1.15547e-19)
(0.171294 -0.0164709 -1.04077e-19)
(0.30284 -0.0153489 1.94206e-19)
(0.456284 -0.00828377 -1.82781e-19)
(0.620317 0.00425297 1.65758e-19)
(0.782357 0.0205979 -7.93758e-20)
(0.930653 0.0383517 2.09479e-19)
(1.05639 0.0550682 -1.31289e-19)
(1.15491 0.0688237 2.31756e-19)
(1.22571 0.0785243 -5.33861e-19)
(1.27159 0.0839283 1.95321e-19)
(1.29723 0.0854558 -1.70712e-19)
(1.3079 0.0839035 1.60359e-19)
(1.30841 0.0801746 1.37561e-19)
(1.30261 0.0750913 1.20075e-19)
(1.29321 0.0693039 -3.33456e-19)
(1.28199 0.0632789 2.06673e-19)
(1.26997 0.0573277 -9.17481e-20)
(1.25772 0.0516517 2.3721e-19)
(1.24553 0.0463729 -7.66313e-20)
(1.23354 0.0415533 -1.83898e-19)
(1.22184 0.037458 1.69354e-19)
(1.21022 0.0320004 5.02861e-20)
(0.0213937 -0.00453108 0)
(0.108564 -0.0165098 8.55077e-22)
(0.236496 -0.0181309 2.16352e-19)
(0.393919 -0.0108542 -2.03048e-19)
(0.56761 0.00394578 -1.83748e-19)
(0.742639 0.0242141 3.41546e-19)
(0.90454 0.0468474 -1.58637e-19)
(1.04219 0.0685487 2.11314e-19)
(1.14961 0.0867123 -4.79238e-21)
(1.22608 0.0998791 -1.19408e-19)
(1.27491 0.10774 2.60251e-19)
(1.30163 0.110845 -3.83191e-19)
(1.31232 0.110199 0)
(1.31243 0.106907 -7.48071e-20)
(1.30617 0.101948 -1.99459e-19)
(1.29644 0.0960712 6.27355e-20)
(1.28505 0.0898001 2.7093e-21)
(1.27304 0.0834729 -1.3621e-19)
(1.26095 0.0773007 9.26647e-21)
(1.24901 0.0714128 1.57158e-19)
(1.23736 0.0658884 -6.94039e-20)
(1.22601 0.0607867 -2.60693e-20)
(1.21496 0.0561429 8.13355e-20)
(1.2041 0.0508297 0)
(0.0360623 -0.00658283 0)
(0.15319 -0.0180989 5.85354e-20)
(0.310095 -0.0141502 -2.80491e-19)
(0.49169 0.00143434 1.02334e-19)
(0.680579 0.0250575 -9.63099e-20)
(0.859121 0.0527437 -8.7745e-20)
(1.01293 0.0801191 -1.55496e-19)
(1.13367 0.103564 7.74789e-20)
(1.21966 0.120987 6.76855e-20)
(1.27435 0.131875 0)
(1.3041 0.136879 1.53414e-19)
(1.31597 0.137252 -2.27639e-19)
(1.31621 0.134368 1.69667e-19)
(1.30963 0.129424 7.48473e-20)
(1.29949 0.123321 -6.10565e-20)
(1.28776 0.116671 -5.0956e-20)
(1.27554 0.109858 -4.74584e-20)
(1.26335 0.103113 1.4234e-19)
(1.25146 0.0965764 0)
(1.23994 0.0903328 7.09909e-20)
(1.2288 0.0844408 5.92709e-20)
(1.21804 0.0789402 -1.47592e-19)
(1.20759 0.0737763 -1.0003e-19)
(1.19737 0.0685182 9.26857e-20)
(0.0537 -0.00733899 -6.211e-20)
(0.204006 -0.0154327 -1.9128e-21)
(0.389888 -0.00323586 5.69106e-20)
(0.592148 0.0223319 1.58707e-19)
(0.789806 0.0549399 4.60838e-20)
(0.964318 0.0887375 -8.90013e-20)
(1.10368 0.118672 8.1576e-20)
(1.20406 0.141578 -7.17047e-20)
(1.26845 0.156458 1.28005e-19)
(1.30385 0.163971 5.46497e-20)
(1.31843 0.165651 -1.54642e-19)
(1.31958 0.163228 4.57166e-20)
(1.31296 0.158212 7.79756e-20)
(1.30239 0.151731 -3.83565e-20)
(1.29016 0.144535 0)
(1.27749 0.137081 5.72613e-20)
(1.26499 0.129637 9.68598e-20)
(1.25289 0.122354 1.65266e-20)
(1.24128 0.115324 -8.0687e-20)
(1.23016 0.108604 3.38154e-20)
(1.21949 0.102236 0)
(1.20923 0.0962298 -2.65049e-20)
(1.1993 0.0905204 -2.47756e-20)
(1.18961 0.0851213 0)
(0.0740484 -0.00627682 0)
(0.259646 -0.0074445 3.2435e-20)
(0.47293 0.0155417 6.00965e-20)
(0.690879 0.0520401 -1.61021e-19)
(0.890412 0.092827 5.17542e-20)
(1.05444 0.130702 0)
(1.17535 0.160814 7.80724e-20)
(1.25454 0.181187 -1.08893e-19)
(1.29923 0.192253 -6.37273e-20)
(1.3188 0.19581 2.89281e-20)
(1.32207 0.19405 -4.60425e-20)
(1.31593 0.188927 1.11942e-19)
(1.30505 0.181907 5.62604e-20)
(1.29223 0.173955 -3.90497e-20)
(1.27897 0.165648 -3.61769e-21)
(1.26595 0.157309 -1.0746e-19)
(1.25347 0.149115 4.89617e-20)
(1.2416 0.141161 -1.12164e-21)
(1.23034 0.13351 0)
(1.21964 0.1262 -3.38502e-20)
(1.20944 0.119257 0)
(1.19966 0.112664 7.66256e-20)
(1.19024 0.106415 -9.12969e-20)
(1.18104 0.100734 4.15964e-20)
(0.0965998 -0.00290944 -1.66441e-20)
(0.318198 0.00669578 -8.13791e-20)
(0.555795 0.0426149 9.23221e-20)
(0.783574 0.0901208 5.44799e-20)
(0.978555 0.137456 -2.61108e-20)
(1.12742 0.177016 4.37455e-20)
(1.22819 0.20509 -2.13034e-20)
(1.28734 0.221409 3.55106e-20)
(1.31531 0.227898 0)
(1.32264 0.227292 8.06632e-20)
(1.31791 0.222165 -3.19505e-21)
(1.30706 0.214485 -6.53196e-20)
(1.29369 0.205554 2.80908e-20)
(1.27971 0.196142 -3.18249e-20)
(1.26604 0.186667 -1.22359e-20)
(1.25301 0.177344 1.39772e-20)
(1.24072 0.168283 -1.09126e-20)
(1.22917 0.159546 -5.90807e-20)
(1.21831 0.15117 3.62569e-20)
(1.20806 0.143182 7.48623e-21)
(1.19833 0.135583 6.60549e-21)
(1.18904 0.12835 5.82885e-21)
(1.1801 0.121555 0)
(1.17137 0.115411 0)
(0.120677 0.00318062 1.66556e-20)
(0.377463 0.0275046 -1.67382e-20)
(0.635043 0.0778696 -3.07166e-20)
(0.866578 0.135586 0)
(1.05168 0.187295 -1.2918e-20)
(1.18262 0.226149 -1.15529e-20)
(1.26339 0.250366 -1.98723e-20)
(1.3048 0.261614 0)
(1.31927 0.263167 0)
(1.31759 0.258413 0)
(1.30748 0.250061 0)
(1.29377 0.23994 0)
(1.27908 0.229135 -1.76909e-20)
(1.26465 0.218226 8.07009e-21)
(1.25096 0.207497 1.4083e-20)
(1.23815 0.197082 6.57486e-21)
(1.2262 0.187045 1.64023e-20)
(1.21508 0.17742 0)
(1.20469 0.168228 -3.97856e-21)
(1.19495 0.159482 -3.76278e-21)
(1.18576 0.151164 -6.61594e-21)
(1.17702 0.14326 -5.83809e-21)
(1.16863 0.135924 0)
(1.16042 0.129181 4.24505e-21)
(-0.00273587 0.0422463 9.58974e-21)
(-0.00991668 0.0926416 -9.9376e-21)
(-0.021317 0.119426 -1.88047e-20)
(-0.0350059 0.129659 0)
(-0.0498402 0.128892 -2.50763e-20)
(-0.0652259 0.121249 7.78134e-21)
(-0.0807285 0.10949 -1.50644e-20)
(-0.0960197 0.0951982 0)
(-0.11086 0.0790598 0)
(-0.125068 0.0611721 0)
(-0.138504 0.0413147 0)
(-0.151055 0.0191488 0)
(-0.162564 -0.0056626 -3.15029e-22)
(-0.1729 -0.0333346 -9.99778e-21)
(-0.181994 -0.0639214 1.96199e-20)
(-0.189708 -0.0974315 2.74023e-20)
(-0.195889 -0.133657 9.05372e-21)
(-0.2004 -0.172208 0)
(-0.203115 -0.212499 7.2388e-21)
(-0.203941 -0.253741 -2.09336e-20)
(-0.202812 -0.294955 -1.30614e-20)
(-0.199654 -0.335007 -1.19992e-20)
(-0.194458 -0.372646 0)
(-0.187707 -0.406511 0)
(-0.00535945 0.0457322 -2.91604e-20)
(-0.0147949 0.101587 5.00293e-20)
(-0.0259259 0.132542 -1.93996e-20)
(-0.0379894 0.145814 -3.62454e-20)
(-0.0504693 0.147119 5.09245e-20)
(-0.0630748 0.140757 -3.25144e-20)
(-0.0755257 0.129667 4.56421e-20)
(-0.0875577 0.115584 2.97286e-20)
(-0.098945 0.0993145 0)
(-0.109502 0.0810381 -2.59874e-20)
(-0.11908 0.0605873 -5.69471e-22)
(-0.127566 0.0376561 2.28605e-20)
(-0.134855 0.0119441 3.41525e-20)
(-0.140766 -0.0167994 4.3038e-20)
(-0.145285 -0.0487253 -1.92793e-20)
(-0.148422 -0.0837664 -5.6738e-20)
(-0.15005 -0.121723 1.87914e-20)
(-0.15014 -0.162205 -6.91572e-20)
(-0.148703 -0.20461 0)
(-0.145802 -0.248111 1.41181e-20)
(-0.141559 -0.291654 1.30428e-20)
(-0.136051 -0.333994 1.19821e-20)
(-0.129206 -0.373718 0)
(-0.121798 -0.409176 0)
(-0.00810202 0.0475123 0)
(-0.0198819 0.107146 1.05037e-19)
(-0.0304559 0.141679 -3.95095e-20)
(-0.0403058 0.157965 3.69982e-20)
(-0.0495935 0.161561 -1.0657e-19)
(-0.0583631 0.156772 0)
(-0.0665165 0.146628 -6.40487e-20)
(-0.0738724 0.132998 3.05446e-20)
(-0.0802253 0.116822 -5.87024e-20)
(-0.0853793 0.0983937 2.91163e-20)
(-0.0891649 0.0776323 1.58975e-19)
(-0.0914444 0.0542875 -7.4813e-20)
(-0.0921097 0.0280842 -1.19092e-19)
(-0.0911265 -0.00120914 -4.76164e-20)
(-0.0883936 -0.0337559 -9.59648e-22)
(-0.0838546 -0.0694602 1.6349e-19)
(-0.0775922 -0.108127 -7.70726e-20)
(-0.0696697 -0.149352 -2.19324e-21)
(-0.0602181 -0.192514 0)
(-0.04945 -0.236759 -6.48992e-20)
(-0.0376895 -0.280987 0)
(-0.0252735 -0.32388 -5.0313e-20)
(-0.0120128 -0.363893 1.92943e-19)
(0.00200617 -0.399162 -3.96797e-21)
(-0.0106816 0.0473952 0)
(-0.0247116 0.108751 1.31636e-21)
(-0.0345406 0.14596 4.13639e-20)
(-0.0418001 0.165002 -3.93395e-20)
(-0.0473069 0.170961 3.54681e-20)
(-0.0514466 0.167951 2.08639e-19)
(-0.0543268 0.158987 -6.54404e-20)
(-0.055876 0.146022 -6.34603e-20)
(-0.0559305 0.130122 1.19177e-19)
(-0.0542961 0.111715 -1.70818e-19)
(-0.0507882 0.0908251 5.45789e-20)
(-0.0452525 0.0672797 5.2824e-20)
(-0.037575 0.0408469 0)
(-0.0276835 0.0113293 4.63792e-20)
(-0.0155371 -0.0213406 0)
(-0.00112564 -0.0571284 8.73245e-20)
(0.0154574 -0.0957993 -1.62762e-19)
(0.0340537 -0.136912 3.7336e-20)
(0.0544058 -0.179798 1.43413e-19)
(0.0761593 -0.223548 6.48173e-20)
(0.0987911 -0.267027 0)
(0.121594 -0.308878 -1.63606e-19)
(0.144405 -0.347279 5.19229e-20)
(0.170173 -0.379786 0)
(-0.0128359 0.0454339 0)
(-0.0288338 0.106277 -1.32753e-19)
(-0.0378489 0.144958 -4.23382e-20)
(-0.0424002 0.166205 -7.93465e-20)
(-0.0438459 0.174372 7.47109e-20)
(-0.0428912 0.173199 -7.0099e-20)
(-0.0398632 0.165563 1.35808e-19)
(-0.0348289 0.15343 6.51539e-20)
(-0.0276954 0.137966 -1.82212e-19)
(-0.0182937 0.119724 1.18158e-19)
(-0.00643673 0.0988511 -1.67508e-19)
(0.00804456 0.0752717 3.77828e-19)
(0.025278 0.0488249 -2.03118e-19)
(0.0453338 0.0193652 9.88252e-20)
(0.0682532 -0.0131502 2.81933e-19)
(0.0940159 -0.0486334 -8.54947e-20)
(0.122464 -0.0868217 -8.37588e-20)
(0.153342 -0.127225 -7.82096e-20)
(0.186256 -0.169112 0)
(0.220656 -0.211501 -1.35064e-19)
(0.25576 -0.253221 -1.19575e-19)
(0.290858 -0.292873 1.74448e-19)
(0.324245 -0.328742 1.9692e-19)
(0.364558 -0.356678 -1.85372e-19)
(-0.0143787 0.0419192 0)
(-0.031902 0.10007 -1.83047e-19)
(-0.040124 0.138781 -1.05445e-21)
(-0.04207 0.161365 1.61691e-19)
(-0.0394672 0.171291 0)
(-0.0332791 0.171789 0)
(-0.0240444 0.165483 0)
(-0.0119858 0.154268 -6.60197e-20)
(0.00289237 0.139357 -1.89947e-21)
(0.0207111 0.121405 1.18386e-19)
(0.0416435 0.100675 -1.72121e-19)
(0.065865 0.0771937 -1.4352e-21)
(0.0935194 0.050886 0)
(0.124694 0.021679 -9.87618e-20)
(0.159403 -0.0104151 9.68715e-20)
(0.197555 -0.0452668 -2.69662e-19)
(0.238899 -0.0825496 3.40202e-19)
(0.283006 -0.121704 7.94353e-20)
(0.329229 -0.16192 -3.53026e-21)
(0.37673 -0.202139 -2.77643e-19)
(0.424224 -0.241167 -1.24879e-19)
(0.471489 -0.277326 3.90298e-19)
(0.512788 -0.310345 -2.5688e-19)
(0.567457 -0.332901 0)
(-0.0152435 0.0373252 9.14237e-20)
(-0.0337319 0.0908904 9.20054e-20)
(-0.0412015 0.128074 -8.80613e-20)
(-0.0407647 0.150835 -1.64871e-19)
(-0.0343108 0.161747 1.55229e-19)
(-0.0229718 0.163468 -1.47656e-19)
(-0.00745966 0.158281 2.08949e-19)
(0.0118545 0.147934 -6.63347e-20)
(0.034863 0.133619 1.2551e-19)
(0.0616316 0.116049 0)
(0.0923125 0.0955809 1.17703e-19)
(0.127082 0.0723463 -2.18802e-19)
(0.166089 0.0463674 2.11948e-19)
(0.209405 0.0176553 -1.99058e-19)
(0.256967 -0.0137056 0)
(0.308531 -0.0474903 1.80348e-19)
(0.363605 -0.0832766 3.40121e-19)
(0.421411 -0.120409 -3.19703e-19)
(0.480839 -0.158001 -1.46791e-19)
(0.540636 -0.194886 -1.33799e-19)
(0.598619 -0.230067 3.76772e-19)
(0.655593 -0.261129 1.04303e-19)
(0.700912 -0.290396 -1.03435e-19)
(0.763906 -0.306187 8.40737e-20)
(-0.0154971 0.0322194 -9.14362e-20)
(-0.0343288 0.0797802 2.83763e-19)
(-0.0410012 0.113914 -8.97182e-20)
(-0.0383492 0.135506 1.67036e-19)
(-0.0282243 0.146358 -1.57264e-19)
(-0.0118206 0.148572 4.90228e-23)
(0.0100449 0.144059 7.01721e-20)
(0.0368959 0.134361 2.69156e-19)
(0.0685415 0.12059 3.21119e-21)
(0.105012 0.103459 -1.19423e-19)
(0.146436 0.0834096 0)
(0.192965 0.0606597 -1.11785e-19)
(0.244688 0.035329 2.08427e-19)
(0.301544 0.00753627 2.00998e-19)
(0.363232 -0.0225143 -9.45099e-20)
(0.429132 -0.0544733 -1.15954e-21)
(0.498239 -0.0877991 -8.47366e-20)
(0.569156 -0.121733 1.55077e-19)
(0.64007 -0.155353 1.46743e-19)
(0.709183 -0.187402 -1.3462e-19)
(0.773431 -0.217329 1.17922e-19)
(0.834258 -0.241912 -1.05174e-19)
(0.878658 -0.266207 0)
(0.939514 -0.27435 -8.40171e-20)
(-0.0153142 0.027153 9.35399e-20)
(-0.0338423 0.0678587 -9.51528e-20)
(-0.039453 0.097625 9.03858e-20)
(-0.0344689 0.116689 0)
(-0.0205493 0.126302 0)
(0.00115714 0.128102 1.50869e-19)
(0.0298214 0.12365 -1.41076e-19)
(0.0649383 0.114256 1.35303e-19)
(0.106267 0.100906 -6.35454e-19)
(0.153799 0.0843336 -1.26686e-21)
(0.207628 0.0649981 1.14626e-19)
(0.267751 0.0431839 0)
(0.334004 0.0191251 -2.09473e-19)
(0.405922 -0.00692503 3.95261e-19)
(0.482622 -0.0346307 -2.80658e-19)
(0.562741 -0.0635218 -4.40664e-19)
(0.644433 -0.0929693 2.39004e-21)
(0.725448 -0.122183 3.02951e-19)
(0.803235 -0.150305 0)
(0.875453 -0.176174 0)
(0.938924 -0.199647 -1.17921e-19)
(0.994753 -0.217363 1.05176e-19)
(1.03204 -0.23603 -3.48919e-19)
(1.0788 -0.237311 3.27114e-19)
(-0.0149122 0.0225557 0)
(-0.0324438 0.05611 0)
(-0.0363498 0.0805435 -2.71908e-19)
(-0.0283764 0.0959184 8.63105e-20)
(-0.00990478 0.103201 3.15745e-22)
(0.0180499 0.103707 1.51377e-19)
(0.0547308 0.0987126 0)
(0.0996624 0.0893216 -1.34036e-19)
(0.152625 0.0764369 1.27009e-19)
(0.213463 0.0607297 -2.41404e-19)
(0.281984 0.0426526 -1.16178e-21)
(0.357794 0.0225968 2.18062e-19)
(0.440084 0.000897549 1.75206e-21)
(0.527523 -0.0220944 1.96059e-19)
(0.61821 -0.0459637 -2.75657e-19)
(0.70971 -0.0702062 0)
(0.799196 -0.0942249 3.17168e-19)
(0.883668 -0.117358 -4.48031e-19)
(0.960244 -0.138925 1.31679e-19)
(1.02652 -0.158155 0)
(1.08032 -0.174982 1.06562e-19)
(1.12226 -0.186956 3.78082e-19)
(1.14649 -0.200385 -3.54885e-19)
(1.17161 -0.197502 -3.58752e-19)
(-0.0144568 0.0186561 2.86417e-19)
(-0.0301529 0.0452046 -3.92791e-19)
(-0.0311686 0.0637925 1.107e-21)
(-0.0187802 0.0747231 8.70516e-20)
(0.0059176 0.0789293 -1.62107e-19)
(0.0420885 0.0775641 -1.51031e-19)
(0.0890853 0.0717225 2.85022e-19)
(0.146437 0.0623626 7.2407e-22)
(0.213747 0.0502791 -2.52797e-19)
(0.290509 0.036079 4.80335e-19)
(0.375871 0.020265 2.5457e-21)
(0.468484 0.0032422 -2.13904e-19)
(0.566367 -0.0146354 0)
(0.666899 -0.0330237 0)
(0.76693 -0.051564 -9.06044e-20)
(0.863015 -0.0698741 -1.63653e-19)
(0.951723 -0.0875452 -3.04637e-19)
(1.02997 -0.104185 2.8598e-19)
(1.0954 -0.119355 -1.31761e-19)
(1.14652 -0.132811 2.26145e-19)
(1.18304 -0.144188 -1.17561e-19)
(1.20593 -0.152846 1.67161e-19)
(1.21463 -0.162168 -4.12511e-19)
(1.21934 -0.159009 7.26398e-20)
(-0.0139597 0.0154474 9.65574e-20)
(-0.0266647 0.0354053 0)
(-0.0229317 0.0481218 1.85665e-19)
(-0.00380906 0.0544086 -1.74892e-19)
(0.029814 0.0553493 1.62259e-19)
(0.0772316 0.0520739 0)
(0.137794 0.0455871 0)
(0.210802 0.0367461 -1.34951e-19)
(0.295312 0.0262585 -6.62138e-22)
(0.389904 0.0146804 1.18861e-19)
(0.492483 0.00243916 -1.12606e-19)
(0.600217 -0.0101508 2.12032e-19)
(0.709603 -0.0228597 0)
(0.816698 -0.0355144 3.71972e-19)
(0.917458 -0.0479723 -6.94482e-19)
(1.00815 -0.0600991 4.8791e-19)
(1.08572 -0.0717479 2.91078e-19)
(1.14813 -0.0827808 -2.73273e-19)
(1.19455 -0.092967 0)
(1.22524 -0.102379 0)
(1.24194 -0.110279 0)
(1.24631 -0.118031 0)
(1.24185 -0.123634 7.82596e-20)
(1.23288 -0.125606 -2.56747e-19)
(-0.179186 -0.440572 -6.42323e-21)
(-0.17066 -0.474544 6.46417e-21)
(-0.155218 -0.496232 -1.86498e-22)
(-0.133304 -0.502155 0)
(-0.103007 -0.488803 -5.40715e-21)
(-0.063272 -0.45322 1.05599e-20)
(-0.0142841 -0.393768 9.92454e-23)
(0.0427111 -0.310678 -5.10804e-21)
(0.105171 -0.205324 0)
(0.170719 -0.0829033 0)
(0.237335 0.051356 -2.7476e-22)
(0.303381 0.189856 -2.53801e-22)
(0.368162 0.322584 -3.87482e-21)
(0.429365 0.436558 3.54669e-21)
(0.483213 0.520314 0)
(0.526082 0.56904 0)
(0.556299 0.585885 1.66362e-21)
(0.57294 0.581598 -1.56405e-22)
(0.572757 0.57316 -1.33402e-21)
(0.553666 0.573335 -8.46097e-23)
(0.523595 0.573804 0)
(0.502434 0.541819 0)
(0.509977 0.442606 0)
(0.549685 0.270069 0)
(0.61028 0.054003 0)
(0.676534 -0.158197 0)
(0.735842 -0.323744 5.2689e-22)
(0.780127 -0.42589 -8.80335e-22)
(0.805715 -0.472613 0)
(0.816223 -0.481429 0)
(0.81673 -0.470883 -3.09431e-22)
(0.803577 -0.467092 3.00741e-22)
(0.769394 -0.479339 1.3698e-22)
(0.720605 -0.482287 0)
(0.681689 -0.41993 0)
(0.671833 -0.270192 4.35854e-22)
(0.6933 -0.0642841 -4.23675e-22)
(0.731774 0.133098 0)
(0.77504 0.273131 2.94341e-22)
(0.814182 0.354703 -4.09554e-22)
(0.837241 0.390936 1.0243e-22)
(0.829591 0.42709 0)
(0.793287 0.438287 -1.87265e-22)
(0.747482 0.412399 1.82099e-22)
(0.728313 0.289461 0)
(0.736493 0.109659 0)
(0.773425 -0.0700268 -9.50332e-23)
(0.814607 -0.217014 2.6809e-22)
(0.83466 -0.282299 0)
(0.819819 -0.367487 0)
(0.785187 -0.35387 -4.78415e-23)
(0.760655 -0.327945 3.80414e-24)
(0.775137 -0.18543 -1.53425e-24)
(0.797325 -0.00749201 3.46219e-23)
(0.814905 0.103795 0)
(0.806057 0.315414 0)
(0.798796 0.291073 0)
(0.789099 0.340478 0)
(0.799289 0.204504 0)
(0.786664 -0.0701187 0)
(-0.117241 -0.444306 -6.78761e-22)
(-0.122562 -0.48289 -2.55531e-20)
(-0.123367 -0.510608 1.69736e-21)
(-0.120696 -0.52381 2.23633e-20)
(-0.111925 -0.519245 3.06258e-22)
(-0.094388 -0.493209 0)
(-0.0661653 -0.443023 -1.80294e-20)
(-0.0259401 -0.36755 3.56241e-20)
(0.0240927 -0.268447 -1.75868e-20)
(0.0807503 -0.148493 1.67775e-20)
(0.142801 -0.0138846 -1.60317e-20)
(0.208429 0.124916 1.41778e-20)
(0.275965 0.2603 -1.37136e-20)
(0.34291 0.379813 -3.24118e-22)
(0.405645 0.472663 -8.76658e-21)
(0.460116 0.533145 8.51938e-21)
(0.502979 0.5631 -6.239e-21)
(0.53055 0.573034 5.89031e-21)
(0.538715 0.578684 -5.62728e-21)
(0.528656 0.588231 1.1268e-20)
(0.513073 0.58786 -5.63399e-21)
(0.512801 0.5442 -4.33124e-22)
(0.542063 0.429008 -8.41918e-21)
(0.598071 0.243781 1.71227e-20)
(0.667448 0.0209364 -8.68853e-21)
(0.735371 -0.191877 5.29899e-22)
(0.789952 -0.351851 6.47949e-21)
(0.825355 -0.444418 -1.09186e-21)
(0.840557 -0.481364 -8.38192e-21)
(0.840424 -0.483151 6.46891e-21)
(0.831777 -0.466814 -2.80834e-21)
(0.813302 -0.455312 2.69878e-22)
(0.776057 -0.459896 -1.37249e-22)
(0.722812 -0.461715 2.61584e-22)
(0.675564 -0.407919 0)
(0.656894 -0.271838 0)
(0.672425 -0.0774459 -1.5057e-21)
(0.70981 0.114494 1.13131e-21)
(0.756872 0.254826 8.0105e-22)
(0.801724 0.341638 -3.45103e-23)
(0.8302 0.38717 -9.67922e-22)
(0.825365 0.433729 1.81904e-22)
(0.793605 0.451004 0)
(0.752711 0.423104 0)
(0.739594 0.292651 0)
(0.749716 0.104171 0)
(0.785519 -0.0804553 4.72225e-22)
(0.824948 -0.225609 -1.75829e-22)
(0.842967 -0.283092 0)
(0.828606 -0.36106 0)
(0.791051 -0.346648 0)
(0.766359 -0.326507 -7.50087e-23)
(0.77716 -0.189758 1.62163e-23)
(0.796296 -0.0121637 -7.64077e-23)
(0.811929 0.102637 0)
(0.800965 0.317193 0)
(0.796554 0.292142 3.84616e-23)
(0.786351 0.340315 1.00769e-22)
(0.800979 0.204787 0)
(0.789776 -0.0687971 0)
(0.00499722 -0.433899 -3.74528e-21)
(-0.0102401 -0.474324 -5.67687e-20)
(-0.0246236 -0.505732 4.69909e-20)
(-0.0400022 -0.524368 -4.3974e-20)
(-0.0540682 -0.528438 -3.08325e-22)
(-0.0626553 -0.513548 0)
(-0.0618723 -0.475823 -3.10501e-20)
(-0.0480841 -0.412789 3.03378e-20)
(-0.0194845 -0.325021 2.46632e-22)
(0.0229985 -0.214252 3.65128e-22)
(0.0736056 -0.0828293 3.47916e-22)
(0.132854 0.0539712 4.22521e-22)
(0.199771 0.190566 -2.04914e-20)
(0.269294 0.314531 2.024e-20)
(0.337898 0.415717 0)
(0.400827 0.488033 3.75938e-22)
(0.453054 0.532474 -1.12835e-20)
(0.489192 0.558268 1.11381e-20)
(0.5059 0.577988 0)
(0.507728 0.594824 0)
(0.510067 0.591537 -1.37813e-20)
(0.531946 0.537064 2.95767e-20)
(0.581635 0.41019 -3.31117e-20)
(0.651868 0.217518 -1.14761e-21)
(0.728338 -0.00784434 3.65069e-20)
(0.796771 -0.218037 -3.48e-20)
(0.84564 -0.371606 2.79891e-20)
(0.871371 -0.455574 -3.43404e-21)
(0.876105 -0.484331 -9.74191e-21)
(0.865866 -0.48073 0)
(0.848418 -0.460403 0)
(0.824958 -0.442551 1.5213e-21)
(0.785696 -0.439711 -1.99059e-21)
(0.729451 -0.440046 -3.37045e-23)
(0.6747 -0.394989 2.42785e-21)
(0.646978 -0.273583 -2.35962e-21)
(0.655855 -0.0918528 0)
(0.691565 0.0934372 3.33668e-22)
(0.741741 0.233609 2.22504e-21)
(0.791516 0.326091 -3.96548e-21)
(0.824979 0.381543 1.61345e-21)
(0.823209 0.438849 1.76981e-22)
(0.796617 0.462412 -2.07384e-21)
(0.761111 0.433054 1.63997e-21)
(0.7541 0.2964 5.46029e-22)
(0.766171 0.10023 5.69025e-22)
(0.800328 -0.0890118 -4.73416e-22)
(0.837348 -0.233029 0)
(0.852992 -0.283257 0)
(0.839 -0.35421 -8.61756e-22)
(0.798471 -0.339261 3.97596e-22)
(0.773392 -0.324979 -2.94626e-22)
(0.780557 -0.194106 3.8766e-22)
(0.796769 -0.0166445 4.65252e-22)
(0.810535 0.101405 -1.34141e-22)
(0.797111 0.318767 1.99293e-22)
(0.795282 0.293031 -1.66709e-22)
(0.78452 0.339729 7.82738e-23)
(0.803849 0.204712 0)
(0.794035 -0.0675289 0)
(0.172274 -0.413763 -1.19456e-19)
(0.153125 -0.45183 1.22655e-20)
(0.131309 -0.482362 1.01585e-19)
(0.103606 -0.502855 -6.61655e-22)
(0.0709142 -0.51188 0)
(0.0383928 -0.50644 0)
(0.0100925 -0.482341 -5.05437e-20)
(-0.00841964 -0.434994 2.81418e-21)
(-0.0117303 -0.364184 6.56091e-20)
(0.00643039 -0.268418 -1.07718e-21)
(0.0383764 -0.149808 -1.95422e-20)
(0.0828883 -0.0180435 -1.6808e-20)
(0.142757 0.116325 1.67761e-20)
(0.209936 0.243052 0)
(0.28018 0.351632 -1.1773e-20)
(0.347574 0.435653 1.07706e-20)
(0.405715 0.49499 0)
(0.448763 0.536458 0)
(0.475017 0.568627 1.01464e-20)
(0.49144 0.59038 1.54972e-21)
(0.513874 0.583346 -1.07023e-20)
(0.557739 0.520796 -1.64554e-20)
(0.625622 0.387667 1.66101e-20)
(0.707747 0.192945 -2.03495e-20)
(0.790321 -0.0312968 6.1856e-22)
(0.858952 -0.23719 1.86303e-20)
(0.90184 -0.384201 1.8702e-21)
(0.917647 -0.460584 -7.26257e-24)
(0.911992 -0.482488 0)
(0.892315 -0.474689 5.74615e-21)
(0.866524 -0.45199 -5.88524e-21)
(0.838127 -0.429474 2.57839e-22)
(0.79761 -0.419522 0)
(0.740125 -0.41723 -2.30736e-22)
(0.679322 -0.380229 4.10739e-21)
(0.642639 -0.274434 -8.01999e-21)
(0.644064 -0.107123 -6.33064e-22)
(0.677187 0.0703403 3.37835e-22)
(0.729623 0.209823 3.49908e-21)
(0.783425 0.308184 4.15946e-22)
(0.821452 0.373863 -2.91035e-21)
(0.823001 0.442052 2.46684e-21)
(0.802018 0.472151 -5.67194e-24)
(0.772274 0.44217 2.11229e-21)
(0.771297 0.300821 -2.60141e-21)
(0.785414 0.0982302 -4.06401e-21)
(0.817623 -0.0954691 1.12063e-21)
(0.851664 -0.239247 1.46097e-21)
(0.864577 -0.282946 -2.50293e-21)
(0.850795 -0.347023 1.50688e-21)
(0.807237 -0.331608 -2.98253e-22)
(0.781473 -0.323211 3.91839e-22)
(0.785089 -0.198442 2.54182e-22)
(0.798626 -0.0209834 -6.16269e-22)
(0.810674 0.100089 -1.23389e-23)
(0.794487 0.320186 -1.70408e-22)
(0.794999 0.293781 0)
(0.783645 0.338704 -7.03957e-23)
(0.807926 0.20427 2.22226e-22)
(0.799454 -0.0663066 0)
(0.363421 -0.389372 1.20523e-19)
(0.344799 -0.423805 -2.22948e-19)
(0.319757 -0.44986 1.01441e-19)
(0.287198 -0.466765 7.40599e-20)
(0.24563 -0.474016 -1.32873e-19)
(0.197915 -0.471479 1.09601e-20)
(0.148224 -0.456941 4.71542e-20)
(0.0996246 -0.426804 3.4239e-20)
(0.060718 -0.376103 -3.35709e-20)
(0.0438041 -0.300001 0)
(0.0474074 -0.202871 -2.39996e-20)
(0.0679997 -0.0844829 4.55133e-20)
(0.110008 0.0426045 -2.17561e-20)
(0.167552 0.168946 0)
(0.23335 0.282916 0)
(0.300444 0.377389 2.92909e-22)
(0.361372 0.450432 -1.52703e-20)
(0.410556 0.505918 1.48345e-20)
(0.447686 0.548338 0)
(0.480642 0.573363 2.17469e-20)
(0.523849 0.563332 -4.65347e-20)
(0.58805 0.49661 5.68692e-20)
(0.671316 0.362965 -6.88222e-20)
(0.763204 0.170971 -3.96907e-21)
(0.851175 -0.0490776 7.8836e-20)
(0.92007 -0.249228 -3.8888e-20)
(0.957142 -0.389237 -9.52357e-22)
(0.963118 -0.458995 -9.64396e-21)
(0.947364 -0.475734 2.4232e-21)
(0.919148 -0.465127 7.4377e-21)
(0.885869 -0.441559 3.0563e-22)
(0.852715 -0.416301 -3.53442e-21)
(0.811423 -0.400161 6.54702e-21)
(0.754305 -0.394276 -3.366e-21)
(0.689356 -0.363929 0)
(0.644143 -0.273861 -4.2417e-21)
(0.637415 -0.122517 4.16645e-21)
(0.666928 0.0457517 -3.02185e-21)
(0.720455 0.183785 3.76132e-21)
(0.777243 0.287908 -3.2486e-22)
(0.819404 0.363813 0)
(0.824504 0.442912 -3.391e-22)
(0.809415 0.479935 1.19168e-21)
(0.785664 0.450423 0)
(0.790604 0.305921 6.20911e-21)
(0.806954 0.0982931 -2.33452e-21)
(0.837028 -0.0996721 1.09624e-21)
(0.867677 -0.244104 8.86322e-22)
(0.877534 -0.282124 0)
(0.863807 -0.339474 0)
(0.817179 -0.323614 -9.16897e-22)
(0.790355 -0.321128 1.26482e-21)
(0.790503 -0.202773 -6.08751e-22)
(0.80171 -0.0252508 1.65266e-22)
(0.812269 0.0986747 3.19597e-22)
(0.793081 0.3215 1.70572e-22)
(0.795722 0.29443 -2.87512e-22)
(0.78376 0.337223 0)
(0.813226 0.203442 -3.21013e-22)
(0.806034 -0.0651253 -1.34041e-22)
(0.561117 -0.36365 1.20011e-19)
(0.542453 -0.395342 -1.19277e-19)
(0.51753 -0.41668 7.48545e-22)
(0.484413 -0.427424 -5.97374e-22)
(0.441383 -0.428878 5.06059e-22)
(0.389049 -0.422244 -4.00172e-22)
(0.32865 -0.408874 5.35717e-22)
(0.262658 -0.388398 0)
(0.198127 -0.354196 -2.6239e-22)
(0.145977 -0.301165 1.74591e-22)
(0.112966 -0.229024 1.196e-22)
(0.100819 -0.133871 -2.67968e-22)
(0.114775 -0.0207436 0)
(0.151714 0.0986517 0)
(0.204312 0.213389 7.59691e-23)
(0.26477 0.314774 0)
(0.324862 0.398652 -1.00384e-22)
(0.379083 0.46559 0)
(0.427392 0.516142 -1.43918e-20)
(0.477079 0.543733 3.24712e-20)
(0.539779 0.532499 -4.17065e-20)
(0.621367 0.465868 2.34255e-20)
(0.71674 0.336663 3.6166e-20)
(0.816616 0.151299 -3.51108e-20)
(0.909775 -0.0617157 -3.99106e-20)
(0.978948 -0.254516 3.86866e-20)
(1.01037 -0.387163 0)
(1.00692 -0.45132 7.27023e-22)
(0.981625 -0.46464 0)
(0.945865 -0.452548 0)
(0.906136 -0.429273 7.82992e-21)
(0.868447 -0.403085 -8.16168e-21)
(0.826579 -0.382097 3.42168e-22)
(0.771175 -0.371899 3.45682e-22)
(0.70429 -0.346353 -2.87441e-22)
(0.651662 -0.271374 -3.02878e-21)
(0.63621 -0.137167 2.94124e-21)
(0.660761 0.0203072 -3.26035e-21)
(0.714036 0.155824 2.76373e-21)
(0.772696 0.265234 6.07184e-22)
(0.818557 0.351083 -2.58916e-21)
(0.827396 0.441037 -7.61583e-22)
(0.818327 0.48552 2.08586e-21)
(0.800656 0.457725 0)
(0.811303 0.311784 -2.49485e-21)
(0.830173 0.100121 3.79689e-21)
(0.858206 -0.10154 -4.94508e-21)
(0.885145 -0.247463 -8.91929e-22)
(0.891647 -0.280796 0)
(0.877822 -0.331578 3.21448e-22)
(0.828151 -0.315189 -7.47461e-22)
(0.799829 -0.318613 -2.31694e-23)
(0.796535 -0.207109 -1.0518e-22)
(0.805827 -0.0295429 1.892e-22)
(0.81522 0.0971323 -2.50328e-22)
(0.79288 0.322737 0)
(0.797467 0.295008 2.87647e-22)