/*--------------------------------*- C++ -*----------------------------------*\
| =========                 |                                                 |
| \\      /  F ield         | OpenFOAM: The Open Source CFD Toolbox           |
|  \\    /   O peration     | Version:  2512                                  |
|   \\  /    A nd           | Website:  www.openfoam.com                      |
|    \\/     M anipulation  |                                                 |
\*---------------------------------------------------------------------------*/
FoamFile
{
    version     2.0;
    format      ascii;
    arch        "LSB;label=32;scalar=64";
    class       volVectorField;
    location    "173.75";
    object      U;
}
// * * * * * * * * * * * * * * * * * * * * * * * * * * * * * * * * * * * * * //

dimensions      [0 1 -1 0 0 0 0];

internalField   nonuniform List<vector> 
13248
(
(-0.0108737 0.0104961 7.94814e-20)
(-0.0160052 0.0186397 0)
(-0.00651492 0.0191002 -1.51135e-19)
(0.0160611 0.0146321 1.42371e-19)
(0.0509615 0.00737931 1.33924e-19)
(0.0977465 -0.00102937 0)
(0.155965 -0.00941066 0)
(0.224905 -0.0169079 3.2354e-19)
(0.303393 -0.022901 -2.99682e-21)
(0.38968 -0.0269601 -2.79937e-19)
(0.481438 -0.0288298 2.53511e-19)
(0.575879 -0.0284261 -1.58118e-19)
(0.669965 -0.0258313 0)
(0.76067 -0.0212785 -2.50374e-19)
(0.845248 -0.0151216 4.5919e-19)
(0.921454 -0.00779485 -1.08559e-19)
(0.987697 0.000235388 -1.76636e-19)
(1.04311 0.00850635 1.65824e-19)
(1.08754 0.016635 0)
(1.12146 0.0241887 0)
(1.14594 0.0312238 0)
(1.16191 0.0366577 0)
(1.1722 0.0425374 4.14762e-20)
(1.17524 0.0437715 1.39693e-19)
(-0.00977493 0.00865196 -2.40089e-19)
(-0.00983652 0.0141551 1.63984e-19)
(0.00826474 0.0135022 -1.04218e-21)
(0.0426581 0.00901016 -2.17254e-19)
(0.0922189 0.00264604 -1.33776e-19)
(0.156018 -0.00399478 -1.26361e-19)
(0.232867 -0.00974219 -2.32612e-19)
(0.321036 -0.0137844 2.19356e-19)
(0.418069 -0.0156161 0)
(0.520783 -0.0150168 2.15137e-21)
(0.625442 -0.0120328 4.35011e-21)
(0.728081 -0.00694519 1.57315e-19)
(0.824899 -0.000215777 0)
(0.912643 0.0075841 0)
(0.98889 0.0158526 1.64871e-19)
(1.05221 0.0240307 -3.09331e-19)
(1.10221 0.0316594 1.74328e-19)
(1.13941 0.0384113 -1.63668e-19)
(1.16507 0.0441096 -6.94464e-20)
(1.18101 0.0486746 -1.19161e-19)
(1.18919 0.0522675 -4.64814e-20)
(1.19183 0.054587 -8.5203e-20)
(1.19048 0.0571557 1.30717e-19)
(1.18659 0.055757 3.6441e-20)
(-0.00754099 0.00631857 0)
(6.28386e-05 0.00834472 0)
(0.0295089 0.00619953 7.68878e-20)
(0.0785055 0.00181869 7.11648e-20)
(0.145379 -0.00301974 -1.4365e-21)
(0.228364 -0.00682081 -1.29255e-19)
(0.325042 -0.00855999 0)
(0.43209 -0.00766731 -1.08874e-19)
(0.545274 -0.00399574 1.00899e-19)
(0.659713 0.00221537 -6.80278e-23)
(0.770365 0.010412 -1.6901e-19)
(0.872593 0.0198361 -1.50778e-19)
(0.962683 0.0296577 5.71656e-21)
(1.03819 0.0391024 -1.16093e-19)
(1.09808 0.0475524 2.8507e-19)
(1.14265 0.0546048 0)
(1.17327 0.0600855 -1.71407e-19)
(1.19209 0.0640208 8.36935e-20)
(1.20163 0.0665957 6.93851e-20)
(1.20442 0.0680467 0)
(1.20281 0.0687534 5.37119e-20)
(1.19862 0.0686597 -1.82141e-19)
(1.19316 0.0689095 1.7098e-19)
(1.18777 0.066411 1.03692e-19)
(-0.00393102 0.00369775 -8.44055e-20)
(0.0144422 0.00191609 -8.70832e-20)
(0.0584359 -0.00152886 7.92308e-20)
(0.125084 -0.00510807 0)
(0.211775 -0.00730503 0)
(0.315345 -0.00686878 -1.84333e-21)
(0.4315 -0.00315209 0)
(0.554787 0.00388027 -3.2756e-19)
(0.67898 0.0137262 3.02714e-19)
(0.797774 0.0254762 -3.71872e-19)
(0.905594 0.0380033 8.42327e-20)
(0.998274 0.0501768 0)
(1.07345 0.0610488 1.33807e-19)
(1.13061 0.0699772 -2.4534e-19)
(1.17087 0.0766694 5.82441e-20)
(1.19651 0.0811526 1.41299e-19)
(1.21046 0.0836939 -1.00341e-20)
(1.21581 0.0846963 -1.5587e-19)
(1.21536 0.0845994 0)
(1.21144 0.0837928 0)
(1.20575 0.0826341 -5.1926e-20)
(1.1994 0.0811111 4.57715e-20)
(1.1931 0.0801288 1.57992e-19)
(1.18701 0.0767732 -1.48332e-19)
(0.00139147 0.000953548 -8.82181e-20)
(0.0341112 -0.00444347 -8.81116e-20)
(0.0961022 -0.00838326 2.48091e-19)
(0.183305 -0.00989941 -1.51022e-19)
(0.291559 -0.00792324 1.42153e-19)
(0.415582 -0.00171066 2.58718e-19)
(0.5486 0.00867077 -1.82112e-19)
(0.68283 0.0223908 -2.19145e-19)
(0.810461 0.0380846 5.9581e-21)
(0.924778 0.0541585 2.79377e-19)
(1.02106 0.0691128 0)
(1.097 0.0818002 7.45375e-20)
(1.15267 0.0915652 0)
(1.19003 0.0982535 -1.17201e-19)
(1.21221 0.102118 1.64194e-19)
(1.22285 0.103666 1.18596e-21)
(1.22542 0.103507 -4.15494e-20)
(1.22289 0.10222 7.547e-20)
(1.2175 0.100277 6.49459e-20)
(1.21078 0.0980124 -5.73391e-20)
(1.20368 0.0956451 5.1913e-20)
(1.19669 0.0931823 -4.57597e-20)
(1.19004 0.0911248 0)
(1.18393 0.0872636 -3.46465e-20)
(0.00880697 -0.00172771 8.82055e-20)
(0.0598 -0.00999354 9.21098e-20)
(0.14315 -0.0130335 -8.3001e-20)
(0.253136 -0.0107551 1.54378e-19)
(0.383289 -0.00287678 -1.45304e-19)
(0.525519 0.0104438 1.31163e-19)
(0.670327 0.0280402 -6.2811e-20)
(0.808082 0.0479848 1.64734e-19)
(0.930588 0.0680787 -1.03059e-19)
(1.0323 0.0863368 1.79621e-19)
(1.11084 0.101343 -4.12179e-19)
(1.16678 0.112404 1.50417e-19)
(1.20287 0.119506 -1.28731e-19)
(1.22309 0.123134 1.20918e-19)
(1.23167 0.12404 1.01568e-19)
(1.23249 0.123026 8.70971e-20)
(1.2286 0.120801 -2.42484e-19)
(1.22222 0.117905 1.49496e-19)
(1.21477 0.114703 -6.49474e-20)
(1.20709 0.111411 1.67035e-19)
(1.19961 0.108143 -5.39819e-20)
(1.19254 0.10491 -1.28526e-19)
(1.18594 0.101968 1.18168e-19)
(1.17981 0.097754 3.46355e-20)
(0.0186669 -0.00408948 0)
(0.0919917 -0.0138828 5.57086e-22)
(0.199575 -0.0141213 1.7182e-19)
(0.333377 -0.00605324 -1.61371e-19)
(0.483874 0.00932296 -1.45447e-19)
(0.639817 0.030484 2.70039e-19)
(0.789437 0.0548824 -1.25272e-19)
(0.922558 0.0795368 1.65905e-19)
(1.03234 0.101785 -4.23149e-21)
(1.11597 0.1198 -9.32166e-20)
(1.17436 0.132774 2.00591e-19)
(1.21097 0.140806 -2.94644e-19)
(1.23058 0.144612 0)
(1.2381 0.145196 -5.64981e-20)
(1.23779 0.143566 -1.48634e-19)
(1.23293 0.140573 4.70552e-20)
(1.22575 0.136839 2.23427e-21)
(1.21766 0.132772 -9.81474e-20)
(1.20944 0.128614 7.68185e-21)
(1.20149 0.124491 1.12784e-19)
(1.194 0.120458 -4.90112e-20)
(1.18699 0.116535 -1.83544e-20)
(1.18044 0.112789 5.75031e-20)
(1.17432 0.108277 0)
(0.0312183 -0.00578415 0)
(0.130762 -0.015137 4.65142e-20)
(0.26456 -0.0103018 -2.23042e-19)
(0.421614 0.00553497 8.10771e-20)
(0.588884 0.0295115 -7.6307e-20)
(0.752271 0.058354 -6.93104e-20)
(0.899035 0.0881394 -1.22382e-19)
(1.02031 0.115249 6.12643e-20)
(1.11229 0.137192 5.31831e-20)
(1.17582 0.152887 0)
(1.215 0.162476 1.18512e-19)
(1.23544 0.166904 -1.74869e-19)
(1.24279 0.167451 1.29971e-19)
(1.24188 0.165371 5.65269e-20)
(1.23629 0.161694 -4.54769e-20)
(1.22842 0.157156 -3.71317e-20)
(1.21971 0.152232 -3.41904e-20)
(1.21096 0.147199 1.04175e-19)
(1.20255 0.142205 0)
(1.19464 0.137317 5.08474e-20)
(1.18726 0.132567 4.18305e-20)
(1.18038 0.127964 -1.0486e-19)
(1.17393 0.123474 -7.02898e-20)
(1.16784 0.11868 6.51304e-20)
(0.0465416 -0.0063842 -4.95957e-20)
(0.175665 -0.0127131 -1.54458e-21)
(0.336417 -0.000352067 4.52232e-20)
(0.514406 0.0249058 1.25767e-19)
(0.693185 0.0578011 3.63365e-20)
(0.85696 0.0931992 -7.03055e-20)
(0.99393 0.126209 6.43733e-20)
(1.09837 0.153288 -5.63575e-20)
(1.17052 0.172789 1.0024e-19)
(1.21484 0.184763 4.23545e-20)
(1.23779 0.190358 -1.20043e-19)
(1.24597 0.191177 3.51615e-20)
(1.24496 0.188789 5.93026e-20)
(1.23886 0.184465 -2.92975e-20)
(1.23034 0.179106 0)
(1.221 0.173282 4.25889e-20)
(1.21167 0.167321 7.11878e-20)
(1.20275 0.161399 1.15301e-20)
(1.19438 0.155599 -5.88007e-20)
(1.1866 0.14996 2.43067e-20)
(1.17938 0.144497 0)
(1.17264 0.139205 -1.87535e-20)
(1.1663 0.13402 -1.74528e-20)
(1.16026 0.128904 0)
(0.0644994 -0.00541963 0)
(0.225666 -0.00560829 2.59135e-20)
(0.412649 0.0166764 4.78395e-20)
(0.607651 0.0524019 -1.27649e-19)
(0.79171 0.0936197 4.10696e-20)
(0.949193 0.133649 0)
(1.07125 0.167398 6.14925e-20)
(1.15653 0.192189 -8.57203e-20)
(1.20939 0.207705 -4.99079e-20)
(1.23713 0.215228 2.25589e-20)
(1.24747 0.216731 -3.53835e-20)
(1.24704 0.214197 8.62907e-20)
(1.24069 0.209237 4.27098e-20)
(1.23159 0.202986 -2.99898e-20)
(1.22158 0.196159 -3.10757e-21)
(1.21161 0.189159 -7.99255e-20)
(1.2021 0.1822 3.62514e-20)
(1.19323 0.175385 -8.69959e-22)
(1.18502 0.168763 0)
(1.17744 0.162355 -2.43319e-20)
(1.17042 0.156164 0)
(1.16386 0.150165 5.40086e-20)
(1.15767 0.144328 -6.39797e-20)
(1.15173 0.138818 2.90239e-20)
(0.0847066 -0.00242604 -1.33364e-20)
(0.279153 0.00701985 -6.48415e-20)
(0.490144 0.0413217 7.35503e-20)
(0.697073 0.0877651 4.32261e-20)
(0.880116 0.135854 -2.07242e-20)
(1.02594 0.178122 3.45684e-20)
(1.1302 0.210211 -1.6855e-20)
(1.19628 0.230956 2.79228e-20)
(1.23203 0.241567 0)
(1.2465 0.24441 6.26365e-20)
(1.24767 0.242002 -2.73581e-21)
(1.24152 0.236437 -5.02442e-20)
(1.23197 0.229199 2.13689e-20)
(1.22128 0.221217 -2.38968e-20)
(1.2106 0.213015 -8.91342e-21)
(1.20045 0.204862 1.04787e-20)
(1.19101 0.196888 -7.9726e-21)
(1.18232 0.189152 -4.28474e-20)
(1.17435 0.181679 2.62294e-20)
(1.16703 0.174479 5.30749e-21)
(1.16025 0.167542 4.63615e-21)
(1.15392 0.160831 4.05022e-21)
(1.14793 0.154384 0)
(1.14212 0.148381 0)
(0.106597 0.00301677 1.33456e-20)
(0.334161 0.0257608 -1.33644e-20)
(0.565612 0.0736285 -2.44579e-20)
(0.778826 0.130179 0)
(0.955253 0.183055 -1.02509e-20)
(1.08579 0.22508 -9.15786e-21)
(1.17138 0.253495 -1.56812e-20)
(1.21977 0.269013 0)
(1.2413 0.274306 0)
(1.24572 0.272548 0)
(1.24057 0.266508 0)
(1.23087 0.258193 0)
(1.21956 0.248868 -1.33753e-20)
(1.20814 0.239244 6.07919e-21)
(1.19729 0.229681 1.04903e-20)
(1.18724 0.220347 4.88832e-21)
(1.17804 0.211314 1.19875e-20)
(1.16965 0.202612 0)
(1.16201 0.194252 -2.8193e-21)
(1.15503 0.186232 -2.669e-21)
(1.14859 0.178527 -4.64351e-21)
(1.14258 0.171112 -4.05667e-21)
(1.13687 0.164087 0)
(1.13133 0.157487 2.84933e-21)
(0.00022692 -0.0424687 9.13143e-21)
(-0.00265875 -0.105246 -9.47629e-21)
(-0.0108772 -0.151117 -1.79341e-20)
(-0.0224923 -0.183113 0)
(-0.0361561 -0.20432 -2.40593e-20)
(-0.0509634 -0.217747 7.59698e-21)
(-0.0661818 -0.225997 -1.42572e-20)
(-0.0812556 -0.231045 0)
(-0.0958054 -0.234172 0)
(-0.109588 -0.23603 0)
(-0.122449 -0.236768 0)
(-0.134282 -0.236189 0)
(-0.144991 -0.233884 2.48836e-22)
(-0.154478 -0.22933 -9.80682e-21)
(-0.162624 -0.22196 1.82237e-20)
(-0.169287 -0.211207 2.61389e-20)
(-0.174307 -0.196533 7.8735e-21)
(-0.177511 -0.177463 0)
(-0.178723 -0.153612 7.57416e-21)
(-0.177788 -0.124739 -2.06399e-20)
(-0.174544 -0.0907895 -1.26648e-20)
(-0.168809 -0.0518649 -1.18141e-20)
(-0.160887 -0.00819079 0)
(-0.151662 0.0396329 0)
(0.00195717 -0.0378118 -2.72632e-20)
(0.000478285 -0.0938829 4.71495e-20)
(-0.00846774 -0.135065 -1.75425e-20)
(-0.0218314 -0.163914 -3.36146e-20)
(-0.0376625 -0.183211 4.76303e-20)
(-0.054765 -0.195711 -2.99648e-20)
(-0.0722525 -0.203778 4.24406e-20)
(-0.0895085 -0.209173 2.64415e-20)
(-0.106157 -0.213011 0)
(-0.121992 -0.215828 -2.41324e-20)
(-0.13691 -0.217717 -1.89933e-22)
(-0.150855 -0.218466 2.14108e-20)
(-0.163781 -0.217686 2.97797e-20)
(-0.175626 -0.214895 3.76835e-20)
(-0.186302 -0.209579 -1.81379e-20)
(-0.195686 -0.201221 -5.0503e-20)
(-0.203625 -0.189332 1.50259e-20)
(-0.209938 -0.173461 -5.74311e-20)
(-0.214445 -0.153227 0)
(-0.216987 -0.128345 1.35159e-20)
(-0.217363 -0.0986569 1.26519e-20)
(-0.215203 -0.064106 1.18018e-20)
(-0.210547 -0.0246285 0)
(-0.205921 0.019693 0)
(0.002959 -0.0315949 0)
(0.00221923 -0.0793793 9.24139e-20)
(-0.00735278 -0.115312 -3.49238e-20)
(-0.0218916 -0.141034 3.3338e-20)
(-0.039012 -0.158724 -9.34975e-20)
(-0.0573135 -0.170695 0)
(-0.075803 -0.178954 -5.5648e-20)
(-0.0938213 -0.184995 2.59232e-20)
(-0.110991 -0.189754 -4.89825e-20)
(-0.127126 -0.193665 2.25413e-20)
(-0.14215 -0.196779 1.30484e-19)
(-0.156035 -0.198891 -6.12038e-20)
(-0.168763 -0.199644 -9.62791e-20)
(-0.180298 -0.198609 -3.48634e-20)
(-0.19058 -0.195328 5.00311e-22)
(-0.199513 -0.189346 1.24861e-19)
(-0.206969 -0.180225 -5.83237e-20)
(-0.212786 -0.167553 2.33259e-21)
(-0.216794 -0.150956 0)
(-0.218852 -0.130105 -4.28155e-20)
(-0.218756 -0.104722 0)
(-0.21594 -0.0745723 -3.8811e-20)
(-0.210017 -0.0394225 1.35636e-19)
(-0.204865 0.000585854 -1.925e-21)
(0.00308263 -0.0243489 0)
(0.00233691 -0.0628549 -3.02178e-22)
(-0.00769255 -0.0932426 3.4555e-20)
(-0.022727 -0.115936 -3.26661e-20)
(-0.0401627 -0.132304 3.09418e-20)
(-0.0585002 -0.144081 1.74745e-19)
(-0.0766929 -0.152846 -5.48986e-20)
(-0.0940572 -0.159794 -5.14887e-20)
(-0.110209 -0.165675 9.72931e-20)
(-0.124962 -0.170829 -1.36997e-19)
(-0.138244 -0.175278 4.23642e-20)
(-0.150032 -0.178827 3.9468e-20)
(-0.160314 -0.181156 0)
(-0.169066 -0.181886 3.5209e-20)
(-0.176243 -0.180612 0)
(-0.181772 -0.176936 5.73826e-20)
(-0.18555 -0.170478 -1.06407e-19)
(-0.187441 -0.160875 2.87793e-20)
(-0.187285 -0.147787 9.08944e-20)
(-0.184945 -0.130879 4.2778e-20)
(-0.180274 -0.109792 0)
(-0.17268 -0.0841106 -9.69118e-20)
(-0.161024 -0.0533824 3.23394e-20)
(-0.14907 -0.0177378 0)
(0.00229839 -0.0166679 0)
(0.000817033 -0.045508 -1.0927e-19)
(-0.00944058 -0.0702718 -3.47673e-20)
(-0.0242264 -0.0900508 -6.52164e-20)
(-0.040953 -0.105305 6.14143e-20)
(-0.0581322 -0.117122 -5.81218e-20)
(-0.0747204 -0.126613 1.09052e-19)
(-0.0900304 -0.134661 5.12864e-20)
(-0.103669 -0.141833 -1.44604e-19)
(-0.115441 -0.148378 8.96606e-20)
(-0.12526 -0.154291 -1.26019e-19)
(-0.133094 -0.159389 2.71751e-19)
(-0.138927 -0.163385 -1.45726e-19)
(-0.14274 -0.165937 6.5975e-20)
(-0.1445 -0.166684 1.81186e-19)
(-0.144158 -0.165272 -6.08524e-20)
(-0.141644 -0.161369 -5.33804e-20)
(-0.136867 -0.154669 -4.89352e-20)
(-0.129701 -0.144894 0)
(-0.120022 -0.13177 -7.00945e-20)
(-0.107772 -0.114975 -5.67606e-20)
(-0.0926548 -0.0939688 8.89174e-20)
(-0.0731048 -0.0677186 9.43789e-20)
(-0.0496167 -0.0351841 -8.55172e-20)
(0.00070302 -0.00914321 0)
(-0.00212851 -0.0285141 -1.45665e-19)
(-0.0123184 -0.0477673 -4.57135e-22)
(-0.0260642 -0.0647349 1.30025e-19)
(-0.0410127 -0.0789784 0)
(-0.0557899 -0.0909298 0)
(-0.0694077 -0.10123 0)
(-0.081197 -0.110451 -5.08422e-20)
(-0.0907592 -0.118973 5.2885e-22)
(-0.0978807 -0.126956 8.97019e-20)
(-0.102458 -0.134365 -1.23907e-19)
(-0.104445 -0.141026 8.10405e-22)
(-0.103822 -0.146671 0)
(-0.100578 -0.150986 -6.59463e-20)
(-0.0947049 -0.153638 5.6452e-20)
(-0.086192 -0.154302 -1.62819e-19)
(-0.0750239 -0.152677 1.9141e-19)
(-0.0611742 -0.148498 3.44043e-20)
(-0.0445911 -0.141551 -1.00615e-20)
(-0.0251981 -0.131667 -1.37951e-19)
(-0.00294345 -0.118699 -5.55616e-20)
(0.0222875 -0.102311 1.66662e-19)
(0.0516918 -0.0812888 -1.0501e-19)
(0.0891368 -0.0526587 0)
(-0.00149483 -0.00231116 7.05966e-20)
(-0.00608078 -0.0129488 7.28212e-20)
(-0.0158208 -0.0269897 -6.95711e-20)
(-0.0276832 -0.0412418 -1.31018e-19)
(-0.039721 -0.0544756 1.23376e-19)
(-0.0507559 -0.0665137 -1.16265e-19)
(-0.0598966 -0.0775486 1.64277e-19)
(-0.0665087 -0.0878491 -5.05551e-20)
(-0.07019 -0.0976116 9.61534e-20)
(-0.0707059 -0.106898 0)
(-0.0679307 -0.115635 8.14957e-20)
(-0.0618072 -0.123637 -1.5444e-19)
(-0.0523221 -0.130646 1.38945e-19)
(-0.0394937 -0.136359 -1.30503e-19)
(-0.0233666 -0.140459 0)
(-0.00400732 -0.142633 1.05325e-19)
(0.018499 -0.142597 1.80894e-19)
(0.0440565 -0.140117 -1.70872e-19)
(0.072577 -0.135017 -7.15399e-20)
(0.103988 -0.127209 -5.81941e-20)
(0.1382 -0.116708 1.68132e-19)
(0.175316 -0.103554 3.8482e-20)
(0.214559 -0.0874328 -4.08226e-20)
(0.269108 -0.0645419 3.0339e-20)
(-0.00400299 0.00339007 -7.0606e-20)
(-0.0104606 0.000280522 2.22282e-19)
(-0.0192598 -0.00903722 -6.98878e-20)
(-0.0283332 -0.0206981 1.32205e-19)
(-0.0362446 -0.0328627 -1.24492e-19)
(-0.0420629 -0.0448291 7.30192e-22)
(-0.0450214 -0.0563854 5.53989e-20)
(-0.0445313 -0.0675152 2.0675e-19)
(-0.0401904 -0.0782306 -1.57046e-21)
(-0.0317466 -0.0884845 -9.03528e-20)
(-0.0190623 -0.0981443 0)
(-0.00209062 -0.106998 -7.4928e-20)
(0.0191384 -0.114775 1.42405e-19)
(0.0445237 -0.121169 1.25671e-19)
(0.0738975 -0.125863 -6.0201e-20)
(0.107031 -0.128556 -4.09517e-22)
(0.143646 -0.128982 -4.64458e-20)
(0.183427 -0.126931 8.07606e-20)
(0.226045 -0.122273 7.15124e-20)
(0.271193 -0.114963 -6.17544e-20)
(0.318351 -0.105137 5.17215e-20)
(0.368632 -0.0926492 -4.3656e-20)
(0.414885 -0.0790023 0)
(0.488522 -0.0590366 -3.02834e-20)
(-0.00648788 0.00766903 7.22084e-20)
(-0.0145906 0.0105083 -7.43477e-20)
(-0.0218251 0.00521088 7.13718e-20)
(-0.0271334 -0.00407796 0)
(-0.0296208 -0.0151187 0)
(-0.0286162 -0.0268005 1.19869e-19)
(-0.0234977 -0.0385731 -1.11494e-19)
(-0.0137419 -0.0501626 1.04051e-19)
(0.00103252 -0.0613993 -4.86875e-19)
(0.0210613 -0.0721162 9.8781e-22)
(0.046441 -0.082105 8.40523e-20)
(0.0771311 -0.0911079 0)
(0.112956 -0.0988286 -1.38791e-19)
(0.153604 -0.104952 2.5599e-19)
(0.19864 -0.10917 -1.75787e-19)
(0.247518 -0.111204 -2.52751e-19)
(0.299611 -0.110832 1.12801e-20)
(0.354241 -0.107909 1.66247e-19)
(0.41071 -0.10239 0)
(0.468477 -0.0942674 0)
(0.526115 -0.0840115 -5.17069e-20)
(0.586945 -0.0706904 4.36435e-20)
(0.635859 -0.0579449 -1.38764e-19)
(0.72112 -0.0378023 1.30227e-19)
(-0.00863811 0.010405 0)
(-0.0178021 0.0173595 0)
(-0.0226875 0.0151643 -2.15359e-19)
(-0.0231514 0.00788969 6.82655e-20)
(-0.0188166 -0.00203833 6.57136e-23)
(-0.00927484 -0.0132316 1.21633e-19)
(0.0059382 -0.0248733 0)
(0.0272433 -0.0364676 -1.05935e-19)
(0.0549351 -0.0476749 9.784e-20)
(0.0891376 -0.0582052 -1.81824e-19)
(0.129776 -0.0677672 1.5046e-21)
(0.176557 -0.0760543 1.5301e-19)
(0.228963 -0.0827518 -4.41568e-21)
(0.28626 -0.087557 1.2101e-19)
(0.34753 -0.090204 -1.78601e-19)
(0.411713 -0.0904897 0)
(0.477675 -0.0882952 1.77411e-19)
(0.544272 -0.0836005 -2.46984e-19)
(0.610378 -0.0765134 7.0361e-20)
(0.675232 -0.0671041 0)
(0.736866 -0.0561781 5.27045e-20)
(0.799273 -0.0423882 1.70723e-19)
(0.846107 -0.0303984 -1.6022e-19)
(0.925605 -0.0107628 -1.59221e-19)
(-0.0101984 0.011648 2.24855e-19)
(-0.0194769 0.0207866 -3.10274e-19)
(-0.0210187 0.0206092 1.79953e-23)
(-0.0154196 0.0148472 6.94169e-20)
(-0.00274637 0.00593104 -1.30394e-19)
(0.0171533 -0.00458715 -1.20916e-19)
(0.0445479 -0.0157001 2.27234e-19)
(0.0796744 -0.0267359 -2.62055e-21)
(0.122611 -0.0372075 -1.99329e-19)
(0.173187 -0.0467159 3.6622e-19)
(0.230927 -0.0549036 -3.85997e-21)
(0.29502 -0.0614423 -1.57694e-19)
(0.364332 -0.0660427 0)
(0.43745 -0.0684747 0)
(0.512766 -0.0685893 -5.78764e-20)
(0.588583 -0.0663376 -1.03245e-19)
(0.663224 -0.0617794 -1.77727e-19)
(0.735144 -0.0550867 1.66829e-19)
(0.803005 -0.0465341 -7.0382e-20)
(0.865843 -0.0364195 1.18204e-19)
(0.922435 -0.0254297 -6.14466e-20)
(0.974671 -0.0129349 8.07021e-20)
(1.0136 -0.00241601 -2.06094e-19)
(1.0695 0.013613 3.31837e-20)
(-0.0109857 0.0115872 7.60531e-20)
(-0.0190597 0.0210499 0)
(-0.015964 0.021741 1.48719e-19)
(-0.00283678 0.0169142 -1.40101e-19)
(0.0198919 0.00888355 1.30505e-19)
(0.0521132 -0.000730907 0)
(0.0938212 -0.0108044 0)
(0.144916 -0.0205411 -1.06707e-19)
(0.20503 -0.0293496 2.59269e-21)
(0.273406 -0.0367672 9.41293e-20)
(0.348833 -0.0424275 -8.32719e-20)
(0.429651 -0.0460559 1.58141e-19)
(0.51383 -0.0474803 0)
(0.599097 -0.0466437 2.51791e-19)
(0.683116 -0.0436115 -4.61993e-19)
(0.763659 -0.0385678 3.15087e-19)
(0.838772 -0.0317983 1.77671e-19)
(0.906897 -0.023678 -1.66785e-19)
(0.966967 -0.0145943 0)
(1.01834 -0.00506017 0)
(1.06106 0.00466667 0)
(1.09541 0.0140537 0)
(1.12089 0.0223684 4.03508e-20)
(1.14752 0.0327046 -1.3979e-19)
(-0.141187 0.0980372 -7.58117e-21)
(-0.122973 0.17262 7.60424e-21)
(-0.102225 0.251242 -2.01941e-22)
(-0.0792674 0.330044 0)
(-0.0550114 0.405082 -5.6388e-21)
(-0.0307285 0.472807 1.04997e-20)
(-0.00750166 0.530183 -4.39186e-22)
(0.0147019 0.574094 -4.31515e-21)
(0.0377103 0.600891 0)
(0.0653204 0.606556 0)
(0.102674 0.58478 -2.05048e-22)
(0.154035 0.529426 -2.09108e-22)
(0.220242 0.437537 -3.68953e-21)
(0.297283 0.311906 3.37321e-21)
(0.378817 0.159839 0)
(0.459072 -0.00938427 0)
(0.535122 -0.18309 3.15293e-21)
(0.603499 -0.340401 -3.80149e-22)
(0.658872 -0.459464 -2.45345e-21)
(0.697671 -0.529395 -1.20971e-22)
(0.719031 -0.555661 0)
(0.725543 -0.552119 0)
(0.722342 -0.533029 0)
(0.709956 -0.515147 0)
(0.682592 -0.513522 0)
(0.639958 -0.520784 0)
(0.598053 -0.497937 4.67788e-22)
(0.580957 -0.399827 -7.2491e-22)
(0.598962 -0.221617 0)
(0.643942 -0.00505086 0)
(0.699393 0.191699 -5.80895e-22)
(0.750764 0.333059 5.64551e-22)
(0.789557 0.411064 1.94173e-22)
(0.815877 0.438981 0)
(0.828321 0.446094 0)
(0.817944 0.460685 2.55684e-22)
(0.782731 0.48362 -2.48546e-22)
(0.739809 0.463083 0)
(0.713287 0.36301 3.61264e-22)
(0.718265 0.17661 -5.46905e-22)
(0.744274 -0.0259077 1.8813e-22)
(0.783081 -0.199419 0)
(0.820416 -0.304468 -2.19693e-22)
(0.842895 -0.356693 2.13626e-22)
(0.835191 -0.394125 0)
(0.79397 -0.398851 0)
(0.750438 -0.38038 -7.56569e-23)
(0.732737 -0.245388 2.18395e-22)
(0.750043 -0.0970458 0)
(0.790708 0.0835445 0)
(0.821573 0.210922 -5.53216e-23)
(0.816391 0.293509 3.11709e-24)
(0.795365 0.385375 -3.90843e-24)
(0.776078 0.304941 4.16075e-23)
(0.78426 0.267156 0)
(0.80489 0.0555961 0)
(0.813219 -0.100318 0)
(0.803628 -0.201489 0)
(0.805381 -0.396071 0)
(0.787142 -0.188791 0)
(-0.204914 0.074632 -6.07221e-22)
(-0.189887 0.145819 -2.48304e-20)
(-0.171532 0.221273 1.2603e-21)
(-0.148964 0.297849 2.21486e-20)
(-0.122438 0.372081 2.83011e-22)
(-0.0922211 0.439933 0)
(-0.0586308 0.498554 -1.56354e-20)
(-0.0215564 0.541454 3.00287e-20)
(0.0215302 0.56556 -1.43991e-20)
(0.0737319 0.565803 1.35293e-20)
(0.137007 0.536389 -1.2944e-20)
(0.212194 0.47334 1.42034e-20)
(0.296974 0.376455 -1.38082e-20)
(0.385861 0.250034 -4.92234e-22)
(0.473047 0.100649 -1.58238e-20)
(0.554754 -0.0648769 1.53764e-20)
(0.629096 -0.233408 -1.36495e-20)
(0.691713 -0.383474 1.28633e-20)
(0.736755 -0.492137 -9.40003e-21)
(0.761945 -0.549621 1.62627e-20)
(0.76915 -0.564022 -6.9554e-21)
(0.762487 -0.551766 -3.00317e-22)
(0.747957 -0.526698 -3.73389e-21)
(0.727972 -0.502006 7.04049e-21)
(0.69674 -0.49192 -3.31571e-21)
(0.649842 -0.494759 1.98775e-22)
(0.598622 -0.478438 4.26988e-21)
(0.567553 -0.397073 8.2141e-22)
(0.572786 -0.237111 -9.55712e-21)
(0.610404 -0.0323313 9.64377e-21)
(0.664322 0.161717 -4.65977e-21)
(0.71883 0.307665 4.41122e-22)
(0.764731 0.392914 -1.94582e-22)
(0.799788 0.428509 2.93901e-22)
(0.81935 0.444678 0)
(0.813827 0.469082 0)
(0.783289 0.498303 -1.16961e-21)
(0.747705 0.476655 8.18111e-22)
(0.728701 0.368906 1.19767e-21)
(0.739849 0.173277 2.8675e-22)
(0.767437 -0.0360881 -1.77025e-21)
(0.803732 -0.211681 3.43722e-22)
(0.835285 -0.3142 0)
(0.853227 -0.35884 0)
(0.843477 -0.386845 0)
(0.799668 -0.386264 0)
(0.754149 -0.371281 2.52265e-22)
(0.731799 -0.245266 -1.44947e-22)
(0.748562 -0.105533 0)
(0.786867 0.0738642 0)
(0.817324 0.206971 0)
(0.811833 0.296378 -8.89836e-23)
(0.790586 0.389977 4.55455e-24)
(0.77408 0.306106 -8.33396e-23)
(0.782725 0.263951 0)
(0.809319 0.0528571 0)
(0.818797 -0.100675 6.71268e-23)
(0.809675 -0.200309 1.83678e-22)
(0.811162 -0.394459 0)
(0.790015 -0.187456 0)
(-0.208522 0.0505011 -1.23876e-21)
(-0.197335 0.116401 -4.18996e-20)
(-0.181536 0.187307 3.79684e-20)
(-0.15949 0.259647 -3.56006e-20)
(-0.130897 0.33104 -2.84988e-22)
(-0.0945216 0.396742 0)
(-0.0522825 0.451806 -2.78679e-20)
(-0.00318101 0.49163 2.72453e-20)
(0.0566825 0.512564 2.0944e-22)
(0.126918 0.508455 3.95975e-22)
(0.207441 0.474589 4.19965e-22)
(0.296709 0.408763 4.43234e-22)
(0.390861 0.312446 -3.21313e-20)
(0.484356 0.19037 3.17172e-20)
(0.572266 0.047596 0)
(0.652636 -0.110693 1.02947e-21)
(0.723842 -0.271989 -2.87083e-20)
(0.779819 -0.41331 2.82964e-20)
(0.813906 -0.511467 0)
(0.825269 -0.558272 0)
(0.818741 -0.563632 -1.17448e-20)
(0.800162 -0.545395 2.04998e-20)
(0.775553 -0.516947 -1.58959e-20)
(0.74856 -0.487729 8.77374e-22)
(0.714428 -0.469938 1.21226e-20)
(0.665411 -0.467223 -1.24319e-20)
(0.607327 -0.455947 1.28113e-20)
(0.563354 -0.391576 7.01479e-22)
(0.554963 -0.251781 -7.74106e-21)
(0.583355 -0.0610163 0)
(0.633952 0.128642 0)
(0.690352 0.278155 2.23241e-21)
(0.742537 0.370473 -2.9768e-21)
(0.785629 0.414458 -2.36638e-23)
(0.811946 0.440581 2.09186e-21)
(0.811641 0.475146 -2.03296e-21)
(0.786541 0.5108 0)
(0.758639 0.488788 3.2014e-22)
(0.746986 0.374739 3.78593e-21)
(0.764049 0.171708 -7.71566e-21)
(0.79325 -0.0433595 3.40521e-21)
(0.826882 -0.220693 3.86064e-22)
(0.852334 -0.321491 -2.48535e-21)
(0.865313 -0.359699 1.87614e-21)
(0.853614 -0.379045 3.08031e-22)
(0.8077 -0.373355 2.49874e-22)
(0.760679 -0.362125 -2.52895e-22)
(0.73374 -0.245527 0)
(0.749632 -0.114521 0)
(0.785048 0.0636935 -8.18336e-22)
(0.814908 0.202736 4.0566e-22)
(0.809036 0.298857 -3.5239e-22)
(0.787375 0.394437 5.35984e-22)
(0.773451 0.307187 7.51638e-22)
(0.782573 0.260361 -1.64559e-22)
(0.81516 0.0498365 3.64655e-22)
(0.825749 -0.101069 -3.19944e-22)
(0.816854 -0.198866 1.64759e-22)
(0.817817 -0.392533 0)
(0.79375 -0.186 0)
(-0.151492 0.0274561 -6.88884e-20)
(-0.143949 0.0868066 3.73204e-21)
(-0.130433 0.152521 6.1537e-20)
(-0.109263 0.2186 -4.9878e-22)
(-0.0794374 0.283853 0)
(-0.0415949 0.343898 0)
(0.00568575 0.393619 -4.79478e-20)
(0.0636241 0.430632 -1.80095e-21)
(0.132896 0.448424 7.14238e-20)
(0.212555 0.44164 1.93431e-21)
(0.301146 0.406599 -2.60392e-20)
(0.395753 0.342217 -3.00076e-20)
(0.491911 0.250715 3.00384e-20)
(0.584506 0.136446 0)
(0.670186 0.00250276 -3.43733e-20)
(0.748429 -0.14728 3.13112e-20)
(0.816425 -0.300525 0)
(0.865753 -0.432551 0)
(0.888933 -0.520331 1.97814e-20)
(0.886827 -0.557783 -4.03765e-21)
(0.86725 -0.556287 -1.43494e-20)
(0.838005 -0.534043 -9.16809e-21)
(0.804703 -0.504128 9.08302e-21)
(0.771209 -0.47284 -6.18885e-21)
(0.734632 -0.448755 5.53193e-22)
(0.685614 -0.439038 5.28964e-21)
(0.623911 -0.429872 6.8267e-22)
(0.568914 -0.381522 8.22967e-23)
(0.546228 -0.263904 0)
(0.563386 -0.0897381 7.03704e-21)
(0.608791 0.0933674 -7.2191e-21)
(0.665661 0.24507 3.90654e-22)
(0.723043 0.344067 0)
(0.773266 0.396876 -2.73632e-22)
(0.805916 0.433451 4.06779e-21)
(0.811144 0.478218 -7.82387e-21)
(0.792031 0.52052 -1.42734e-21)
(0.771893 0.499259 -1.24403e-21)
(0.767467 0.380825 5.17633e-21)
(0.79013 0.172163 9.11638e-22)
(0.821003 -0.0476784 -6.70015e-21)
(0.852104 -0.226558 5.7757e-21)
(0.871391 -0.326476 -2.04248e-23)
(0.879002 -0.359516 1.46905e-21)
(0.865315 -0.371007 -1.73725e-21)
(0.817698 -0.360232 -1.66318e-21)
(0.769662 -0.352719 4.96421e-22)
(0.738238 -0.245887 8.3421e-22)
(0.752966 -0.123801 -1.59788e-21)
(0.785101 0.0530775 1.16748e-21)
(0.814264 0.198175 -3.71125e-22)
(0.80802 0.300913 3.29039e-22)
(0.785847 0.398799 3.31835e-22)
(0.774346 0.308254 -1.17433e-21)
(0.783911 0.256441 -2.46962e-24)
(0.8224 0.0465982 -4.3264e-22)
(0.834024 -0.101471 0)
(0.825151 -0.197148 -1.60417e-22)
(0.825307 -0.390279 2.08467e-22)
(0.798292 -0.184415 0)
(-0.0460019 0.00718685 5.51433e-20)
(-0.0404931 0.0592563 -1.04404e-19)
(-0.029436 0.115583 4.88086e-20)
(-0.0119209 0.17396 4.36631e-20)
(0.0168152 0.231756 -8.43614e-20)
(0.0551147 0.285604 -1.15453e-23)
(0.10426 0.331471 3.99588e-20)
(0.164604 0.364669 4.3143e-20)
(0.236086 0.379677 -4.22872e-20)
(0.317502 0.371975 0)
(0.406593 0.338506 -5.64585e-20)
(0.49992 0.278599 1.16596e-19)
(0.593032 0.194451 -6.00083e-20)
(0.681603 0.0895538 0)
(0.764013 -0.0345652 0)
(0.840253 -0.175301 1.05797e-21)
(0.905122 -0.319266 -5.92101e-20)
(0.947374 -0.440686 5.75146e-20)
(0.959446 -0.517951 0)
(0.944561 -0.547629 3.17361e-20)
(0.913205 -0.542004 -5.30009e-20)
(0.874912 -0.518192 4.02078e-20)
(0.83475 -0.488485 -3.14316e-20)
(0.795732 -0.457324 2.15071e-21)
(0.756864 -0.429331 2.09812e-20)
(0.709184 -0.412454 -9.73857e-21)
(0.647206 -0.402121 -3.12374e-22)
(0.584119 -0.366848 -4.91932e-21)
(0.547295 -0.272068 -6.13956e-22)
(0.551229 -0.117288 5.56456e-21)
(0.589276 0.0567114 3.86031e-22)
(0.645036 0.208879 -4.6023e-21)
(0.706226 0.313886 8.48526e-21)
(0.762453 0.375595 -4.33504e-21)
(0.800942 0.422777 0)
(0.811944 0.477675 -4.83238e-21)
(0.7992 0.527051 4.77808e-21)
(0.786791 0.508048 -5.71088e-21)
(0.78938 0.387371 7.09456e-21)
(0.817266 0.174532 -9.88555e-22)
(0.850052 -0.0490851 0)
(0.878918 -0.229192 -8.00821e-22)
(0.892148 -0.32897 1.77978e-21)
(0.894086 -0.358199 0)
(0.878356 -0.362803 2.77299e-21)
(0.829349 -0.347044 -1.18291e-21)
(0.780694 -0.343057 4.17379e-22)
(0.74491 -0.246196 3.40646e-22)
(0.758221 -0.133233 0)
(0.786821 0.0420337 0)
(0.815274 0.193205 -9.77146e-22)
(0.808775 0.302485 1.61428e-21)
(0.7861 0.403077 -1.02437e-21)
(0.776908 0.309383 3.68681e-22)
(0.786821 0.252218 8.35123e-22)
(0.831012 0.0431193 4.33051e-22)
(0.843564 -0.101863 -7.6908e-22)
(0.834539 -0.195118 0)
(0.833579 -0.387656 -3.38415e-22)
(0.803582 -0.18269 -1.82964e-23)
(0.094342 -0.0144954 4.81635e-20)
(0.0936512 0.0307666 -4.77329e-20)
(0.101871 0.0783332 3.44637e-22)
(0.117806 0.129674 -2.6347e-22)
(0.143564 0.180828 3.00515e-22)
(0.179471 0.228963 -2.92919e-22)
(0.226152 0.269858 5.14023e-22)
(0.283892 0.299069 0)
(0.352355 0.312048 -6.14066e-22)
(0.430122 0.304851 6.91731e-22)
(0.514722 0.274728 7.80133e-22)
(0.602805 0.220906 -9.11074e-22)
(0.69041 0.145045 0)
(0.774261 0.0493363 0)
(0.853828 -0.0650689 1.03299e-21)
(0.928218 -0.196202 0)
(0.989045 -0.329229 -9.39175e-22)
(1.02296 -0.438698 0)
(1.02364 -0.505723 -3.83953e-20)
(0.997129 -0.529416 6.82351e-20)
(0.955856 -0.522152 -5.23133e-20)
(0.910271 -0.498959 2.26177e-20)
(0.864999 -0.470704 1.35027e-20)
(0.82162 -0.441088 -1.31135e-20)
(0.780423 -0.411629 -9.1081e-21)
(0.734627 -0.388623 8.81622e-21)
(0.675347 -0.374405 0)
(0.608106 -0.347982 2.09914e-22)
(0.558483 -0.274844 0)
(0.547669 -0.142151 0)
(0.576102 0.0198255 8.09954e-21)
(0.628774 0.170192 -8.34021e-21)
(0.692008 0.280148 3.91752e-22)
(0.75291 0.3505 4.40915e-22)
(0.796678 0.408158 -3.97087e-22)
(0.813573 0.473005 -4.205e-21)
(0.807398 0.530027 4.0831e-21)
(0.802554 0.51506 -7.24158e-21)
(0.811881 0.394375 6.33585e-21)
(0.844677 0.178833 2.00978e-21)
(0.879714 -0.0476191 -7.28655e-21)
(0.906794 -0.228638 4.26271e-22)
(0.914257 -0.32892 4.42785e-21)
(0.910305 -0.355745 0)
(0.892468 -0.354541 -1.19739e-21)
(0.842319 -0.333882 1.16973e-21)
(0.793331 -0.33307 -1.57671e-21)
(0.753327 -0.24628 -3.42803e-22)
(0.765004 -0.142695 0)
(0.789955 0.0305424 3.09742e-22)
(0.817772 0.187704 -5.37562e-22)