/*--------------------------------*- C++ -*----------------------------------*\
| =========                 |                                                 |
| \\      /  F ield         | OpenFOAM: The Open Source CFD Toolbox           |
|  \\    /   O peration     | Version:  2512                                  |
|   \\  /    A nd           | Website:  www.openfoam.com                      |
|    \\/     M anipulation  |                                                 |
\*---------------------------------------------------------------------------*/
FoamFile
{
    version     2.0;
    format      ascii;
    arch        "LSB;label=32;scalar=64";
    class       volScalarField;
    location    "141.25";
    object      p;
}
// * * * * * * * * * * * * * * * * * * * * * * * * * * * * * * * * * * * * * //

dimensions      [0 2 -2 0 0 0 0];

internalField   nonuniform List<scalar> 
13248
(
-0.474208
-0.470926
-0.467376
-0.463831
-0.460615
-0.458066
-0.456336
-0.45535
-0.45483
-0.454321
-0.453244
-0.45097
-0.446906
-0.44057
-0.43166
-0.420078
-0.405934
-0.389501
-0.371155
-0.351322
-0.330295
-0.30848
-0.285079
-0.260849
-0.483186
-0.479337
-0.475143
-0.470884
-0.466857
-0.463365
-0.460498
-0.458107
-0.455836
-0.453182
-0.449575
-0.444474
-0.437443
-0.428222
-0.416741
-0.403118
-0.387605
-0.37054
-0.35228
-0.333156
-0.313427
-0.293334
-0.27276
-0.252463
-0.493994
-0.489328
-0.484381
-0.479379
-0.474519
-0.470016
-0.465859
-0.461801
-0.457425
-0.452237
-0.445763
-0.437636
-0.427652
-0.415787
-0.402176
-0.387064
-0.370755
-0.353558
-0.33575
-0.317569
-0.299187
-0.2808
-0.262325
-0.24417
-0.506775
-0.501042
-0.495219
-0.489404
-0.483611
-0.477915
-0.472178
-0.466064
-0.459153
-0.451049
-0.441469
-0.430286
-0.417541
-0.403404
-0.388128
-0.371994
-0.355271
-0.338189
-0.320935
-0.303661
-0.286488
-0.26955
-0.252812
-0.236672
-0.521485
-0.514476
-0.507653
-0.500909
-0.493992
-0.486802
-0.479077
-0.470449
-0.460589
-0.449301
-0.43656
-0.422492
-0.40733
-0.391355
-0.374845
-0.358038
-0.341127
-0.324254
-0.307524
-0.291021
-0.274813
-0.25897
-0.243476
-0.22857
-0.537924
-0.529494
-0.521565
-0.513731
-0.505403
-0.496293
-0.48607
-0.474441
-0.461283
-0.446681
-0.43088
-0.41421
-0.397009
-0.379577
-0.362143
-0.344872
-0.327868
-0.311197
-0.294901
-0.279014
-0.263562
-0.248574
-0.234046
-0.220123
-0.555741
-0.545826
-0.536696
-0.527552
-0.517415
-0.505845
-0.492561
-0.477483
-0.460801
-0.442909
-0.424276
-0.405345
-0.386467
-0.367889
-0.349759
-0.332152
-0.315099
-0.298605
-0.282667
-0.267277
-0.252431
-0.238123
-0.224354
-0.211161
-0.574412
-0.563024
-0.552599
-0.541847
-0.529391
-0.514751
-0.497862
-0.479003
-0.458734
-0.437719
-0.416563
-0.39572
-0.37548
-0.355998
-0.337327
-0.319468
-0.30239
-0.286052
-0.270415
-0.255443
-0.241106
-0.22738
-0.214258
-0.201687
-0.593203
-0.580425
-0.568591
-0.555846
-0.540487
-0.522176
-0.501257
-0.47847
-0.454731
-0.430884
-0.407559
-0.385139
-0.36381
-0.343621
-0.32454
-0.306503
-0.289432
-0.273252
-0.257895
-0.243301
-0.22942
-0.216217
-0.203664
-0.191642
-0.611155
-0.597122
-0.583725
-0.568529
-0.549677
-0.527211
-0.502046
-0.47541
-0.448487
-0.422184
-0.397059
-0.373375
-0.351195
-0.33047
-0.311096
-0.292958
-0.275941
-0.259941
-0.244867
-0.230641
-0.217197
-0.204486
-0.192451
-0.180948
-0.627111
-0.611975
-0.596806
-0.578665
-0.555805
-0.528885
-0.499487
-0.469265
-0.439549
-0.411195
-0.384626
-0.359963
-0.33715
-0.316053
-0.296509
-0.278363
-0.261468
-0.245699
-0.230946
-0.217111
-0.204118
-0.1919
-0.180362
-0.16938
-0.639824
-0.623766
-0.606599
-0.585027
-0.557728
-0.526195
-0.492696
-0.459216
-0.427106
-0.397087
-0.36941
-0.344045
-0.320826
-0.299543
-0.279985
-0.261959
-0.245295
-0.229847
-0.215488
-0.20211
-0.189625
-0.177951
-0.166962
-0.156602
-0.352469
-0.355054
-0.356694
-0.357934
-0.359226
-0.360678
-0.362308
-0.364098
-0.366007
-0.367908
-0.369754
-0.371427
-0.37279
-0.373696
-0.373992
-0.373526
-0.372163
-0.369797
-0.366376
-0.361926
-0.356541
-0.350368
-0.343677
-0.337074
-0.365972
-0.368219
-0.369833
-0.371311
-0.373065
-0.375194
-0.377702
-0.380556
-0.38369
-0.387002
-0.390369
-0.393633
-0.396632
-0.399129
-0.40088
-0.40162
-0.401079
-0.399002
-0.395178
-0.389478
-0.381852
-0.37229
-0.360951
-0.348777
-0.380064
-0.381767
-0.383221
-0.384843
-0.38697
-0.389687
-0.392986
-0.396815
-0.401089
-0.405693
-0.410474
-0.415237
-0.419724
-0.423673
-0.426733
-0.428528
-0.428654
-0.42671
-0.422327
-0.415222
-0.40521
-0.39216
-0.376056
-0.35803
-0.394136
-0.395135
-0.396292
-0.397928
-0.400281
-0.403421
-0.407327
-0.411929
-0.41712
-0.42276
-0.428665
-0.434601
-0.440265
-0.445304
-0.449291
-0.451743
-0.452148
-0.449977
-0.44473
-0.435997
-0.423509
-0.40713
-0.386644
-0.361663
-0.407566
-0.407786
-0.408492
-0.409994
-0.412377
-0.415703
-0.419949
-0.425027
-0.430806
-0.437119
-0.443747
-0.450414
-0.456772
-0.462386
-0.46677
-0.469336
-0.469488
-0.466609
-0.460117
-0.449533
-0.434552
-0.415029
-0.390936
-0.36239
-0.419807
-0.419219
-0.419461
-0.420632
-0.422802
-0.426033
-0.430296
-0.435493
-0.441473
-0.448036
-0.454931
-0.461833
-0.468347
-0.473985
-0.478182
-0.480299
-0.479666
-0.475619
-0.467554
-0.455003
-0.437709
-0.415571
-0.389177
-0.357519
-0.430534
-0.429235
-0.428924
-0.429614
-0.43134
-0.434182
-0.438126
-0.443072
-0.448853
-0.455247
-0.461968
-0.468622
-0.474793
-0.479936
-0.483428
-0.484587
-0.482713
-0.477138
-0.467302
-0.45281
-0.43358
-0.409515
-0.381986
-0.348837
-0.43965
-0.437785
-0.4369
-0.436977
-0.438049
-0.440235
-0.443552
-0.447908
-0.453131
-0.458971
-0.465091
-0.471123
-0.476534
-0.480739
-0.483079
-0.48285
-0.479361
-0.471999
-0.460314
-0.44405
-0.423367
-0.39822
-0.370488
-0.33755
-0.447324
-0.445062
-0.443615
-0.442986
-0.443248
-0.444573
-0.447021
-0.450524
-0.454906
-0.459897
-0.465144
-0.470184
-0.474459
-0.477334
-0.478118
-0.476118
-0.470701
-0.461376
-0.44787
-0.430133
-0.408549
-0.383231
-0.356091
-0.324694
-0.453973
-0.451453
-0.449473
-0.448092
-0.447456
-0.447799
-0.449229
-0.451705
-0.455052
-0.458979
-0.463076
-0.466827
-0.46962
-0.470779
-0.469616
-0.465495
-0.457906
-0.446544
-0.431358
-0.412556
-0.390683
-0.366083
-0.340355
-0.311365
-0.460203
-0.457494
-0.454997
-0.452855
-0.451298
-0.450621
-0.450965
-0.452317
-0.454491
-0.457155
-0.459845
-0.461982
-0.462911
-0.461955
-0.458476
-0.451961
-0.442082
-0.428751
-0.412129
-0.392633
-0.370879
-0.347496
-0.323733
-0.29782
-0.466721
-0.463788
-0.460768
-0.457883
-0.455433
-0.453754
-0.453024
-0.453208
-0.454092
-0.455292
-0.456279
-0.45643
-0.455081
-0.45161
-0.445509
-0.43645
-0.424323
-0.409245
-0.391518
-0.371621
-0.350035
-0.327496
-0.304698
-0.281694
-0.330343
-0.324244
-0.321215
-0.321499
-0.324896
-0.330083
-0.337574
-0.340464
-0.338259
-0.329678
-0.311159
-0.282608
-0.246911
-0.209039
-0.174508
-0.147514
-0.129948
-0.121684
-0.122114
-0.131646
-0.150702
-0.176067
-0.198783
-0.207199
-0.196619
-0.170235
-0.138202
-0.109423
-0.0883946
-0.075912
-0.0706919
-0.0717372
-0.0802903
-0.0969861
-0.115792
-0.125574
-0.119321
-0.101507
-0.082367
-0.0684524
-0.060402
-0.0583529
-0.0640149
-0.0757022
-0.0839754
-0.080811
-0.0703635
-0.057924
-0.0483592
-0.0424398
-0.0401739
-0.0407679
-0.039948
-0.0372733
-0.0339857
-0.0287733
-0.0210518
-0.018184
-0.0151308
-0.00678525
-0.335582
-0.320187
-0.307224
-0.29744
-0.291484
-0.289117
-0.289478
-0.288959
-0.287036
-0.279199
-0.264939
-0.242167
-0.213769
-0.183798
-0.156845
-0.136509
-0.124444
-0.120736
-0.125406
-0.139458
-0.163124
-0.192244
-0.216903
-0.225281
-0.211674
-0.18155
-0.145787
-0.113838
-0.0901155
-0.0751435
-0.0675743
-0.0661815
-0.0717747
-0.0852277
-0.101598
-0.11091
-0.106369
-0.091716
-0.0760094
-0.0652916
-0.0598998
-0.0604447
-0.0688136
-0.082959
-0.0927483
-0.0888964
-0.0764684
-0.0612377
-0.0494592
-0.0414704
-0.0372324
-0.0364433
-0.034773
-0.033006
-0.0305787
-0.0271961
-0.021311
-0.0196692
-0.0175843
-0.00799613
-0.339547
-0.315183
-0.29237
-0.272212
-0.256079
-0.244787
-0.237786
-0.233054
-0.227254
-0.227244
-0.213436
-0.196192
-0.175471
-0.15372
-0.134573
-0.120998
-0.114445
-0.115273
-0.124172
-0.142553
-0.170316
-0.202547
-0.228772
-0.237091
-0.221934
-0.1893
-0.150877
-0.116555
-0.0907149
-0.0736415
-0.0639557
-0.0602904
-0.063035
-0.0732206
-0.0870721
-0.0958477
-0.0929166
-0.0813606
-0.0690153
-0.0614572
-0.0587465
-0.0619351
-0.0729928
-0.0895096
-0.100812
-0.0964154
-0.0821334
-0.0642032
-0.0502887
-0.040428
-0.0344239
-0.0323652
-0.029783
-0.0287546
-0.0270741
-0.025556
-0.021539
-0.0211095
-0.0200001
-0.00919928
-0.341177
-0.30876
-0.277416
-0.247762
-0.221794
-0.20153
-0.186897
-0.17673
-0.169239
-0.163487
-0.157239
-0.146
-0.133143
-0.119454
-0.107842
-0.100734
-0.0993991
-0.104542
-0.117475
-0.139859
-0.171256
-0.206181
-0.23393
-0.242755
-0.22714
-0.19327
-0.153353
-0.117577
-0.0902916
-0.0716072
-0.0601273
-0.0544221
-0.0545334
-0.0615526
-0.0728192
-0.0808927
-0.079385
-0.0707467
-0.0615642
-0.0570202
-0.0568981
-0.0626475
-0.0762727
-0.0950605
-0.107892
-0.103162
-0.0872458
-0.0667844
-0.0508457
-0.039321
-0.0317712
-0.0285761
-0.0250285
-0.0245698
-0.0235094
-0.0238703
-0.021738
-0.0224887
-0.0223535
-0.0103819
-0.33717
-0.300215
-0.262459
-0.225418
-0.191123
-0.163642
-0.141588
-0.124905
-0.113499
-0.104497
-0.10246
-0.0940108
-0.0881522
-0.0816143
-0.076862
-0.0756916
-0.0791927
-0.0885103
-0.105375
-0.131484
-0.166046
-0.203267
-0.232479
-0.242273
-0.22729
-0.193533
-0.153379
-0.117115
-0.0890378
-0.0692264
-0.0563213
-0.0488876
-0.0466495
-0.0506692
-0.0593326
-0.0665193
-0.0661777
-0.0601587
-0.0538175
-0.0520265
-0.0542935
-0.062425
-0.0784376
-0.099354
-0.113708
-0.108922
-0.0917013
-0.0689619
-0.0511435
-0.0381596
-0.0292813
-0.0251015
-0.0205565
-0.0205019
-0.0199229
-0.0221557
-0.021909
-0.0237892
-0.0246161
-0.0115295
-0.329544
-0.290299
-0.249145
-0.2083
-0.169256
-0.134485
-0.105259
-0.0821024
-0.0652375
-0.0539619
-0.0494937
-0.0438097
-0.0430686
-0.0420392
-0.0429981
-0.046949
-0.0549659
-0.0684073
-0.0891104
-0.118553
-0.155622
-0.194569
-0.225054
-0.236165
-0.222661
-0.190279
-0.151161
-0.11537
-0.0871399
-0.0666528
-0.0526828
-0.0438433
-0.0396357
-0.040934
-0.0470428
-0.0531725
-0.0537121
-0.0498455
-0.0459389
-0.0465399
-0.0509222
-0.0611917
-0.0793393
-0.102189
-0.118056
-0.113508
-0.095409
-0.0707199
-0.0511954
-0.0369469
-0.0269473
-0.0219512
-0.016404
-0.0165942
-0.0163512
-0.0204253
-0.0220507
-0.0249927
-0.0267589
-0.0126281
-0.319307
-0.279996
-0.238966
-0.19741
-0.156358
-0.117791
-0.0835262
-0.0547879
-0.0324176
-0.0166308
-0.00817528
-0.0047536
-0.00284531
-0.00458599
-0.00929623
-0.0172114
-0.0291669
-0.0464229
-0.0705865
-0.102707
-0.141428
-0.181307
-0.212736
-0.225303
-0.213906
-0.183946
-0.14699
-0.112559
-0.0847709
-0.0640123
-0.0492997
-0.0393618
-0.0335554
-0.032517
-0.0362109
-0.0411894
-0.042808
-0.0400431
-0.0381124
-0.0406839
-0.0468439
-0.0589244
-0.0788909
-0.103452
-0.120798
-0.116759
-0.098291
-0.0720399
-0.0510119
-0.0356861
-0.0247535
-0.0191119
-0.0125941
-0.0128826
-0.0128281
-0.0186873
-0.0221598
-0.0260812
-0.0287557
-0.0136658
-0.307648
-0.270007
-0.231898
-0.192492
-0.152158
-0.112888
-0.0764273
-0.0440803
-0.0170419
0.00382243
0.0177959
0.0255407
0.0283763
0.0262372
0.0200854
0.00989694
-0.00483926
-0.0250498
-0.051828
-0.0856597
-0.12502
-0.164967
-0.196805
-0.210651
-0.20174
-0.175024
-0.141149
-0.108835
-0.0820265
-0.0613685
-0.0462079
-0.0354575
-0.0284045
-0.0254386
-0.0269398
-0.0306646
-0.0322463
-0.0309348
-0.0305503
-0.0346145
-0.0421612
-0.0556782
-0.0770842
-0.103105
-0.121874
-0.118582
-0.100299
-0.0729144
-0.050607
-0.0343882
-0.0226969
-0.0165629
-0.00913273
-0.00939274
-0.00938474
-0.0169466
-0.0222325
-0.027038
-0.0305831
-0.0146327
-0.29537
-0.260692
-0.227152
-0.191681
-0.154113
-0.116481
-0.0803319
-0.0467555
-0.0169275
0.00804121
0.0271639
0.0400407
0.0465736
0.0466182
0.0415107
0.0311752
0.0154074
-0.006297
-0.0343932
-0.0687501
-0.1077
-0.146837
-0.178342
-0.193126
-0.18697
-0.164134
-0.134051
-0.10446
-0.0790998
-0.0588842
-0.0435383
-0.0322253
-0.0242305
-0.0197319
-0.0192968
-0.0217117
-0.0230951
-0.0227598
-0.0234509
-0.0285185
-0.0370109
-0.0514857
-0.0739637
-0.101217
-0.121339
-0.11893
-0.101439
-0.0733975
-0.050044
-0.0330952
-0.0207971
-0.0143219
-0.00602883
-0.00613812
-0.00604872
-0.0152046
-0.0222643
-0.0278476
-0.0322207
-0.0155191
-0.283395
-0.252704
-0.224211
-0.193019
-0.159103
-0.124567
-0.0905025
-0.0575369
-0.0268886
0.000141265
0.0224639
0.0392628
0.050483
0.0550064
0.0529787
0.044607
0.0297885
0.00838075
-0.0194343
-0.0529235
-0.0903579
-0.127784
-0.158238
-0.173708
-0.170646
-0.152211
-0.126466
-0.100068
-0.076532
-0.0570286
-0.0416709
-0.0299466
-0.0212073
-0.0154694
-0.0133343
-0.0144367
-0.0154604
-0.0156396
-0.0169656
-0.0225316
-0.0315605
-0.0466019
-0.0696954
-0.0978541
-0.119285
-0.117855
-0.101755
-0.0735777
-0.0494443
-0.031875
-0.0190554
-0.0124047
-0.00334339
-0.00314016
-0.00284145
-0.0134615
-0.0222501
-0.0284962
-0.0336438
-0.016312
-0.27271
-0.247175
-0.22332
-0.195683
-0.16536
-0.134439
-0.103187
-0.0718124
-0.0413733
-0.0131025
0.011724
0.0318278
0.0467335
0.053866
0.0555331
0.0506286
0.0386134
0.0192284
-0.00693643
-0.0386302
-0.0738663
-0.108804
-0.137604
-0.153372
-0.15307
-0.139281
-0.118365
-0.0955961
-0.0742216
-0.0556716
-0.0404438
-0.0284141
-0.0191018
-0.012365
-0.00872813
-0.00860403
-0.00930892
-0.00971075
-0.0113182
-0.0169078
-0.0258879
-0.0408536
-0.064357
-0.0934714
-0.115906
-0.115469
-0.101064
-0.0732158
-0.0487048
-0.0306346
-0.0173602
-0.010626
-0.00106975
-0.000471874
0.000190471
-0.0116936
-0.022185
-0.0289777
-0.0348249
-0.0169895
-0.262319
-0.244303
-0.224627
-0.20001
-0.173485
-0.146388
-0.118476
-0.0900052
-0.061781
-0.0346826
-0.00950752
0.0137445
0.0315113
0.0439511
0.0491567
0.0481743
0.0403158
0.0250293
0.00284266
-0.0249374
-0.0561145
-0.0875149
-0.114484
-0.129933
-0.13176
-0.122751
-0.106828
-0.0879167
-0.0690926
-0.0520249
-0.0374758
-0.0256187
-0.0162327
-0.00903267
-0.00432743
-0.00315085
-0.00368576
-0.00459122
-0.00635646
-0.0118798
-0.0206584
-0.0351072
-0.058339
-0.0876576
-0.111112
-0.1095
-0.0988564
-0.0714782
-0.0470774
-0.0288588
-0.0154454
-0.00860702
0.00123474
0.002065
0.00301691
-0.00994794
-0.0220603
-0.0292648
-0.0357601
-0.0175374
-0.240243
-0.235411
-0.215904
-0.191251
-0.166376
-0.141518
-0.115923
-0.0895948
-0.063223
-0.0376587
-0.013512
0.00864839
0.0254893
0.037433
0.0440847
0.0451135
0.0394239
0.0262932
0.00609276
-0.0197166
-0.048993
-0.0785086
-0.104094
-0.116726
-0.117859
-0.109489
-0.0951313
-0.0782093
-0.0613028
-0.0458127
-0.0323896
-0.0212195
-0.0122041
-0.00506927
4.77299e-05
0.00204353
0.00208123
0.00131015
-0.000182812
-0.00516427
-0.0131404
-0.0271373
-0.0511102
-0.0824197
-0.108766
-0.120297
-0.0972891
-0.0689446
-0.044493
-0.0265104
-0.0134079
-0.0065029
0.00384392
0.00507591
0.00625855
-0.00797966
-0.0219539
-0.0294256
-0.0365372
-0.0179732
-0.219651
-0.218132
-0.200289
-0.176984
-0.154154
-0.132054
-0.109523
-0.0862526
-0.0628
-0.0399678
-0.0184446
0.00070745
0.0165662
0.0281984
0.0351323
0.0367638
0.0322996
0.0211865
0.00373471
-0.0187136
-0.0440343
-0.0689649
-0.0878367
-0.099804
-0.100911
-0.0939869
-0.0821139
-0.0679303
-0.053451
-0.0398587
-0.027751
-0.0174118
-0.00890214
-0.00198127
0.00329421
0.00570848
0.00595519
0.00501455
0.00357994
-0.000558767
-0.00757879
-0.0208104
-0.0448654
-0.0771307
-0.104317
-0.111489
-0.093016
-0.0652737
-0.0414815
-0.0240369
-0.0113133
-0.00446952
0.00587404
0.00713704
0.00883351
-0.00640447
-0.0219412
-0.0294604
-0.0369136
-0.0181938
-0.200913
-0.199861
-0.184713
-0.163988
-0.143504
-0.123954
-0.104221
-0.0837979
-0.0630966
-0.0428721
-0.023817
-0.00673816
0.00761809
0.0184032
0.0249697
0.0268051
0.0233542
0.0142752
-8.49404e-05
-0.0184797
-0.0389178
-0.0586479
-0.0740373
-0.0834751
-0.0848659
-0.0798068
-0.0704516
-0.0587626
-0.0463907
-0.0344276
-0.0234854
-0.0138961
-0.00584037
0.000812482
0.00610003
0.00882308
0.00931793
0.00841465
0.00701193
0.00322559
-0.00334542
-0.0161758
-0.0398804
-0.0713353
-0.0976782
-0.103895
-0.0875518
-0.0610569
-0.0381939
-0.0214313
-0.00916403
-0.00243497
0.00775975
0.00899033
0.0109956
-0.00513992
-0.0219604
-0.0293066
-0.0368883
-0.0182486
-0.182294
-0.182263
-0.169951
-0.152024
-0.13387
-0.116598
-0.0993518
-0.0815439
-0.063415
-0.0456148
-0.028802
-0.0136552
-0.000834803
0.0089787
0.0152089
0.0174064
0.0151611
0.00828386
-0.00287589
-0.0172676
-0.0332956
-0.0488364
-0.0613235
-0.0690275
-0.0707285
-0.0671526
-0.0598068
-0.0502056
-0.0396932
-0.0292333
-0.01942
-0.0105938
-0.00301097
0.00332227
0.008526
0.0114918
0.0123384
0.0116304
0.0103693
0.00697548
0.000723071
-0.0116984
-0.0344226
-0.0642534
-0.0897239
-0.0955841
-0.0809844
-0.0561644
-0.0345811
-0.018685
-0.00695759
-0.000392504
0.00951829
0.010734
0.0129569
-0.00393783
-0.0218547
-0.0289088
-0.0364663
-0.0181214
-0.164802
-0.165929
-0.155983
-0.140614
-0.124708
-0.109565
-0.094579
-0.0791673
-0.0634288
-0.0478969
-0.033184
-0.0198628
-0.00847426
0.000446884
0.00641159
0.00902124
0.00797001
0.00315416
-0.00513663
-0.0160912
-0.028453
-0.0405097
-0.0504619
-0.0567407
-0.0584792
-0.0559771
-0.0502535
-0.0424204
-0.0335313
-0.0244135
-0.0156434
-0.00756099
-0.000447458
0.00555378
0.0106043
0.0137302
0.0149398
0.0145428
0.0135388
0.0107636
0.00502949
-0.00653441
-0.027816
-0.0560668
-0.0806401
-0.0862392
-0.073335
-0.0506308
-0.0306828
-0.0158319
-0.00471472
0.00165139
0.0111346
0.0123178
0.0147617
-0.00267099
-0.0215363
-0.0282365
-0.0355861
-0.0177692
-0.149131
-0.150736
-0.142672
-0.129631
-0.115892
-0.10277
-0.0898587
-0.0766294
-0.0630895
-0.0496588
-0.0368555
-0.0251888
-0.015092
-0.00700095
-0.00132459
0.00160285
0.0015503
-0.00154162
-0.00743842
-0.0155111
-0.0247739
-0.0338923
-0.0415727
-0.0465491
-0.0481324
-0.046363
-0.0418732
-0.0354559
-0.0279311
-0.0199897
-0.0121715
-0.00481003
0.00183252
0.00750582
0.012356
0.0155611
0.0171128
0.0171625
0.0164844
0.0145525
0.00957247
-0.000760069
-0.0204347
-0.0470238
-0.070438
-0.0759231
-0.0647853
-0.0445465
-0.0265428
-0.0129045
-0.00245801
0.00368343
0.0126061
0.0137147
0.0163702
-0.00132835
-0.0209266
-0.027225
-0.0341682
-0.0171515
-0.13458
-0.136432
-0.130035
-0.119134
-0.107425
-0.096184
-0.0851588
-0.0738887
-0.0623283
-0.0508159
-0.0397307
-0.0295512
-0.0206357
-0.0133394
-0.00799094
-0.00485903
-0.00412248
-0.00581273
-0.0097346
-0.0154082
-0.0220933
-0.0288461
-0.0345205
-0.0383018
-0.039572
-0.0382204
-0.0346142
-0.0293037
-0.0229129
-0.0159955
-0.00903377
-0.00235701
0.00381342
0.00917113
0.0138072
0.0170309
0.0188859
0.0195039
0.0201088
0.0183061
0.0141859
0.00523901
-0.0126452
-0.0372942
-0.0593634
-0.0648821
-0.0555815
-0.038045
-0.0222234
-0.00994053
-0.000213143
0.00569096
0.013946
0.0149175
0.0177344
0.000102365
-0.0198947
-0.0257851
-0.0321509
-0.0162332
-0.120893
-0.123106
-0.118194
-0.109177
-0.0992919
-0.089754
-0.0804194
-0.0708924
-0.0610868
-0.0512372
-0.0417514
-0.0329316
-0.0251031
-0.0185575
-0.0135561
-0.0103133
-0.0089679
-0.00953675
-0.0118705
-0.0156097
-0.0201895
-0.0249466
-0.0290047
-0.0317097
-0.0325644
-0.0313999
-0.028407
-0.0239476
-0.0184834
-0.0124463
-0.00624651
-0.000206293
0.00549493
0.0105439
0.0149764
0.0181853
0.0202835
0.0214193
0.0227004
0.0218322
0.0187468
0.0112983
-0.00466143
-0.0272555
-0.0478489
-0.0534535
-0.0460291
-0.0313069
-0.0178043
-0.00697783
0.00199433
0.00766092
0.0151809
0.0159406
0.0188398
0.0016954
-0.018267
-0.0238266
-0.0295026
-0.0149911
-0.108461
-0.110935
-0.107145
-0.0997205
-0.0914508
-0.0834411
-0.075613
-0.0676336
-0.0593888
-0.0510623
-0.0429554
-0.0353498
-0.028508
-0.0226615
-0.018018
-0.0147481
-0.0129606
-0.0126687
-0.0137644
-0.0159777
-0.0188616
-0.0220128
-0.0247206
-0.0264742
-0.0268786
-0.02575
-0.0231649
-0.0193475
-0.0146298
-0.00934252
-0.0038169
0.0016421
0.00688644
0.0116259
0.0158655
0.0190511
0.0213408
0.0229059
0.024697
0.0249752
0.0231591
0.0172803
0.00312125
-0.0174822
-0.0363968
-0.0420298
-0.0364739
-0.0245485
-0.0133796
-0.0040533
0.00414029
0.00957817
0.0163506
0.0168397
0.0197177
0.00356854
-0.0158643
-0.0212677
-0.0262341
-0.0134252
-0.0971319
-0.0995887
-0.0967624
-0.0907423
-0.0839015
-0.0772398
-0.0707318
-0.0640914
-0.0572279
-0.0502412
-0.0433672
-0.0368483
-0.0308977
-0.025702
-0.0214259
-0.0182041
-0.0161237
-0.0151988
-0.0153521
-0.0163914
-0.0180424
-0.0198255
-0.0214047
-0.0223366
-0.0222995
-0.0211137
-0.0187875
-0.0154489
-0.0113281
-0.00667333
-0.00174175
0.00319232
0.00800193
0.0124303
0.0164742
0.019634
0.0220808
0.024026
0.0262014
0.027511
0.0270471
0.0226441
0.0100833
-0.00849128
-0.0254391
-0.0310223
-0.0272783
-0.0180037
-0.00905604
-0.00120361
0.00620316
0.011425
0.0175016
0.0177156
0.0204382
0.00584308
-0.0125458
-0.0180575
-0.0224211
-0.0115686
-0.0866416
-0.0890901
-0.0870762
-0.0822599
-0.0766578
-0.0711712
-0.0658151
-0.06035
-0.0546661
-0.0488393
-0.0430512
-0.0374969
-0.0323495
-0.0277586
-0.023854
-0.0207423
-0.0184936
-0.0171232
-0.0165774
-0.0167103
-0.0173415
-0.0181399
-0.0188233
-0.0190699
-0.0186294
-0.0173395
-0.0151714
-0.0121883
-0.0085432
-0.00441844
-8.01853e-06
0.00445405
0.00885672
0.0129765
0.0168101
0.0199295
0.0224933
0.0248184
0.0271549
0.0292057
0.0297939
0.0265969
0.015663
-0.000592126
-0.0153411
-0.0208429
-0.0187863
-0.0118987
-0.00494513
0.00153074
0.00816111
0.0131791
0.0186701
0.0186905
0.021099
0.00860725
-0.0082747
-0.0142163
-0.0182176
-0.00949711
-0.0769968
-0.0794456
-0.0780871
-0.0742709
-0.0697215
-0.0652439
-0.0608769
-0.0564165
-0.0517515
-0.0469289
-0.0420874
-0.0373833
-0.0329559
-0.0289242
-0.0253901
-0.0224368
-0.0201218
-0.018462
-0.0174232
-0.0169142
-0.0167719
-0.0168057
-0.0167879
-0.016482
-0.0156952
-0.0142878
-0.0122141
-0.00949654
-0.00623163
-0.00255004
0.00140484
0.00544307
0.00946703
0.0132864
0.0168942
0.0199416
0.0225251
0.0246304
0.0274714
0.0299022
0.0310169
0.0287123
0.0196058
0.00599105
-0.00650591
-0.0118825
-0.0112773
-0.0064167
-0.00114877
0.0041049
0.00998579
0.0148058
0.019858
0.019866
0.0218162
0.011867
-0.00320693
-0.00987753
-0.0138477
-0.0073308
-0.0682453
-0.0706079
-0.069744
-0.0667526
-0.0630938
-0.0594755
-0.0559494
-0.0523427
-0.0485471
-0.0445859
-0.0405638
-0.0366045
-0.0328192
-0.0293018
-0.0261321
-0.0233748
-0.0210758
-0.0192514
-0.0178843
-0.0169132
-0.0162308
-0.0156965
-0.0151488
-0.0144146
-0.0133472
-0.0118312
-0.0098166
-0.00730173
-0.00434425
-0.00103435
0.00252307
0.00618021
0.00985207
0.0133814
0.0167552
0.019704
0.022292
0.0245619
0.0272572
0.0296752
0.0308641
0.0291722
0.0219487
0.0110254
0.000679673
-0.00443595
-0.00491255
-0.00166658
0.00225581
0.00647566
0.0116417
0.0162511
0.0210093
0.0212598
0.0227045
0.0154908
0.00225059
-0.00532575
-0.00958053
-0.0052123
-0.0602654
-0.0624868
-0.0620042
-0.059695
-0.0567845
-0.05389
-0.0510712
-0.0481824
-0.0451211
-0.0418928
-0.0385748
-0.0352638
-0.0320476
-0.0290003
-0.0261841
-0.0236498
-0.0214347
-0.0195435
-0.0179816
-0.0167091
-0.0156541
-0.0147183
-0.0137878
-0.0127373
-0.0114574
-0.00985581
-0.00788574
-0.00553245
-0.00282856
0.000166713
0.00337674
0.00669055
0.0100355
0.013286
0.016419
0.0192377
0.0217814
0.0240735
0.0265446
0.0287275
0.0297608
0.0284623
0.0229218
0.0144428
0.00607683
0.00142338
0.000288442
0.00232509
0.00522203
0.00860564
0.013095
0.0174535
0.021997
0.022746
0.0238231
0.0191803
0.00748855
-0.000963614
-0.00567907
-0.00328083
-0.0529499
-0.0550335
-0.0548497
-0.0530968
-0.0508051
-0.0485121
-0.0462814
-0.0439905
-0.0415435
-0.0389336
-0.0362159
-0.0334651
-0.0307499
-0.0281282
-0.0256485
-0.0233551
-0.0212944
-0.0193913
-0.0177382
-0.0162916
-0.0150021
-0.0138019
-0.0126124
-0.0113443
-0.00991814
-0.0082619
-0.00633588
-0.00411971
-0.00163097
0.00109387
0.00399838
0.00700238
0.010044
0.0130239
0.0159128
0.0185695
0.0210129
0.0232264
0.0254279
0.0272872
0.0281056
0.0270624
0.0228915
0.0164684
0.00987124
0.00583244
0.00441043
0.00559246
0.00773122
0.0104624
0.0143192
0.0183727
0.0226706
0.0240518
0.025029
0.022447
0.0119001
0.00283669
-0.00233423
-0.00164424
-0.0462823
-0.0482204
-0.0482551
-0.0469465
-0.0451605
-0.0433626
-0.0416163
-0.0398186
-0.0378812
-0.0357887
-0.0335792
-0.0313094
-0.0290322
-0.0267911
-0.0246201
-0.0225451
-0.0205777
-0.0188189
-0.0171802
-0.0156652
-0.0142525
-0.0128988
-0.0115526
-0.0101517
-0.00864008
-0.00696325
-0.00508985
-0.00299858
-0.000698855
0.00178887
0.00442225
0.00714496
0.00990415
0.0126232
0.0152698
0.01774
0.0200315
0.0220984
0.0240227
0.0255619
0.0261901
0.02534
0.0222418
0.0174734
0.0123954
0.00903106
0.00758501
0.00819919
0.00978643
0.0120192
0.0152877
0.0189902
0.0229435
0.0247988
0.0259081
0.0246885
0.0151075
0.00586682
0.000361904
-0.000352762
-0.0402238
-0.0419973
-0.0421827
-0.0412264
-0.0398519
-0.0384588
-0.0371082
-0.0357139
-0.034196
-0.0325333
-0.0307514
-0.0288925
-0.0269974
-0.0250994
-0.0232249
-0.021396
-0.0196324
-0.0179596
-0.0163686
-0.0148533
-0.0133988
-0.0119778
-0.0105569
-0.00909388
-0.00755061
-0.00588686
-0.00407966
-0.00210945
1.81539e-05
0.00229298
0.00468255
0.00714824
0.00964505
0.0121152
0.0145227
0.0167904
0.0188957
0.0207807
0.0224483
0.0237145
0.0242073
0.0235342
0.0212681
0.0177861
0.0139709
0.011267
0.00995383
0.0102187
0.0114046
0.0132564
0.0159807
0.0192866
0.0227874
0.0248322
0.0260154
0.0254878
0.0170275
0.0080771
0.00240597
0.000595817
-0.034705
-0.0363128
-0.0366013
-0.0359233
-0.0348808
-0.0338157
-0.0327855
-0.0317183
-0.0305427
-0.0292349
-0.0278105
-0.0263009
-0.0247369
-0.0231433
-0.0215411
-0.0199493
-0.0183772
-0.0168384
-0.0153385
-0.013876
-0.0124422
-0.01102
-0.00958904
-0.00812126
-0.00659193
-0.00497226
-0.00324672
-0.00139893
0.000566758
0.00264606
0.00481334
0.00704297
0.00929617
0.0115295
0.0137043
0.0157628
0.0176697
0.0193633
0.0208081
0.0218605
0.0222734
0.021776
0.0201543
0.0176512
0.0148551
0.012755
0.0116487
0.0117247
0.012614
0.0141635
0.0163954
0.0192632
0.0222345
0.0242176
0.0252386
0.024896
0.0177904
0.00950644
0.00384568
0.00123576
-0.0296821
-0.0311309
-0.0314851
-0.0310233
-0.0302459
-0.0294441
-0.0286709
-0.0278668
-0.0269686
-0.0259515
-0.0248241
-0.0236093
-0.02233
-0.0210048
-0.019649
-0.0182746
-0.0168921
-0.0155081
-0.0141297
-0.0127585
-0.0113908
-0.0100168
-0.00862501
-0.00719752
-0.00571932
-0.00417055
-0.00254181
-0.000820448
0.000989104
0.00288564
0.00484812
0.0068594
0.0088857
0.0108947
0.0128483
0.0147008
0.0164114
0.0179205
0.0191797
0.020075
0.020453
0.020124
0.0190021
0.0172423
0.0152456
0.0136657
0.0127877
0.0127852
0.0134532
0.0147483
0.0165442
0.0189503
0.0213668
0.023114
0.0238108
0.0233395
0.0176242
0.0102418
0.00476035
0.00162163
-0.0251221
-0.0264161
-0.0268053
-0.0265091
-0.0259418
-0.02535
-0.0247815
-0.0241874
-0.0235122
-0.0227318
-0.0218497
-0.0208821
-0.0198461
-0.0187549
-0.0176194
-0.016448
-0.015248
-0.0140246
-0.0127838
-0.0115286
-0.0102582
-0.00896754
-0.00765091
-0.0062976
-0.00489942
-0.00344333
-0.00192469
-0.000334408
0.00132238
0.00304571
0.0048176
0.00662608
0.00844167
0.0102403
0.0119862
0.0136424
0.0151677
0.0165076
0.0176172
0.0184025
0.0187756
0.0186004
0.0178663
0.0166686
0.015286
0.0141401
0.0134802
0.0134626
0.013966
0.0150345
0.016453
0.0184006
0.0202774
0.0216906
0.022033
0.0213029
0.0167983
0.0104176
0.00525289
0.00181594
-0.0209851
-0.0221314
-0.0225335
-0.0223631
-0.0219615
-0.021536
-0.0211295
-0.0207017
-0.0202047
-0.0196155
-0.0189346
-0.0181731
-0.0173434
-0.0164548
-0.0155146
-0.0145289
-0.0135023
-0.0124381
-0.0113413
-0.0102154
-0.00906167
-0.0078775
-0.00666079
-0.00540566
-0.00410859
-0.00276159
-0.00136343
9.1771e-05
0.00159825
0.00315593
0.00474907
0.00636901
0.00798999
0.00959323
0.0111465
0.0126197
0.0139758
0.0151667
0.0161565
0.0168655
0.017249
0.0172105
0.0167757
0.0159984
0.0150796
0.0142871
0.0138175
0.0138162
0.0141971
0.0150599
0.0161546
0.0176689
0.0190533
0.0200952
0.0201305
0.0191424
0.0155778
0.0101838
0.00542592
0.00187741
-0.0172361
-0.0182449
-0.0186444
-0.0185682
-0.0182962
-0.0180016
-0.0177223
-0.0174252
-0.0170695
-0.0166341
-0.0161172
-0.0155265
-0.0148706
-0.0141561
-0.0133871
-0.0125684
-0.0117029
-0.0107921
-0.00983921
-0.00884789
-0.0078205
-0.00675626
-0.00565484
-0.00451339
-0.0033314
-0.00210454
-0.000833834
0.000483915
0.00184251
0.00324129
0.00466631
0.00611067
0.00755232
0.00897625
0.0103532
0.0116587
0.0128629
0.0139252
0.0148173
0.0154717
0.0158719
0.0159494
0.0157415
0.0152763
0.0147019
0.0141868
0.0138761
0.0139013
0.0141901
0.0148672
0.0156843
0.0168108
0.0177635
0.0184411
0.0182395
0.0170634
0.0141777
0.00967388
0.00536644
0.001835
-0.0138459
-0.0147277
-0.0151136
-0.0151068
-0.0149354
-0.0147433
-0.0145631
-0.0143682
-0.0141239
-0.0138113
-0.0134276
-0.0129776
-0.0124674
-0.0119013
-0.0112815
-0.0106103
-0.0098908
-0.00912398
-0.00831063
-0.00745323
-0.00655491
-0.00561621
-0.00463774
-0.00361834
-0.00255921
-0.0014585
-0.000318743
0.000861361
0.00207543
0.00332191
0.00458872
0.00586984
0.00714619
0.00840592
0.00962428
0.0107796
0.0118481
0.0128013
0.0136065
0.0142201
0.0146367
0.014806
0.0147663
0.0145313
0.0142082
0.0139047
0.0137195
0.0137686
0.0139858
0.0144982
0.0150802
0.0158718
0.0164595
0.0168106
0.0164366
0.0151606
0.0127448
0.00899564
0.00515003
0.00175564
-0.0107868
-0.0115526
-0.0119178
-0.0119613
-0.0118676
-0.0117552
-0.011652
-0.0115363
-0.0113794
-0.0111645
-0.0108882
-0.0105536
-0.0101647
-0.00972417
-0.00923313
-0.00869182
-0.0081024
-0.00746701
-0.00678501
-0.00605676
-0.00528504
-0.00447151
-0.00361746
-0.00272261
-0.00178882
-0.000815884
0.00019293
0.00123751
0.00231155
0.00341305
0.0045312
0.00566059
0.00678537
0.0078949
0.0089696
0.00999149
0.0109387
0.0117867
0.0125219
0.0131039
0.0135314
0.0137685
0.01385
0.0137821
0.0136383
0.0134901
0.0133989
0.0134642
0.0136235
0.0139933
0.0143792
0.014889
0.0151947
0.0152635
0.0147628
0.0134611
0.0113688
0.00823308
0.00483421
0.0016431
-0.00803397
-0.00869522
-0.00903561
-0.00911482
-0.00908081
-0.00903007
-0.00898605
-0.00893154
-0.00884269
-0.00870519
-0.00851531
-0.00827484
-0.00798635
-0.0076513
-0.00727014
-0.00684241
-0.00636874
-0.00585049
-0.00528829
-0.004681
-0.00402997
-0.00333706
-0.00260417
-0.00183163
-0.0010214
-0.00017406
0.000706857
0.0016203
0.00256044
0.00352477
0.00450394
0.00549288
0.0064784