/*--------------------------------*- C++ -*----------------------------------*\
| =========                 |                                                 |
| \\      /  F ield         | OpenFOAM: The Open Source CFD Toolbox           |
|  \\    /   O peration     | Version:  2512                                  |
|   \\  /    A nd           | Website:  www.openfoam.com                      |
|    \\/     M anipulation  |                                                 |
\*---------------------------------------------------------------------------*/
FoamFile
{
    version     2.0;
    format      ascii;
    arch        "LSB;label=32;scalar=64";
    class       volVectorField;
    location    "42.25";
    object      U;
}
// * * * * * * * * * * * * * * * * * * * * * * * * * * * * * * * * * * * * * //

dimensions      [0 1 -1 0 0 0 0];

internalField   nonuniform List<vector> 
13248
(
(-0.0127111 0.0118473 6.20233e-20)
(-0.0246571 0.0258432 0)
(-0.0236968 0.0339445 -1.17148e-19)
(-0.0106842 0.0379331 1.10355e-19)
(0.0137576 0.0392911 1.03322e-19)
(0.0491686 0.0392342 0)
(0.095159 0.0387031 0)
(0.151292 0.0384115 2.49825e-19)
(0.21697 0.0388886 -8.94827e-22)
(0.291302 0.0404902 -2.18866e-19)
(0.373014 0.043403 2.03976e-19)
(0.460407 0.0476505 -1.27603e-19)
(0.551392 0.0531029 0)
(0.64359 0.0594966 -2.2191e-19)
(0.734472 0.066464 4.15304e-19)
(0.821542 0.0735711 -9.84388e-20)
(0.902501 0.0803651 -1.78854e-19)
(0.975409 0.0863962 1.67898e-19)
(1.03882 0.0913511 0)
(1.09178 0.0947104 0)
(1.13426 0.09701 0)
(1.16546 0.0959497 0)
(1.18895 0.0971148 5.32987e-20)
(1.19978 0.0865126 1.96482e-19)
(-0.012475 0.01031 -1.87359e-19)
(-0.0206949 0.0209652 1.27688e-19)
(-0.012952 0.0264165 -1.1614e-21)
(0.00954411 0.0286312 -1.68686e-19)
(0.0459686 0.0292177 -1.03212e-19)
(0.0956351 0.0294582 -9.76304e-20)
(0.157785 0.0302968 -1.79513e-19)
(0.23141 0.0324091 1.69718e-19)
(0.315071 0.0362116 0)
(0.406795 0.0418711 5.85188e-22)
(0.504064 0.0493117 1.19032e-21)
(0.60392 0.0582361 1.27502e-19)
(0.703157 0.0681647 0)
(0.798573 0.078495 0)
(0.887232 0.0885721 1.52548e-19)
(0.966697 0.0977633 -2.86548e-19)
(1.0352 0.105526 1.73791e-19)
(1.09174 0.111456 -1.63155e-19)
(1.1361 0.115326 -7.29671e-20)
(1.16885 0.117057 -1.34754e-19)
(1.19095 0.11687 -5.76663e-20)
(1.20437 0.114539 -1.08818e-19)
(1.21021 0.112263 1.57431e-19)
(1.21072 0.104964 4.60499e-20)
(-0.0114155 0.00850213 0)
(-0.0137061 0.0156087 0)
(0.00352766 0.0187 5.96676e-20)
(0.0385459 0.0198144 5.49358e-20)
(0.0901136 0.0206157 -1.35195e-21)
(0.157036 0.022408 -1.00783e-19)
(0.237765 0.0260769 0)
(0.33018 0.0321184 -8.44299e-20)
(0.431452 0.040658 7.9464e-20)
(0.538072 0.0514695 5.49013e-22)
(0.64606 0.0640169 -1.36515e-19)
(0.751296 0.0775321 -1.25965e-19)
(0.849911 0.0911219 1.60057e-21)
(0.938652 0.103887 -1.06232e-19)
(1.01515 0.115036 2.53316e-19)
(1.07808 0.123971 0)
(1.12718 0.130345 -1.68384e-19)
(1.16314 0.134062 8.13571e-20)
(1.18743 0.135289 7.2899e-20)
(1.20199 0.134294 0)
(1.20907 0.131709 6.09668e-20)
(1.2107 0.127481 -2.13394e-19)
(1.20862 0.123736 2.0032e-19)
(1.20559 0.116382 1.29996e-19)
(-0.00916045 0.00639023 -6.63648e-20)
(-0.00275308 0.00988044 -6.86222e-20)
(0.0270811 0.0111969 6.19725e-20)
(0.0778499 0.0122534 0)
(0.14758 0.0146437 0)
(0.23408 0.0195735 -2.1681e-21)
(0.334425 0.0276807 0)
(0.444775 0.0390504 -2.58077e-19)
(0.560463 0.0532636 2.40085e-19)
(0.676326 0.0694793 -2.96957e-19)
(0.787234 0.0865713 6.83047e-20)
(0.888652 0.103306 0)
(0.977111 0.118528 1.15365e-19)
(1.0505 0.131315 -2.14379e-19)
(1.10814 0.141077 5.09165e-20)
(1.15066 0.147592 1.33619e-19)
(1.17972 0.150976 -4.47342e-21)
(1.19763 0.151608 -1.5003e-19)
(1.20699 0.150023 0)
(1.21027 0.1468 0)
(1.2096 0.14257 -5.55366e-20)
(1.20658 0.137504 5.03956e-20)
(1.20247 0.133104 1.84254e-19)
(1.19797 0.126075 -1.72956e-19)
(-0.00530475 0.00401501 -7.00805e-20)
(0.0131028 0.0040639 -6.9715e-20)
(0.0588869 0.00453675 1.9607e-19)
(0.128506 0.00695399 -1.18789e-19)
(0.218758 0.0126252 1.11816e-19)
(0.325813 0.022419 2.03059e-19)
(0.444704 0.0364313 -1.4359e-19)
(0.569419 0.0540252 -1.7522e-19)
(0.693422 0.0739869 3.03924e-21)
(0.810409 0.0947525 2.24724e-19)
(0.915107 0.114687 0)
(1.00386 0.132353 6.26997e-20)
(1.0749 0.146714 0)
(1.12831 0.157234 -1.03921e-19)
(1.16565 0.163868 1.46234e-19)
(1.18947 0.166968 1.30154e-21)
(1.2028 0.167142 -3.91779e-20)
(1.20861 0.165103 7.38982e-20)
(1.20946 0.161536 6.44752e-20)
(1.20733 0.157016 -5.84382e-20)
(1.2036 0.15201 5.55234e-20)
(1.19913 0.146671 -5.03833e-20)
(1.19432 0.141878 0)
(1.18984 0.135203 -3.92684e-20)
(0.000549977 0.00151724 7.00705e-20)
(0.0346892 -0.00132415 7.36185e-20)
(0.0997779 -0.000366201 -6.57082e-20)
(0.190823 0.00516781 1.2236e-19)
(0.302757 0.0159734 -1.1517e-19)
(0.429405 0.0322163 1.04169e-19)
(0.563267 0.0530698 -5.00358e-20)
(0.696185 0.0768815 1.31546e-19)
(0.820423 0.101546 -8.28668e-20)
(0.92977 0.124932 1.47965e-19)
(1.02028 0.145262 -3.42495e-19)
(1.09052 0.161374 1.26346e-19)
(1.14131 0.172799 -1.11861e-19)
(1.17511 0.179694 1.05068e-19)
(1.19531 0.182659 9.21172e-20)
(1.20549 0.182525 8.1883e-20)
(1.20888 0.180155 -2.28213e-19)
(1.20807 0.176308 1.42012e-19)
(1.20491 0.171574 -6.44774e-20)
(1.20058 0.166366 1.70606e-19)
(1.19578 0.160955 -5.49375e-20)
(1.19086 0.155445 -1.37273e-19)
(1.18602 0.150316 1.27249e-19)
(1.18149 0.143915 3.92544e-20)
(0.00875591 -0.000855176 0)
(0.0626017 -0.00552907 6.57242e-22)
(0.150043 -0.00234237 1.37696e-19)
(0.264128 0.00829228 -1.2911e-19)
(0.39722 0.025996 -1.16349e-19)
(0.540253 0.0497691 2.16328e-19)
(0.683204 0.0775039 -1.00503e-19)
(0.816532 0.106426 1.34443e-19)
(0.932709 0.133752 -2.5969e-21)
(1.02722 0.157246 -7.65797e-20)
(1.0988 0.175551 1.6855e-19)
(1.14891 0.188246 -2.49553e-19)
(1.18087 0.195689 0)
(1.19883 0.198734 -4.97548e-20)
(1.20689 0.198434 -1.34057e-19)
(1.20855 0.195807 4.20732e-20)
(1.20645 0.19169 1.38296e-21)
(1.20238 0.186698 -9.55295e-20)
(1.19743 0.18124 4.80587e-21)
(1.19223 0.17557 1.11043e-19)
(1.18706 0.169839 -5.0377e-20)
(1.18206 0.164131 -1.98743e-20)
(1.17724 0.158649 5.98614e-20)
(1.17273 0.152416 0)
(0.019576 -0.0027555 0)
(0.0970791 -0.00760357 3.73764e-20)
(0.209248 -7.71001e-05 -1.80078e-19)
(0.346613 0.0176735 6.54156e-20)
(0.498385 0.0436306 -6.15677e-20)
(0.652527 0.075177 -5.63934e-20)
(0.797258 0.108768 -9.98312e-20)
(0.923165 0.140746 4.96867e-20)
(1.02466 0.168196 4.33135e-20)
(1.10027 0.189415 0)
(1.15196 0.203953 1.00383e-19)
(1.18383 0.212349 -1.5032e-19)
(1.2008 0.215723 1.1199e-19)
(1.20756 0.215376 4.97797e-20)
(1.20796 0.212507 -4.14182e-20)
(1.20479 0.208065 -3.51776e-20)
(1.19987 0.202719 -3.31439e-20)
(1.19429 0.196902 9.79889e-20)
(1.1886 0.190871 0)
(1.18309 0.184777 5.05701e-20)
(1.17784 0.178707 4.35405e-20)
(1.17287 0.172721 -1.06968e-19)
(1.16814 0.166855 -7.49919e-20)
(1.16365 0.160705 6.92045e-20)
(0.0331367 -0.00376056 -4.06313e-20)
(0.137891 -0.00649614 -1.64661e-21)
(0.276124 0.00771852 3.66933e-20)
(0.435365 0.0343652 1.02661e-19)
(0.601478 0.0692148 2.99399e-20)
(0.760104 0.10777 -5.78662e-20)
(0.899236 0.145263 5.27907e-20)
(1.01143 0.17776 -4.63978e-20)
(1.09446 0.20293 8.36476e-20)
(1.15045 0.220138 3.58838e-20)
(1.1842 0.230053 -1.01901e-19)
(1.20148 0.234077 3.01761e-20)
(1.20771 0.233811 5.19799e-20)
(1.20724 0.230696 -2.55078e-20)
(1.20315 0.225845 0)
(1.1974 0.220024 3.87563e-20)
(1.19111 0.213712 6.62754e-20)
(1.18485 0.207186 1.18555e-20)
(1.17887 0.200604 -5.57116e-20)
(1.17327 0.194052 2.35917e-20)
(1.16805 0.187585 0)
(1.16314 0.18123 -1.89277e-20)
(1.15848 0.17496 -1.82223e-20)
(1.15402 0.168776 0)
(0.0493779 -0.00340379 0)
(0.184252 -0.00116598 2.13239e-20)
(0.348554 0.0221199 3.94194e-20)
(0.526604 0.0589271 -1.04933e-19)
(0.701373 0.1024 3.39714e-20)
(0.857606 0.146271 0)
(0.985007 0.185176 5.12884e-20)
(1.07968 0.215715 -7.16862e-20)
(1.14339 0.236768 -4.18556e-20)
(1.18148 0.249016 1.89396e-20)
(1.20064 0.254153 -3.07036e-20)
(1.20723 0.254156 7.43467e-20)
(1.20632 0.250798 3.75633e-20)
(1.20146 0.245436 -2.59447e-20)
(1.19489 0.238985 -2.25836e-21)
(1.18783 0.232005 -7.24237e-20)
(1.1809 0.224814 3.30843e-20)
(1.17438 0.217583 -8.92029e-22)
(1.16833 0.210404 0)
(1.16276 0.203329 -2.36164e-20)
(1.15761 0.196391 0)
(1.1528 0.189588 5.46491e-20)
(1.14825 0.182903 -6.54837e-20)
(1.14384 0.176567 3.00139e-20)
(0.0680103 -0.00121476 -1.12053e-20)
(0.234796 0.00930094 -5.38159e-20)
(0.423699 0.0438338 6.13103e-20)
(0.616109 0.0913237 3.59948e-20)
(0.793313 0.142228 -1.71446e-20)
(0.941111 0.189086 2.89878e-20)
(1.0527 0.226845 -1.40328e-20)
(1.12859 0.253404 2.34812e-20)
(1.17428 0.269201 0)
(1.19745 0.276185 5.3637e-20)
(1.20561 0.27679 -2.12157e-21)
(1.20485 0.273251 -4.34738e-20)
(1.19946 0.267278 1.87037e-20)
(1.1921 0.26002 -2.12363e-20)
(1.18423 0.25217 -8.17933e-21)
(1.17656 0.244109 9.37451e-21)
(1.16939 0.236037 -7.29129e-21)
(1.16281 0.228054 -4.00316e-20)
(1.15682 0.220216 2.4544e-20)
(1.15135 0.212555 5.07229e-21)
(1.14634 0.205081 4.50674e-21)
(1.14168 0.197776 4.00943e-21)
(1.13726 0.190681 0)
(1.13293 0.184058 0)
(0.0885627 0.0032479 1.12131e-20)
(0.287749 0.0256017 -1.11907e-20)
(0.498391 0.0730962 -2.04474e-20)
(0.699858 0.130925 0)
(0.87358 0.187318 -8.53444e-21)
(1.00841 0.234596 -7.73229e-21)
(1.10225 0.268966 -1.32496e-20)
(1.16002 0.290144 0)
(1.1902 0.300165 0)
(1.20171 0.301989 0)
(1.20203 0.298466 0)
(1.1965 0.291825 0)
(1.18847 0.283573 -1.17526e-20)
(1.17978 0.274615 5.35515e-21)
(1.17132 0.265439 9.3715e-21)
(1.16345 0.256292 4.39907e-21)
(1.15628 0.24729 1.09342e-20)
(1.14981 0.238492 0)
(1.14399 0.229929 -2.66333e-21)
(1.13873 0.221618 -2.57989e-21)
(1.13394 0.213551 -4.51392e-21)
(1.12951 0.205708 -4.01584e-21)
(1.1253 0.198207 0)
(1.12115 0.191167 2.95034e-21)
(-0.00135187 0.00794023 6.45786e-21)
(-0.00606215 0.0181965 -6.70399e-21)
(-0.0142919 0.0244498 -1.26975e-20)
(-0.0243282 0.0277825 0)
(-0.0352127 0.0290388 -1.69806e-20)
(-0.0464474 0.0288696 5.31615e-21)
(-0.057683 0.0277542 -1.0089e-20)
(-0.0686757 0.0260182 0)
(-0.0792704 0.0238582 0)
(-0.0893723 0.0213717 0)
(-0.0989249 0.0185857 0)
(-0.107894 0.015483 0)
(-0.116259 0.0120233 -4.21031e-23)
(-0.124003 0.00815804 -6.59634e-21)
(-0.131108 0.00384124 1.25122e-20)
(-0.137555 -0.000960265 1.76019e-20)
(-0.143328 -0.00626472 5.57989e-21)
(-0.148415 -0.0120703 0)
(-0.152816 -0.0183522 4.82355e-21)
(-0.156558 -0.0250562 -1.36742e-20)
(-0.159692 -0.0321038 -8.57201e-21)
(-0.162315 -0.0394063 -8.02774e-21)
(-0.164606 -0.0468638 0)
(-0.166896 -0.0543793 0)
(-0.00208624 0.0111326 -1.94695e-20)
(-0.00755118 0.0258334 3.35513e-20)
(-0.0158991 0.0350944 -1.27453e-20)
(-0.025676 0.0403919 -2.41215e-20)
(-0.0360715 0.0428421 3.40365e-20)
(-0.04667 0.0432978 -2.14952e-20)
(-0.0571758 0.0423968 3.0304e-20)
(-0.0673785 0.0405863 1.92062e-20)
(-0.0771422 0.038153 0)
(-0.0863828 0.035258 -1.69251e-20)
(-0.0950494 0.0319708 -8.9704e-23)
(-0.103112 0.0282997 1.49371e-20)
(-0.110551 0.0242172 2.13626e-20)
(-0.117351 0.019679 2.67868e-20)
(-0.123497 0.0146398 -1.24438e-20)
(-0.128968 0.00906204 -3.5429e-20)
(-0.133744 0.00292795 1.12532e-20)
(-0.137802 -0.00375105 -4.20864e-20)
(-0.141123 -0.0109252 0)
(-0.143698 -0.0184955 9.13415e-21)
(-0.145562 -0.0263192 8.56083e-21)
(-0.146769 -0.0341928 8.01715e-21)
(-0.147442 -0.0418716 0)
(-0.148057 -0.0490845 0)
(-0.00312394 0.0138624 0)
(-0.00966135 0.0324885 6.81889e-20)
(-0.0181387 0.0445123 -2.57018e-20)
(-0.0274612 0.0516892 2.42483e-20)
(-0.0370208 0.0553388 -6.89847e-20)
(-0.0465144 0.0564758 0)
(-0.0557202 0.0558719 -4.09653e-20)
(-0.0644757 0.0540828 1.93423e-20)
(-0.0726723 0.0514801 -3.66127e-20)
(-0.0802405 0.0482885 1.74738e-20)
(-0.0871357 0.0446224 9.74493e-20)
(-0.0933297 0.0405193 -4.57884e-20)
(-0.0988031 0.0359671 -7.19632e-20)
(-0.103539 0.0309267 -2.75167e-20)
(-0.107521 0.0253485 -1.61701e-22)
(-0.110726 0.0191867 9.6322e-20)
(-0.113126 0.0124124 -4.52857e-20)
(-0.114684 0.00502852 -3.98036e-22)
(-0.115361 -0.00291202 0)
(-0.11513 -0.0112906 -3.80216e-20)
(-0.113962 -0.0199005 0)
(-0.111815 -0.0284324 -3.26293e-20)
(-0.108655 -0.0364128 1.23694e-19)
(-0.105231 -0.0432599 -1.85803e-22)
(-0.00436757 0.0159693 0)
(-0.0122103 0.0377874 3.69157e-22)
(-0.0208264 0.0521916 2.6225e-20)
(-0.029531 0.0610727 -2.48053e-20)
(-0.037949 0.0658708 2.29793e-20)
(-0.0459077 0.0677115 1.31726e-19)
(-0.0532742 0.0674685 -4.12874e-20)
(-0.0599443 0.0657867 -3.92229e-20)
(-0.0658431 0.063113 7.35918e-20)
(-0.0709176 0.0597328 -1.04086e-19)
(-0.0751285 0.055807 3.28309e-20)
(-0.0784455 0.0514057 3.10931e-20)
(-0.0808433 0.0465378 0)
(-0.082298 0.0411733 2.731e-20)
(-0.0827842 0.0352624 0)
(-0.0822726 0.0287494 4.92673e-20)
(-0.0807277 0.0215874 -9.23167e-20)
(-0.0781041 0.0137538 2.12944e-20)
(-0.0743452 0.00527209 8.15665e-20)
(-0.0693993 -0.00375796 3.79849e-20)
(-0.0632527 -0.0131152 0)
(-0.0557745 -0.0224191 -1.00561e-19)
(-0.0465445 -0.0309097 3.13899e-20)
(-0.0362537 -0.0374992 0)
(-0.00570502 0.0173638 0)
(-0.0149852 0.0414883 -8.36554e-20)
(-0.0237477 0.057761 -2.66215e-20)
(-0.031711 0.0680657 -4.98435e-20)
(-0.0387347 0.0738785 4.69332e-20)
(-0.0447813 0.0763831 -4.40559e-20)
(-0.0498141 0.0765184 8.37009e-20)
(-0.0537933 0.0749948 3.94501e-20)
(-0.0566819 0.0723205 -1.11241e-19)
(-0.0584437 0.0688345 7.03305e-20)
(-0.0590415 0.0647426 -9.92007e-20)
(-0.0584365 0.0601507 2.19449e-19)
(-0.0565882 0.0550938 -1.17735e-19)
(-0.0534543 0.0495596 5.59788e-20)
(-0.0489898 0.0435068 1.58188e-19)
(-0.0431477 0.0368802 -4.87958e-20)
(-0.0358787 0.029623 -4.665e-20)
(-0.0271303 0.0216905 -4.3637e-20)
(-0.0168428 0.0130672 0)
(-0.00495331 0.00379452 -7.78832e-20)
(0.00851863 -0.00599565 -7.28373e-20)
(0.0236265 -0.0159295 1.02611e-19)
(0.0410856 -0.0250521 1.26603e-19)
(0.0615126 -0.0314937 -1.19657e-19)
(-0.00703065 0.0180379 0)
(-0.0177746 0.0435056 -1.13693e-19)
(-0.0266798 0.0610244 -4.34455e-22)
(-0.0338079 0.0723567 1.00752e-19)
(-0.0392279 0.0789456 0)
(-0.0430304 0.0819853 0)
(-0.0452736 0.0824442 0)
(-0.0459832 0.0810718 -3.97578e-20)
(-0.0451605 0.0784195 -2.52514e-22)
(-0.0427848 0.0748689 7.07166e-20)
(-0.0388164 0.0706652 -1.0018e-19)
(-0.0332006 0.0659489 -2.06901e-22)
(-0.0258714 0.0607845 0)
(-0.0167559 0.0551838 -5.59536e-20)
(-0.005777 0.0491252 5.36164e-20)
(0.00714305 0.0425687 -1.50188e-19)
(0.0220769 0.0354677 1.89047e-19)
(0.0390877 0.0277801 4.51799e-20)
(0.0582244 0.0194792 3.1685e-22)
(0.0795138 0.0105674 -1.57435e-19)
(0.102918 0.00109122 -7.40174e-20)
(0.128364 -0.00872959 2.41091e-19)
(0.156217 -0.0180146 -1.6151e-19)
(0.190809 -0.0240874 0)
(-0.00826479 0.0180616 5.61116e-20)
(-0.0203976 0.043911 5.70248e-20)
(-0.0294058 0.0619729 -5.44722e-20)
(-0.035598 0.0738262 -1.02018e-19)
(-0.039209 0.0808389 9.6058e-20)
(-0.0404394 0.0841818 -9.05328e-20)
(-0.0394333 0.0848227 1.27961e-19)
(-0.0362763 0.0835257 -3.97961e-20)
(-0.0310032 0.0808655 7.55996e-20)
(-0.0236041 0.077252 0)
(-0.0140301 0.072961 6.78561e-20)
(-0.00220354 0.0681634 -1.27136e-19)
(0.0119737 0.0629525 1.20212e-19)
(0.0286115 0.0573676 -1.12908e-19)
(0.0478222 0.0514138 0)
(0.069711 0.0450772 1.00681e-19)
(0.0943643 0.0383373 1.90613e-19)
(0.121837 0.0311786 -1.7878e-19)
(0.152142 0.0236006 -8.42434e-20)
(0.185237 0.0156281 -7.90606e-20)
(0.220941 0.00730587 2.22408e-19)
(0.259371 -0.00122215 6.88044e-20)
(0.298225 -0.00978156 -6.50947e-20)
(0.351921 -0.014247 5.92508e-20)
(-0.00936554 0.0175637 -5.61193e-20)
(-0.0227178 0.0429071 1.74958e-19)
(-0.0317102 0.0607709 -5.51989e-20)
(-0.036794 0.072553 1.03141e-19)
(-0.0383183 0.0795391 -9.71146e-20)
(-0.0365688 0.0828606 3.69678e-22)
(-0.0317577 0.0834653 4.31284e-20)
(-0.0240174 0.0821122 1.62392e-19)
(-0.013404 0.0793817 2.99337e-22)
(9.30684e-05 0.0756994 -7.14757e-20)
(0.0165391 0.0713622 0)
(0.0360391 0.0665658 -6.41653e-20)
(0.0587209 0.0614312 1.20074e-19)
(0.0847186 0.0560272 1.13756e-19)
(0.114154 0.0503885 -5.33298e-20)
(0.147119 0.0445323 -1.67774e-23)
(0.183651 0.0384709 -4.75459e-20)
(0.223717 0.0322231 8.93608e-20)
(0.267188 0.025823 8.42236e-20)
(0.313883 0.0193476 -7.90575e-20)
(0.363076 0.0127861 7.35923e-20)
(0.416226 0.00674965 -6.85204e-20)
(0.464457 -0.000360238 0)
(0.539393 -0.00149733 -5.9166e-20)
(-0.0103267 0.0167042 5.7346e-20)
(-0.0246308 0.0407766 -5.86121e-20)
(-0.0333483 0.0577132 5.5848e-20)
(-0.0369845 0.068796 0)
(-0.0359575 0.0752531 0)
(-0.0306098 0.0781801 9.27766e-20)
(-0.0211968 0.0784981 -8.65962e-20)
(-0.00787443 0.07695 8.16055e-20)
(0.00929852 0.0741119 -3.82758e-19)
(0.0303453 0.0704158 -3.77025e-23)
(0.0553499 0.0661737 6.78177e-20)
(0.0844312 0.0616037 0)
(0.117714 0.056853 -1.2059e-19)
(0.155297 0.0520185 2.26913e-19)
(0.197224 0.0471635 -1.60229e-19)
(0.243449 0.0423321 -2.52136e-19)
(0.293814 0.0375613 -4.07831e-22)
(0.348025 0.0328908 1.77508e-19)
(0.405609 0.0283562 0)
(0.46617 0.0241203 0)
(0.527832 0.0198356 -7.35844e-20)
(0.594403 0.0171963 6.85116e-20)
(0.648582 0.011965 -2.50757e-19)
(0.739511 0.0151058 2.35271e-19)
(-0.0111657 0.0156329 0)
(-0.0260306 0.0378127 0)
(-0.0339872 0.0531626 -1.68123e-19)
(-0.0355514 0.0629533 5.34559e-20)
(-0.0311781 0.0684044 3.54678e-22)
(-0.0212385 0.0705955 9.37482e-20)
(-0.00600242 0.0704279 0)
(0.0143758 0.0686283 -8.19418e-20)
(0.0398487 0.0657667 7.66704e-20)
(0.0704468 0.0622794 -1.44481e-19)
(0.10624 0.0584915 -2.30275e-23)
(0.147294 0.0546391 1.27822e-19)
(0.193617 0.0508887 2.59092e-22)
(0.24512 0.0473541 1.13515e-19)
(0.301567 0.0441087 -1.59647e-19)
(0.362552 0.041196 0)
(0.427473 0.0386378 1.88191e-19)
(0.49554 0.0364459 -2.6539e-19)
(0.565721 0.0345859 8.20034e-20)
(0.637231 0.0332596 0)
(0.707245 0.0317066 7.12427e-20)
(0.780506 0.0324014 2.66567e-19)
(0.836285 0.0291811 -2.50168e-19)
(0.928659 0.0359222 -2.85345e-19)
(-0.011887 0.0144535 1.76622e-19)
(-0.0267432 0.0342565 -2.42803e-19)
(-0.0331309 0.0474855 5.27858e-22)
(-0.0315913 0.0555152 5.39914e-20)
(-0.0226038 0.0596141 -1.0058e-19)
(-0.0065463 0.0608756 -9.32955e-20)
(0.0163165 0.0601987 1.75096e-19)
(0.0458368 0.0583035 -9.26311e-22)
(0.0819546 0.0557587 -1.54309e-19)
(0.124642 0.053003 2.89125e-19)
(0.173833 0.050365 -3.91186e-23)
(0.229357 0.0480813 -1.27527e-19)
(0.290872 0.0463092 0)
(0.357817 0.0451364 0)
(0.429379 0.0445896 -5.30734e-20)
(0.504498 0.044641 -9.86828e-20)
(0.581886 0.045219 -1.85829e-19)
(0.66008 0.0462144 1.74434e-19)
(0.737492 0.0474835 -8.20357e-20)
(0.812704 0.0489926 1.50794e-19)
(0.883317 0.0501311 -7.28563e-20)
(0.95175 0.0525237 1.28225e-19)
(1.00357 0.0510813 -3.02883e-19)
(1.07862 0.0582921 5.6427e-20)
(-0.0124421 0.0131999 5.9638e-20)
(-0.0264512 0.0302508 0)
(-0.0300427 0.0410017 1.15336e-19)
(-0.0238546 0.0470184 -1.08651e-19)
(-0.0084064 0.0496652 1.00673e-19)
(0.0159184 0.0500795 0)
(0.0488435 0.0491785 0)
(0.0901717 0.0476832 -8.25211e-20)
(0.139712 0.046155 6.18545e-22)
(0.197186 0.045016 7.27843e-20)
(0.262127 0.0445653 -6.77934e-20)
(0.333805 0.0449856 1.27494e-19)
(0.411171 0.046351 0)
(0.492849 0.0486341 2.23714e-19)
(0.577173 0.0517164 -4.1952e-19)
(0.662258 0.0554017 2.95401e-19)
(0.746105 0.0594403 1.82737e-19)
(0.826707 0.0635267 -1.71536e-19)
(0.90223 0.0674202 0)
(0.970944 0.0706645 0)
(1.03179 0.0733951 0)
(1.08405 0.0748068 0)
(1.12475 0.0749652 5.93311e-20)
(1.16926 0.0771289 -2.14088e-19)
(-0.169888 -0.0632271 -4.87362e-21)
(-0.174507 -0.0746117 4.90022e-21)
(-0.178555 -0.086194 -1.48693e-22)
(-0.182299 -0.0974738 0)
(-0.185776 -0.108024 -4.3824e-21)
(-0.188982 -0.117313 8.48911e-21)
(-0.191936 -0.124729 -3.13686e-23)
(-0.194656 -0.129596 -3.96601e-21)
(-0.197142 -0.131187 0)
(-0.199376 -0.128748 0)
(-0.201301 -0.121533 -2.16882e-22)
(-0.202815 -0.108846 -2.08821e-22)
(-0.203769 -0.0901125 -3.55366e-21)
(-0.203957 -0.064953 3.25829e-21)
(-0.203108 -0.033255 0)
(-0.201109 0.00474313 0)
(-0.198014 0.0481033 2.88289e-21)
(-0.19385 0.0951614 -7.06848e-23)
(-0.188664 0.143899 -2.49913e-21)
(-0.182594 0.191645 -1.45221e-22)
(-0.175652 0.23533 0)
(-0.167433 0.271536 0)
(-0.156659 0.296483 0)
(-0.140975 0.306018 0)
(-0.117185 0.29618 0)
(-0.0823075 0.26404 0)
(-0.0350669 0.2091 5.58285e-22)
(0.0235871 0.134329 -9.38136e-22)
(0.0907204 0.0468915 0)
(0.161505 -0.0439928 0)
(0.230828 -0.12528 -4.43772e-22)
(0.29354 -0.188044 4.31271e-22)
(0.344371 -0.227817 1.37026e-22)
(0.378867 -0.245661 0)
(0.394686 -0.246617 0)
(0.393106 -0.235201 -1.235e-24)
(0.383425 -0.212804 1.20049e-24)
(0.380704 -0.177269 0)
(0.397378 -0.129006 -5.43888e-23)
(0.435654 -0.0729864 8.54917e-23)
(0.487415 -0.0185303 -3.28715e-23)
(0.542601 0.0272476 0)
(0.592098 0.0595376 6.32717e-23)
(0.632341 0.0788917 -6.15234e-23)
(0.661101 0.0866211 0)
(0.681528 0.0858924 0)
(0.695384 0.0780799 2.61534e-23)
(0.709436 0.0654007 -7.31036e-23)
(0.723611 0.0488016 0)
(0.743523 0.0308344 0)
(0.762237 0.0133187 1.4578e-23)
(0.785423 -0.00143255 -7.1399e-25)
(0.801581 -0.0122857 1.50048e-24)
(0.821652 -0.0188046 -8.76552e-24)
(0.83187 -0.020915 0)
(0.849597 -0.0192171 0)
(0.856758 -0.0148718 0)
(0.876539 -0.00733845 0)
(0.881684 -0.00204917 0)
(0.905539 0.00872674 0)
(-0.149632 -0.0571371 -4.86414e-22)
(-0.155152 -0.0689852 -1.98765e-20)
(-0.159877 -0.0811589 3.54954e-22)
(-0.164404 -0.092971 1.83105e-20)
(-0.168857 -0.104023 2.78102e-22)
(-0.173222 -0.113782 0)
(-0.177534 -0.121624 -1.58595e-20)
(-0.181838 -0.126879 3.10527e-20)
(-0.186171 -0.128835 -1.51876e-20)
(-0.190546 -0.126771 1.40296e-20)
(-0.194932 -0.119977 -1.34198e-20)
(-0.199229 -0.107801 1.26466e-20)
(-0.203248 -0.0897005 -1.22652e-20)
(-0.206679 -0.0653171 -3.52335e-22)
(-0.209086 -0.0345635 -1.12565e-20)
(-0.210103 0.00224872 1.09396e-20)
(-0.209557 0.044521 -1.02879e-20)
(-0.207053 0.0904517 9.70673e-21)
(-0.202087 0.138189 -9.41645e-21)
(-0.194215 0.184925 1.78816e-20)
(-0.182784 0.227444 -8.48941e-21)
(-0.166872 0.261989 -4.81087e-22)
(-0.145045 0.284322 -7.48789e-21)
(-0.115391 0.290056 1.45583e-20)
(-0.0759605 0.275217 -7.07612e-21)
(-0.0256337 0.237912 4.58279e-22)
(0.0348668 0.178435 7.14664e-21)
(0.103267 0.100479 3.25458e-23)
(0.176242 0.0114036 -1.23462e-20)
(0.249933 -0.0792448 1.08479e-20)
(0.319948 -0.158238 -4.92096e-21)
(0.38132 -0.216138 4.40569e-22)
(0.429909 -0.248966 -1.37289e-22)
(0.462731 -0.258506 1.75845e-22)
(0.478216 -0.250859 0)
(0.475257 -0.232644 0)
(0.458104 -0.208016 1.9442e-22)
(0.438217 -0.175985 -1.21181e-22)
(0.430657 -0.134844 -2.18477e-22)
(0.444012 -0.0856235 -4.39729e-23)
(0.476127 -0.0348565 3.26505e-22)
(0.518522 0.0108048 -7.75129e-23)
(0.561559 0.0453503 0)
(0.599885 0.0679807 0)
(0.630243 0.0787656 0)
(0.654966 0.0802045 0)
(0.675513 0.0732572 -1.04744e-22)
(0.697724 0.0605331 4.77138e-23)
(0.720268 0.0433485 0)
(0.747451 0.0250778 0)
(0.771314 0.00760999 0)
(0.797524 -0.00647717 2.17839e-23)
(0.814452 -0.016509 -3.67038e-24)
(0.833926 -0.0221308 1.91046e-23)
(0.841989 -0.02368 0)
(0.85717 -0.0216007 0)
(0.861024 -0.0172678 -8.82458e-24)
(0.877999 -0.00962627 -2.12315e-23)
(0.880696 -0.00454131 0)
(0.902542 0.0065084 0)
(-0.103945 -0.0500803 4.96133e-23)
(-0.110092 -0.0622586 -4.12048e-20)
(-0.115115 -0.0749913 3.96689e-20)
(-0.119988 -0.0873592 -3.70907e-20)
(-0.125016 -0.0989673 -2.80003e-22)
(-0.130132 -0.109288 0)
(-0.135352 -0.117661 -3.22491e-20)
(-0.140719 -0.123412 3.15797e-20)
(-0.14627 -0.125851 2.29599e-22)
(-0.152029 -0.124265 4.17679e-22)
(-0.15798 -0.117978 3.9051e-22)
(-0.164038 -0.10639 3.92092e-22)
(-0.170012 -0.0890143 -2.24894e-20)
(-0.175556 -0.0655379 2.22111e-20)
(-0.180121 -0.0359271 0)
(-0.182986 -0.000497406 5.69499e-22)
(-0.183867 0.0400917 -1.82409e-20)
(-0.182026 0.0842129 1.80181e-20)
(-0.176338 0.13022 0)
(-0.165942 0.174955 0)
(-0.149689 0.215223 -1.60015e-20)
(-0.126496 0.24707 3.12569e-20)
(-0.0951473 0.265918 -2.99222e-20)
(-0.0545726 0.267603 -5.29732e-23)
(-0.00380683 0.248723 2.97377e-20)
(0.0566581 0.207805 -3.10086e-20)
(0.124572 0.145794 2.95131e-20)
(0.197366 0.0665827 -1.25594e-21)
(0.271967 -0.0229438 -1.42481e-20)
(0.345378 -0.112442 0)
(0.413398 -0.188651 0)
(0.470869 -0.241757 2.21314e-21)
(0.514554 -0.268337 -3.04443e-21)
(0.543136 -0.270882 1.13118e-23)
(0.557056 -0.255841 3.5011e-22)
(0.555368 -0.230533 -3.4025e-22)
(0.538496 -0.201201 0)
(0.511762 -0.169239 -6.80772e-23)
(0.487933 -0.132993 -8.15328e-22)
(0.479108 -0.0906653 1.64444e-21)
(0.489885 -0.0453767 -7.13474e-22)
(0.515868 -0.00218146 -9.9391e-23)
(0.548978 0.0328001 7.66396e-22)
(0.582993 0.0572839 -5.87607e-22)
(0.613882 0.0700614 -1.32252e-22)
(0.642701 0.0728984 -1.17074e-22)
(0.670006 0.0663588 1.05011e-22)
(0.699969 0.0535201 0)
(0.729817 0.0360394 0)
(0.762529 0.017987 2.45771e-22)
(0.789714 0.00114886 -1.17847e-22)
(0.817158 -0.0117574 9.42928e-23)
(0.833674 -0.0206138 -1.25455e-22)
(0.851628 -0.0250759 -1.42409e-22)
(0.857272 -0.0258963 3.42641e-23)
(0.86954 -0.0233512 -5.21615e-23)
(0.870133 -0.0190145 4.09965e-23)
(0.883774 -0.0113639 -1.80648e-23)
(0.883967 -0.00655639 0)
(0.902872 0.00452223 0)
(-0.0313776 -0.0428501 -8.70654e-20)
(-0.037899 -0.054713 1.86051e-21)
(-0.0430556 -0.0677992 8.07783e-20)
(-0.0480652 -0.0806696 -5.98579e-22)
(-0.0535151 -0.0927935 0)
(-0.0592905 -0.10368 0)
(-0.0653601 -0.11264 -6.44704e-20)
(-0.0717635 -0.118969 1.88091e-21)
(-0.0784655 -0.122081 8.64504e-20)
(-0.0854151 -0.121176 -1.61538e-21)
(-0.0925685 -0.1156 -2.55588e-20)
(-0.0998178 -0.104794 -2.15945e-20)
(-0.106959 -0.0883301 2.16576e-20)
(-0.113647 -0.0659614 0)
(-0.119308 -0.0377052 -1.81585e-20)
(-0.12314 -0.0039595 1.65571e-20)
(-0.124581 0.0344254 0)
(-0.122463 0.0761637 0)
(-0.115653 0.119919 1.50627e-20)
(-0.102909 0.161839 1.63875e-22)
(-0.0826223 0.199045 -1.39059e-20)
(-0.0538949 0.227496 -1.53682e-20)
(-0.0158259 0.242891 1.53974e-20)
(0.0320775 0.241213 -1.63061e-20)
(0.0895308 0.21966 -5.16167e-22)
(0.155016 0.176737 1.59129e-20)
(0.225923 0.113824 2.06781e-21)
(0.299577 0.0348106 -6.25405e-23)
(0.373503 -0.0545473 0)
(0.444923 -0.142453 1.21358e-20)
(0.509061 -0.215622 -1.24764e-20)
(0.560623 -0.263993 4.80901e-22)
(0.597274 -0.284872 0)
(0.619263 -0.28168 -1.89308e-22)
(0.629038 -0.26108 7.48167e-22)
(0.627473 -0.230054 -3.58914e-22)
(0.61409 -0.195447 8.32779e-22)
(0.588968 -0.160841 4.46986e-22)
(0.559271 -0.126315 -1.24466e-21)
(0.536009 -0.0891932 -1.97701e-22)
(0.528426 -0.0498034 1.58772e-21)
(0.537463 -0.0107678 -1.36483e-21)
(0.558649 0.0226616 1.26022e-23)
(0.586282 0.0472938 -5.80455e-22)
(0.616182 0.0607621 6.97008e-22)
(0.647882 0.0641443 7.90649e-22)
(0.680606 0.0576379 -2.31714e-22)
(0.71644 0.0447678 -3.14965e-22)
(0.751273 0.0274052 5.72007e-22)
(0.786943 0.0101164 -3.834e-22)
(0.815203 -0.00556609 9.78686e-23)
(0.841991 -0.0169283 -1.12308e-22)
(0.856992 -0.0243761 -8.84548e-23)
(0.872697 -0.0275393 2.13046e-22)
(0.875913 -0.0275382 -3.827e-24)
(0.885228 -0.0244798 5.24939e-23)
(0.882962 -0.0201113 0)
(0.893139 -0.0125307 1.81256e-23)
(0.891058 -0.00803777 -2.40064e-23)
(0.906445 0.00283834 0)
(0.0698162 -0.0359855 8.96994e-20)
(0.0633839 -0.0465776 -1.73729e-19)
(0.0577135 -0.0595301 8.31555e-20)
(0.0525699 -0.0726516 7.80004e-20)
(0.0467311 -0.0850102 -1.50041e-19)
(0.0402004 -0.096223 3.08408e-21)
(0.033113 -0.105761 6.76247e-20)
(0.0252629 -0.112926 5.97276e-20)
(0.0168381 -0.116924 -5.84984e-20)
(0.00813906 -0.116986 0)
(-0.000749378 -0.112469 -4.6222e-20)
(-0.00960435 -0.102811 8.71111e-20)
(-0.0181275 -0.0876104 -4.10365e-20)
(-0.0259221 -0.0666731 0)
(-0.0324328 -0.0400816 0)
(-0.0368041 -0.00829743 5.19396e-22)
(-0.0383953 0.0275429 -2.90804e-20)
(-0.0355679 0.0666272 2.82513e-20)
(-0.0276969 0.106822 0)
(-0.0135894 0.145445 2.84342e-20)
(0.00916013 0.17944 -5.50512e-20)
(0.0413168 0.204708 5.67367e-20)
(0.0832835 0.217236 -6.03036e-20)
(0.134831 0.213106 -2.67351e-21)
(0.19502 0.189782 6.71117e-20)
(0.261901 0.146311 -3.44415e-20)
(0.332968 0.083887 -1.07668e-21)
(0.405453 0.00559906 -1.59119e-20)
(0.477517 -0.082629 1.13053e-21)
(0.545976 -0.168596 1.49042e-20)
(0.604765 -0.238416 6.94559e-22)
(0.648675 -0.282066 -7.20193e-21)
(0.676636 -0.29778 1.16084e-20)
(0.690543 -0.289955 -4.91864e-21)
(0.694272 -0.265537 0)
(0.690441 -0.230862 2.88817e-22)
(0.679728 -0.19215 -3.95149e-22)
(0.659981 -0.153939 1.3977e-21)
(0.632871 -0.118418 -1.73082e-21)
(0.604885 -0.0838479 2.29382e-22)
(0.58595 -0.0492387 0)
(0.581179 -0.0148647 2.08911e-22)
(0.590711 0.0153876 -5.47927e-22)
(0.610865 0.0385334 0)
(0.638121 0.0513823 -1.30075e-21)
(0.670703 0.0544966 5.33822e-22)
(0.706409 0.0477511 -1.97703e-22)
(0.74524 0.0350186 -1.56612e-22)
(0.782055 0.0181917 0)
(0.817854 0.00211899 0)
(0.844965 -0.0120224 2.9252e-22)
(0.869423 -0.0216518 -4.4235e-22)
(0.882042 -0.0276128 2.4322e-22)
(0.89502 -0.0294679 -7.79158e-23)
(0.896002 -0.0286338 -1.30513e-22)
(0.902587 -0.0250577 -5.25434e-23)
(0.89811 -0.020625 8.22346e-23)
(0.905056 -0.0131696 0)
(0.901158 -0.0089886 3.91827e-23)
(0.912863 0.00149148 1.1918e-23)
(0.200489 -0.0285012 9.22949e-20)
(0.19501 -0.0381598 -9.16016e-20)
(0.188157 -0.0506799 6.64428e-22)
(0.182531 -0.0635109 -6.34432e-22)
(0.176332 -0.0756492 5.97223e-22)
(0.168854 -0.0868497 -5.61012e-22)
(0.160274 -0.0967239 1.04522e-21)
(0.15063 -0.10456 0)
(0.140033 -0.109404 -8.83322e-22)
(0.128736 -0.110608 8.02498e-22)
(0.117044 -0.107502 7.24175e-22)
(0.105359 -0.0995051 -6.76153e-22)
(0.0941773 -0.0861927 0)
(0.0840717 -0.0673585 0)
(0.0756939 -0.0430861 4.72233e-22)
(0.0697964 -0.0138483 0)
(0.0673505 0.0191596 -4.02003e-22)
(0.0699118 0.0552551 0)
(0.0780816 0.0916686 -2.4801e-20)
(0.0930733 0.127099 5.00918e-20)
(0.116799 0.158059 -5.1811e-20)
(0.150115 0.180592 2.64753e-20)
(0.193217 0.19066 3.1139e-20)
(0.245509 0.184774 -3.02366e-20)
(0.305675 0.160714 -3.65901e-20)
(0.371633 0.117732 3.56098e-20)
(0.441036 0.0566133 0)
(0.511635 -0.0204694 1.14241e-21)
(0.581535 -0.106783 0)
(0.646077 -0.190297 0)
(0.698123 -0.256354 1.97694e-20)
(0.732882 -0.295351 -2.06711e-20)
(0.750937 -0.306596 7.81271e-22)
(0.755976 -0.295274 4.43174e-22)
(0.752887 -0.268492 -2.34596e-22)
(0.745162 -0.232041 1.83599e-22)
(0.73484 -0.191121 -1.78277e-22)
(0.720084 -0.150002 1.73071e-21)
(0.699521 -0.112225 -1.51394e-21)
(0.674613 -0.0777774 -4.64018e-22)
(0.652614 -0.0459381 1.81377e-21)
(0.639962 -0.015619 1.08165e-22)
(0.640588 0.0108529 -1.22536e-21)