/*--------------------------------*- C++ -*----------------------------------*\
| =========                 |                                                 |
| \\      /  F ield         | OpenFOAM: The Open Source CFD Toolbox           |
|  \\    /   O peration     | Version:  2512                                  |
|   \\  /    A nd           | Website:  www.openfoam.com                      |
|    \\/     M anipulation  |                                                 |
\*---------------------------------------------------------------------------*/
FoamFile
{
    version     2.0;
    format      ascii;
    arch        "LSB;label=32;scalar=64";
    class       volVectorField;
    location    "156";
    object      U;
}
// * * * * * * * * * * * * * * * * * * * * * * * * * * * * * * * * * * * * * //

dimensions      [0 1 -1 0 0 0 0];

internalField   nonuniform List<vector> 
13248
(
(-0.0144387 0.0127461 8.41742e-20)
(-0.0268535 0.0266979 0)
(-0.0229525 0.0339969 -1.58746e-19)
(-0.00288215 0.0370402 1.49537e-19)
(0.0332895 0.037473 1.39582e-19)
(0.0854301 0.036439 0)
(0.153182 0.0347472 0)
(0.235759 0.0329735 3.34581e-19)
(0.331717 0.0314976 -1.10176e-21)
(0.438784 0.0305042 -2.93218e-19)
(0.553808 0.029979 2.74583e-19)
(0.67286 0.029717 -1.71776e-19)
(0.791497 0.0293574 0)
(0.905131 0.0284416 -3.03519e-19)
(1.00946 0.0264902 5.69265e-19)
(1.10085 0.0230842 -1.35917e-19)
(1.17672 0.0179373 -2.46479e-19)
(1.23573 0.0109279 2.31406e-19)
(1.27788 0.0021809 0)
(1.30433 -0.0082968 0)
(1.3174 -0.0193676 0)
(1.31913 -0.0337408 0)
(1.31313 -0.0423342 6.90727e-20)
(1.29909 -0.0713387 2.46656e-19)
(-0.0145744 0.0116055 -2.542e-19)
(-0.0218046 0.0217377 1.73255e-19)
(-0.00805829 0.0253349 -1.70837e-21)
(0.0256756 0.0252825 -2.2871e-19)
(0.0788021 0.0235851 -1.39429e-19)
(0.150608 0.021647 -1.32064e-19)
(0.239833 0.0203987 -2.41743e-19)
(0.344334 0.0203941 2.29175e-19)
(0.460872 0.0218509 0)
(0.585115 0.0246639 5.88166e-22)
(0.711892 0.0284342 1.54903e-21)
(0.835671 0.0325354 1.72105e-19)
(0.95113 0.0362172 0)
(1.05373 0.0387298 0)
(1.14017 0.0394453 2.07369e-19)
(1.20869 0.0379524 -3.89887e-19)
(1.25908 0.0341049 2.3487e-19)
(1.29259 0.0280218 -2.20525e-19)
(1.31155 0.0200264 -9.70087e-20)
(1.31892 0.0106013 -1.78392e-19)
(1.31767 0.000256494 -7.33348e-20)
(1.31056 -0.0106094 -1.3818e-19)
(1.29936 -0.0199516 2.02763e-19)
(1.28633 -0.033458 5.73128e-20)
(-0.0133795 0.00982426 0)
(-0.0124082 0.0159173 0)
(0.0147506 0.0165835 8.09414e-20)
(0.0660225 0.0148004 7.44353e-20)
(0.13987 0.012724 -1.92392e-21)
(0.234373 0.0118768 -1.37205e-19)
(0.346559 0.0131435 0)
(0.472085 0.0168425 -1.13946e-19)
(0.605283 0.0227806 1.07698e-19)
(0.739596 0.0303236 1.08079e-21)
(0.868309 0.0385205 -1.84468e-19)
(0.985379 0.046281 -1.70152e-19)
(1.08616 0.0525707 2.35899e-21)
(1.16786 0.0565818 -1.42743e-19)
(1.22969 0.0578445 3.41375e-19)
(1.27269 0.05626 0)
(1.29929 0.0520612 -2.24086e-19)
(1.31274 0.0457091 1.09171e-19)
(1.31645 0.0378105 9.69374e-20)
(1.31345 0.0288863 0)
(1.30624 0.0197468 7.95889e-20)
(1.29627 0.010011 -2.70547e-19)
(1.28482 0.00263699 2.5398e-19)
(1.27237 -0.00993117 1.57493e-19)
(-0.0103567 0.00735958 -9.01367e-20)
(0.00244594 0.00920804 -9.3282e-20)
(0.0467694 0.0078139 8.42034e-20)
(0.119163 0.0058528 0)
(0.216568 0.00536635 0)
(0.335044 0.00774405 -3.41127e-21)
(0.469029 0.0135237 0)
(0.61135 0.0224531 -3.50854e-19)
(0.753857 0.0336324 3.26152e-19)
(0.888472 0.0457308 -4.02615e-19)
(1.00833 0.0572702 9.23757e-20)
(1.10866 0.066916 0)
(1.18724 0.073704 1.54837e-19)
(1.24429 0.0771566 -2.8717e-19)
(1.28199 0.0772775 6.84296e-20)
(1.30379 0.0744502 1.76927e-19)
(1.31357 0.0692822 -7.21584e-21)
(1.31496 0.0624551 -1.96471e-19)
(1.31093 0.054592 0)
(1.3036 0.046231 0)
(1.29432 0.0377734 -7.06853e-20)
(1.28387 0.0293535 6.33947e-20)
(1.27276 0.0223297 2.27623e-19)
(1.26128 0.0118954 -2.13731e-19)
(-0.00508284 0.00437036 -9.52136e-20)
(0.023687 0.00206012 -9.49219e-20)
(0.0889391 -0.000246945 2.66813e-19)
(0.185435 -0.000568371 -1.61947e-19)
(0.307837 0.00267419 1.52428e-19)
(0.449277 0.0103533 2.76891e-19)
(0.60093 0.0222341 -1.95948e-19)
(0.752775 0.0371254 -2.38709e-19)
(0.895039 0.0532383 4.6883e-21)
(1.01975 0.0686262 3.05006e-19)
(1.12182 0.0816047 0)
(1.19947 0.0910455 8.41747e-20)
(1.25381 0.096486 0)
(1.28809 0.0980647 -1.38085e-19)
(1.30661 0.0963405 1.94366e-19)
(1.31377 0.0920737 2.06469e-21)
(1.31338 0.0860376 -5.12057e-20)
(1.30835 0.0788968 9.656e-20)
(1.30066 0.0711682 8.30835e-20)
(1.29149 0.0632133 -7.466e-20)
(1.28155 0.0553201 7.06699e-20)
(1.27116 0.0475436 -6.33798e-20)
(1.26057 0.0406987 0)
(1.24988 0.0315169 -4.78263e-20)
(0.00279822 0.00116355 9.51999e-20)
(0.0519976 -0.00467586 1.00097e-19)
(0.141689 -0.00631184 -8.94668e-20)
(0.264266 -0.00289344 1.67033e-19)
(0.41123 0.00622159 -1.57207e-19)
(0.57204 0.0208719 1.42326e-19)
(0.734537 0.0395933 -6.84151e-20)
(0.886786 0.0600356 1.79182e-19)
(1.01919 0.0796425 -1.12798e-19)
(1.12594 0.0962662 1.99796e-19)
(1.20539 0.108554 -4.61206e-19)
(1.25941 0.116044 1.69482e-19)
(1.29219 0.119027 -1.48756e-19)
(1.30882 0.11826 1.39732e-19)
(1.31425 0.11468 1.21186e-19)
(1.31256 0.109179 1.06824e-19)
(1.30669 0.102482 -2.97066e-19)
(1.29858 0.0951211 1.84575e-19)
(1.28937 0.0874608 -8.30883e-20)
(1.27965 0.0797491 2.16968e-19)
(1.26971 0.072148 -7.00642e-20)
(1.25969 0.0647668 -1.70701e-19)
(1.24964 0.0579807 1.57621e-19)
(1.23956 0.0497468 4.7813e-20)
(0.0135697 -0.00185164 0)
(0.0877223 -0.00988183 9.68384e-22)
(0.204735 -0.00877804 1.87783e-19)
(0.353918 0.000640235 -1.76006e-19)
(0.522813 0.0174699 -1.58992e-19)
(0.696988 0.0399569 2.95522e-19)
(0.861836 0.0651194 -1.37256e-19)
(1.0054 0.0895835 1.82797e-19)
(1.12044 0.110522 -4.00942e-21)
(1.20497 0.126208 -1.03584e-19)
(1.26133 0.136117 2.26064e-19)
(1.29455 0.14068 -3.33795e-19)
(1.31059 0.140882 0)
(1.31503 0.137879 -6.57295e-20)
(1.31234 0.132727 -1.76001e-19)
(1.30566 0.126251 5.52827e-20)
(1.29698 0.119036 2.14536e-21)
(1.28744 0.111462 -1.22558e-19)
(1.2776 0.103775 7.36587e-21)
(1.26772 0.0961318 1.41895e-19)
(1.25791 0.0886422 -6.35501e-20)
(1.24818 0.0813967 -2.4145e-20)
(1.23852 0.0744971 7.44543e-20)
(1.22889 0.0668858 0)
(0.0274048 -0.00419755 0)
(0.130749 -0.0123108 5.09256e-20)
(0.27691 -0.0059991 -2.44937e-19)
(0.451415 0.0115843 8.9245e-20)
(0.637453 0.0373147 -8.39907e-20)
(0.817377 0.0674369 -7.68071e-20)
(0.975997 0.0975451 -1.35678e-19)
(1.10365 0.123794 6.77645e-20)
(1.1972 0.1438 5.88849e-20)
(1.25905 0.156812 0)
(1.29495 0.163358 1.34199e-19)
(1.3118 0.164681 -1.99917e-19)
(1.31602 0.162218 1.48845e-19)
(1.31266 0.157258 6.57657e-20)
(1.30523 0.150785 -5.41136e-20)
(1.2959 0.143474 -4.54741e-20)
(1.28586 0.135752 -4.25651e-20)
(1.2757 0.127878 1.26897e-19)
(1.26568 0.120011 0)
(1.25587 0.112255 6.41226e-20)
(1.24628 0.104688 5.41428e-20)
(1.23689 0.0973774 -1.34218e-19)
(1.22762 0.090307 -9.20805e-20)
(1.21843 0.0831138 8.5099e-20)
(0.0443148 -0.00535193 -5.48793e-20)
(0.180406 -0.0107099 -2.09261e-21)
(0.356122 0.00347338 4.9891e-20)
(0.552764 0.0309719 1.39666e-19)
(0.74953 0.0658641 4.06542e-20)
(0.927231 0.102358 -7.85171e-20)
(1.0725 0.135181 7.16953e-20)
(1.17991 0.160833 -6.28187e-20)
(1.25117 0.178026 1.12556e-19)
(1.29255 0.187264 4.79602e-20)
(1.31197 0.190062 -1.36155e-19)
(1.31691 0.18822 4.01583e-20)
(1.31331 0.183355 6.87376e-20)
(1.30524 0.176693 -3.37712e-20)
(1.29517 0.169057 0)
(1.28448 0.160951 5.06963e-20)
(1.2738 0.152669 8.60821e-20)
(1.26341 0.144381 1.49228e-20)
(1.25338 0.13619 -7.19298e-20)
(1.24372 0.128169 3.02249e-20)
(1.23437 0.120375 0)
(1.22527 0.112837 -2.38517e-20)
(1.21636 0.105513 -2.2586e-20)
(1.20754 0.0984795 0)
(0.0640899 -0.00477939 0)
(0.235412 -0.00394429 2.87531e-20)
(0.439459 0.0206979 5.33234e-20)
(0.653409 0.0591592 -1.42436e-19)
(0.853783 0.102471 4.60108e-20)
(1.02221 0.143271 0)
(1.14938 0.176329 6.91226e-20)
(1.23515 0.199291 -9.64969e-20)
(1.28574 0.212363 -5.62163e-20)
(1.31013 0.217289 2.53975e-20)
(1.31716 0.216324 -4.07688e-20)
(1.31395 0.211541 9.89267e-20)
(1.30543 0.204521 4.96824e-20)
(1.29463 0.196319 -3.44514e-20)
(1.28318 0.187569 -3.15819e-21)
(1.27183 0.178625 -9.50753e-20)
(1.26091 0.169682 4.33444e-20)
(1.25051 0.160847 -1.05663e-21)
(1.2406 0.15219 0)
(1.23115 0.143764 -3.02564e-20)
(1.22209 0.135603 0)
(1.21333 0.12771 6.88374e-20)
(1.20479 0.120092 -8.20673e-20)
(1.19636 0.113024 3.74459e-20)
(0.0862627 -0.00197226 -1.49845e-20)
(0.293895 0.00889115 -7.26024e-20)
(0.523434 0.0462204 8.26188e-20)
(0.748799 0.0958135 4.86229e-20)
(0.945961 0.145924 -2.3226e-20)
(1.09985 0.188558 3.90084e-20)
(1.20669 0.219526 -1.89495e-20)
(1.27165 0.238211 3.1528e-20)
(1.3045 0.246406 0)
(1.31566 0.246878 7.15485e-20)
(1.31387 0.242321 -2.89226e-21)
(1.30533 0.234838 -5.78506e-20)
(1.29388 0.22584 2.48401e-20)
(1.2816 0.216169 -2.8127e-20)
(1.26947 0.206284 -1.07966e-20)
(1.25788 0.196423 1.23624e-20)
(1.24695 0.186707 -9.62809e-21)
(1.23667 0.177206 -5.22894e-20)
(1.22698 0.167966 3.20736e-20)
(1.21782 0.159022 6.6123e-21)
(1.20908 0.150388 5.8399e-21)
(1.20068 0.142053 5.1594e-21)
(1.19253 0.134097 0)
(1.18447 0.126772 0)
(0.110181 0.00351551 1.49949e-20)
(0.353652 0.0283937 -1.50313e-20)
(0.604489 0.0800239 -2.75422e-20)
(0.835008 0.140009 0)
(1.02319 0.194701 -1.15337e-20)
(1.15929 0.236677 -1.03786e-20)
(1.24561 0.263648 -1.77665e-20)
(1.29196 0.277012 0)
(1.31039 0.280003 0)
(1.31173 0.276108 0)
(1.30395 0.268181 0)
(1.29212 0.258186 0)
(1.27904 0.247299 -1.56529e-20)
(1.26607 0.236156 7.13878e-21)
(1.25373 0.225071 1.24363e-20)
(1.24218 0.214192 5.81065e-21)
(1.23142 0.203593 1.44656e-20)
(1.2214 0.193314 0)
(1.21204 0.183385 -3.50182e-21)
(1.20325 0.173825 -3.3351e-21)
(1.19493 0.164628 -5.84919e-21)
(1.18698 0.155795 -5.16763e-21)
(1.17928 0.14747 0)
(1.17169 0.139725 3.74871e-21)
(-0.00196456 0.0432334 9.43613e-21)
(-0.00680213 0.108674 -9.74319e-21)
(-0.0143305 0.157766 -1.83881e-20)
(-0.0238319 0.193059 0)
(-0.0346527 0.217242 -2.45038e-20)
(-0.0462381 0.233101 7.6635e-21)
(-0.0580462 0.243187 -1.46122e-20)
(-0.069596 0.24954 0)
(-0.0805006 0.253564 0)
(-0.0904651 0.256037 0)
(-0.0992672 0.257212 0)
(-0.106734 0.256956 0)
(-0.112719 0.254886 -6.15869e-23)
(-0.117086 0.250477 -1.00889e-20)
(-0.119702 0.243139 1.9783e-20)
(-0.120432 0.232268 2.83375e-20)
(-0.119146 0.217288 9.39066e-21)
(-0.115718 0.197679 0)
(-0.110037 0.173022 8.18941e-21)
(-0.102035 0.143063 -2.37097e-20)
(-0.0916513 0.107657 -1.5302e-20)
(-0.0788367 0.0669568 -1.45647e-20)
(-0.0636271 0.0214321 0)
(-0.0460957 -0.027749 0)
(-0.00422752 0.0440984 -2.84662e-20)
(-0.0111594 0.11194 4.88401e-20)
(-0.0179735 0.163753 -1.86257e-20)
(-0.0251119 0.201638 -3.49097e-20)
(-0.0325922 0.227948 4.92171e-20)
(-0.0402219 0.245275 -3.11467e-20)
(-0.0476851 0.256108 4.3901e-20)
(-0.0546166 0.262522 2.79858e-20)
(-0.0606581 0.266016 0)
(-0.0654876 0.267482 -2.5306e-20)
(-0.0688301 0.267275 -7.05984e-22)
(-0.0704567 0.265341 2.23017e-20)
(-0.070177 0.261347 3.28489e-20)
(-0.067832 0.254799 4.23436e-20)
(-0.0632898 0.245126 -1.885e-20)
(-0.056445 0.23174 -5.71262e-20)
(-0.0472225 0.214085 1.94563e-20)
(-0.0355723 0.191662 -7.17061e-20)
(-0.0214242 0.164073 0)
(-0.00488264 0.131032 1.59943e-20)
(0.0139478 0.0924248 1.52751e-20)
(0.0350661 0.0483972 1.45388e-20)
(0.058599 -0.000464369 0)
(0.085328 -0.0525766 0)
(-0.0063691 0.0429108 0)
(-0.0154698 0.110591 9.94844e-20)
(-0.0217618 0.163687 -3.74606e-20)
(-0.0266177 0.203483 3.51335e-20)
(-0.0306181 0.231736 -9.97847e-20)
(-0.0339085 0.250637 0)
(-0.0364177 0.262444 -5.95348e-20)
(-0.0379374 0.269154 2.80387e-20)
(-0.0381838 0.272296 -5.35409e-20)
(-0.0368509 0.272853 2.57222e-20)
(-0.0336468 0.271299 1.46509e-19)
(-0.0283141 0.267695 -6.89307e-20)
(-0.0206402 0.261808 -1.11988e-19)
(-0.0104607 0.253222 -4.49816e-20)
(0.00233992 0.241435 -2.10936e-21)
(0.0178284 0.225918 1.58708e-19)
(0.036022 0.206169 -7.55127e-20)
(0.0568902 0.181743 -9.32722e-22)
(0.0803631 0.152281 0)
(0.106312 0.117494 -6.93595e-20)
(0.134567 0.0772838 0)
(0.164948 0.0317378 -6.32963e-20)
(0.197347 -0.0186072 2.39668e-19)
(0.234804 -0.072451 5.17204e-22)
(-0.00813649 0.0399659 0)
(-0.0192691 0.105028 3.97473e-22)
(-0.0253254 0.157765 3.79234e-20)
(-0.0282398 0.198459 -3.56999e-20)
(-0.0289739 0.228134 3.32742e-20)
(-0.0279412 0.24844 1.89527e-19)
(-0.0253055 0.261273 -5.95092e-20)
(-0.0210445 0.268436 -5.65142e-20)
(-0.0150002 0.271404 1.07137e-19)
(-0.00693972 0.271213 -1.53892e-19)
(0.00339316 0.268444 4.81485e-20)
(0.0162399 0.263288 4.66569e-20)
(0.0318024 0.255642 0)
(0.0502295 0.245211 4.2904e-20)
(0.0716113 0.231594 0)
(0.0959794 0.214349 8.02693e-20)
(0.123311 0.193045 -1.57512e-19)
(0.153535 0.167295 3.28473e-20)
(0.186546 0.136774 1.42916e-19)
(0.222167 0.101241 6.92705e-20)
(0.260222 0.0606301 0)
(0.300838 0.0149667 -1.93205e-19)
(0.342198 -0.0353568 6.04522e-20)
(0.393216 -0.0891322 0)
(-0.00938187 0.035762 0)
(-0.0222447 0.0961114 -1.21249e-19)
(-0.0284007 0.146776 -3.79284e-20)
(-0.0299162 0.187057 -7.1433e-20)
(-0.0279068 0.217253 6.72556e-20)
(-0.0229506 0.238438 -6.31868e-20)
(-0.0154067 0.25207 1.19792e-19)
(-0.00544544 0.259669 5.73223e-20)
(0.00692704 0.262578 -1.60323e-19)
(0.0218172 0.261818 1.02781e-19)
(0.0393899 0.258042 -1.46355e-19)
(0.0598236 0.251557 3.26753e-19)
(0.0832773 0.242396 -1.76915e-19)
(0.10987 0.230396 8.55929e-20)
(0.139675 0.215275 2.50847e-19)
(0.172715 0.196688 -7.55621e-20)
(0.208977 0.174279 -7.24514e-20)
(0.248412 0.147708 -7.32272e-20)
(0.290958 0.116699 0)
(0.336626 0.0810672 -1.41264e-19)
(0.385004 0.0407035 -1.38183e-19)
(0.43724 -0.00421656 1.90643e-19)
(0.487494 -0.0537779 2.44752e-19)
(0.555002 -0.105999 -2.28609e-19)
(-0.0100945 0.0309075 0)
(-0.0243072 0.0850211 -1.62926e-19)
(-0.0308847 0.131992 3.16293e-22)
(-0.0316238 0.170362 1.43693e-19)
(-0.0275741 0.199844 0)
(-0.019365 0.221 0)
(-0.00748754 0.234854 0)
(0.00771776 0.242603 -5.68675e-20)
(0.0260719 0.245393 -9.55505e-22)
(0.0475271 0.244169 1.00689e-19)
(0.0721247 0.239596 -1.47261e-19)
(0.0999549 0.23206 -1.37878e-21)
(0.131125 0.221703 0)
(0.165739 0.20848 -8.55469e-20)
(0.203889 0.192215 8.37872e-20)
(0.245656 0.172649 -2.34485e-19)
(0.291104 0.149502 3.0785e-19)
(0.34031 0.122507 7.96279e-20)
(0.3933 0.0914105 7.58933e-21)
(0.450211 0.0560903 -2.71184e-19)
(0.509951 0.0162581 -1.29807e-19)
(0.575603 -0.0271092 4.39431e-19)
(0.634892 -0.075325 -2.93601e-19)
(0.719716 -0.12427 0)
(-0.0104043 0.0260294 7.99943e-20)
(-0.0256059 0.0730751 8.16322e-20)
(-0.0328407 0.114998 -7.66928e-20)
(-0.033341 0.149943 -1.43275e-19)
(-0.0279256 0.17728 1.34891e-19)
(-0.0171788 0.197204 -1.2614e-19)
(-0.00165108 0.210374 1.77779e-19)
(0.018199 0.217681 -5.68104e-20)
(0.042052 0.22005 1.05273e-19)
(0.0697268 0.218299 0)
(0.10116 0.213053 9.60095e-20)
(0.136381 0.204722 -1.78715e-19)
(0.175484 0.19351 1.75921e-19)
(0.218615 0.179447 -1.65218e-19)
(0.26594 0.162439 0)
(0.317654 0.14232 1.54993e-19)
(0.373955 0.118873 3.01719e-19)
(0.434942 0.0918783 -2.84887e-19)
(0.500472 0.0611061 -1.37003e-19)
(0.57069 0.0267097 -1.3843e-19)
(0.643263 -0.0118562 3.82922e-19)
(0.7227 -0.0521946 1.19976e-19)
(0.790371 -0.0978934 -1.11629e-19)
(0.888296 -0.140502 1.03093e-19)
(-0.0105506 0.0216779 -8.00054e-20)
(-0.0264671 0.0615171 2.45489e-19)
(-0.0344156 0.0974428 -7.7328e-20)
(-0.0349294 0.127643 1.43253e-19)
(-0.0285145 0.151429 -1.3487e-19)
(-0.0156481 0.168816 4.21208e-23)
(0.00313373 0.180222 5.89968e-20)
(0.0273344 0.18629 2.20836e-19)
(0.0565753 0.187743 8.66543e-22)
(0.0906242 0.185252 -9.87116e-20)
(0.129396 0.179365 0)
(0.172937 0.170462 -8.99783e-20)
(0.221396 0.158764 1.6909e-19)
(0.274997 0.144349 1.65505e-19)
(0.333993 0.127182 -7.76527e-20)
(0.39855 0.107149 -1.85903e-21)
(0.468686 0.084091 -7.38887e-20)
(0.5442 0.0579151 1.382e-19)
(0.62433 0.0285212 1.36982e-19)
(0.708473 -0.00353761 -1.31301e-19)
(0.792982 -0.0391466 1.19843e-19)
(0.881701 -0.0742887 -1.12731e-19)
(0.953867 -0.115553 0)
(1.05242 -0.148338 -1.03085e-19)
(-0.0108124 0.0182365 8.02075e-20)
(-0.027245 0.0513086 -8.20841e-20)
(-0.0356514 0.0807694 7.70762e-20)
(-0.0359121 0.10529 0)
(-0.0282243 0.124401 0)
(-0.0129248 0.138128 1.24861e-19)
(0.00954011 0.146785 -1.17683e-19)
(0.038741 0.150862 1.0945e-19)
(0.0743595 0.15092 -5.16568e-19)
(0.116229 0.1475 -5.48132e-22)
(0.164334 0.141055 9.17659e-20)
(0.218782 0.13192 0)
(0.279745 0.120302 -1.69033e-19)
(0.347348 0.106287 3.20734e-19)
(0.421571 0.0898705 -2.29877e-19)
(0.502123 0.0710029 -3.73538e-19)
(0.58829 0.0496507 -6.24959e-21)
(0.678867 0.025866 2.64549e-19)
(0.771945 -0.000313671 0)
(0.865502 -0.0281255 0)
(0.955269 -0.0584982 -1.19849e-19)
(1.04234 -0.0867526 1.12739e-19)
(1.11024 -0.121545 -4.03052e-19)
(1.19123 -0.143173 3.77454e-19)
(-0.0114064 0.0158525 0)
(-0.0281111 0.0429637 0)
(-0.036235 0.0659785 -2.30982e-19)
(-0.0352174 0.0844098 7.36417e-20)
(-0.0250138 0.0982271 1.28059e-21)
(-0.00580419 0.107632 1.26188e-19)
(0.0221262 0.11296 0)
(0.0585132 0.114642 -1.09421e-19)
(0.103187 0.113145 1.02998e-19)
(0.156085 0.108912 -1.93121e-19)
(0.217208 0.102318 -8.01958e-22)
(0.286524 0.0936358 1.74424e-19)
(0.363851 0.0830369 2.51433e-21)
(0.448708 0.0705999 1.61752e-19)
(0.540176 0.0563465 -2.23897e-19)
(0.636803 0.0402707 0)
(0.736556 0.0223889 2.77653e-19)
(0.836839 0.00277697 -3.94307e-19)
(0.934598 -0.0184133 1.21635e-19)
(1.02664 -0.0406661 0)
(1.10916 -0.0643644 1.0667e-19)
(1.18095 -0.0860321 4.07265e-19)
(1.23326 -0.113404 -3.82257e-19)
(1.28304 -0.126383 -4.202e-19)
(-0.0123771 0.0144021 2.42178e-19)
(-0.0288565 0.0364672 -3.32192e-19)
(-0.0353115 0.053476 1.26169e-21)
(-0.0310656 0.0659834 7.34755e-20)
(-0.0159403 0.0745306 -1.35811e-19)
(0.0100336 0.0796047 -1.25726e-19)
(0.046752 0.0816649 2.33749e-19)
(0.0941109 0.0811632 -1.55632e-21)
(0.152006 0.0785312 -2.05438e-19)
(0.22026 0.0741483 3.8589e-19)
(0.298502 0.0683127 1.29731e-21)
(0.38602 0.0612246 -1.71298e-19)
(0.481614 0.052985 0)
(0.583504 0.0436065 0)
(0.689299 0.0330401 -7.46624e-20)
(0.796053 0.0212056 -1.38837e-19)
(0.900422 0.00804842 -2.67941e-19)
(0.998862 -0.00647768 2.5151e-19)
(1.088 -0.0221926 -1.21708e-19)
(1.16477 -0.0391085 2.20841e-19)
(1.22705 -0.0566333 -1.09524e-19)
(1.27387 -0.0740655 1.84694e-19)
(1.30338 -0.0944959 -4.37032e-19)
(1.32236 -0.104245 8.29214e-20)
(-0.0135252 0.0135267 8.14696e-20)
(-0.0287945 0.0313139 0)
(-0.0314776 0.0430517 1.56499e-19)
(-0.0211378 0.050326 -1.47424e-19)
(0.00238789 0.0542704 1.35939e-19)
(0.0391379 0.0557071 0)
(0.0890662 0.0552687 0)
(0.151996 0.0534716 -1.09901e-19)
(0.227498 0.050735 7.7206e-22)
(0.314727 0.0473714 9.69295e-20)
(0.412261 0.0435713 -9.13458e-20)
(0.517993 0.0393934 1.71198e-19)
(0.629115 0.0347699 0)
(0.742213 0.0295288 3.08255e-19)
(0.853467 0.0234328 -5.80685e-19)
(0.958932 0.016227 4.12392e-19)
(1.05487 0.00770705 2.57534e-19)
(1.13809 -0.00229047 -2.41763e-19)
(1.2063 -0.0136378 0)
(1.25816 -0.0266188 0)
(1.29397 -0.03992 0)
(1.31456 -0.0557207 0)
(1.32274 -0.0696925 8.35739e-20)
(1.32221 -0.0837227 -2.84964e-19)
(-0.0243655 -0.0867415 -8.6725e-21)
(-0.00176566 -0.162867 8.7435e-21)
(0.0226795 -0.244166 -2.65965e-22)
(0.0486545 -0.325734 0)
(0.0739708 -0.403228 -6.50986e-21)
(0.096986 -0.472688 1.20512e-20)
(0.115684 -0.530816 -6.09979e-22)
(0.128039 -0.575919 -4.81519e-21)
(0.133237 -0.607444 0)
(0.133231 -0.624417 0)
(0.133678 -0.622928 -1.82756e-22)
(0.143017 -0.595147 -1.67997e-22)
(0.169416 -0.531925 -3.05989e-21)
(0.216021 -0.42848 2.81517e-21)
(0.279305 -0.288294 0)
(0.35231 -0.12153 0)
(0.428634 0.0577697 2.84159e-21)
(0.503229 0.231103 -2.63205e-22)
(0.571057 0.375635 -2.29589e-21)
(0.626964 0.475223 -1.06927e-22)
(0.667137 0.528212 0)
(0.69136 0.544198 0)
(0.703106 0.536981 0)
(0.703119 0.524852 0)
(0.686669 0.526301 0)
(0.653559 0.539195 0)
(0.618432 0.527947 4.69074e-22)
(0.604658 0.444392 -7.6729e-22)
(0.623277 0.274287 0)
(0.668025 0.0526727 0)
(0.72301 -0.158688 -6.54984e-22)
(0.773453 -0.316063 6.36545e-22)
(0.80943 -0.406438 2.34305e-22)
(0.830451 -0.44054 0)
(0.83974 -0.443692 0)
(0.831261 -0.445694 2.4178e-22)
(0.798373 -0.462713 -2.35029e-22)
(0.749039 -0.457007 0)
(0.708413 -0.388093 3.07252e-22)
(0.698221 -0.229089 -4.4963e-22)
(0.716904 -0.0350264 1.50931e-22)
(0.755506 0.147035 0)
(0.799043 0.270426 -2.12403e-22)
(0.830639 0.339382 2.06537e-22)
(0.832869 0.391329 0)
(0.799435 0.407845 0)
(0.756759 0.401869 -8.05845e-23)
(0.737149 0.27619 2.52741e-22)
(0.748844 0.124913 0)
(0.788989 -0.0601833 0)
(0.824108 -0.19367 -5.99037e-23)
(0.824624 -0.272856 -2.06475e-24)
(0.806188 -0.375367 -6.76521e-24)
(0.781103 -0.312764 3.31154e-23)
(0.785994 -0.290188 0)
(0.799459 -0.0899871 0)
(0.808524 0.0770309 0)
(0.798711 0.178094 0)
(0.80093 0.392718 0)
(0.784877 0.203729 0)
(0.114366 -0.113216 -9.29451e-22)
(0.140063 -0.19048 -3.72594e-20)
(0.16599 -0.272464 1.86236e-21)
(0.192167 -0.353943 3.31639e-20)
(0.216266 -0.429668 4.70595e-22)
(0.236396 -0.495138 0)
(0.250434 -0.546766 -2.04626e-20)
(0.255913 -0.58321 3.77456e-20)
(0.250736 -0.605642 -1.72659e-20)
(0.234558 -0.616494 1.24515e-20)
(0.210966 -0.6159 -1.19206e-20)
(0.188598 -0.598008 9.9293e-21)
(0.179311 -0.551575 -9.6118e-21)
(0.19243 -0.466025 -2.70891e-22)
(0.229828 -0.339262 -1.02102e-20)
(0.286361 -0.179683 9.92239e-21)
(0.35512 -0.00280976 -9.64777e-21)
(0.429146 0.172207 9.11851e-21)
(0.501693 0.323602 -7.35932e-21)
(0.566524 0.434585 1.30003e-20)
(0.618223 0.500845 -5.70414e-21)
(0.655172 0.528685 -2.50594e-22)
(0.67871 0.531347 -3.71966e-21)
(0.68727 0.529074 7.31097e-21)
(0.676793 0.539961 -3.59205e-21)
(0.651115 0.557163 2.59666e-22)
(0.627999 0.540914 5.49003e-21)
(0.628655 0.445054 1.18465e-21)
(0.659107 0.261895 -1.26886e-20)
(0.710725 0.0314075 1.29127e-20)
(0.766754 -0.18294 -6.26221e-21)
(0.813081 -0.336263 6.42115e-22)
(0.841555 -0.419273 -2.34761e-22)
(0.853058 -0.446551 3.68158e-22)
(0.853696 -0.443102 0)
(0.839793 -0.436709 0)
(0.804061 -0.445955 -8.89481e-22)
(0.750085 -0.438839 6.55203e-22)
(0.70288 -0.37748 8.50687e-22)
(0.685375 -0.230315 2.46e-22)
(0.701187 -0.0464948 -1.27008e-21)
(0.740686 0.130937 2.38349e-22)
(0.788456 0.256188 0)
(0.823678 0.333039 0)
(0.827913 0.395346 0)
(0.797824 0.418495 0)
(0.758045 0.411146 3.36953e-22)
(0.743487 0.278368 -1.74538e-22)
(0.755578 0.118548 0)
(0.796886 -0.0693219 0)
(0.831934 -0.198619 0)
(0.832499 -0.270445 -9.42631e-23)
(0.813971 -0.370315 2.12319e-23)
(0.785557 -0.310537 -7.38909e-23)
(0.790403 -0.292079 0)
(0.798406 -0.0921 0)
(0.805905 0.0767729 4.69791e-23)
(0.795018 0.178944 1.10604e-22)
(0.796758 0.3939 0)
(0.783619 0.204805 0)
(0.266794 -0.134353 1.48334e-22)
(0.295064 -0.212536 -8.11012e-20)
(0.321588 -0.29448 7.4486e-20)
(0.347165 -0.374799 -6.96569e-20)
(0.369162 -0.448343 -4.73685e-22)
(0.385534 -0.510239 0)
(0.394527 -0.556232 -4.30426e-20)
(0.394226 -0.584349 4.20946e-20)
(0.382593 -0.596139 2.45683e-22)
(0.357632 -0.596414 3.85303e-22)
(0.319384 -0.590168 3.10113e-22)
(0.273169 -0.576731 2.98442e-22)
(0.231044 -0.546236 -1.59202e-20)
(0.207604 -0.483632 1.57456e-20)
(0.212242 -0.37877 0)
(0.244933 -0.234418 4.28931e-22)
(0.299336 -0.0651687 -1.55157e-20)
(0.367556 0.107958 1.53352e-20)
(0.441114 0.264074 0)
(0.511897 0.385395 0)
(0.573236 0.464845 -8.61017e-21)
(0.621829 0.505565 1.5967e-20)
(0.656312 0.52001 -1.4223e-20)
(0.67315 0.529109 -2.36096e-22)
(0.669561 0.549428 1.49442e-20)
(0.65298 0.570072 -1.75604e-20)
(0.642768 0.549114 1.98974e-20)
(0.657592 0.44351 1.44529e-21)
(0.699434 0.250705 -1.28766e-20)
(0.756961 0.0145013 0)
(0.812928 -0.201369 0)
(0.854446 -0.350591 3.40352e-21)
(0.875098 -0.426993 -4.58658e-21)
(0.87721 -0.448629 6.05493e-24)
(0.869259 -0.440165 2.09255e-21)
(0.850138 -0.426618 -2.03366e-21)
(0.812419 -0.428465 0)
(0.754969 -0.419935 2.1028e-22)
(0.701861 -0.366459 2.12523e-21)
(0.676919 -0.232141 -4.29324e-21)
(0.689419 -0.0596837 1.94754e-21)
(0.729128 0.112572 1.76861e-22)
(0.780365 0.239988 -1.79536e-21)
(0.818662 0.325245 1.39775e-21)
(0.82498 0.398286 2.97689e-22)
(0.798752 0.428209 3.07615e-22)
(0.762402 0.420002 -3.37824e-22)
(0.753002 0.28105 0)
(0.765346 0.113166 0)
(0.807032 -0.0775655 -1.43618e-21)
(0.84152 -0.203172 6.52678e-22)
(0.84197 -0.267562 -4.7434e-22)
(0.823043 -0.364837 5.32098e-22)
(0.790893 -0.308102 5.13385e-22)
(0.795746 -0.293721 -1.3805e-22)
(0.798606 -0.0940305 1.9376e-22)
(0.804648 0.0766679 -1.67892e-22)
(0.792444 0.179699 5.02472e-23)
(0.793529 0.394853 0)
(0.783351 0.205766 0)
(0.425154 -0.150721 -1.70808e-19)
(0.455313 -0.229613 5.58978e-21)
(0.483085 -0.31094 1.57273e-19)
(0.508135 -0.389067 -1.10299e-21)
(0.527446 -0.459627 0)
(0.539046 -0.517791 0)
(0.541666 -0.5589 -8.67799e-20)
(0.534167 -0.580465 1.31689e-20)
(0.515814 -0.583337 9.62264e-20)
(0.485557 -0.572129 -5.50525e-21)
(0.441575 -0.554532 -2.16232e-20)
(0.383887 -0.536514 -1.38091e-20)
(0.319385 -0.514708 1.38513e-20)
(0.26308 -0.474455 0)
(0.231444 -0.398217 -1.16725e-20)
(0.233131 -0.278757 1.06119e-20)
(0.265957 -0.12525 0)
(0.32234 0.0414459 0)
(0.392029 0.199207 9.44821e-21)
(0.464941 0.328935 -1.13178e-21)
(0.533236 0.420805 -7.5648e-21)
(0.591486 0.474953 -6.65478e-21)
(0.635425 0.50253 6.60875e-21)
(0.660074 0.523781 -7.20879e-21)
(0.664125 0.553048 -9.8129e-22)
(0.657806 0.576553 7.78226e-21)
(0.660899 0.552131 1.29118e-21)
(0.689272 0.440248 -1.07092e-23)
(0.741713 0.241497 0)
(0.804867 0.00139631 1.45027e-20)
(0.860636 -0.214344 -1.49415e-20)
(0.896988 -0.359799 6.76482e-22)
(0.909716 -0.43037 0)
(0.90274 -0.44724 -3.78605e-22)
(0.886336 -0.435204 4.10712e-21)
(0.861982 -0.41599 -6.87e-21)
(0.822931 -0.410804 -6.50133e-23)
(0.763415 -0.400243 -1.03487e-22)
(0.705485 -0.354466 2.51898e-21)
(0.673107 -0.23391 4.56571e-22)
(0.681768 -0.0739552 -3.29771e-21)
(0.720872 0.0923327 2.78657e-21)
(0.774649 0.222015 4.45777e-23)
(0.815506 0.315913 1.21027e-21)
(0.824007 0.39988 -1.47539e-21)
(0.802111 0.436722 -2.30573e-21)
(0.769692 0.428355 5.87107e-22)
(0.765518 0.284385 1.77406e-21)
(0.778036 0.109066 -3.4291e-21)
(0.819342 -0.0847216 2.42442e-21)
(0.852736 -0.207335 -4.83612e-22)
(0.8529 -0.264303 7.14765e-22)
(0.833302 -0.358874 4.6904e-22)
(0.796984 -0.305357 -7.38136e-22)
(0.80186 -0.295109 1.11852e-23)
(0.799958 -0.0958336 -1.37226e-22)
(0.804704 0.0767175 0)
(0.790949 0.180394 -7.98785e-23)
(0.791245 0.395586 9.81873e-23)
(0.784103 0.20661 0)
(0.585509 -0.165541 1.71646e-19)
(0.616183 -0.242852 -3.32251e-19)
(0.645354 -0.321233 1.58206e-19)
(0.66982 -0.395169 1.37745e-19)
(0.685675 -0.461214 -2.56137e-19)
(0.691441 -0.514654 1.51538e-20)
(0.686383 -0.550886 1.01403e-19)
(0.670014 -0.567713 6.90452e-20)
(0.64289 -0.565599 -6.75902e-20)
(0.606093 -0.547486 0)
(0.559382 -0.519658 -3.12806e-20)
(0.500429 -0.49103 5.41598e-20)
(0.428739 -0.466724 -2.31459e-20)
(0.35241 -0.439643 0)
(0.288774 -0.391195 0)
(0.255294 -0.304019 3.01719e-22)
(0.25894 -0.176072 -1.56132e-20)
(0.296261 -0.0228633 1.51689e-20)
(0.356512 0.131474 0)
(0.42729 0.266611 1.22077e-20)
(0.499044 0.36939 -2.2345e-20)
(0.564008 0.436869 2.10609e-20)
(0.615332 0.478288 -2.19546e-20)
(0.647098 0.511946 -1.88846e-21)
(0.659331 0.549645 2.82383e-20)
(0.66403 0.575975 -1.53837e-20)
(0.680422 0.550149 -6.53152e-22)
(0.72142 0.435678 -1.32376e-20)
(0.783526 0.234767 -1.71686e-21)
(0.852541 -0.00689094 1.49071e-20)
(0.908769 -0.221533 8.62924e-22)
(0.939855 -0.363527 -1.00331e-20)
(0.944688 -0.429202 1.71688e-20)
(0.92912 -0.442323 -7.97765e-21)
(0.90469 -0.428148 0)
(0.875188 -0.404962 -3.56765e-21)
(0.835291 -0.39354 3.39948e-21)
(0.775053 -0.380413 -2.25419e-21)
(0.713661 -0.341608 2.81731e-21)
(0.674174 -0.235191 -3.18155e-22)
(0.678283 -0.0888438 0)
(0.715725 0.0705767 -3.00177e-22)
(0.771079 0.202366 8.62289e-22)
(0.814042 0.304854 0)
(0.824838 0.399798 2.95333e-21)
(0.807688 0.443765 -1.09419e-21)
(0.779636 0.436122 7.54266e-22)
(0.780727 0.288476 9.45584e-22)
(0.79344 0.106365 0)
(0.833663 -0.0906325 0)
(0.865415 -0.211032 -1.79677e-21)
(0.865128 -0.260651 2.4819e-21)
(0.844661 -0.352318 -1.17924e-21)
(0.80373 -0.302227 2.90084e-22)
(0.80858 -0.296272 4.05838e-22)
(0.802339 -0.0975679 1.37356e-22)
(0.806003 0.0769202 -1.84064e-22)
(0.790486 0.18106 0)
(0.789902 0.396102 -1.57453e-22)
(0.785897 0.207331 -3.04293e-23)
(0.747034 -0.180446 1.68926e-19)
(0.775936 -0.253341 -1.68336e-19)
(0.804521 -0.325641 1.22502e-21)
(0.826314 -0.393042 -1.07885e-21)
(0.836724 -0.453006 1.00466e-21)
(0.835149 -0.500787 -8.70647e-22)
(0.821562 -0.531953 1.4156e-21)
(0.796048 -0.544751 0)
(0.759904 -0.539874 -9.14696e-22)
(0.715411 -0.519574 6.98694e-22)
(0.664535 -0.48759 5.1436e-22)
(0.60687 -0.450496 -3.98051e-22)
(0.538964 -0.416888 0)
(0.459668 -0.389816 0)
(0.378118 -0.358665 1.10795e-22)
(0.313398 -0.303112 0)
(0.282932 -0.208748 -8.12046e-23)
(0.29251 -0.0791358 0)
(0.335764 0.0645384 -7.89655e-21)
(0.399353 0.200538 1.50516e-20)
(0.470438 0.311708 -1.45208e-20)
(0.538708 0.391739 7.15205e-21)
(0.595161 0.447075 9.2364e-21)
(0.633261 0.492982 -8.96944e-21)
(0.65398 0.538658 -1.44736e-20)
(0.670089 0.568213 1.41629e-20)
(0.699403 0.543304 0)
(0.751833 0.430073 7.63996e-22)
(0.822926 0.230761 0)
(0.898303 -0.00993943 0)
(0.955941 -0.223026 2.42252e-20)
(0.982239 -0.361938 -2.52173e-20)
(0.979414 -0.423806 1.06667e-21)
(0.95589 -0.434193 7.76269e-22)
(0.92404 -0.419114 -5.48804e-22)
(0.889494 -0.393654 -2.95818e-21)
(0.849029 -0.377036 2.87246e-21)
(0.789296 -0.360877 -2.46038e-21)
(0.725974 -0.327894 2.10835e-21)
(0.679968 -0.235627 5.80717e-22)
(0.678836 -0.103927 -2.31366e-21)
(0.713526 0.0476726 -8.38144e-23)
(0.769386 0.181097 1.52729e-21)
(0.814045 0.291855 0)
(0.827229 0.397707 -1.06242e-21)
(0.815156 0.449084 2.24876e-21)
(0.791847 0.443188 -2.791e-21)
(0.798139 0.293294 -9.51624e-22)
(0.811223 0.105298 0)
(0.849829 -0.0950781 6.81121e-22)
(0.879381 -0.214173 -1.55472e-21)
(0.87846 -0.256627 6.00195e-24)
(0.857016 -0.345086 -3.35631e-22)
(0.811062 -0.298614 3.46369e-22)
(0.815748 -0.297221 -3.67105e-22)
(0.805606 -0.0993058 0)
(0.808459 0.0772604 1.84149e-22)
(0.791005 0.181725 0)
(0.789495 0.396393 0)
(0.788753 0.207915 4.10414e-23)
(0.908774 -0.192501 -1.63485e-19)
(0.931465 -0.258723 1.61824e-19)
(0.955177 -0.322275 -1.12283e-21)