/*--------------------------------*- C++ -*----------------------------------*\
| =========                 |                                                 |
| \\      /  F ield         | OpenFOAM: The Open Source CFD Toolbox           |
|  \\    /   O peration     | Version:  2512                                  |
|   \\  /    A nd           | Website:  www.openfoam.com                      |
|    \\/     M anipulation  |                                                 |
\*---------------------------------------------------------------------------*/
FoamFile
{
    version     2.0;
    format      ascii;
    arch        "LSB;label=32;scalar=64";
    class       volScalarField;
    location    "46.5";
    object      p;
}
// * * * * * * * * * * * * * * * * * * * * * * * * * * * * * * * * * * * * * //

dimensions      [0 2 -2 0 0 0 0];

internalField   nonuniform List<scalar> 
13248
(
-0.278024
-0.276737
-0.274802
-0.272385
-0.269681
-0.266867
-0.264086
-0.261435
-0.258979
-0.256749
-0.254749
-0.252958
-0.251337
-0.249834
-0.248386
-0.246929
-0.245397
-0.243733
-0.241882
-0.239834
-0.237477
-0.23501
-0.231762
-0.228821
-0.284627
-0.282723
-0.280195
-0.277217
-0.273975
-0.270662
-0.267415
-0.264318
-0.26141
-0.258695
-0.256145
-0.253712
-0.251333
-0.248943
-0.246476
-0.243877
-0.241099
-0.238109
-0.234887
-0.231419
-0.227684
-0.223694
-0.219285
-0.215112
-0.292681
-0.289971
-0.286727
-0.283111
-0.279279
-0.275422
-0.27166
-0.268042
-0.264569
-0.261206
-0.257893
-0.254564
-0.251154
-0.247609
-0.243892
-0.239985
-0.235884
-0.231603
-0.227156
-0.222569
-0.217827
-0.212984
-0.207926
-0.203106
-0.302304
-0.298598
-0.294522
-0.290194
-0.285713
-0.281243
-0.276864
-0.272577
-0.26833
-0.264054
-0.259677
-0.255143
-0.250417
-0.245494
-0.240391
-0.235142
-0.229793
-0.224388
-0.218963
-0.213545
-0.20813
-0.202757
-0.197323
-0.19231
-0.31356
-0.308688
-0.303676
-0.298569
-0.293361
-0.288164
-0.282997
-0.277797
-0.272473
-0.266947
-0.261171
-0.255144
-0.248897
-0.242493
-0.236008
-0.229518
-0.223088
-0.216768
-0.210584
-0.204546
-0.198645
-0.192891
-0.187221
-0.18197
-0.326446
-0.320268
-0.314244
-0.308293
-0.30225
-0.296143
-0.289917
-0.283457
-0.276667
-0.269513
-0.262026
-0.254292
-0.246427
-0.238553
-0.230781
-0.223197
-0.215855
-0.208784
-0.201989
-0.19546
-0.189178
-0.183129
-0.177265
-0.171826
-0.340863
-0.333284
-0.326197
-0.319325
-0.312281
-0.304981
-0.29731
-0.28915
-0.280467
-0.271335
-0.261907
-0.252367
-0.242898
-0.233649
-0.224729
-0.216201
-0.20809
-0.200396
-0.193098
-0.186168
-0.179575
-0.173289
-0.167276
-0.161669
-0.356562
-0.347549
-0.339366
-0.331459
-0.323157
-0.314268
-0.30467
-0.294329
-0.28336
-0.271997
-0.26052
-0.24919
-0.238214
-0.227729
-0.217806
-0.208469
-0.199705
-0.191485
-0.183767
-0.176506
-0.169661
-0.16319
-0.15707
-0.151331
-0.37311
-0.362695
-0.35339
-0.344268
-0.334347
-0.323375
-0.311331
-0.298375
-0.284841
-0.271134
-0.257633
-0.244626
-0.232293
-0.220724
-0.209939
-0.199913
-0.1906
-0.181942
-0.173879
-0.166355
-0.159316
-0.152717
-0.14653
-0.140703
-0.389853
-0.378133
-0.367656
-0.357055
-0.34506
-0.331476
-0.316524
-0.300659
-0.284451
-0.268447
-0.253062
-0.238552
-0.225039
-0.212542
-0.201027
-0.190425
-0.180659
-0.171649
-0.163319
-0.1556
-0.14843
-0.14176
-0.135542
-0.129674
-0.405918
-0.393027
-0.381284
-0.36885
-0.354281
-0.337604
-0.319422
-0.30053
-0.28171
-0.263576
-0.246514
-0.230708
-0.216195
-0.202927
-0.190815
-0.179753
-0.169638
-0.160371
-0.151862
-0.144031
-0.136808
-0.130135
-0.123935
-0.118095
-0.420282
-0.406404
-0.393274
-0.378609
-0.360962
-0.340783
-0.319164
-0.297248
-0.275963
-0.255917
-0.237412
-0.220528
-0.205211
-0.191344
-0.17879
-0.16741
-0.157077
-0.147675
-0.139102
-0.131267
-0.124095
-0.117518
-0.111427
-0.105755
-0.248947
-0.25072
-0.251855
-0.252615
-0.253238
-0.253786
-0.254287
-0.254761
-0.255216
-0.255652
-0.256066
-0.256452
-0.256806
-0.257121
-0.257395
-0.257625
-0.257814
-0.257965
-0.258088
-0.258197
-0.258314
-0.258467
-0.258706
-0.259101
-0.249413
-0.25098
-0.251981
-0.252647
-0.253187
-0.253661
-0.254098
-0.254521
-0.254941
-0.255363
-0.255787
-0.256216
-0.256649
-0.257092
-0.257548
-0.258025
-0.258534
-0.259087
-0.259701
-0.2604
-0.261212
-0.262167
-0.26332
-0.264802
-0.250472
-0.251771
-0.252597
-0.253134
-0.253561
-0.253933
-0.25428
-0.254626
-0.254987
-0.25537
-0.255781
-0.256226
-0.256713
-0.257252
-0.257855
-0.258535
-0.25931
-0.260197
-0.261215
-0.26239
-0.263751
-0.265313
-0.267103
-0.26943
-0.251974
-0.252972
-0.253591
-0.25397
-0.254251
-0.254486
-0.254708
-0.254942
-0.255207
-0.255515
-0.255875
-0.256298
-0.256797
-0.257385
-0.258081
-0.258903
-0.259871
-0.261004
-0.262321
-0.263843
-0.265595
-0.267576
-0.269728
-0.272442
-0.25377
-0.254465
-0.25486
-0.255053
-0.255153
-0.255211
-0.255264
-0.25534
-0.255462
-0.255645
-0.255904
-0.256252
-0.256706
-0.257284
-0.258006
-0.258894
-0.259971
-0.261254
-0.26276
-0.2645
-0.266488
-0.268699
-0.271001
-0.273758
-0.25574
-0.256157
-0.256323
-0.256303
-0.256184
-0.256019
-0.255851
-0.255714
-0.255636
-0.255637
-0.255735
-0.255948
-0.256295
-0.256795
-0.257472
-0.258348
-0.259445
-0.260783
-0.26237
-0.26421
-0.266298
-0.268599
-0.270966
-0.273213
-0.257819
-0.258
-0.257937
-0.257678
-0.2573
-0.256863
-0.256418
-0.25601
-0.255672
-0.255432
-0.255311
-0.25533
-0.255509
-0.255871
-0.256438
-0.257233
-0.258277
-0.259582
-0.261155
-0.262986
-0.265055
-0.267268
-0.269766
-0.271002
-0.260011
-0.260002
-0.259712
-0.259184
-0.258507
-0.257749
-0.256976
-0.256243
-0.255594
-0.255061
-0.254672
-0.254452
-0.254421
-0.254602
-0.255017
-0.255684
-0.25662
-0.257832
-0.259315
-0.261041
-0.263012
-0.2649
-0.267633
-0.267676
-0.262405
-0.262236
-0.261709
-0.260887
-0.259869
-0.258747
-0.257603
-0.256505
-0.255507
-0.254649
-0.253965
-0.253481
-0.253219
-0.2532
-0.253439
-0.253951
-0.254739
-0.255799
-0.257116
-0.258624
-0.26042
-0.261803
-0.264644
-0.263817
-0.265163
-0.264835
-0.264048
-0.262895
-0.261501
-0.259982
-0.258438
-0.256952
-0.255588
-0.254394
-0.253407
-0.252652
-0.25215
-0.251912
-0.251944
-0.252244
-0.252801
-0.253595
-0.254604
-0.255734
-0.257171
-0.25806
-0.260582
-0.25951
-0.268516
-0.267981
-0.266888
-0.265358
-0.263551
-0.261608
-0.259647
-0.257764
-0.256028
-0.254493
-0.253194
-0.252152
-0.251376
-0.250862
-0.250597
-0.250556
-0.250708
-0.251011
-0.251432
-0.251906
-0.252575
-0.252965
-0.254658
-0.253922
-0.272726
-0.271881
-0.270409
-0.268451
-0.266193
-0.263803
-0.261412
-0.259124
-0.257016
-0.255132
-0.2535
-0.252127
-0.250999
-0.250092
-0.249365
-0.24877
-0.248249
-0.247746
-0.247202
-0.246599
-0.24591
-0.245223
-0.245103
-0.244827
-0.259779
-0.260518
-0.261331
-0.262164
-0.26292
-0.263462
-0.263613
-0.263158
-0.261877
-0.259512
-0.255818
-0.250639
-0.243982
-0.236091
-0.22748
-0.218896
-0.211261
-0.205577
-0.202793
-0.203308
-0.206715
-0.21166
-0.215762
-0.216308
-0.210792
-0.198144
-0.178854
-0.155205
-0.131246
-0.110433
-0.0957567
-0.0892207
-0.090417
-0.0949622
-0.09602
-0.0895955
-0.0751475
-0.0563042
-0.0372962
-0.0208433
-0.00798695
0.00117309
0.00663568
0.00876833
0.00867523
0.00799417
0.00784153
0.00851882
0.00955652
0.0105139
0.0108969
0.0106966
0.00976051
0.00847219
0.00693977
0.00558719
0.00427268
0.00331189
0.00195896
0.00097339
-0.267143
-0.269453
-0.271916
-0.274469
-0.276937
-0.279124
-0.280775
-0.281551
-0.281082
-0.278979
-0.274877
-0.268498
-0.259753
-0.24883
-0.236238
-0.222742
-0.209351
-0.197333
-0.187883
-0.181881
-0.179617
-0.180183
-0.181798
-0.182113
-0.178598
-0.170483
-0.15717
-0.139954
-0.122746
-0.108664
-0.100921
-0.101147
-0.107724
-0.114864
-0.11488
-0.10548
-0.0868127
-0.063838
-0.0414378
-0.0224547
-0.00778643
0.00273516
0.00938161
0.0124997
0.0128794
0.0119895
0.0110599
0.0107412
0.0108794
0.0111399
0.0110136
0.0104372
0.00926438
0.00784298
0.00633946
0.00506909
0.00391327
0.00308824
0.00185537
0.00095535
-0.273641
-0.277265
-0.28119
-0.285293
-0.289305
-0.292971
-0.295968
-0.297856
-0.29814
-0.296297
-0.291838
-0.284366
-0.273695
-0.259962
-0.243665
-0.22553
-0.206709
-0.188671
-0.172772
-0.160233
-0.152149
-0.147828
-0.146226
-0.145519
-0.143499
-0.138562
-0.131584
-0.120885
-0.110948
-0.104295
-0.104278
-0.111689
-0.123587
-0.133034
-0.131506
-0.11976
-0.0972241
-0.0705884
-0.0452802
-0.0241691
-0.00797866
0.00368501
0.0113404
0.0154053
0.0164396
0.0156526
0.0142283
0.0130673
0.0123312
0.0118436
0.011139
0.0101369
0.00871606
0.00718271
0.0057342
0.00457194
0.0035765
0.00288186
0.00176233
0.000929007
-0.2786
-0.283314
-0.288361
-0.293734
-0.299046
-0.303965
-0.308105
-0.310901
-0.31185
-0.310275
-0.305561
-0.2972
-0.284913
-0.268761
-0.249171
-0.226907
-0.2034
-0.180073
-0.158347
-0.139591
-0.126131
-0.116725
-0.111351
-0.108781
-0.107298
-0.104946
-0.103142
-0.0990837
-0.0966865
-0.0979202
-0.105877
-0.120409
-0.137345
-0.148962
-0.145196
-0.13224
-0.106307
-0.0765758
-0.0488846
-0.0260574
-0.00862987
0.00397806
0.0124784
0.0174005
0.0191766
0.0187449
0.0171302
0.0153519
0.0138278
0.0125851
0.0112627
0.00980924
0.0081457
0.00653131
0.00515904
0.00412129
0.00327825
0.00270047
0.00168343
0.000895425
-0.281434
-0.287359
-0.293045
-0.299257
-0.305547
-0.311423
-0.316427
-0.31997
-0.321422
-0.320087
-0.31523
-0.306252
-0.292786
-0.274813
-0.252662
-0.227153
-0.199714
-0.171948
-0.14533
-0.120889
-0.103454
-0.0889963
-0.0795921
-0.074526
-0.072695
-0.0719951
-0.0746383
-0.0763453
-0.0811807
-0.090226
-0.10578
-0.126876
-0.148386
-0.162363
-0.163122
-0.142951
-0.11397
-0.0818085
-0.0522897
-0.0281448
-0.00974297
0.00363455
0.0128352
0.018497
0.0210103
0.0210885
0.0195496
0.0174099
0.0152367
0.0132895
0.0113569
0.00946312
0.00758242
0.00592394
0.00464124
0.00376658
0.0030266
0.00254576
0.00161839
0.000855693
-0.282412
-0.28932
-0.295227
-0.301777
-0.308652
-0.315146
-0.320691
-0.324687
-0.326533
-0.325405
-0.320526
-0.31122
-0.297019
-0.277817
-0.253964
-0.226295
-0.196162
-0.165204
-0.135047
-0.107286
-0.0844701
-0.0660085
-0.0528879
-0.0451408
-0.0425493
-0.0430854
-0.0478108
-0.0547225
-0.0658416
-0.081907
-0.10411
-0.130777
-0.156174
-0.171949
-0.171574
-0.151025
-0.120108
-0.0862826
-0.0555092
-0.030422
-0.0112777
0.00272013
0.0124999
0.0187827
0.0219682
0.0226117
0.0213345
0.0190657
0.0164181
0.0138723
0.0113912
0.00910758
0.0070533
0.00538738
0.0041972
0.00344828
0.00282114
0.00241492
0.00156418
0.000811018
-0.281448
-0.289153
-0.294975
-0.301407
-0.308444
-0.315187
-0.320953
-0.325157
-0.327171
-0.326159
-0.321342
-0.311997
-0.29761
-0.27801
-0.253478
-0.224803
-0.193261
-0.160456
-0.128079
-0.097849
-0.0715598
-0.0498108
-0.0334734
-0.0229797
-0.0185238
-0.019275
-0.0254382
-0.0359839
-0.0519384
-0.0735968
-0.101056
-0.132021
-0.160483
-0.177751
-0.177148
-0.156543
-0.12468
-0.0899937
-0.0585299
-0.032849
-0.013165
0.0013292
0.011589
0.0183888
0.0221546
0.0233481
0.0224325
0.0202101
0.0172734
0.0142734
0.0113496
0.0087575
0.0065828
0.00493812
0.00383925
0.00319657
0.00265731
0.002303
0.00151662
0.000762803
-0.278672
-0.286697
-0.292155
-0.298241
-0.305115
-0.311726
-0.317446
-0.321673
-0.323628
-0.322692
-0.318075
-0.30903
-0.295009
-0.275785
-0.251568
-0.223052
-0.191396
-0.158094
-0.124777
-0.0931042
-0.064655
-0.0404696
-0.0215174
-0.00851309
-0.00200477
-0.00200428
-0.008547
-0.0211245
-0.0402577
-0.0657433
-0.0968221
-0.130739
-0.161378
-0.179919
-0.179669
-0.159526
-0.127674
-0.0929159
-0.0612972
-0.0353457
-0.0153066
-0.000424534
0.0102332
0.0174647
0.0217191
0.0234094
0.022887
0.0208292
0.0177729
0.0144767
0.0112399
0.00843398
0.00619096
0.00458156
0.0035645
0.00300462
0.00252796
0.00220486
0.00147181
0.00071268
-0.274227
-0.28169
-0.286633
-0.292365
-0.298802
-0.30493
-0.310295
-0.314377
-0.316297
-0.315504
-0.311247
-0.302819
-0.289666
-0.271512
-0.248484
-0.221158
-0.190538
-0.157953
-0.124888
-0.0928741
-0.0633701
-0.0375735
-0.0165644
-0.00125356
0.0075232
0.0087611
0.00281384
-0.0103754
-0.0310491
-0.058584
-0.0916263
-0.127194
-0.159172
-0.178719
-0.179155
-0.160071
-0.129133
-0.0950607
-0.0637916
-0.0378664
-0.0176362
-0.00245515
0.00854007
0.0161414
0.0208126
0.022942
0.0228052
0.0209875
0.0179495
0.0145071
0.0110874
0.00815834
0.00588988
0.00431601
0.00336197
0.00286192
0.00242539
0.00211633
0.00142703
0.000662462
-0.268047
-0.273992
-0.278524
-0.283972
-0.28978
-0.295323
-0.300262
-0.303854
-0.305719
-0.305147
-0.301427
-0.293915
-0.282058
-0.265534
-0.244383
-0.219039
-0.190329
-0.159388
-0.127517
-0.0960986
-0.06649
-0.0399266
-0.017549
-0.000358047
0.0109389
0.0136455
0.00909458
-0.00348568
-0.0242333
-0.0522317
-0.085742
-0.121734
-0.154172
-0.174542
-0.175947
-0.158512
-0.129333
-0.0966815
-0.0662333
-0.04058
-0.0202634
-0.00481458
0.00651168
0.0144692
0.019526
0.0220622
0.022308
0.0207889
0.0178721
0.0144129
0.0109249
0.00794723
0.00567789
0.00413845
0.00322477
0.00275822
0.00234274
0.00203457
0.00138092
0.000614053
-0.259741
-0.26404
-0.268431
-0.273337
-0.278296
-0.28328
-0.287916
-0.291558
-0.293348
-0.293142
-0.290174
-0.283838
-0.273592
-0.259078
-0.240252
-0.217397
-0.19114
-0.162423
-0.132409
-0.102252
-0.0731011
-0.0462115
-0.0228147
-0.0040326
0.0102996
0.0136032
0.0111686
0.000245422
-0.0193717
-0.0466328
-0.0795271
-0.114956
-0.147086
-0.167735
-0.170139
-0.155022
-0.128451
-0.0978787
-0.0686626
-0.0434932
-0.0231791
-0.00748755
0.0041723
0.0124875
0.0179175
0.020845
0.0214652
0.0203171
0.0176044
0.0142385
0.0107783
0.00781048
0.00554602
0.00405664
0.00314401
0.00268466
0.00227437
0.00195776
0.00133288
0.000569249
-0.249454
-0.253491
-0.257227
-0.26076
-0.264654
-0.268928
-0.272874
-0.275818
-0.277371
-0.277562
-0.275446
-0.270564
-0.262323
-0.25032
-0.23443
-0.214768
-0.191728
-0.16599
-0.138479
-0.110274
-0.0825226
-0.0563837
-0.0330086
-0.0136842
-0.000817395
0.00916234
0.00904655
0.000636944
-0.01652
-0.0415255
-0.0723341
-0.105901
-0.136881
-0.156901
-0.161159
-0.148682
-0.125034
-0.096842
-0.0692172
-0.0449601
-0.0250743
-0.00950086
0.00222002
0.0106882
0.0163287
0.0195219
0.0204341
0.0195942
0.0171504
0.0139669
0.0106132
0.00770576
0.00546506
0.00400459
0.00309267
0.00262584
0.0022128
0.00188383
0.00128225
0.00052932
-0.238203
-0.245501
-0.248603
-0.251002
-0.254206
-0.258037
-0.261814
-0.265005
-0.267021
-0.266065
-0.26354
-0.258748
-0.250881
-0.239541
-0.224624
-0.206244
-0.184757
-0.160774
-0.135122
-0.108747
-0.0826532
-0.0579019
-0.0355791
-0.0168421
-0.00318282
0.00561435
0.00653461
-0.000630523
-0.0164835
-0.0402157
-0.0697567
-0.102097
-0.131777
-0.151038
-0.154301
-0.142023
-0.11947
-0.0928617
-0.0668414
-0.0439127
-0.0249749
-0.0100012
0.00138514
0.00969716
0.0153052
0.0185699
0.0196354
0.0191674
0.0166603
0.0136051
0.010354
0.00752
0.00533154
0.00391665
0.00302858
0.00256091
0.00215111
0.00181347
0.00123236
0.000495633
-0.225935
-0.235662
-0.239076
-0.240518
-0.242734
-0.245829
-0.248885
-0.251035
-0.251625
-0.250962
-0.248339
-0.243444
-0.235805
-0.225115
-0.211294
-0.194448
-0.174886
-0.153122
-0.129846
-0.105866
-0.0820614
-0.0593895
-0.0388531
-0.0214924
-0.00860034
-0.000535114
0.00063253
-0.00581925
-0.0203707
-0.0422555
-0.0694562
-0.0989479
-0.12555
-0.142102
-0.144272
-0.132615
-0.111962
-0.0877226
-0.0638965
-0.0426771
-0.0249195
-0.0106843
0.000285843
0.00839573
0.0139478
0.0172578
0.0184507
0.0178111
0.0159158
0.0131004
0.0100417
0.00734503
0.00525452
0.00387245
0.00299254
0.00251068
0.00209568
0.0017429
0.00118141
0.000460603
-0.21339
-0.224361
-0.228115
-0.228991
-0.230329
-0.232624
-0.23498
-0.236518
-0.236837
-0.235811
-0.232978
-0.228073
-0.220804
-0.210928
-0.198352
-0.183153
-0.165578
-0.146044
-0.125126
-0.103519
-0.082007
-0.0614614
-0.0427944
-0.0269209
-0.0149801
-0.00772813
-0.00663148
-0.0124605
-0.0255734
-0.0451984
-0.0693614
-0.0950985
-0.117835
-0.131598
-0.132952
-0.122481
-0.104178
-0.0825313
-0.0609605
-0.0414496
-0.0248679
-0.0113826
-0.000853774
0.00702227
0.0124844
0.0158079
0.0171204
0.0167199
0.0150485
0.012502
0.00968053
0.00715685
0.00517086
0.00383204
0.00295776
0.00245843
0.00203575
0.0016677
0.0011263
0.000424901
-0.201128
-0.212036
-0.216027
-0.21676
-0.217564
-0.219246
-0.221105
-0.222299
-0.222356
-0.221027
-0.218088
-0.21334
-0.206568
-0.197566
-0.186235
-0.172628
-0.156945
-0.139532
-0.120871
-0.101562
-0.0822932
-0.0638373
-0.0469991
-0.0326147
-0.0217149
-0.0151513
-0.013999
-0.0189623
-0.0303048
-0.0472836
-0.0680521
-0.0899055
-0.108954
-0.120394
-0.12133
-0.11226
-0.0963451
-0.0772667
-0.0579401
-0.0401527
-0.0247777
-0.0120773
-0.00202074
0.00559875
0.0109577
0.014292
0.0157275
0.0155493
0.0141137
0.0118503
0.00928316
0.0069464
0.00507198
0.00378035
0.00291478
0.00239971
0.00197032
0.00158985
0.00106899
0.000390653
-0.18854
-0.199158
-0.203407
-0.204243
-0.20479
-0.206049
-0.207527
-0.20843
-0.208243
-0.206747
-0.203834
-0.199355
-0.19313
-0.184988
-0.174844
-0.162735
-0.148827
-0.133406
-0.116879
-0.0997541
-0.0826287
-0.066177
-0.0511173
-0.0382245
-0.0283568
-0.0223472
-0.0210198
-0.0249628
-0.0343583
-0.0485463
-0.0659108
-0.0840903
-0.099756
-0.10919
-0.109913
-0.102265
-0.0886667
-0.072072
-0.0549256
-0.0388314
-0.0246631
-0.0127659
-0.003206
0.0041357
0.00937872
0.0127179
0.0142686
0.0142991
0.0131158
0.0111425
0.00883939
0.00670042
0.00494717
0.00371001
0.00285899
0.00233234
0.00189867
0.00150945
0.0010099
0.0003581
-0.17588
-0.186259
-0.190677
-0.191664
-0.192109
-0.193081
-0.194252
-0.194915
-0.194586
-0.19307
-0.19028
-0.186128
-0.180468
-0.173161
-0.16414
-0.153434
-0.141179
-0.127612
-0.113071
-0.0979854
-0.0828706
-0.0683132
-0.0549471
-0.0434661
-0.0345809
-0.0290342
-0.0274881
-0.0304061
-0.0378984
-0.0493994
-0.0635468
-0.0783188
-0.0909752
-0.0985794
-0.0991719
-0.0928494
-0.0813818
-0.0670807
-0.0519785
-0.0375072
-0.024525
-0.013439
-0.00439482
0.00264943
0.00776119
0.0110942
0.012752
0.0129836
0.0120575
0.0103752
0.00834182
0.00640958
0.0047879
0.00361426
0.00278564
0.00225356
0.0018194
0.00142591
0.000948943
0.000327209
-0.163701
-0.173584
-0.178017
-0.179147
-0.179579
-0.180372
-0.181324
-0.181835
-0.181462
-0.180016
-0.177426
-0.173639
-0.168549
-0.162051
-0.154091
-0.144691
-0.133962
-0.122099
-0.109385
-0.0961824
-0.0829308
-0.0701351
-0.0583459
-0.0481652
-0.0401895
-0.035055
-0.0332945
-0.0352608
-0.0410051
-0.0500453
-0.0612594
-0.0729593
-0.0829706
-0.0889898
-0.0894484
-0.0842506
-0.0746336
-0.0623747
-0.0491432
-0.0361999
-0.0243668
-0.0140893
-0.00557395
0.00115549
0.00612063
0.00943652
0.0111941
0.0116182
0.0109463
0.00955029
0.00778823
0.00606852
0.00458777
0.00348747
0.00269054
0.00216087
0.00173118
0.00133871
0.000886121
0.000297957
-0.151966
-0.161188
-0.165555
-0.166822
-0.167297
-0.168
-0.168821
-0.169257
-0.168908
-0.167591
-0.165249
-0.161852
-0.157331
-0.15161
-0.144645
-0.136452
-0.127121
-0.116815
-0.105769
-0.0942875
-0.082742
-0.0715609
-0.0612179
-0.0522269
-0.0450852
-0.0403252
-0.0383725
-0.0394901
-0.0436871
-0.0505595
-0.0592039
-0.0682211
-0.0759734
-0.080611
-0.080878
-0.0765608
-0.0684901
-0.0580044
-0.0464529
-0.0349264
-0.024192
-0.0147106
-0.00673139
-0.000330922
0.00447361
0.00776151
0.00960902
0.010215
0.00979025
0.0086729
0.00717923
0.00567478
0.00434295
0.00332595
0.00257072
0.00205235
0.00163301
0.00124742
0.000821397
0.000270185
-0.140596
-0.149191
-0.153454
-0.154831
-0.155374
-0.156045
-0.1568
-0.157215
-0.156933
-0.155786
-0.153725
-0.150728
-0.146769
-0.141787
-0.135747
-0.128662
-0.120606
-0.111713
-0.102178
-0.0922563
-0.0822577
-0.072543
-0.0635145
-0.0556046
-0.0492194
-0.044803
-0.0426909
-0.0430769
-0.045947
-0.0509733
-0.057439
-0.064235
-0.0700063
-0.0734287
-0.0734454
-0.0697814
-0.0629695
-0.053995
-0.0439298
-0.0337002
-0.0240043
-0.0152981
-0.00785614
-0.00179509
0.00283603
0.00608421
0.00801006
0.00878582
0.00859804
0.00774929
0.0065178
0.00522859
0.00405201
0.00312775
0.00242424
0.00192656
0.00152403
0.00115151
0.000754611
0.000243579
-0.129777
-0.137732
-0.141828
-0.143277
-0.143892
-0.144565
-0.145295
-0.145724
-0.145538
-0.144585
-0.142824
-0.140239
-0.136815
-0.132526
-0.127343
-0.121271
-0.11437
-0.106752
-0.0985777
-0.0900582
-0.0814513
-0.0730574
-0.0652108
-0.0582682
-0.0525734
-0.0484801
-0.0462505
-0.0460292
-0.0477909
-0.0512677
-0.0559021
-0.0608202
-0.0649726
-0.0673349
-0.0670614
-0.0638623
-0.0580564
-0.0503526
-0.0415874
-0.0325324
-0.0238075
-0.0158479
-0.0089383
-0.0032234
0.00122282
0.00441918
0.00641041
0.00734239
0.00737876
0.00678605
0.0058082
0.00473213
0.00371522
0.00289212
0.00224991
0.00178239
0.00140348
0.00105042
0.000685509
0.000217745
-0.119592
-0.126853
-0.13073
-0.13222
-0.132907
-0.133601
-0.134331
-0.134798
-0.134726
-0.133979
-0.13252
-0.130344
-0.127435
-0.123787
-0.119384
-0.114232
-0.108373
-0.101899
-0.0949418
-0.0876746
-0.0803099
-0.073095
-0.0663007
-0.0601925
-0.0551597
-0.0513756
-0.0490724
-0.0483636
-0.049216
-0.0513993
-0.0545368
-0.0579194
-0.0607345
-0.062184
-0.0616075
-0.0587277
-0.0537165
-0.0470713
-0.0394328
-0.0314315
-0.0236053
-0.0163572
-0.00996933
-0.00460346
-0.000351853
0.00278064
0.00482322
0.00589636
0.00614166
0.00579059
0.00505584
0.00418878
0.00333405
0.00261927
0.00204718
0.00161904
0.00127071
0.000943536
0.000613785
0.000192267
-0.109982
-0.116567
-0.120208
-0.121716
-0.122465
-0.123186
-0.123932
-0.12445
-0.124499
-0.123958
-0.122794
-0.121007
-0.118593
-0.115534
-0.111836
-0.107508
-0.102581
-0.0971269
-0.0912517
-0.0850962
-0.0788335
-0.0726652
-0.066816
-0.0615162
-0.0570275
-0.0535259
-0.0511893
-0.0501043
-0.0502314
-0.0513139
-0.0533201
-0.05544
-0.057149
-0.0578264
-0.0569585
-0.0542932
-0.0499062
-0.0441373
-0.0374679
-0.0304036
-0.0234013
-0.0168243
-0.0109421
-0.00592418
-0.00187479
0.00118213
0.00326122
0.00445914
0.00489626
0.0047708
0.00426683
0.00360285
0.00291088
0.00231016
0.00181602
0.001436
0.00112518
0.000830293
0.000539119
0.000166739
-0.100954
-0.10691
-0.110304
-0.111804
-0.1126
-0.113349
-0.114115
-0.114687
-0.114857
-0.114512
-0.113627
-0.112202
-0.11024
-0.10773
-0.104667
-0.10107
-0.0969685
-0.0924166
-0.0874978
-0.082322
-0.0770302
-0.0717861
-0.0667737
-0.0621845
-0.0581989
-0.054969
-0.0526417
-0.0512867
-0.0508897
-0.0513789
-0.0522015
-0.0532839
-0.0540894
-0.0541276
-0.0529963
-0.050474
-0.0465773
-0.041531
-0.0356901
-0.0294524
-0.0231986
-0.017248
-0.0118508
-0.00717597
-0.00333413
-0.000363818
0.00173657
0.00304187
0.00365224
0.00373498
0.00344791
0.00297937
0.00244888
0.0019664
0.00155692
0.00123309
0.000966519
0.000710162
0.000461198
0.000140791
-0.0925471
-0.0978977
-0.101033
-0.102501
-0.10333
-0.104103
-0.104888
-0.105513
-0.105793
-0.105631
-0.105001
-0.103906
-0.102351
-0.100331
-0.0978431
-0.0948948
-0.0915172
-0.0877586
-0.0836819
-0.0793594
-0.0749165
-0.0704837
-0.0662062
-0.0622349
-0.0586998
-0.0557519
-0.0534762
-0.0519286
-0.0511049
-0.050902
-0.0510503
-0.0513485
-0.0514432
-0.0509682
-0.0496126
-0.0471886
-0.0436795
-0.0392285
-0.0340925
-0.0285791
-0.0229994
-0.0176281
-0.0126911
-0.00835097
-0.00471959
-0.00184588
0.000260631
0.00165529
0.00241928
0.00269168
0.00260629
0.00232396
0.00195191
0.0015902
0.00127085
0.00101044
0.000794523
0.00058271
0.000379742
0.000114111
-0.084742
-0.0895166
-0.0923924
-0.0938139
-0.0946627
-0.0954518
-0.0962533
-0.0969221
-0.0973002
-0.0973003
-0.0968988
-0.0960993
-0.0949063
-0.0933184
-0.0913336
-0.0889584
-0.0862163
-0.0831486
-0.0798234
-0.076223
-0.0725178
-0.0687936
-0.0651605
-0.0617306
-0.058613
-0.0559173
-0.0537243
-0.0520715
-0.0509402
-0.050259
-0.0498651
-0.049569
-0.0491192
-0.0482454
-0.0467104
-0.0443603
-0.0411619
-0.0372026
-0.0326647
-0.0277824
-0.0228052
-0.0179647
-0.0134603
-0.00944312
-0.00602265
-0.00325419
-0.00115626
0.000309498
0.00120691
0.00164961
0.00174957
0.00164279
0.00142442
0.00118439
0.000959292
0.000768568
0.000609237
0.000447647
0.000294536
8.64524e-05
-0.077505
-0.0817508
-0.0843755
-0.0857393
-0.0865953
-0.0873928
-0.0882032
-0.0889066
-0.089367
-0.0895071
-0.089305
-0.0887635
-0.0878873
-0.086676
-0.0851279
-0.0832471
-0.0810474
-0.078553
-0.0757928
-0.0729035
-0.0698606
-0.0667584
-0.0636892
-0.0607421
-0.0580096
-0.0555702
-0.0534799
-0.0517713
-0.0504388
-0.0494286
-0.0486303
-0.047896
-0.0470424
-0.0458711
-0.044204
-0.041918
-0.0389744
-0.0354239
-0.0313935
-0.0270587
-0.0226164
-0.0182583
-0.0141566
-0.0104481
-0.00723665
-0.00458051
-0.00250501
-0.000986162
2.4298e-05
0.000617448
0.000885635
0.000942481
0.000871475
0.000752373
0.000624276
0.000508412
0.00041098
0.000304863
0.000205451
5.76392e-05
-0.0708211
-0.0745841
-0.076968
-0.078265
-0.0791166
-0.0799139
-0.0807255
-0.0814525
-0.0819783
-0.0822351
-0.0822023
-0.0818819
-0.0812781
-0.0803908
-0.0792184
-0.077763
-0.0760348
-0.0740542
-0.0718539
-0.0694875
-0.0669964
-0.0644293
-0.0618509
-0.059333
-0.0569462
-0.0547482
-0.0527842
-0.0510811
-0.0496369
-0.0484131
-0.0473336
-0.0462906
-0.0451512
-0.0437712
-0.0420183
-0.0397966
-0.0370687
-0.0338616
-0.0302629
-0.026402
-0.0224324
-0.0185096
-0.0147795
-0.0113634
-0.00835679
-0.00581833
-0.0037779
-0.00222333
-0.00111991
-0.000396269
2.24714e-05
0.00022999
0.000298628
0.000298119
0.000268357
0.000231354
0.000200388
0.000154458
0.00011247
2.7571e-05
-0.0646698
-0.0679909
-0.0701459
-0.0713704
-0.0722081
-0.0729972
-0.073802
-0.0745415
-0.0751161
-0.0754665
-0.0755737
-0.0754386
-0.0750647
-0.0744518
-0.073598
-0.072504
-0.0711768
-0.0696313
-0.067891
-0.0659887
-0.063962
-0.0618538
-0.0597037
-0.0575656
-0.0554923
-0.0535287
-0.0517098
-0.0500569
-0.0485704
-0.0472245
-0.0459675
-0.0447229
-0.0433961
-0.0418834
-0.0400882
-0.0379377
-0.0353988
-0.0324848
-0.0292553
-0.0258048
-0.0222512
-0.0187189
-0.0153295
-0.0121878
-0.00938007
-0.00696287
-0.00496871
-0.00339474
-0.00221775
-0.00138335
-0.000831936
-0.000487489
-0.000288141
-0.000173877
-0.000105393
-6.07657e-05
-2.15405e-05
-3.21326e-06
1.56947e-05
-3.78504e-06
-0.0590188
-0.0619405
-0.0638815
-0.0650307
-0.0658468
-0.0666205
-0.0674111
-0.0681524
-0.0687601
-0.0691823
-0.0694017
-0.0694181
-0.0692343
-0.0688497
-0.068262
-0.0674705
-0.0664792
-0.0652981
-0.0639432
-0.0624372
-0.0608076
-0.0590863
-0.0573077
-0.0555056
-0.0537188
-0.0519805
-0.0503182
-0.0487492
-0.0472754
-0.0458807
-0.0445303
-0.0431713
-0.0417378
-0.0401566
-0.0383585
-0.0362895
-0.0339225
-0.0312632
-0.0283522
-0.0252579
-0.02207
-0.0188867
-0.0158075
-0.0129217
-0.0103051
-0.00801104
-0.00607269
-0.00449433
-0.00326213
-0.00233607
-0.00166978
-0.00120266
-0.000882545
-0.000658662
-0.000493402
-0.000365663
-0.000253456
-0.000167498
-8.4597e-05
-3.63975e-05
-0.0538382
-0.056402
-0.058145
-0.0592181
-0.0600064
-0.0607584
-0.0615282
-0.0622619
-0.0628882
-0.0633623
-0.0636683
-0.0638054
-0.0637753
-0.063577
-0.0632078
-0.062666
-0.0619529
-0.0610746
-0.0600416
-0.0588692
-0.057577
-0.0561877
-0.0547271
-0.0532197
-0.0516921
-0.0501681
-0.048669
-0.0472085
-0.0457898
-0.0444029
-0.0430253
-0.0416214
-0.0401464
-0.0385497
-0.036783
-0.0348071
-0.0326015
-0.0301683
-0.0275351
-0.0247515
-0.0218852
-0.0190129
-0.0162151
-0.0135662
-0.0111321
-0.0089613
-0.0070866
-0.00551724
-0.00424686
-0.00324736
-0.00248356
-0.00190827
-0.00147811
-0.00115094
-0.000891653
-0.000680579
-0.000493655
-0.000337513
-0.000187956
-7.01368e-05
-0.0491003
-0.0513443
-0.0529052
-0.0539025
-0.0546583
-0.0553836
-0.056127
-0.0568448
-0.0574772
-0.0579856
-0.0583556
-0.0585857
-0.0586768
-0.0586276
-0.0584349
-0.058096
-0.0576106
-0.0569815
-0.0562152
-0.0553214
-0.0543134
-0.0532068
-0.0520199
-0.0507702
-0.0494759
-0.0481538
-0.0468197
-0.0454843
-0.044151
-0.0428142
-0.0414601
-0.0400653
-0.0386002
-0.0370306
-0.0353239
-0.0334527
-0.0314024
-0.0291736
-0.0267859
-0.0242752
-0.0216926
-0.0190974
-0.0165538
-0.0141234
-0.0118622
-0.00981354
-0.00800857
-0.00645991
-0.00516682
-0.0041109
-0.00326629
-0.00259725
-0.00206827
-0.00164516
-0.00129581
-0.00100238
-0.000739986
-0.000512057
-0.000293839
-0.00010482
-0.0447759
-0.0467353
-0.0481297
-0.0490532
-0.0497732
-0.0504681
-0.0511807
-0.0518759
-0.0525039
-0.0530315
-0.0534458
-0.0537449
-0.0539289
-0.0539961
-0.0539432
-0.0537669
-0.0534653
-0.0530391
-0.0524917
-0.0518288
-0.0510584
-0.0501911
-0.049239
-0.0482144
-0.0471294
-0.0459955
-0.044824
-0.0436229
-0.0423956
-0.0411394
-0.039846
-0.0385007
-0.0370846
-0.0355754
-0.0339516
-0.0321952
-0.0302964
-0.0282559
-0.026088
-0.0238192
-0.0214878
-0.0191397
-0.0168258
-0.0145962
-0.0124978
-0.0105688
-0.00883805
-0.00731999
-0.00601795
-0.00492124
-0.0040116
-0.00326291
-0.00264659
-0.00213559
-0.00170118
-0.00132764
-0.000990087
-0.000689543
-0.000401416
-0.00014024
-0.0408366
-0.042544
-0.0437873
-0.0446397
-0.045322
-0.0459837
-0.0466623
-0.0473299
-0.0479449
-0.0484792
-0.0489213
-0.0492689
-0.0495217
-0.0496776
-0.0497333
-0.0496849
-0.0495297
-0.0492667
-0.0488972
-0.0484237
-0.0478508
-0.0471847
-0.0464327
-0.0456046
-0.0447064
-0.0437461
-0.0427314
-0.0416681
-0.0405592
-0.0394037
-0.038197
-0.0369301
-0.0355915
-0.0341672
-0.032644
-0.0310102
-0.0292603
-0.0273956
-0.025427
-0.0233743
-0.0212668
-0.0191398
-0.0170332
-0.0149876
-0.013042
-0.0112294
-0.00957568
-0.00809631
-0.00679728
-0.00567387
-0.00471384
-0.00389902
-0.00320687
-0.00261661
-0.00210295
-0.00165252
-0.00124131
-0.000868408
-0.000509693
-0.000176004
-0.0372563
-0.0387413
-0.039848
-0.0406328
-0.0412765
-0.0419034
-0.0425462
-0.0431824
-0.0437778
-0.0443089
-0.0447653
-0.0451446
-0.045446
-0.0456674
-0.0458052
-0.0458556
-0.0458152
-0.045682
-0.0454554
-0.0451362
-0.0447262
-0.0442287
-0.043648
-0.042989
-0.0422561
-0.0414538
-0.0405873
-0.0396604
-0.0386756
-0.0376326
-0.0365292
-0.03536
-0.0341184
-0.0327961
-0.0313853
-0.0298795
-0.028276
-0.0265767
-0.0247907
-0.022933
-0.0210263
-0.0190976
-0.0171786
-0.0153016
-0.0134988
-0.0117983
-0.0102232
-0.00878888
-0.007503
-0.00636529
-0.0053682
-0.00450001
-0.00374327
-0.00308266
-0.00249635
-0.00197317
-0.00149052
-0.00104662
-0.000617818
-0.000211778
-0.0340109
-0.0353001
-0.0362839
-0.0370051
-0.0376102
-0.0382018
-0.0388077
-0.0394103
-0.0399815
-0.0405016
-0.0409617
-0.0413591
-0.0416927
-0.0419605
-0.0421588
-0.0422838
-0.0423319
-0.0423004
-0.0421875
-0.0419926
-0.0417158
-0.0413582
-0.0409216
-0.0404082
-0.0398207
-0.0391612
-0.0384326
-0.0376372
-0.0367768
-0.0358515
-0.0348602
-0.0338
-0.0326673
-0.0314574
-0.0301663
-0.0287908