/*--------------------------------*- C++ -*----------------------------------*\
| =========                 |                                                 |
| \\      /  F ield         | OpenFOAM: The Open Source CFD Toolbox           |
|  \\    /   O peration     | Version:  2512                                  |
|   \\  /    A nd           | Website:  www.openfoam.com                      |
|    \\/     M anipulation  |                                                 |
\*---------------------------------------------------------------------------*/
FoamFile
{
    version     2.0;
    format      ascii;
    arch        "LSB;label=32;scalar=64";
    class       volScalarField;
    location    "147.25";
    object      p;
}
// * * * * * * * * * * * * * * * * * * * * * * * * * * * * * * * * * * * * * //

dimensions      [0 2 -2 0 0 0 0];

internalField   nonuniform List<scalar> 
13248
(
-0.303736
-0.303058
-0.301296
-0.298646
-0.295267
-0.29124
-0.286629
-0.281514
-0.275988
-0.270164
-0.264169
-0.258139
-0.252204
-0.24648
-0.241055
-0.235979
-0.231264
-0.226879
-0.222759
-0.218841
-0.214956
-0.211137
-0.206699
-0.202157
-0.311395
-0.309754
-0.30724
-0.303999
-0.300141
-0.295744
-0.290859
-0.285531
-0.279813
-0.273774
-0.267496
-0.261074
-0.254602
-0.248166
-0.241835
-0.23565
-0.229628
-0.223762
-0.218024
-0.212369
-0.206713
-0.200995
-0.194962
-0.189051
-0.320712
-0.317936
-0.314518
-0.310557
-0.306103
-0.301225
-0.295944
-0.290252
-0.284144
-0.277636
-0.270768
-0.26361
-0.256245
-0.248769
-0.241267
-0.233816
-0.22647
-0.219268
-0.212218
-0.205314
-0.198492
-0.191744
-0.184879
-0.17827
-0.331659
-0.327607
-0.323167
-0.318383
-0.313225
-0.307733
-0.301874
-0.29557
-0.288753
-0.281398
-0.273534
-0.265246
-0.256656
-0.247903
-0.239123
-0.230435
-0.221928
-0.213657
-0.205645
-0.19788
-0.190323
-0.182961
-0.175656
-0.1688
-0.34426
-0.338819
-0.333278
-0.327597
-0.321626
-0.315341
-0.308636
-0.30136
-0.293405
-0.284753
-0.275479
-0.265736
-0.255717
-0.24562
-0.23562
-0.225854
-0.216409
-0.207329
-0.19862
-0.190264
-0.182222
-0.17447
-0.166917
-0.159834
-0.358529
-0.351614
-0.344929
-0.338288
-0.33136
-0.324022
-0.316085
-0.30736
-0.297765
-0.287362
-0.276332
-0.264929
-0.253415
-0.242024
-0.230935
-0.220264
-0.210068
-0.200364
-0.191137
-0.182353
-0.173971
-0.165953
-0.158237
-0.151005
-0.374371
-0.365938
-0.358086
-0.350403
-0.342298
-0.333525
-0.323851
-0.31313
-0.301398
-0.288872
-0.275874
-0.262747
-0.249789
-0.237225
-0.225196
-0.213773
-0.202974
-0.192781
-0.183157
-0.174058
-0.165435
-0.157241
-0.149435
-0.142096
-0.391511
-0.381564
-0.372531
-0.363663
-0.354048
-0.343338
-0.331348
-0.318092
-0.303822
-0.288951
-0.273925
-0.25913
-0.244848
-0.231251
-0.21842
-0.20637
-0.195077
-0.184495
-0.174567
-0.165238
-0.156452
-0.148158
-0.140322
-0.132932
-0.409438
-0.398045
-0.3878
-0.377517
-0.365944
-0.352716
-0.337841
-0.321622
-0.304585
-0.28732
-0.270343
-0.254021
-0.238571
-0.224087
-0.21058
-0.198012
-0.186321
-0.175437
-0.165288
-0.155807
-0.146931
-0.138606
-0.130793
-0.12341
-0.427386
-0.414673
-0.403149
-0.391121
-0.377057
-0.360738
-0.342533
-0.323118
-0.303285
-0.283742
-0.264995
-0.247337
-0.230889
-0.215659
-0.201595
-0.188611
-0.176616
-0.165517
-0.155228
-0.14567
-0.136773
-0.12848
-0.120732
-0.113408
-0.444355
-0.430478
-0.417548
-0.403356
-0.386253
-0.366372
-0.344578
-0.321944
-0.299462
-0.277865
-0.257582
-0.238795
-0.221522
-0.205693
-0.191195
-0.177906
-0.165709
-0.154492
-0.144156
-0.13461
-0.125776
-0.117588
-0.109956
-0.102766
-0.459196
-0.444356
-0.429862
-0.413049
-0.392387
-0.368578
-0.343079
-0.317324
-0.292415
-0.269025
-0.247458
-0.227765
-0.209862
-0.193602
-0.178824
-0.165372
-0.153104
-0.141894
-0.131629
-0.122209
-0.113552
-0.105578
-0.0981716
-0.0912712
-0.340545
-0.343246
-0.344777
-0.345691
-0.346461
-0.347201
-0.347934
-0.348649
-0.349307
-0.349857
-0.350226
-0.350336
-0.350107
-0.349462
-0.348336
-0.346683
-0.344486
-0.341775
-0.338635
-0.335217
-0.331732
-0.328434
-0.325664
-0.32398
-0.329432
-0.332057
-0.333411
-0.334008
-0.334292
-0.334369
-0.334265
-0.33398
-0.333492
-0.332765
-0.331756
-0.330428
-0.328752
-0.326718
-0.324343
-0.321674
-0.318806
-0.315876
-0.313079
-0.310661
-0.308912
-0.308113
-0.308586
-0.311048
-0.319873
-0.322272
-0.323389
-0.323669
-0.323503
-0.32298
-0.322129
-0.320958
-0.319463
-0.317628
-0.315443
-0.312906
-0.310037
-0.306887
-0.303539
-0.300122
-0.296807
-0.293813
-0.291399
-0.289868
-0.289539
-0.290686
-0.293516
-0.298783
-0.311837
-0.313932
-0.314788
-0.314767
-0.314196
-0.313146
-0.311643
-0.309706
-0.307347
-0.304575
-0.301409
-0.297885
-0.294067
-0.290052
-0.285978
-0.282031
-0.278438
-0.275462
-0.273395
-0.272558
-0.273265
-0.275788
-0.280235
-0.287051
-0.30521
-0.306996
-0.307595
-0.307297
-0.306365
-0.30485
-0.302776
-0.300173
-0.297071
-0.293505
-0.289524
-0.285198
-0.280628
-0.275951
-0.271335
-0.267014
-0.26324
-0.260299
-0.258494
-0.258131
-0.259498
-0.262844
-0.268326
-0.27564
-0.299874
-0.301399
-0.301768
-0.301212
-0.299946
-0.298006
-0.295418
-0.292221
-0.288466
-0.284213
-0.279542
-0.274553
-0.26938
-0.264188
-0.259182
-0.254603
-0.250721
-0.247827
-0.246216
-0.24617
-0.24794
-0.251664
-0.257784
-0.264867
-0.295777
-0.297112
-0.297279
-0.296475
-0.294888
-0.292549
-0.289486
-0.285752
-0.281417
-0.276569
-0.271314
-0.265784
-0.260141
-0.254575
-0.249311
-0.244603
-0.240723
-0.237954
-0.236567
-0.2368
-0.238896
-0.242703
-0.249231
-0.255483
-0.29292
-0.294157
-0.294146
-0.293097
-0.291198
-0.288482
-0.284988
-0.280783
-0.275955
-0.270619
-0.26491
-0.258986
-0.253033
-0.247267
-0.241926
-0.237269
-0.23356
-0.231061
-0.230008
-0.230548
-0.232952
-0.236605
-0.243253
-0.248208
-0.291534
-0.292651
-0.292448
-0.291146
-0.288945
-0.28589
-0.282031
-0.277449
-0.272255
-0.266584
-0.260594
-0.254468
-0.248415
-0.24266
-0.237449
-0.233028
-0.229637
-0.227492
-0.22677
-0.2275
-0.229964
-0.233174
-0.239224
-0.24281
-0.291781
-0.292714
-0.292277
-0.29071
-0.288226
-0.284886
-0.280752
-0.27592
-0.270514
-0.264685
-0.258607
-0.252476
-0.246507
-0.240924
-0.235955
-0.231816
-0.228695
-0.22674
-0.226052
-0.226583
-0.228513
-0.230963
-0.235498
-0.237806
-0.293852
-0.294456
-0.293704
-0.29184
-0.289083
-0.285505
-0.281181
-0.276211
-0.270724
-0.264874
-0.258838
-0.252808
-0.246987
-0.241579
-0.236772
-0.232727
-0.229565
-0.227353
-0.226104
-0.225764
-0.226345
-0.227492
-0.229926
-0.2311
-0.297847
-0.29792
-0.296729
-0.294504
-0.291449
-0.287644
-0.283166
-0.278111
-0.272599
-0.266775
-0.260799
-0.254844
-0.249083
-0.243678
-0.238767
-0.234447
-0.230766
-0.227724
-0.225261
-0.223319
-0.221765
-0.220658
-0.220149
-0.220029
-0.323815
-0.326116
-0.331751
-0.34053
-0.351744
-0.363789
-0.374478
-0.381172
-0.381223
-0.371158
-0.349748
-0.316709
-0.274998
-0.230277
-0.188866
-0.155494
-0.13231
-0.119207
-0.115159
-0.119844
-0.133616
-0.154463
-0.175172
-0.185386
-0.178843
-0.157486
-0.129962
-0.104653
-0.0863228
-0.07617
-0.0730522
-0.076216
-0.0872758
-0.106856
-0.12828
-0.139268
-0.132078
-0.111579
-0.0890191
-0.0717501
-0.0609533
-0.0562735
-0.059139
-0.0683914
-0.0754883
-0.0734555
-0.0650827
-0.0552558
-0.0476812
-0.0437348
-0.04342
-0.0454222
-0.045397
-0.0416874
-0.0374623
-0.0304678
-0.0208723
-0.0166943
-0.0126268
-0.00557491
-0.317323
-0.326742
-0.339549
-0.354977
-0.371878
-0.388396
-0.402196
-0.410632
-0.410858
-0.4
-0.37627
-0.339676
-0.293478
-0.243859
-0.197626
-0.159693
-0.132167
-0.114862
-0.10666
-0.106912
-0.115764
-0.13194
-0.149745
-0.160149
-0.156498
-0.13994
-0.117375
-0.0963222
-0.0815298
-0.0744041
-0.073914
-0.0796767
-0.093694
-0.116307
-0.139993
-0.151464
-0.142742
-0.11953
-0.0938956
-0.0736834
-0.0604353
-0.0534542
-0.0538748
-0.0607856
-0.0663594
-0.0648841
-0.0583371
-0.0512255
-0.0459063
-0.044382
-0.0464463
-0.0500309
-0.0507482
-0.0458279
-0.0405634
-0.031903
-0.0205989
-0.0152255
-0.0102164
-0.00439545
-0.310143
-0.324893
-0.34246
-0.36222
-0.38274
-0.402018
-0.417686
-0.427185
-0.427797
-0.416625
-0.391707
-0.353113
-0.304276
-0.251672
-0.202357
-0.161333
-0.130581
-0.109778
-0.0977382
-0.0936064
-0.0974432
-0.108664
-0.123125
-0.133224
-0.132405
-0.120529
-0.102915
-0.086232
-0.0751436
-0.0711728
-0.0733744
-0.08172
-0.098486
-0.123764
-0.149455
-0.161542
-0.151682
-0.126211
-0.0978914
-0.0750285
-0.0595404
-0.0504751
-0.0486459
-0.0533632
-0.0574909
-0.0564825
-0.0515549
-0.0469853
-0.0438571
-0.0448612
-0.0494519
-0.0546744
-0.0560618
-0.0498015
-0.0434354
-0.0332078
-0.0202915
-0.0137717
-0.00785293
-0.003248
-0.301646
-0.31956
-0.33973
-0.361751
-0.384121
-0.404765
-0.421433
-0.431567
-0.432509
-0.421383
-0.396197
-0.357058
-0.307464
-0.25392
-0.203444
-0.160891
-0.128084
-0.104647
-0.0893882
-0.0813515
-0.0803917
-0.0865185
-0.0971256
-0.106198
-0.107774
-0.0999986
-0.0871127
-0.0747298
-0.0673201
-0.0664302
-0.071195
-0.0818928
-0.101023
-0.128601
-0.156172
-0.169125
-0.15863
-0.131448
-0.100923
-0.0757998
-0.058347
-0.0474548
-0.0436336
-0.0463569
-0.0491132
-0.0484138
-0.044858
-0.0426028
-0.0415471
-0.0451297
-0.0523577
-0.0592712
-0.0612705
-0.0535605
-0.0460403
-0.0343552
-0.0199485
-0.0123509
-0.00555657
-0.00214111
-0.291702
-0.311034
-0.332066
-0.354707
-0.377488
-0.398266
-0.415289
-0.42561
-0.426648
-0.415735
-0.390977
-0.352559
-0.304006
-0.25158
-0.201829
-0.159192
-0.125358
-0.100052
-0.0822002
-0.0708474
-0.0656793
-0.0668773
-0.0732526
-0.0804671
-0.0833438
-0.0789995
-0.0705079
-0.062157
-0.0581791
-0.0601124
-0.0671804
-0.0798837
-0.10094
-0.130436
-0.159749
-0.17384
-0.163369
-0.135151
-0.10298
-0.076049
-0.0569462
-0.0444993
-0.0389567
-0.0399177
-0.0414019
-0.0408573
-0.0383697
-0.0381424
-0.0389831
-0.0451373
-0.0550697
-0.0637176
-0.0662852
-0.0570504
-0.048342
-0.0353213
-0.0195687
-0.0109786
-0.00334507
-0.0010826
-0.281271
-0.30065
-0.321119
-0.34312
-0.365272
-0.385409
-0.401249
-0.41135
-0.412196
-0.40157
-0.37777
-0.341185
-0.295268
-0.245731
-0.19832
-0.156877
-0.122937
-0.0964405
-0.0765757
-0.0624873
-0.0537681
-0.0505806
-0.0526296
-0.0572583
-0.0602468
-0.0584615
-0.0537484
-0.0489117
-0.0479255
-0.0523084
-0.0613504
-0.0756703
-0.0981447
-0.129075
-0.159955
-0.175455
-0.165766
-0.137272
-0.104068
-0.0758191
-0.0554048
-0.0416774
-0.0346798
-0.0341305
-0.0344755
-0.0339447
-0.0322047
-0.0336636
-0.0361768
-0.0448306
-0.0574767
-0.0678978
-0.0710035
-0.0602195
-0.0503114
-0.036082
-0.0191477
-0.00966709
-0.00123328
-7.75737e-05
-0.271685
-0.289865
-0.308464
-0.328804
-0.349523
-0.36812
-0.382582
-0.391035
-0.391198
-0.380864
-0.358547
-0.324844
-0.282918
-0.237644
-0.193776
-0.154499
-0.121215
-0.0941146
-0.0727494
-0.0564677
-0.0448412
-0.0379331
-0.0359029
-0.0374985
-0.0397007
-0.0393931
-0.0375335
-0.0355107
-0.0369457
-0.0433092
-0.0539217
-0.0693946
-0.0926998
-0.124527
-0.156757
-0.173901
-0.165755
-0.137784
-0.104202
-0.0751399
-0.0537667
-0.0390278
-0.0308259
-0.0290086
-0.0283803
-0.027761
-0.0264592
-0.0292297
-0.0331499
-0.0441546
-0.0594632
-0.0716942
-0.0753194
-0.0630165
-0.0519259
-0.0366202
-0.0186811
-0.00842202
0.000767978
0.000871547
-0.263432
-0.279038
-0.294637
-0.312583
-0.332693
-0.346444
-0.359035
-0.365837
-0.365327
-0.355496
-0.335296
-0.30541
-0.268471
-0.228343
-0.188747
-0.152274
-0.120237
-0.0930636
-0.0706798
-0.0527203
-0.0388084
-0.0289015
-0.023291
-0.0217002
-0.0224287
-0.0233996
-0.0225002
-0.0225148
-0.0257276
-0.0335024
-0.0452025
-0.0613538
-0.0849219
-0.117043
-0.150336
-0.169342
-0.163347
-0.136689
-0.103407
-0.074034
-0.0520614
-0.0365736
-0.0273989
-0.0245345
-0.0230991
-0.0223378
-0.0212111
-0.0249048
-0.0299367
-0.043063
-0.060921
-0.0749847
-0.0791313
-0.0654039
-0.0531707
-0.0369336
-0.0181742
-0.00725017
0.00265297
0.00176476
-0.255542
-0.267119
-0.278944
-0.292807
-0.30572
-0.321236
-0.331716
-0.337181
-0.336285
-0.327462
-0.31007
-0.284675
-0.253238
-0.218594
-0.183535
-0.150171
-0.119783
-0.0930081
-0.070078
-0.0509302
-0.0353167
-0.0231199
-0.0145826
-0.00993504
-0.00852495
-0.00878989
-0.00895918
-0.0104141
-0.0147416
-0.0233094
-0.035569
-0.0518773
-0.0751767
-0.107143
-0.141175
-0.162077
-0.158742
-0.134127
-0.101824
-0.0726359
-0.0504081
-0.0344021
-0.0244291
-0.0207024
-0.018612
-0.0176763
-0.0165044
-0.0207536
-0.0265763
-0.0415121
-0.0617606
-0.0776517
-0.0823514
-0.0673665
-0.0540462
-0.0370327
-0.0176471
-0.00617757
0.00441471
0.0026049
-0.246309
-0.253296
-0.262373
-0.274256
-0.284684
-0.295177
-0.30315
-0.307534
-0.306643
-0.299421
-0.285344
-0.264705
-0.238782
-0.209502
-0.178908
-0.148739
-0.12026
-0.094271
-0.0712187
-0.051283
-0.0344019
-0.0204564
-0.0095882
-0.002183
0.00172651
0.00293738
0.00261503
0.000463065
-0.00432297
-0.0131157
-0.0254405
-0.0415545
-0.0642434
-0.0954518
-0.12978
-0.152513
-0.152228
-0.130373
-0.0997645
-0.0712406
-0.049048
-0.0326911
-0.0219874
-0.0174863
-0.0148944
-0.0138157
-0.0123535
-0.016808
-0.0231317
-0.0395073
-0.0618933
-0.0795933
-0.0848983
-0.0688917
-0.0545655
-0.0369112
-0.0171043
-0.005231
0.00603489
0.00339592
-0.234973
-0.238755
-0.24569
-0.253116
-0.261252
-0.26904
-0.275589
-0.27925
-0.278886
-0.273685
-0.263089
-0.247115
-0.226444
-0.202264
-0.176002
-0.149061
-0.122647
-0.0976769
-0.0747716
-0.0543035
-0.0364113
-0.021069
-0.00833392
0.00147221
0.00799141
0.0112237
0.0118274
0.00985513
0.00521716
-0.00323058
-0.0150425
-0.0304145
-0.0521395
-0.0828092
-0.117365
-0.141004
-0.143937
-0.125131
-0.0969887
-0.0696091
-0.04775
-0.0312589
-0.0199331
-0.0146746
-0.0116979
-0.0106826
-0.00883391
-0.0131827
-0.0196049
-0.0369434
-0.0613287
-0.0807808
-0.0866122
-0.069886
-0.0547052
-0.0364856
-0.0164771
-0.00435636
0.00751063
0.00413991
-0.222202
-0.225976
-0.230531
-0.234435
-0.239148
-0.244349
-0.248834
-0.251459
-0.251306
-0.247608
-0.23981
-0.227698
-0.211476
-0.191763
-0.169489
-0.145749
-0.121643
-0.0981301
-0.075955
-0.0556289
-0.0374336
-0.0214933
-0.00786193
0.00337214
0.0119511
0.0172541
0.0189272
0.017914
0.0134649
0.00564824
-0.00537507
-0.019889
-0.0403315
-0.0694669
-0.103013
-0.12717
-0.131783
-0.116849
-0.0916742
-0.0658977
-0.0449192
-0.028859
-0.0174811
-0.0117761
-0.00850255
-0.00762858
-0.00615473
-0.00989986
-0.0163217
-0.034037
-0.0599047
-0.0810446
-0.0874951
-0.0701438
-0.0543361
-0.0356171
-0.0156333
-0.00340638
0.00893004
0.00485084
-0.210378
-0.218703
-0.221877
-0.223647
-0.226126
-0.229409
-0.232646
-0.234277
-0.233326
-0.229186
-0.221436
-0.209913
-0.194794
-0.176595
-0.156101
-0.134245
-0.111969
-0.0901063
-0.0693042
-0.0500151
-0.0325014
-0.0169043
-0.00330243
0.0082345
0.0175672
0.0241371
0.0272649
0.0271762
0.0231707
0.0163842
0.00679529
-0.00647317
-0.0265442
-0.0571657
-0.0937669
-0.120883
-0.126895
-0.110115
-0.0851242
-0.0603723
-0.0405195
-0.0252877
-0.0144268
-0.00885057
-0.00545487
-0.00430392
-0.00212871
-0.0055015
-0.0117335
-0.0299599
-0.0579255
-0.0813238
-0.0888838
-0.070215
-0.0535358
-0.0344948
-0.0146713
-0.00241044
0.0102902
0.00551421
-0.196802
-0.20744
-0.210254
-0.210126
-0.2107
-0.212519
-0.214341
-0.214738
-0.212809
-0.20811
-0.200406
-0.189624
-0.175906
-0.159637
-0.141409
-0.12194
-0.101974
-0.0821879
-0.063136
-0.0452342
-0.0287464
-0.0138568
-0.000663227
0.0108175
0.0205011
0.0277502
0.0312505
0.0321037
0.0292938
0.0238548
0.0158289
0.00388004
-0.0157001
-0.0471026
-0.0847221
-0.111512
-0.115931
-0.0999136
-0.0767095
-0.0541162
-0.0360113
-0.0220144
-0.0117803
-0.00629265
-0.00291531
-0.00178972
0.000440691
-0.00256057
-0.00829169
-0.0265645
-0.0558913
-0.0806481
-0.0887929
-0.069418
-0.0519833
-0.0329917
-0.0136086
-0.00143315
0.0113302
0.00598676
-0.182355
-0.19387
-0.196764
-0.195861
-0.195253
-0.195743
-0.196362
-0.195841
-0.193342
-0.188515
-0.181235
-0.171463
-0.159269
-0.144893
-0.128754
-0.111397
-0.0934244
-0.0754141
-0.0578619
-0.0411643
-0.0255941
-0.0113467
0.00144666
0.0127121
0.0224047
0.0301157
0.0355309
0.0361262
0.034117
0.0297616
0.0228405
0.0115676
-0.00798559
-0.0389402
-0.074691
-0.0994977
-0.103277
-0.0888625
-0.0681098
-0.0478798
-0.0315234
-0.0187503
-0.00918211
-0.00387287
-0.000531705
0.000543449
0.00284908
-0.000129373
-0.00573274
-0.0239763
-0.0537279
-0.0787997
-0.0874949
-0.0679445
-0.0499315
-0.0312023
-0.0124357
-0.000459017
0.0121959
0.00636102
-0.168335
-0.179513
-0.182584
-0.181453
-0.180048
-0.179582
-0.179378
-0.178287
-0.17552
-0.170762
-0.163937
-0.155034
-0.144096
-0.131287
-0.116913
-0.101403
-0.0852422
-0.068912
-0.0528364
-0.0373715
-0.0227813
-0.00926463
0.00302978
0.0139655
0.0235005
0.031371
0.0369866
0.0388174
0.0379417
0.0348415
0.0291016
0.0185251
-0.000741035
-0.0304097
-0.0638227
-0.0865971
-0.089771
-0.0771563
-0.0591362
-0.0414401
-0.0269295
-0.0154642
-0.00664575
-0.00159005
0.00172157
0.00279626
0.00517147
0.00218744
-0.00338526
-0.021322
-0.0507525
-0.0758044
-0.0851114
-0.0657744
-0.0474266
-0.0290936
-0.0111303
0.000496752
0.0128933
0.00665675
-0.15421
-0.164858
-0.16807
-0.16697
-0.165208
-0.16416
-0.163395
-0.161927
-0.159033
-0.154424
-0.148051
-0.139935
-0.130119
-0.118718
-0.105952
-0.0921395
-0.0776599
-0.0629054
-0.0482372
-0.0339752
-0.020374
-0.00763755
0.00408051
0.014607
0.0238626
0.0316334
0.0373783
0.0401473
0.0404066
0.038641
0.0343375
0.0249131
0.0064305
-0.0217795
-0.0526508
-0.0728307
-0.0754983
-0.0650274
-0.0500394
-0.035002
-0.0223559
-0.0122079
-0.00418705
0.00055511
0.00383892
0.00494058
0.00731593
0.00443572
-0.000946533
-0.0181055
-0.0467699
-0.0716161
-0.0814187
-0.0628041
-0.0444449
-0.0266745
-0.00969211
0.00141853
0.0134003
0.00685917
-0.140146
-0.150357
-0.153636
-0.152668
-0.150804
-0.149434
-0.148309
-0.146614
-0.143713
-0.13934
-0.133458
-0.126104
-0.117323
-0.107193
-0.0958674
-0.0835808
-0.0706294
-0.0573346
-0.0440042
-0.0309217
-0.0183238
-0.00641319
0.00465392
0.0146895
0.0235795
0.0311268
0.0368999
0.0402501
0.0413918
0.0407481
0.0377647
0.0296072
0.0123324
-0.0137237
-0.0411148
-0.0583707
-0.0609742
-0.0529655
-0.0410982
-0.0287027
-0.0178777
-0.00901456
-0.00181573
0.00256261
0.00580535
0.00697013
0.00930215
0.00661434
0.00160124
-0.0143738
-0.0418424
-0.0661033
-0.076303
-0.0589704
-0.0410031
-0.0239764
-0.00812461
0.00229418
0.0136963
0.00695212
-0.126757
-0.13629
-0.139513
-0.138714
-0.136893
-0.13539
-0.134084
-0.132305
-0.129503
-0.125433
-0.120066
-0.113442
-0.105605
-0.0966149
-0.0865782
-0.0756694
-0.0641183
-0.0521855
-0.0401291
-0.028197
-0.0166048
-0.00554991
0.00481021
0.0142873
0.0227481
0.0299976
0.0356872
0.0393471
0.0410615
0.0411298
0.0389827
0.0319217
0.0165459
-0.00614622
-0.02933
-0.0437739
-0.0469118
-0.0414658
-0.0325771
-0.0226808
-0.0135802
-0.00592673
0.000456038
0.00443969
0.00761912
0.00889462
0.0111549
0.00871938
0.00417169
-0.0102972
-0.0360027
-0.0592485
-0.0697761
-0.054257
-0.0371426
-0.02105
-0.00644117
0.00311713
0.0137703
0.00692783
-0.114022
-0.122721
-0.125839
-0.125243
-0.123568
-0.12207
-0.120718
-0.118964
-0.116332
-0.112605
-0.107755
-0.101823
-0.0948554
-0.0868969
-0.0780251
-0.0683683
-0.0581028
-0.0474376
-0.0365879
-0.025769
-0.0151748
-0.00499293
0.00462128
0.013486
0.021461
0.0283544
0.033865
0.0376464
0.0396825
0.0401166
0.0384026
0.0323885
0.0195561
0.000928602
-0.018048
-0.0303535
-0.0340904
-0.0309839
-0.0247115
-0.0170525
-0.00953361
-0.00298595
0.00261583
0.0061992
0.00929003
0.0107247
0.0128988
0.0107582
0.00673587
-0.00592748
-0.0293266
-0.0512084
-0.0619688
-0.0486991
-0.0329274
-0.0179658
-0.00466632
0.00389008
0.0136244
0.00678821
-0.101829
-0.109784
-0.112795
-0.112398
-0.110911
-0.1095
-0.108192
-0.106536
-0.104122
-0.100758
-0.0964195
-0.0911475
-0.0849839
-0.0779666
-0.0701516
-0.0616334
-0.0525468
-0.043059
-0.0333485
-0.0236004
-0.0139875
-0.00468366
0.0041609
0.0123739
0.019817
0.0263144
0.0315603
0.0353273
0.0375217
0.0381589
0.0367592
0.0318248
0.0216335
0.00693469
-0.00828527
-0.0188137
-0.0230633
-0.0218195
-0.0176611
-0.0119007
-0.00579053
-0.000233049
0.00464739
0.0078493
0.0108317
0.0124688
0.014574
0.0127801
0.00935605
-0.00128473
-0.0220219
-0.0422857
-0.0531412
-0.0424091
-0.0284444
-0.0148082
-0.00283534
0.00462901
0.0132788
0.00654778
-0.0903962
-0.097631
-0.100488
-0.100253
-0.0989661
-0.0976877
-0.0964807
-0.0949714
-0.0928058
-0.0898143
-0.0859758
-0.0813279
-0.0759096
-0.0697526
-0.0628982
-0.0554167
-0.0474114
-0.0390155
-0.0303763
-0.0216515
-0.0129937
-0.00456078
0.00350436
0.0110402
0.0179152
0.0240042
0.0289019
0.0325632
0.0348181
0.0356002
0.0345114
0.0305788
0.0226754
0.0113245
-0.000699206
-0.00962206
-0.0140219
-0.0140711
-0.0115011
-0.00727642
-0.00238634
0.0022961
0.00653162
0.00938799
0.0122508
0.0141228
0.016238
0.0148762
0.0121117
0.00354283
-0.0144196
-0.0329146
-0.0436873
-0.035582
-0.0237988
-0.0116691
-0.000992619
0.00536907
0.0127758
0.0062368
-0.079814
-0.0862762
-0.0889305
-0.0888367
-0.0877571
-0.0866395
-0.0855675
-0.0842324
-0.0823295
-0.079709
-0.0763509
-0.0722891
-0.0675595
-0.0621891
-0.0562092
-0.0496723
-0.0426578
-0.0352716
-0.0276346
-0.0198804
-0.0121423
-0.00456176
0.00272711
0.00957193
0.0158357
0.0213328
0.0260022
0.029517
0.031766
0.0326514
0.03186
0.0287831
0.0227209
0.0140764
0.00472685
-0.00267144
-0.00686226
-0.00768824
-0.00623831
-0.00320417
0.000657921
0.00457394
0.00824859
0.0108076
0.013544
0.0156553
0.0179175
0.0171219
0.0150529
0.008405
-0.0069478
-0.0236246
-0.0341097
-0.0285002
-0.0191115
-0.00863575
0.000808986
0.00616103
0.0121829
0.00590364
-0.0699676
-0.0757031
-0.078158
-0.0781886
-0.0773096
-0.076361
-0.0754385
-0.0742881
-0.0726484
-0.0703863
-0.0674823
-0.0639661
-0.0598703
-0.0552181
-0.0500337
-0.0443564
-0.0382476
-0.0317912
-0.0250862
-0.0182452
-0.0113832
-0.00462595
0.0019041
0.00806771
0.0137326
0.0187291
0.0230385
0.0263481
0.0285373
0.0294939
0.028983
0.0266329
0.0220422
0.0155465
0.00838244
0.00239533
-0.00134373
-0.0025421
-0.00183372
0.00031253
0.00333277
0.00658429
0.00977756
0.0120984
0.0147032
0.0170098
0.019546
0.0194835
0.0181428
0.0130812
-8.73115e-05
-0.0149793
-0.0249259
-0.0214854
-0.0145118
-0.00578297
0.0025113
0.00704957
0.0115812
0.00561357
-0.0608544
-0.0659425
-0.0682016
-0.0683304
-0.0676306
-0.066844
-0.0660723
-0.0651061
-0.06372
-0.0617962
-0.0593152
-0.0563024
-0.0527866
-0.0487879
-0.0443252
-0.0394281
-0.034144
-0.0285395
-0.0226957
-0.0167063
-0.0106702
-0.00469756
0.00110288
0.00660756
0.0116963
0.0162289
0.0201344
0.0231992
0.025294
0.0263046
0.0260579
0.024334
0.0209255
0.0161117
0.010707
0.00598948
0.00282057
0.00152566
0.00177861
0.0032864
0.0056371
0.00832342
0.0111002
0.01324
0.0157141
0.0181372
0.020967
0.0217098
0.0210846
0.017191
0.00572875
-0.00741665
-0.0165721
-0.0148661
-0.0101342
-0.00316869
0.00405576
0.00804589
0.0110379
0.00542888
-0.0525174
-0.0569931
-0.0590446
-0.0592466
-0.0587038
-0.058069
-0.0574432
-0.0566532
-0.0555049
-0.0538942
-0.0518018
-0.0492487
-0.0462599
-0.0428527
-0.0390419
-0.0348498
-0.0303132
-0.0254849
-0.0204308
-0.0152289
-0.00996303
-0.00472814
0.0003798
0.0052537
0.00978858
0.0138637
0.0173791
0.0201877
0.0221712
0.0232236
0.0232204
0.0220353
0.019578
0.0160806
0.0120826
0.00846784
0.00589035
0.00467419
0.0046791
0.00574473
0.00757711
0.00979484
0.012206
0.0142021
0.0165431
0.0190042
0.0220111
0.0234103
0.0233246
0.0202346
0.0102395
-0.00114813
-0.00933396
-0.00893598
-0.00610937
-0.000833083
0.00538472
0.00909595
0.0105899
0.00537491
-0.0449053
-0.0488097
-0.0506581
-0.0509113
-0.0505038
-0.0500105
-0.0495236
-0.0488971
-0.0479663
-0.0466401
-0.0448997
-0.0427618
-0.0402478
-0.0373723
-0.0341468
-0.0305884
-0.0267253
-0.0225995
-0.0182641
-0.0137835
-0.00922855
-0.00467904
-0.000218804
0.00405983
0.0080657
0.0116934
0.0148415
0.0174
0.0192669
0.0203502
0.0205634
0.0198369
0.0181436
0.0156752
0.0127943
0.0101051
0.00809305
0.00705282
0.00695248
0.0077256
0.00916619
0.0110037
0.0130914
0.0149586
0.017147
0.0195573
0.0225368
0.0242651
0.024417
0.0218895
0.0134047
0.00377445
-0.00337707
-0.00389856
-0.00254671
0.00120557
0.00644692
0.0100538
0.010233
0.00541456
-0.0379565
-0.041351
-0.043009
-0.0432988
-0.0430127
-0.042644
-0.0422811
-0.0418026
-0.0410671
-0.0399953
-0.0385695
-0.0368027
-0.0347125
-0.0323112
-0.0296078
-0.026615
-0.0233548
-0.0198599
-0.0161732
-0.0123473
-0.0084409
-0.00452145
-0.000659832
0.00306399
0.00657076
0.00977265
0.0125787
0.0148979
0.0166468
0.0177499
0.0181466
0.0177995
0.0167181
0.0150515
0.0130477
0.0111184
0.00961617
0.00879753
0.00868421
0.00927426
0.0104244
0.011957
0.0137574
0.0154918
0.0174968
0.0197562
0.0224951
0.0242206
0.0243665
0.0222465
0.0153432
0.00739245
0.00126525
0.000151317
0.000479386
0.00295048
0.00721256
0.0107088
0.00991112
0.00545215
-0.0316489
-0.0345898
-0.0360688
-0.036385
-0.0362044
-0.0359408
-0.0356839
-0.0353344
-0.0347708
-0.0339231
-0.0327747
-0.0313357
-0.0296203
-0.0276383
-0.0253969
-0.0229054
-0.0201805
-0.0172478
-0.0141415
-0.0109039
-0.00758389
-0.004237
-0.000922865
0.00229004
0.00533516
0.00813962
0.0106266
0.0127197
0.0143508
0.0154581
0.0160018
0.0159622
0.0153609
0.0143109
0.0129945
0.0116762
0.010615
0.0100266
0.00995564
0.0104392
0.0113767
0.0126655
0.0142112
0.0157958
0.0175877
0.0196123
0.0219736
0.0234825
0.0235146
0.0216852
0.0162698
0.00984943
0.00468911
0.00322934
0.00293165
0.00440509
0.00767994
0.0108975
0.00952404
0.00536231
-0.0259472
-0.0284815
-0.0297947
-0.030126
-0.030027
-0.0298537
-0.0296895
-0.0294539
-0.0290409
-0.0283885
-0.0274818
-0.0263288
-0.0249412
-0.0233267
-0.0214906
-0.0194396
-0.0171861
-0.0147499
-0.0121583
-0.00944498
-0.00664942
-0.00381744
-0.000998334
0.00175184
0.00437578
0.00681135
0.00900133
0.0108828
0.0123955
0.01349
0.014143
0.0143402
0.0141064
0.0135288
0.0127425
0.0119042
0.0112124
0.010843
0.0108427
0.0112695
0.0120529
0.0131458
0.0144641
0.0158801
0.0174391
0.019182
0.0210656
0.0223037
0.0222254
0.0206151
0.0164538
0.0113655
0.00708607
0.00545018
0.00481614
0.00555893
0.00785953
0.0105948
0.00897364
0.00504768
-0.0208017
-0.0229771
-0.0241387
-0.0244765
-0.0244504
-0.0243593
-0.0242704
-0.0241267
-0.0238403
-0.0233557
-0.0226576
-0.0217518
-0.0206481
-0.0193524
-0.0178685
-0.0162011
-0.0143594
-0.0123582
-0.0102187
-0.00796767
-0.00563669
-0.00326268
-0.000885782
0.00144781
0.00369009
0.00579132
0.00771169
0.00938748
0.0107795
0.0118448
0.0125676
0.012938
0.0129801
0.0127546
0.0123402
0.0118921
0.0115075
0.0113341
0.0114138
0.0118141
0.0124858
0.0134185
0.0145333
0.0157694
0.0170928
0.0185391
0.0199556
0.0209083
0.0207556
0.0193337
0.0161566
0.0121729
0.00867175
0.00697872
0.00617516
0.00640349
0.00779042
0.00988304
0.00817529
0.00449852
-0.0161702
-0.0180326
-0.0190582
-0.0193974
-0.0194297
-0.0194046
-0.0193823
-0.0193147
-0.0191332
-0.0187905
-0.0182704
-0.0175764
-0.016716
-0.0156942
-0.0145137
-0.0131774
-0.0116918
-0.010068
-0.00832222
-0.00647527
-0.00455201
-0.00258183
-0.000596794
0.00136629
0.00326892
0.00506831
0.00673157
0.00821339
0.00948556
0.0105073
0.0112652
0.011754
0.0119935
0.0120259
0.0119018
0.0117314
0.0115854
0.0115745
0.0117303
0.0121203
0.0127083
0.0135078
0.0144434
0.0154984
0.0165944
0.0177562
0.0188059
0.0194642
0.0192592
0.0180156
0.0155831
0.0124738
0.00963698
0.00797098
0.00707424
0.0069476
0.00754288
0.00893313
0.00718702
0.00380208
-0.0120156
-0.0136054
-0.0145091
-0.0148449
-0.0149241
-0.0149541
-0.0149864
-0.0149819
-0.0148859
-0.0146605
-0.0142903
-0.0137756
-0.0131221
-0.0123335
-0.0114116
-0.0103584
-0.00917802
-0.00787862
-0.00647249
-0.00497542
-0.00340676
-0.00178917
-0.000148002
0.00148724
0.00308738
0.00461762
0.00604684
0.0073467
0.00848947
0.00945198
0.0102164
0.0107769
0.0111485
0.0113562
0.0114436
0.0114782
0.0115117
0.0116272
0.0118466
0.0122321
0.0127542
0.0134408
0.0142207
0.0151023
0.0159886
0.0168908
0.0176474
0.0180615
0.0178222
0.0167476
0.0148653
0.012428
0.0101372
0.00855591
0.00759559
0.00722219
0.00719232
0.00790911
0.0062046
0.00309622
-0.00829856
-0.00965187
-0.0104472
-0.0107764
-0.0108929
-0.0109681
-0.011046
-0.011095
-0.0110678
-0.0109366
-0.0106893
-0.0103245
-0.00984494
-0.0092529
-0.00854958
-0.00773595
-0.00681485
-0.00579189
-0.00467607
-0.00347924
-0.00221604
-0.000903852
0.000437723
0.00178595
0.0031179
0.00440671
0.00562895
0.00675769
0.00777515
0.00865645
0.00939864
0.00999243
0.0104427
0.0107683
0.0109964
0.0111745
0.0113362
0.0115436
0.0118103
0.01219
0.0126576
0.0132468
0.013892
0.0146136
0.015314
0.0159925
0.0165187
0.0167461
0.0164857
0.0155626
0.0140845
0.0121558
0.0102962
0.00883203
0.00782317
0.00727558
0.00679621
0.00692257
0.0053011
0.00248053
-0.00498151
-0.00613154
-0.00683144
-0.00715187
-0.00729756
-0.00740872
-0.00752277
-0.00761496
-0.00764664
-0.00759153
-0.00744271
-0.00719989
-0.0068643
-0.00643633
-0.00591611
-0.00530373
-0.00460084
-0.00381119
-0.00294129
-0.00199986
-0.000997731
5.20656e-05
0.00113469
0.00223291
0.00332919
0.00440288
0.00543573
0.00640646
0.00730086
0.0081017
0.00880041
0.00938938
0.00987486
0.0102665
0.0105815
0.0108518
0.0110981
0.011366
0.0116622
0.0120312
0.0124507
0.0129544
0.0134842
0.0140626
0.0146034
0.0150985
0.0154471
0.0155372
0.015264
0.014471
0.01329
0.0117412
0.0102092
0.00886699
0.00781291
0.00716182
0.00639098
0.00604348
0.00450668
0.00198657
-0.00203086
-0.00300693
-0.00362323
-0.00393336
-0.00410125
-0.00424057
-0.00438274
-0.00450862
-0.00458711
-0.0045964
-0.00452739
-0.00438103
-0.0041622
-0.00386934
-0.0035011
-0.00305622
-0.00253542
-0.00194114
-0.00127781
-0.000551703
0.000229144
0.00105518
0.00191553
0.00279737
0.00368741
0.00457001
0.00543105
0.00625439
0.00702847
0.00773921
0.00837972
0.00894336
0.00943203
0.00985139
0.0102111
0.0105325
0.0108274
0.0111283
0.0114371
0.0117891
0.0121636
0.0125909
0.0130223
0.0134768
0.0138843
0.0142324
0.0144461
0.014438
0.0141581
0.0134735
0.0125091
0.0112438
0.00995598
0.00875457
0.00769921
0.00693814
0.00599825
0.00530366
0.00383934
0.00160867
0.000584964
-0.000242833
-0.000786204
-0.00108518
-0.00126955
-0.00143053
-0.00159411
-0.00174563
-0.00186038
-0.00192074
-0.00191923
-0.00185484
-0.00172771
-0.00154233
-0.00129659
-0.000988796
-0.000618364
-0.000186278
0.000304809
0.000850562
0.00144522
0.00208194
0.00275284
0.00344851
0.00415918
0.00487324
0.00557997
0.00626691
0.00692476
0.00754268
0.00811468
0.00863469
0.00910221
0.00951982
0.009892
0.0102325
0.0105469
0.0108581
0.0111642
0.011492
0.011823
0.0121816
0.0125293
0.0128794