/*--------------------------------*- C++ -*----------------------------------*\
| =========                 |                                                 |
| \\      /  F ield         | OpenFOAM: The Open Source CFD Toolbox           |
|  \\    /   O peration     | Version:  2512                                  |
|   \\  /    A nd           | Website:  www.openfoam.com                      |
|    \\/     M anipulation  |                                                 |
\*---------------------------------------------------------------------------*/
FoamFile
{
    version     2.0;
    format      ascii;
    arch        "LSB;label=32;scalar=64";
    class       volScalarField;
    location    "16";
    object      p;
}
// * * * * * * * * * * * * * * * * * * * * * * * * * * * * * * * * * * * * * //

dimensions      [0 2 -2 0 0 0 0];

internalField   nonuniform List<scalar> 
13248
(
-0.321798
-0.32023
-0.317975
-0.315226
-0.312222
-0.309199
-0.306346
-0.303794
-0.30162
-0.299847
-0.298447
-0.297348
-0.29644
-0.295588
-0.294643
-0.293454
-0.29188
-0.289804
-0.287125
-0.283812
-0.279722
-0.27503
-0.268879
-0.262193
-0.328814
-0.326646
-0.323796
-0.320472
-0.316909
-0.313354
-0.309983
-0.306902
-0.304152
-0.301713
-0.299514
-0.297445
-0.295372
-0.293152
-0.290651
-0.287753
-0.284368
-0.280439
-0.275936
-0.270848
-0.26515
-0.258863
-0.251773
-0.244645
-0.33748
-0.334484
-0.330902
-0.326929
-0.322764
-0.318637
-0.314695
-0.310994
-0.30752
-0.3042
-0.300927
-0.297572
-0.294013
-0.290144
-0.285888
-0.281202
-0.276075
-0.270522
-0.264568
-0.258251
-0.251558
-0.244562
-0.237117
-0.229784
-0.347907
-0.343862
-0.339417
-0.334716
-0.329881
-0.325101
-0.320464
-0.315953
-0.311491
-0.306964
-0.302258
-0.297275
-0.29195
-0.286258
-0.280208
-0.273839
-0.267204
-0.260357
-0.253344
-0.246195
-0.238912
-0.231543
-0.223982
-0.216787
-0.360132
-0.354849
-0.349427
-0.34392
-0.338322
-0.332746
-0.327195
-0.321573
-0.315756
-0.309633
-0.303136
-0.296252
-0.289014
-0.281492
-0.273775
-0.265952
-0.258095
-0.250257
-0.242468
-0.234737
-0.22706
-0.219451
-0.211848
-0.204629
-0.374122
-0.367456
-0.360974
-0.354583
-0.348086
-0.341482
-0.334682
-0.327534
-0.319918
-0.311794
-0.303207
-0.294263
-0.285101
-0.275865
-0.266679
-0.257637
-0.248795
-0.240178
-0.23179
-0.223617
-0.215643
-0.207855
-0.20021
-0.19297
-0.389742
-0.381602
-0.374006
-0.366634
-0.359028
-0.35105
-0.342542
-0.333364
-0.32349
-0.313026
-0.302168
-0.291141
-0.280159
-0.269389
-0.258946
-0.248891
-0.239246
-0.230002
-0.221135
-0.212613
-0.204405
-0.19648
-0.188812
-0.181533
-0.406703
-0.397066
-0.38832
-0.379822
-0.37079
-0.360966
-0.3502
-0.338473
-0.325951
-0.312935
-0.299767
-0.286752
-0.274121
-0.262015
-0.250506
-0.239606
-0.229297
-0.219537
-0.21028
-0.20148
-0.19309
-0.185072
-0.177404
-0.170109
-0.424515
-0.413427
-0.403492
-0.393646
-0.38276
-0.370525
-0.356936
-0.342223
-0.326811
-0.311194
-0.295814
-0.28099
-0.266912
-0.253666
-0.241259
-0.229656
-0.218799
-0.208622
-0.199058
-0.190047
-0.181533
-0.17347
-0.16583
-0.158548
-0.442454
-0.430026
-0.418835
-0.407322
-0.394061
-0.378837
-0.361955
-0.343992
-0.325642
-0.307539
-0.290148
-0.273739
-0.258428
-0.244223
-0.231072
-0.218893
-0.207598
-0.197097
-0.187309
-0.178158
-0.16958
-0.161523
-0.153936
-0.146704
-0.459566
-0.445942
-0.433373
-0.419785
-0.403595
-0.384884
-0.364409
-0.343135
-0.321973
-0.301611
-0.282464
-0.26471
-0.248373
-0.233384
-0.219636
-0.207011
-0.195392
-0.184671
-0.174752
-0.165547
-0.156982
-0.148997
-0.141506
-0.13439
-0.474745
-0.460117
-0.446016
-0.429901
-0.410243
-0.387638
-0.363406
-0.338883
-0.315116
-0.292762
-0.272128
-0.253275
-0.236127
-0.220545
-0.206371
-0.193453
-0.18165
-0.170839
-0.160907
-0.15176
-0.143317
-0.135503
-0.128202
-0.121349
-0.278589
-0.281675
-0.283678
-0.285159
-0.286605
-0.288157
-0.289886
-0.291835
-0.294027
-0.296462
-0.299134
-0.302028
-0.305126
-0.308401
-0.311823
-0.315357
-0.318961
-0.322588
-0.326192
-0.329716
-0.333093
-0.336271
-0.339295
-0.34228
-0.279943
-0.282782
-0.284649
-0.286057
-0.287454
-0.288976
-0.290688
-0.292636
-0.294839
-0.2973
-0.300015
-0.302969
-0.306147
-0.309526
-0.313078
-0.316768
-0.320555
-0.324392
-0.328231
-0.332017
-0.335676
-0.339113
-0.342358
-0.345773
-0.282597
-0.284972
-0.286578
-0.287838
-0.28913
-0.290573
-0.292229
-0.294138
-0.29632
-0.298777
-0.301505
-0.304495
-0.30773
-0.311191
-0.314853
-0.318681
-0.322634
-0.326663
-0.330711
-0.334726
-0.338631
-0.342275
-0.345578
-0.349285
-0.286172
-0.287938
-0.289186
-0.290225
-0.291341
-0.292636
-0.294167
-0.295969
-0.298058
-0.300438
-0.303106
-0.306052
-0.309264
-0.312723
-0.316405
-0.320279
-0.324301
-0.328419
-0.332569
-0.336688
-0.340709
-0.344484
-0.347718
-0.350894
-0.290222
-0.291324
-0.292154
-0.292901
-0.293761
-0.294819
-0.296127
-0.297718
-0.299607
-0.301798
-0.304289
-0.307072
-0.310135
-0.313462
-0.317031
-0.320809
-0.324756
-0.328816
-0.332923
-0.336998
-0.340964
-0.344691
-0.347873
-0.350732
-0.294334
-0.294809
-0.2952
-0.295595
-0.296114
-0.296832
-0.297801
-0.299055
-0.300614
-0.302482
-0.304661
-0.307143
-0.309919
-0.312975
-0.316287
-0.319827
-0.323553
-0.327411
-0.331332
-0.33523
-0.339006
-0.342531
-0.345707
-0.347617
-0.298221
-0.298173
-0.29814
-0.298138
-0.298236
-0.298511
-0.299024
-0.299818
-0.300918
-0.302337
-0.304079
-0.306141
-0.308517
-0.311192
-0.314143
-0.317342
-0.320747
-0.324296
-0.32792
-0.331525
-0.335026
-0.338126
-0.341364
-0.341961
-0.301759
-0.301338
-0.300918
-0.300489
-0.300104
-0.299853
-0.299815
-0.300048
-0.300592
-0.30147
-0.302693
-0.304265
-0.30618
-0.308427
-0.310966
-0.313779
-0.316816
-0.320013
-0.323282
-0.326494
-0.329644
-0.332068
-0.335264
-0.334525
-0.305027
-0.304371
-0.303605
-0.302733
-0.301824
-0.300996
-0.300352
-0.299973
-0.299915
-0.300215
-0.300895
-0.301961
-0.303405
-0.305208
-0.307353
-0.309774
-0.312411
-0.315181
-0.317992
-0.320658
-0.323294
-0.324887
-0.327637
-0.32591
-0.308273
-0.307469
-0.306381
-0.305058
-0.303612
-0.302193
-0.300935
-0.299942
-0.299291
-0.299032
-0.299191
-0.299775
-0.30077
-0.302142
-0.303838
-0.305782
-0.307884
-0.310034
-0.312132
-0.313985
-0.315753
-0.316486
-0.31823
-0.31593
-0.311872
-0.310925
-0.309506
-0.307721
-0.305737
-0.303741
-0.301895
-0.300325
-0.299119
-0.298337
-0.298002
-0.298106
-0.298617
-0.29947
-0.300578
-0.301833
-0.303109
-0.304275
-0.305211
-0.305798
-0.306115
-0.305783
-0.306079
-0.303603
-0.316252
-0.315075
-0.313273
-0.311006
-0.30849
-0.305943
-0.30355
-0.301447
-0.299731
-0.298448
-0.297608
-0.297177
-0.297086
-0.297236
-0.2975
-0.297736
-0.297794
-0.297532
-0.296815
-0.295586
-0.293767
-0.291533
-0.289336
-0.286743
-0.345517
-0.347477
-0.347631
-0.345162
-0.340053
-0.331415
-0.318805
-0.301882
-0.280478
-0.254611
-0.224562
-0.190941
-0.154752
-0.117291
-0.0800889
-0.0447212
-0.0126787
0.0147054
0.0366843
0.0530061
0.0639417
0.0701567
0.0725376
0.0719964
0.0694586
0.0656191
0.0610598
0.0562007
0.0513416
0.0466501
0.0422199
0.0381122
0.0343581
0.0309591
0.027882
0.0251001
0.0225905
0.0203198
0.0182616
0.0163917
0.0146999
0.0131676
0.0117926
0.0105551
0.00945127
0.00845892
0.00757065
0.00677004
0.00604425
0.00538684
0.0047793
0.00422271
0.00369542
0.00320399
0.00271911
0.00226079
0.00178033
0.00131796
0.000802073
0.000295075
-0.350173
-0.352766
-0.353593
-0.35195
-0.346788
-0.338261
-0.325738
-0.308786
-0.287205
-0.260972
-0.230368
-0.196033
-0.159061
-0.120836
-0.0827589
-0.0465529
-0.0139326
0.0138937
0.0361699
0.0526706
0.0637081
0.0699894
0.0724262
0.0719629
0.069419
0.0655886
0.0610402
0.0561865
0.0513259
0.0466456
0.0422423
0.038151
0.0344066
0.0310257
0.0279559
0.0251708
0.0226575
0.0203857
0.0183241
0.0164507
0.0147527
0.0132151
0.0118331
0.0105909
0.00948173
0.00848575
0.00759404
0.00679016
0.00606244
0.00540211
0.00479337
0.00423428
0.0037064
0.00321215
0.00272787
0.00226575
0.00178693
0.00131974
0.000806348
0.0002923
-0.355729
-0.358936
-0.360508
-0.359544
-0.35536
-0.347536
-0.335594
-0.319043
-0.297721
-0.271547
-0.240778
-0.206036
-0.168498
-0.129159
-0.0901929
-0.0530926
-0.0195643
0.00910288
0.0321128
0.0492468
0.0608309
0.0675901
0.0704518
0.070364
0.0681667
0.064628
0.0603274
0.0556862
0.0509693
0.0463562
0.0419871
0.0379416
0.0342162
0.0309051
0.0278928
0.0251405
0.0226461
0.02039
0.0183386
0.0164739
0.0147794
0.0132436
0.0118596
0.0106166
0.00950464
0.00850694
0.00761314
0.00680697
0.00607805
0.00541535
0.00480582
0.00424457
0.00371637
0.00321951
0.00273604
0.00227031
0.00179327
0.00132144
0.000810579
0.000289592
-0.360442
-0.36358
-0.36594
-0.365969
-0.362838
-0.356028
-0.345082
-0.329086
-0.308563
-0.282987
-0.252614
-0.218018
-0.180257
-0.14074
-0.101145
-0.0632633
-0.0288535
0.000741835
0.0246934
0.0427598
0.055248
0.0628684
0.0665367
0.0671963
0.06565
0.0626459
0.0587787
0.0544781
0.0500294
0.0456618
0.04151
0.0376312
0.0340482
0.0306756
0.027674
0.0249898
0.0225518
0.0203369
0.0183087
0.016464
0.0147821
0.0132548
0.0118737
0.0106333
0.00952118
0.00852351
0.00762886
0.0068213
0.00609175
0.00542718
0.00481715
0.00425406
0.00372569
0.0032265
0.00274387
0.00227482
0.00179949
0.00132333
0.000814805
0.000287124
-0.360579
-0.365521
-0.368168
-0.368919
-0.366898
-0.361259
-0.351475
-0.33703
-0.317684
-0.293248
-0.263881
-0.230107
-0.192884
-0.153558
-0.113917
-0.0757488
-0.0407918
-0.0104395
0.0144373
0.0335591
0.0471827
0.0559608
0.0607627
0.0624872
0.061895
0.0596867
0.0564705
0.0526957
0.048677
0.0446373
0.0407224
0.0370143
0.0335556
0.0303677
0.0274501
0.0247776
0.0223625
0.020222
0.0182347
0.0164214
0.0147609
0.0132484
0.0118751
0.0106408
0.0095311
0.00853527
0.00764106
0.00683306
0.00610346
0.00543759
0.00482732
0.00426276
0.00373434
0.00323313
0.00275131
0.00227932
0.00180552
0.00132549
0.000818952
0.000285017
-0.357836
-0.36363
-0.366552
-0.367944
-0.366979
-0.362552
-0.354076
-0.341094
-0.323294
-0.300466
-0.272691
-0.240414
-0.204496
-0.16621
-0.127233
-0.0893611
-0.0543254
-0.0235369
0.00210356
0.0222679
0.037135
0.0472571
0.0534145
0.0564367
0.0570507
0.0558651
0.0534865
0.0503893
0.0469101
0.0432871
0.0396914
0.03623
0.0329625
0.0299098
0.0270821
0.0245221
0.0222083
0.0200526
0.0181168
0.0163481
0.0147171
0.0132247
0.0118637
0.0106387
0.00953417
0.00854194
0.0076495
0.00684204
0.00611301
0.00544644
0.00483619
0.00427058
0.00374218
0.00323937
0.00275824
0.00228383
0.00181126
0.00132795
0.000822919
0.000283397
-0.351932
-0.358013
-0.361152
-0.363093
-0.362952
-0.359581
-0.352403
-0.340966
-0.324855
-0.303843
-0.278005
-0.247779
-0.213888
-0.177442
-0.139921
-0.103027
-0.0684525
-0.0376204
-0.0114614
0.00963627
0.0257474
0.0372921
0.0449205
0.0493725
0.0513414
0.0513446
0.0499451
0.0476391
0.0447922
0.0416669
0.0384559
0.0352879
0.0322422
0.0293593
0.0266773
0.0242103
0.0219401
0.0198837
0.0179508
0.0162441
0.0146524
0.0131848
0.01184
0.0106273
0.00953042
0.00854347
0.00765409
0.00684816
0.00612027
0.00545366
0.00484365
0.00427748
0.00374912
0.0032452
0.00276454
0.00228834
0.00181658
0.00133078
0.000826608
0.000282424
-0.34346
-0.349015
-0.352163
-0.354591
-0.355044
-0.35247
-0.346454
-0.336521
-0.322187
-0.303199
-0.279579
-0.251676
-0.220219
-0.186285
-0.151023
-0.115841
-0.0823085
-0.0518562
-0.0254673
-0.0036107
0.0136588
0.0266077
0.0357319
0.0416578
0.0450161
0.0463015
0.0459766
0.0445391
0.0423897
0.0398195
0.0370417
0.034207
0.031417
0.0287329
0.0262008
0.0238468
0.0216654
0.0196481
0.0177404
0.0161092
0.0145687
0.01313
0.0118046
0.0106069
0.00951995
0.00853982
0.00765476
0.00685133
0.00612514
0.00545916
0.0048496
0.0042834
0.00375506
0.00325061
0.00277013
0.00229289
0.00182141
0.00133403
0.000829929
0.000282292
-0.332879
-0.33678
-0.339647
-0.342537
-0.343336
-0.34139
-0.336471
-0.328005
-0.315468
-0.298624
-0.277463
-0.252235
-0.223535
-0.192339
-0.15983
-0.127005
-0.0950928
-0.0654638
-0.0391684
-0.0167839
0.00147958
0.0157187
0.0262692
0.0336222
0.0383322
0.0409073
0.0417148
0.0411961
0.0397786
0.0377926
0.0354779
0.033006
0.0304975
0.0280314
0.0256657
0.0234368
0.0213553
0.0194027
0.0176995
0.0159526
0.0144674
0.0130609
0.0117582
0.0105778
0.00950295
0.0085311
0.00765157
0.00685159
0.00612764
0.00546298
0.00485405
0.00428836
0.00375997
0.00325564
0.00277495
0.00229751
0.00182566
0.00133779
0.00083281
0.000283243
-0.319848
-0.321629
-0.324858
-0.327456
-0.328145
-0.326758
-0.322942
-0.315934
-0.305247
-0.290673
-0.272154
-0.249839
-0.224185
-0.195986
-0.166311
-0.136147
-0.106306
-0.0779412
-0.0521036
-0.029478
-0.0104486
0.00489781
0.0167363
0.0254183
0.0314064
0.0351955
0.0371698
0.0376454
0.0370175
0.0356482
0.0338163
0.0317224
0.0295087
0.0272723
0.0250834
0.0229889
0.0210105
0.0191549
0.0174335
0.0157633
0.0143502
0.0129786
0.0117023
0.0105413
0.00948055
0.00851818
0.00764521
0.00684945
0.00612815
0.00546535
0.00485712
0.00429245
0.00376381
0.00326028
0.00277887
0.00230218
0.0018292
0.00134206
0.000835171
0.00028559
-0.304235
-0.305181
-0.308739
-0.310696
-0.311004
-0.310277
-0.307657
-0.302195
-0.293472
-0.281275
-0.265508
-0.246244
-0.22379
-0.198733
-0.171931
-0.144384
-0.116801
-0.0900208
-0.0649619
-0.0423463
-0.0227184
-0.00636167
0.00672411
0.016743
0.0240368
0.0290187
0.0320996
0.033639
0.0339244
0.0332811
0.0320099
0.0303455
0.02846
0.0264746
0.0244763
0.0225259
0.0206577
0.018888
0.0172178
0.0157276
0.0142303
0.0128844
0.0116384
0.010498
0.00945284
0.00850054
0.007635
0.00684396
0.00612569
0.00546536
0.00485789
0.00429491
0.00376581
0.00326392
0.00278124
0.00230648
0.00183151
0.00134661
0.000836684
0.000289702
-0.287329
-0.289685
-0.292385
-0.292682
-0.291572
-0.291038
-0.289205
-0.285133
-0.278376
-0.268632
-0.255759
-0.239746
-0.220739
-0.199103
-0.175419
-0.150442
-0.124962
-0.099819
-0.0758693
-0.0537144
-0.0339276
-0.0169314
-0.00288584
0.00826624
0.0167399
0.0228557
0.0269563
0.0293732
0.0304652
0.0305397
0.0298673
0.0286862
0.0271834
0.0254972
0.0237307
0.0219584
0.0202265
0.0185622
0.0169838
0.0154931
0.0140606
0.0127499
0.0115464
0.0104316
0.00940614
0.00846654
0.00761137
0.0068276
0.00611418
0.00545847
0.00485289
0.00429321
0.00376416
0.00326551
0.00278114
0.00231007
0.00183212
0.00135129
0.00083689
0.000295988
-0.270582
-0.279613
-0.281025
-0.280128
-0.279389
-0.277427
-0.27501
-0.271098
-0.264785
-0.255708
-0.243779
-0.229003
-0.211499
-0.191577
-0.169742
-0.146672
-0.123087
-0.0997086
-0.0772604
-0.0563602
-0.0375339
-0.0211653
-0.00743211
0.00367595
0.0123117
0.0187301
0.0232333
0.0261324
0.0277129
0.0282381
0.027966
0.0271299
0.0259183
0.024474
0.0229057
0.0212928
0.0196923
0.0181373
0.0166527
0.0152331
0.0138738
0.0126048
0.0114404
0.0103507
0.00934863
0.00842472
0.00758213
0.00680867
0.00610126
0.00545178
0.00484936
0.00429347
0.0037652
0.00327038
0.00278387
0.00231696
0.00183501
0.00135826
0.000837492
0.000304056
-0.252885
-0.264767
-0.26625
-0.263659
-0.261084
-0.259508
-0.257275
-0.253402
-0.24728
-0.238688
-0.227607
-0.214072
-0.198191
-0.180215
-0.16056
-0.139775
-0.118467
-0.0972508
-0.0767474
-0.0575149
-0.0400133
-0.0245912
-0.0114434
-0.000606137
0.00801257
0.0146012
0.0194023
0.0226672
0.0246387
0.0255595
0.0256695
0.0251857
0.0242877
0.0231162
0.0217807
0.0203637
0.018926
0.0175053
0.0161261
0.014793
0.0134949
0.0123189
0.0112162
0.0101756
0.00921095
0.0083177
0.00749793
0.00674378
0.00605003
0.00541269
0.00481875
0.00427037
0.00374737
0.00325775
0.00277381
0.00231109
0.00182985
0.00135672
0.000834724
0.000307661
-0.235105
-0.247828
-0.249788
-0.246871
-0.243887
-0.242023
-0.239711
-0.235879
-0.230029
-0.222035
-0.211911
-0.199697
-0.185477
-0.169436
-0.151893
-0.133283
-0.114113
-0.0949137
-0.0762214
-0.0585321
-0.0422645
-0.0277472
-0.0151873
-0.00465714
0.00388639
0.0105754
0.0155966
0.0191571
0.0214717
0.0227596
0.0232358
0.023098
0.0225149
0.0216227
0.0205301
0.0193207
0.0180578
0.016783
0.0155238
0.014293
0.0131022
0.0119944
0.0109448
0.00995429
0.00903137
0.00817334
0.00738126
0.00665051
0.00597471
0.00535271
0.00477049
0.0042321
0.00371683
0.00323402
0.00275495
0.00229735
0.00181905
0.00135026
0.000829535
0.000308909
-0.218135
-0.230425
-0.232928
-0.230419
-0.227526
-0.225144
-0.222698
-0.219034
-0.213605
-0.206295
-0.197133
-0.18617
-0.173474
-0.159184
-0.143545
-0.126908
-0.109698
-0.09237
-0.0753828
-0.0591718
-0.0441159
-0.0305196
-0.0185909
-0.00842715
-2.50529e-05
0.00669857
0.0118825
0.0156956
0.018322
0.019952
0.0207753
0.0209705
0.0206948
0.0200788
0.019229
0.0182291
0.0171449
0.0160209
0.01489
0.013771
0.0126805
0.0116399
0.0106514
0.00971442
0.00883587
0.00801502
0.00725265
0.00654702
0.00589077
0.00528546
0.00471615
0.00418885
0.0036821
0.00320702
0.00273336
0.00228164
0.00180666
0.00134285
0.000823932
0.000309389
-0.201381
-0.213128
-0.216094
-0.214055
-0.211151
-0.208728
-0.206302
-0.202902
-0.197963
-0.19135
-0.183106
-0.173298
-0.16199
-0.149291
-0.135391
-0.120572
-0.105184
-0.0896077
-0.074236
-0.0594462
-0.0455768
-0.0329072
-0.0216411
-0.0118932
-0.00369221
0.00300525
0.00829715
0.012316
0.0152134
0.0171513
0.0182954
0.0188056
0.0188263
0.0184808
0.0178722
0.0170834
0.0161812
0.0152132
0.0142157
0.0132101
0.0122163
0.0112543
0.0103335
0.00945369
0.00862267
0.00784171
0.00711148
0.00643305
0.0057981
0.00521105
0.00465591
0.00414085
0.00364351
0.00317708
0.00270939
0.00226427
0.00179301
0.00133467
0.00081807
0.000309161
-0.18509
-0.196339
-0.199563
-0.197951
-0.195251
-0.19291
-0.190605
-0.187505
-0.183065
-0.177139
-0.169773
-0.161043
-0.151014
-0.139774
-0.127469
-0.114322
-0.100616
-0.0866693
-0.0728145
-0.0593773
-0.0466568
-0.0349077
-0.0243254
-0.0150349
-0.00708855
-0.000474937
0.00486878
0.00904113
0.0121634
0.0143708
0.015806
0.0166096
0.0169125
0.0168293
0.0164585
0.0158806
0.0151629
0.0143542
0.0134934
0.0126049
0.0117132
0.0108362
0.00998686
0.00916775
0.0083876
0.00764962
0.00695429
0.0063055
0.00569399
0.00512708
0.00458772
0.00408633
0.00359955
0.00314281
0.00268198
0.00224424
0.00177743
0.00132503
0.000811583
0.000308054
-0.169717
-0.180206
-0.183501
-0.182289
-0.179904
-0.177744
-0.175623
-0.172841
-0.168898
-0.163644
-0.157117
-0.149397
-0.140548
-0.130641
-0.119791
-0.10817
-0.0960081
-0.0835679
-0.0711298
-0.0589728
-0.047359
-0.036518
-0.0266339
-0.0178356
-0.0101921
-0.00371704
0.0016227
0.00589572
0.00919556
0.0116324
0.0133261
0.0143985
0.0149663
0.0151342
0.0149949
0.0146256
0.0140925
0.0134451
0.0127246
0.011958
0.0111721
0.0103839
0.00960972
0.00885494
0.00812903
0.00743709
0.00677952
0.00616288
0.00557711
0.00503233
0.00451047
0.00402428
0.00354939
0.00310347
0.00265055
0.00222097
0.00175952
0.00131355
0.000804308
0.000306106
-0.155137
-0.164756
-0.16805
-0.167216
-0.165181
-0.163258
-0.161363
-0.158911
-0.155457
-0.150849
-0.145118
-0.138339
-0.130573
-0.12188
-0.11235
-0.102119
-0.0913691
-0.0803173
-0.0691977
-0.0582477
-0.0476946
-0.037743
-0.0285639
-0.0202849
-0.012986
-0.00669973
-0.00141704
0.00290499
0.0063349
0.00895932
0.0108767
0.0121904
0.0130025
0.0134074
0.0134905
0.013325
0.0129749
0.0124897
0.0119118
0.0112699
0.0105923
0.00989668
0.00920137
0.00851443
0.00784603
0.0072032
0.00658621
0.00600429
0.0054466
0.004926
0.00442348
0.00395409
0.0034925
0.0030586
0.00261472
0.00219416
0.00173911
0.00130005
0.000796194
0.000303434
-0.141263
-0.150098
-0.153354
-0.152845
-0.151147
-0.149482
-0.147836
-0.145717
-0.142734
-0.138738
-0.133751
-0.127841
-0.121065
-0.113475
-0.105142
-0.0961727
-0.0867117
-0.0769355
-0.0670386
-0.0572212
-0.0476788
-0.0385921
-0.030117
-0.0223771
-0.0154576
-0.00940474
-0.00422842
9.28121e-05
0.0036054
0.00637454
0.0084787
0.0100035
0.0110366
0.0116612
0.011955
0.0119861
0.0118155
0.0114915
0.0110568
0.0105411
0.00997422
0.00937438
0.00876129
0.00814548
0.0075377
0.00694696
0.00637338
0.00582876
0.00530155
0.00480725
0.00432599
0.00387507
0.0034283
0.00300768
0.00257412
0.00216347
0.00171597
0.00128438
0.000787148
0.000300124
-0.128271
-0.136332
-0.139479
-0.139231
-0.137846
-0.136438
-0.13505
-0.133258
-0.130717
-0.127292
-0.122992
-0.117879
-0.112005
-0.105415
-0.0981656
-0.0903388
-0.0820502
-0.073442
-0.0646741
-0.0559144
-0.0473298
-0.039078
-0.0312994
-0.0241105
-0.0175982
-0.0118176
-0.00679255
-0.00251934
0.00102958
0.00390032
0.0061531
0.00785683
0.00908497
0.00990953
0.0103998
0.0106177
0.0106207
0.0104548
0.0101625
0.0097738
0.009319
0.00881738
0.00828929
0.00774753
0.00720329
0.00666748
0.00614006
0.00563533
0.005141
0.00467517
0.00421719
0.00378647
0.00335617
0.00295015
0.00252829
0.00212849
0.00168982
0.00126634
0.000777023
0.000296235
-0.116201
-0.123454
-0.126438
-0.126404
-0.12531
-0.124166
-0.12301
-0.121523
-0.119393
-0.116491
-0.112821
-0.108434
-0.103378
-0.0976925
-0.0914201
-0.0846256
-0.0773998
-0.0698568
-0.0621274
-0.054351
-0.0466689
-0.0392174
-0.0321215
-0.0254886
-0.0194041
-0.0139279
-0.00909414
-0.00491268
-0.00137178
0.00155812
0.00392085
0.00576993
0.00716522
0.00816749
0.00883724
0.00922988
0.00939819
0.00938563
0.00923326
0.00897072
0.00862849
0.00822615
0.00778563
0.00732047
0.00684234
0.00636412
0.00588548
0.00542312
0.0049641
0.00452892
0.00409629
0.00368756
0.00327546
0.00288542
0.00247675
0.00208883
0.00166034
0.00124571
0.000765639
0.000291805
-0.104951
-0.111442
-0.114247
-0.114385
-0.113546
-0.112625
-0.111701
-0.110499
-0.108748
-0.106323
-0.103223
-0.0994934
-0.0951756
-0.0903023
-0.0849081
-0.0790427
-0.0727769
-0.0662018
-0.0594235
-0.0525568
-0.0457203
-0.0390308
-0.0325979
-0.0265192
-0.020876
-0.01573
-0.0111218
-0.00707151
-0.00358012
-0.000632022
0.00180225
0.0037623
0.00529526
0.00645097
0.00728102
0.00783388
0.00815718
0.00829097
0.00827419
0.00813567
0.00790537
0.00760283
0.00725136
0.00686467
0.00645482
0.00603652
0.00560909
0.00519148
0.0047701
0.00436772
0.00396254
0.0035776
0.00318553
0.00281289
0.00241903
0.00204406
0.0016272
0.00122232
0.000752809
0.000286857
-0.0945101
-0.100307
-0.102921
-0.103188
-0.102565
-0.101851
-0.101135
-0.100188
-0.0987731
-0.0967754
-0.0941877
-0.0910465
-0.0873891
-0.0832428
-0.0786343
-0.0736015
-0.0681995
-0.0625002
-0.0565888
-0.0505595
-0.0445108
-0.0385416
-0.0327471
-0.0272145
-0.0220193
-0.0172224
-0.0128681
-0.00898367
-0.00557971
-0.00265211
-0.000183677
0.0018529
0.00349314
0.00477647
0.00574569
0.00644214
0.00690791
0.00717905
0.00729178
0.00727347
0.00715319
0.00695062
0.00668816
0.00638105
0.00604111
0.0056847
0.00531061
0.00493994
0.00455844
0.00419093
0.00381529
0.00345596
0.00308579
0.00273203
0.00235462
0.00199381
0.00159006
0.00119596
0.000738346
0.000281392
-0.0848989
-0.0900394
-0.0924453
-0.0928043
-0.0923647
-0.0918316
-0.0912965
-0.0905793
-0.0894595
-0.0878374
-0.0857028
-0.0830845
-0.0800139
-0.0765137
-0.0726045
-0.0683147
-0.0636863
-0.0587757
-0.053651
-0.0483884
-0.0430691
-0.0377762
-0.0325911
-0.0275907
-0.0228438
-0.0184085
-0.0143303
-0.0106409
-0.00735813
-0.00448673
-0.00201972
5.96352e-05
0.00177646
0.00316059
0.00424632
0.00506789
0.0056616
0.00605915
0.00629353
0.00639009
0.00637648
0.00627207
0.0060982
0.00587109
0.0056021
0.00530906
0.00499012
0.00466828
0.00432872
0.00399805
0.003654
0.00332206
0.00297567
0.00264233
0.00228307
0.00193771
0.00154857
0.00116646
0.00072207
0.000275391
-0.0760709
-0.080596
-0.0827908
-0.0832153
-0.0829343
-0.0825645
-0.0821993
-0.0816595
-0.080791
-0.079496
-0.077758
-0.0755994
-0.0730461
-0.0701165
-0.0668261
-0.0631956
-0.0592567
-0.0550529
-0.0506381
-0.0460736
-0.0414256
-0.036763
-0.0321548
-0.0276678
-0.0233635
-0.019296
-0.01551
-0.0120393
-0.00890668
-0.00612356
-0.00369105
-0.00160127
0.000161892
0.00161956
0.00279812
0.00372489
0.00443034
0.00494154
0.00528792
0.00549243
0.00558065
0.0055713
0.0054845
0.00533694
0.00513924
0.00491049
0.00464804
0.00437663
0.00408083
0.00378878
0.00347825
0.00317543
0.00285469
0.00254332
0.00220392
0.00187541
0.00150241
0.00113363
0.000703819
0.000268819
-0.0679683
-0.0719371
-0.0739278
-0.0743942
-0.07424
-0.0740009
-0.073764
-0.0733936
-0.0727436
-0.0717316
-0.0703394
-0.0685824
-0.0664818
-0.0640526
-0.0613062
-0.0582575
-0.0549297
-0.051356
-0.0475785
-0.0436458
-0.0396115
-0.0355323
-0.0314657
-0.0274691
-0.0235964
-0.0198969
-0.016413
-0.0131792
-0.0102206
-0.0075537
-0.00518566
-0.00311574
-0.00133543
0.000168769
0.00141599
0.00242706
0.00322669
0.00383724
0.0042843
0.00458816
0.00477203
0.00485339
0.00485092
0.00478149
0.00465461
0.00449039
0.00428526
0.00406544
0.00381491
0.00356304
0.00328782
0.00301577
0.00272246
0.00243465
0.00211677
0.00180662
0.00145126
0.00109729
0.00068345
0.000261635
-0.0605608
-0.0640287
-0.0658227
-0.066311
-0.0662584
-0.066127
-0.0660005
-0.065771
-0.0653047
-0.0645316
-0.063434
-0.0620238
-0.0603163
-0.0583229
-0.0560518
-0.0535133
-0.0507241
-0.0477088
-0.0444999
-0.0411357
-0.0376589
-0.0341156
-0.0305534
-0.0270205
-0.0235638
-0.0202271
-0.0170497
-0.014065
-0.0112994
-0.00877202
-0.00649474
-0.00447227
-0.00270229
-0.00117776
0.000114022
0.00118795
0.00206328
0.00275773
0.00329278
0.00368585
0.00395773
0.00412422
0.00420213
0.00420834
0.00415093
0.00405075
0.00390315
0.00373561
0.00353146
0.00332106
0.00308269
0.00284292
0.00257873
0.00231605
0.00202131
0.00173107
0.00139487
0.00105728
0.000660849
0.000253795
-0.0538122
-0.0568266
-0.0584328
-0.0589281
-0.0589568
-0.0589159
-0.0588814
-0.0587588
-0.0584411
-0.0578706
-0.0570274
-0.055915
-0.0545457
-0.0529285
-0.0510694
-0.0489752
-0.0466575
-0.0441341
-0.0414295
-0.0385734
-0.0355997
-0.0325451
-0.0294486
-0.0263502
-0.02329
-0.0203062
-0.0174342
-0.0147055
-0.0121463
-0.00977728
-0.00761304
-0.00566239
-0.00392782
-0.00240766
-0.00109475
2.05106e-05
0.000952435
0.00171434
0.0023237
0.0027948
0.00314565
0.00339036
0.00354359
0.00362186
0.00363158
0.00359414
0.0035036
0.00338846
0.00323137
0.00306337
0.00286312
0.00265698
0.00242341
0.00218738
0.00191733
0.00164859
0.00133306
0.00101345
0.000635929
0.000245262
-0.047674
-0.0502832
-0.0517144
-0.0522063
-0.0522985
-0.0523286
-0.0523652
-0.0523327
-0.0521379
-0.0517369
-0.0511038
-0.050243
-0.0491625
-0.0478682
-0.0463639
-0.044654
-0.0427463
-0.0406533
-0.0383931
-0.0359883
-0.0334651
-0.0308528
-0.0281828
-0.0254878
-0.0228013
-0.0201563
-0.017584
-0.0151133
-0.012769
-0.0105721
-0.00853898
-0.00668098
-0.00500414
-0.00351098
-0.00219894
-0.00106306
-9.36268e-05
0.000718581
0.00138737
0.00192416
0.00234387
0.00265894
0.0028815
0.00302715
0.00310064
0.00312378
0.00308909
0.00302586
0.00291594
0.00279087
0.00262967
0.00245827
0.00225663
0.00204867
0.00180475
0.00155907
0.0012657
0.000965697
0.000608632
0.000236008
-0.0421023
-0.0443536
-0.0456243
-0.0461051
-0.0462464
-0.0463344
-0.0464311
-0.0464759
-0.0463895
-0.046114
-0.0456508
-0.044999
-0.0441611
-0.0431404
-0.0419389
-0.0405589
-0.039005
-0.0372861
-0.0354148
-0.0334079
-0.0312856
-0.0290706
-0.0267878
-0.0244637
-0.0221259
-0.0198022
-0.0175198
-0.0153041
-0.0131785
-0.011163
-0.00927462
-0.0075263
-0.00592645
-0.0044807
-0.00319001
-0.00205309
-0.00106414
-0.000217919
0.000495398
0.00108426
0.00156107
0.0019371
0.00222198
0.00242962
0.00256275
0.00264348
0.00266262
0.00265015
0.00258695
0.0025049
0.00238324
0.00224742
0.00207875
0.00190012
0.00168364
0.00146253
0.00119278
0.000913987
0.000578939
0.000226019
-0.0370583
-0.0389939
-0.0401178
-0.0405819
-0.0407593
-0.0408909
-0.0410309
-0.0411293
-0.0411194
-0.0409609
-0.0406408
-0.0401625
-0.0395284
-0.0387394
-0.0377952
-0.0366966
-0.0354464
-0.0340501
-0.0325168
-0.0308584
-0.02909
-0.027229
-0.0252949
-0.0233087
-0.0212929
-0.0192704
-0.0172643
-0.015297
-0.0133892
-0.0115598
-0.00982549
-0.00819982
-0.00669264
-0.00531181
-0.00406113
-0.00294218
-0.00195199
-0.00108807
-0.000343878
0.000285555
0.000808501
0.00123409
0.00157219
0.00183533
0.00202307
0.00215754
0.00222774
0.00226419
0.00224664
0.00220716
0.00212514
0.00202536
0.00189043
0.00174217
0.00155428
0.00135911
0.00111439
0.000858344
0.000546872
0.000215298
-0.0325022
-0.0341604
-0.0351515
-0.0355951
-0.0357987
-0.0359632
-0.0361358
-0.0362764
-0.0363294
-0.0362583
-0.0360526
-0.0357174
-0.0352537
-0.0346593
-0.0339322
-0.033072
-0.0320803
-0.0309606
-0.0297188
-0.0283634
-0.0269051
-0.0253572
-0.0237343
-0.0220531
-0.0203316
-0.0185883
-0.0168424
-0.015113
-0.0134184
-0.0117758
-0.0102006
-0.00870654
-0.00730388
-0.00600182
-0.00480623
-0.00372118
-0.00274673
-0.0018831
-0.00112562
-0.000470032
8.91751e-05
0.000557308
0.000941126
0.00125207
0.00148807
0.00167136
0.00178886
0.00187158
0.00189789
0.00189994
0.00185711
0.00179341
0.00169265
0.00157552
0.00141717
0.00124913
0.00103072
0.000798883
0.000512501
0.000203866
-0.0283974
-0.0298138
-0.030686
-0.0311074
-0.0313293
-0.0315183
-0.0317147
-0.0318865
-0.0319877
-0.0319888
-0.0318792
-0.0316579
-0.0313304
-0.0308956
-0.0303494
-0.0296895
-0.0289162
-0.0280315
-0.0270393
-0.025945
-0.0247565
-0.023483
-0.0221357
-0.0207274
-0.0192719
-0.0177844
-0.0162804
-0.014776
-0.0132866
-0.0118275
-0.0104129
-0.00905566
-0.00776597
-0.00655359
-0.00542546
-0.00438697
-0.00343996
-0.00258739
-0.00182921
-0.00116485
-0.000588681
-0.000100703
0.000329623
0.000683248
0.000961056
0.00118825
0.00134919
0.00147532
0.00154337
0.00158555
0.00158111
0.00155316
0.00148667
0.00140112
0.001273
0.00113312
0.000942157
0.000735835
0.000475959
0.00019175
-0.0247026
-0.0259086
-0.0266746
-0.0270726
-0.0273064
-0.0275124
-0.0277251
-0.0279188
-0.0280559
-0.0281117
-0.0280766
-0.0279502
-0.0277353
-0.0274324
-0.0270362
-0.0265439
-0.0259547
-0.0252693
-0.0244897
-0.0236192
-0.0226633
-0.0216286
-0.0205234
-0.019357
-0.0181402
-0.0168848
-0.0156032
-0.0143086
-0.0130141
-0.0117326
-0.0104768
-0.00925855
-0.00808749
-0.00697339
-0.00592379
-0.00494499
-0.00404005
-0.00321206
-0.00245991
-0.0017845
-0.00118892
-0.000656933
-0.000230622
0.000144674
0.000455827
0.000719552
0.000917742
0.00108246
0.00118854
0.00126817
0.00130035
0.00130703
0.00127435
0.00122034
0.00112281
0.00101181
0.000849192
0.000669555
0.000437487
0.000179015
-0.0214082
-0.0224335
-0.0231057
-0.02348
-0.0237202
-0.0239372
-0.0241596
-0.0243678
-0.0245318
-0.0246318
-0.0246596
-0.0246127
-0.0244884
-0.0242853
-0.0240066
-0.023652
-0.0232165
-0.0226973
-0.0220956
-0.0214142
-0.0206568
-0.0198278
-0.0189329
-0.0179787
-0.0169735
-0.015926
-0.0148462
-0.0137444
-0.0126314
-0.0115181
-0.0104155
-0.00933413
-0.00828285
-0.00727111
-0.00630678
-0.00539693
-0.00454567
-0.00375872
-0.00303929
-0.00238526