/*--------------------------------*- C++ -*----------------------------------*\
| =========                 |                                                 |
| \\      /  F ield         | OpenFOAM: The Open Source CFD Toolbox           |
|  \\    /   O peration     | Version:  2512                                  |
|   \\  /    A nd           | Website:  www.openfoam.com                      |
|    \\/     M anipulation  |                                                 |
\*---------------------------------------------------------------------------*/
FoamFile
{
    version     2.0;
    format      ascii;
    arch        "LSB;label=32;scalar=64";
    class       volVectorField;
    location    "24.25";
    object      U;
}
// * * * * * * * * * * * * * * * * * * * * * * * * * * * * * * * * * * * * * //

dimensions      [0 1 -1 0 0 0 0];

internalField   nonuniform List<vector> 
13248
(
(-0.0127854 0.0118632 6.36194e-20)
(-0.0244915 0.0253918 0)
(-0.0231473 0.0327029 -1.20265e-19)
(-0.00963385 0.035788 1.13291e-19)
(0.0154486 0.0362625 1.06127e-19)
(0.0516746 0.0354133 0)
(0.098682 0.0342283 0)
(0.156054 0.033454 2.56218e-19)
(0.22318 0.0336367 -1.17026e-21)
(0.299119 0.0351408 -2.23998e-19)
(0.382513 0.0381564 2.07933e-19)
(0.47156 0.0427043 -1.30001e-19)
(0.564064 0.0486457 0)
(0.657553 0.0557008 -2.23877e-19)
(0.749441 0.0634785 4.183e-19)
(0.837208 0.0715152 -9.89942e-20)
(0.918582 0.079323 -1.78898e-19)
(0.991688 0.0864124 1.67939e-19)
(1.05517 0.0924266 0)
(1.10819 0.0968118 0)
(1.1508 0.100018 0)
(1.18242 0.0998808 0)
(1.20643 0.101409 5.37461e-20)
(1.21878 0.0922491 2.00021e-19)
(-0.0125853 0.0103933 -1.92207e-19)
(-0.0205323 0.0207764 1.31061e-19)
(-0.0122015 0.0256846 -1.15094e-21)
(0.0111455 0.0272397 -1.73209e-19)
(0.0486767 0.0271534 -1.06013e-19)
(0.0997176 0.0267815 -1.00284e-19)
(0.163506 0.0271256 -1.84286e-19)
(0.238991 0.0288877 1.74237e-19)
(0.324659 0.0324996 0)
(0.418421 0.0381321 7.47127e-22)
(0.517619 0.0457031 1.5875e-21)
(0.619155 0.0548994 1.30007e-19)
(0.719706 0.0652189 0)
(0.815999 0.0760324 0)
(0.905081 0.0866568 1.53699e-19)
(0.984557 0.0964318 -2.88659e-19)
(1.05275 0.104789 1.74539e-19)
(1.10878 0.1113 -1.63858e-19)
(1.15258 0.115714 -7.3333e-20)
(1.18486 0.117927 -1.35286e-19)
(1.20667 0.118136 -5.82773e-20)
(1.22011 0.116086 -1.10102e-19)
(1.2262 0.113849 1.58812e-19)
(1.22771 0.106775 4.67785e-20)
(-0.0114994 0.00858357 0)
(-0.0133989 0.015502 0)
(0.00467932 0.0182108 6.12753e-20)
(0.0409338 0.0188503 5.6442e-20)
(0.0941 0.0191662 -1.37594e-21)
(0.162947 0.0205303 -1.03494e-19)
(0.245868 0.0238701 0)
(0.340628 0.0297028 -8.66392e-20)
(0.444242 0.0381585 8.14426e-20)
(0.55302 0.0489999 5.68359e-22)
(0.662803 0.0616685 -1.39426e-19)
(0.769333 0.075368 -1.28215e-19)
(0.868666 0.0891766 1.91753e-21)
(0.957549 0.102172 -1.07352e-19)
(1.03369 0.113547 2.56491e-19)
(1.0959 0.122695 0)
(1.14407 0.129266 -1.69711e-19)
(1.17908 0.133166 8.19198e-20)
(1.20256 0.134556 7.32655e-20)
(1.21654 0.133696 0)
(1.22336 0.131202 6.13696e-20)
(1.2251 0.127006 -2.15915e-19)
(1.22339 0.12317 2.02687e-19)
(1.22118 0.11584 1.32661e-19)
(-0.00916503 0.00642977 -6.81062e-20)
(-0.00216065 0.00973735 -7.04245e-20)
(0.0288346 0.0107657 6.36185e-20)
(0.0812597 0.0114887 0)
(0.153079 0.0135598 0)
(0.242007 0.0182341 -2.19225e-21)
(0.344972 0.026175 0)
(0.457934 0.0374697 -2.64645e-19)
(0.57599 0.0516809 2.46007e-19)
(0.693761 0.0679361 -3.03997e-19)
(0.805952 0.0850738 6.97721e-20)
(0.907958 0.101832 0)
(0.996337 0.117039 1.17278e-19)
(1.0691 0.129773 -2.17732e-19)
(1.12574 0.139457 5.1672e-20)
(1.1671 0.145888 1.35118e-19)
(1.19504 0.149201 -4.66966e-21)
(1.21203 0.149786 -1.51864e-19)
(1.22074 0.14818 0)
(1.2237 0.144948 0)
(1.22303 0.140697 -5.62405e-20)
(1.22028 0.135577 5.10956e-20)
(1.21659 0.13104 1.87225e-19)
(1.2128 0.123925 -1.7574e-19)
(-0.00518463 0.00399628 -7.19043e-20)
(0.0141153 0.00382659 -7.15441e-20)
(0.061445 0.00406821 2.01212e-19)
(0.133174 0.00626959 -1.21935e-19)
(0.225986 0.011776 1.14776e-19)
(0.335871 0.0214802 2.08428e-19)
(0.457612 0.0354747 -1.47341e-19)
(0.584909 0.0530929 -1.79559e-19)
(0.710954 0.0730756 3.29535e-21)
(0.829255 0.0938142 2.3004e-19)
(0.934468 0.113643 0)
(1.023 0.13112 6.39603e-20)
(1.09325 0.145224 0)
(1.14551 0.155454 -1.05588e-19)
(1.18159 0.161804 1.48507e-19)
(1.20425 0.16466 1.24508e-21)
(1.21665 0.164648 -3.97338e-20)
(1.22182 0.162481 7.47617e-20)
(1.22234 0.158831 6.53574e-20)
(1.22015 0.154247 -5.92517e-20)
(1.21656 0.149164 5.62276e-20)
(1.21237 0.143709 -5.10835e-20)
(1.20791 0.138734 0)
(1.20392 0.131881 -3.99768e-20)
(0.000838298 0.0014402 7.18941e-20)
(0.0362545 -0.00166279 7.55216e-20)
(0.103338 -0.000884553 -6.74286e-20)
(0.196964 0.00455073 1.25559e-19)
(0.311864 0.0153437 -1.18181e-19)
(0.441574 0.0316475 1.06859e-19)
(0.578246 0.0525904 -5.1326e-20)
(0.713388 0.0764555 1.34825e-19)
(0.839036 0.101077 -8.49003e-20)
(0.948903 0.124289 1.51261e-19)
(1.03913 0.144317 -3.49894e-19)
(1.1085 0.160031 1.29003e-19)
(1.15808 0.171018 -1.13905e-19)
(1.19061 0.177491 1.06988e-19)
(1.20966 0.180093 9.36028e-20)
(1.21894 0.179676 8.30922e-20)
(1.22173 0.177102 -2.31703e-19)
(1.22058 0.173111 1.44124e-19)
(1.2173 0.168265 -6.53601e-20)
(1.21301 0.162947 1.73103e-19)
(1.20836 0.157403 -5.57252e-20)
(1.20365 0.151721 -1.39528e-19)
(1.19905 0.146361 1.29374e-19)
(1.19483 0.139715 3.99634e-20)
(0.00925889 -0.000980305 0)
(0.0648498 -0.00593849 6.67972e-22)
(0.15478 -0.00285977 1.41245e-19)
(0.27189 0.00780689 -1.32443e-19)
(0.408228 0.0256442 -1.19338e-19)
(0.554323 0.04959 2.21851e-19)
(0.699746 0.0774478 -1.03052e-19)
(0.834667 0.10636 1.37709e-19)
(0.951461 0.133496 -2.73671e-21)
(1.04572 0.156627 -7.83501e-20)
(1.11641 0.174445 1.72104e-19)
(1.16531 0.186601 -2.54701e-19)
(1.19601 0.193525 0)
(1.21285 0.196122 -5.06761e-20)
(1.22004 0.195468 -1.36382e-19)
(1.22111 0.192575 4.2832e-20)
(1.21866 0.18826 1.40795e-21)
(1.21442 0.183109 -9.70523e-20)
(1.20945 0.177506 4.8834e-21)
(1.20429 0.171681 1.1281e-19)
(1.19923 0.165768 -5.11705e-20)
(1.19437 0.159843 -2.02499e-20)
(1.1897 0.154095 6.08906e-20)
(1.18536 0.14758 0)
(0.0203436 -0.00291106 0)
(0.100129 -0.00802625 3.83367e-20)
(0.21529 -0.000502138 -1.84677e-19)
(0.356041 0.017424 6.70826e-20)
(0.511147 0.0436365 -6.31362e-20)
(0.668088 0.0754009 -5.77961e-20)
(0.814705 0.109057 -1.02257e-19)
(0.941437 0.140878 5.09326e-20)
(1.04279 0.167951 4.43627e-20)
(1.11758 0.188632 0)
(1.16808 0.202563 1.02493e-19)
(1.19871 0.210368 -1.53362e-19)
(1.21458 0.213227 1.14226e-19)
(1.22049 0.212465 5.07019e-20)
(1.22029 0.209278 -4.21601e-20)
(1.21675 0.204591 -3.57672e-20)
(1.21163 0.199046 -3.36716e-20)
(1.20596 0.193049 9.96369e-20)
(1.20026 0.186839 0)
(1.19477 0.180551 5.14226e-20)
(1.18958 0.174262 4.4297e-20)
(1.18468 0.168025 -1.08796e-19)
(1.18001 0.161868 -7.6341e-20)
(1.17559 0.155415 7.04547e-20)
(0.0342185 -0.00392159 -4.16502e-20)
(0.141835 -0.00685483 -1.67585e-21)
(0.283524 0.007498 3.76247e-20)
(0.446371 0.0344618 1.05236e-19)
(0.615684 0.0696393 3.06639e-20)
(0.776617 0.108374 -5.92742e-20)
(0.916919 0.145792 5.4077e-20)
(1.0292 0.177942 -4.74959e-20)
(1.11153 0.202559 8.5539e-20)
(1.16638 0.219113 3.66473e-20)
(1.1989 0.228378 -1.0407e-19)
(1.21509 0.231826 3.07902e-20)
(1.22046 0.23109 5.29869e-20)
(1.21938 0.227607 -2.60074e-20)
(1.21489 0.22247 0)
(1.2089 0.216414 3.94471e-20)
(1.20248 0.209893 6.74436e-20)
(1.19615 0.203165 1.20535e-20)
(1.19015 0.196374 -5.66824e-20)
(1.18455 0.189598 2.40043e-20)
(1.17932 0.182883 0)
(1.17442 0.176254 -1.92623e-20)
(1.16976 0.16968 -1.85471e-20)
(1.1653 0.163184 0)
(0.0508163 -0.00353774 0)
(0.18914 -0.0013698 2.18554e-20)
(0.357276 0.0222199 4.04004e-20)
(0.538972 0.0594616 -1.07536e-19)
(0.716596 0.103265 3.48073e-20)
(0.874506 0.147198 0)
(1.00237 0.185838 5.24758e-20)
(1.09655 0.215844 -7.33305e-20)
(1.15922 0.236215 -4.27916e-20)
(1.1961 0.247759 1.93567e-20)
(1.21415 0.25226 -3.13205e-20)
(1.21984 0.251735 7.58677e-20)
(1.21829 0.24796 3.82926e-20)
(1.21301 0.24227 -2.64624e-20)
(1.20617 0.235551 -2.317e-21)
(1.19894 0.228336 -7.37621e-20)
(1.19191 0.220922 3.369e-20)
(1.18531 0.213468 -9.02984e-22)
(1.17921 0.206056 0)
(1.1736 0.198734 -2.40295e-20)
(1.16841 0.191531 0)
(1.16356 0.18444 5.56217e-20)
(1.15896 0.177448 -6.66594e-20)
(1.15449 0.170798 3.05571e-20)
(0.0698329 -0.00128233 -1.14755e-20)
(0.240624 0.00934915 -5.51416e-20)
(0.43361 0.0443594 6.2809e-20)
(0.629522 0.0923542 3.6866e-20)
(0.809086 0.143518 -1.7568e-20)
(0.957901 0.190261 2.96594e-20)
(1.06935 0.227557 -1.4367e-20)
(1.14437 0.253433 2.40094e-20)
(1.1889 0.268479 0)
(1.21092 0.274759 5.47602e-20)
(1.21814 0.274772 -2.18044e-21)
(1.2167 0.270759 -4.43549e-20)
(1.21084 0.264414 1.90717e-20)
(1.20317 0.256854 -2.16428e-20)
(1.1951 0.248742 -8.32849e-21)
(1.18729 0.240439 9.55184e-21)
(1.18002 0.232129 -7.42609e-21)
(1.17336 0.223906 -4.07562e-20)
(1.16729 0.215819 2.49888e-20)
(1.16176 0.207896 5.16385e-21)
(1.15667 0.200148 4.58792e-21)
(1.15193 0.19255 4.08172e-21)
(1.14742 0.185152 0)
(1.143 0.178218 0)
(0.0907777 0.00329051 1.14834e-20)
(0.294455 0.0259962 -1.14625e-20)
(0.509279 0.0741288 -2.09443e-20)
(0.713945 0.132472 0)
(0.889459 0.188988 -8.74157e-21)
(1.02471 0.235952 -7.91094e-21)
(1.11798 0.269683 -1.35477e-20)
(1.17468 0.290078 0)
(1.2037 0.299326 0)
(1.21421 0.300478 0)
(1.21378 0.296413 0)
(1.20773 0.289346 0)
(1.19934 0.280753 -1.19823e-20)
(1.19042 0.271504 5.45927e-21)
(1.18179 0.262065 9.54956e-21)
(1.17379 0.252666 4.48161e-21)
(1.16652 0.243414 1.11371e-20)
(1.15995 0.234363 0)
(1.15403 0.22554 -2.71184e-21)
(1.14868 0.21696 -2.62606e-21)
(1.1438 0.208614 -4.59525e-21)
(1.13926 0.200481 -4.08826e-21)
(1.13494 0.192687 0)
(1.13068 0.18534 3.0047e-21)
(-0.00132983 0.000853129 6.76937e-21)
(-0.00649546 0.00131963 -7.0342e-21)
(-0.0158645 0.000968382 -1.33308e-20)
(-0.0274058 0.000157075 0)
(-0.040004 -0.000893119 -1.78605e-20)
(-0.053097 -0.00205623 5.60367e-21)
(-0.0663008 -0.00326836 -1.06088e-20)
(-0.0793558 -0.00450641 0)
(-0.0921054 -0.00577034 0)
(-0.104463 -0.00706917 0)
(-0.116386 -0.00841164 0)
(-0.127859 -0.00980125 0)
(-0.138879 -0.0112342 1.44955e-24)
(-0.149454 -0.0126994 -7.00671e-21)
(-0.159593 -0.0141784 1.32399e-20)
(-0.169307 -0.015646 1.87077e-20)
(-0.178612 -0.0170701 5.8838e-21)
(-0.187528 -0.0184113 0)
(-0.196091 -0.019624 5.2075e-21)
(-0.204364 -0.0206583 -1.46755e-20)
(-0.212423 -0.0214569 -9.20646e-21)
(-0.220349 -0.0219582 -8.6592e-21)
(-0.228339 -0.0220765 0)
(-0.236866 -0.0217313 0)
(-0.00171076 0.0047499 -2.03726e-20)
(-0.00722363 0.0105149 3.51573e-20)
(-0.0165653 0.0136788 -1.32929e-20)
(-0.0278471 0.0151399 -2.52644e-20)
(-0.0400267 0.015479 3.56871e-20)
(-0.0525767 0.0150794 -2.25275e-20)
(-0.0651331 0.0141992 3.17949e-20)
(-0.0774466 0.0130059 2.00754e-20)
(-0.0893646 0.0116027 0)
(-0.1008 0.0100521 -1.78241e-20)
(-0.111707 0.00839248 -1.04272e-22)
(-0.122065 0.00664936 1.57444e-20)
(-0.131867 0.004843 2.23972e-20)
(-0.14111 0.00299346 2.81494e-20)
(-0.149794 0.00112447 -1.31501e-20)
(-0.157919 -0.00073299 -3.73525e-20)
(-0.165486 -0.00253694 1.17694e-20)
(-0.1725 -0.00423049 -4.41683e-20)
(-0.178978 -0.00573904 0)
(-0.184956 -0.0069684 9.77371e-21)
(-0.190477 -0.00780315 9.19404e-21)
(-0.195553 -0.00811053 8.64732e-21)
(-0.200301 -0.00770475 0)
(-0.205556 -0.0064066 0)
(-0.00247516 0.0082843 0)
(-0.00869574 0.0189421 7.0934e-20)
(-0.017958 0.0254158 -2.67525e-20)
(-0.0286696 0.0290476 2.53238e-20)
(-0.0399413 0.0307281 -7.18232e-20)
(-0.0513199 0.0310711 0)
(-0.0624855 0.030514 -4.26917e-20)
(-0.0732135 0.0293594 2.00982e-20)
(-0.0833607 0.0278097 -3.80356e-20)
(-0.0928407 0.0259969 1.80212e-20)
(-0.101602 0.0240053 1.01306e-19)
(-0.109613 0.021889 -4.75873e-20)
(-0.116856 0.0196835 -7.48726e-20)
(-0.123312 0.0174155 -2.84039e-20)
(-0.128966 0.0151099 -1.28017e-22)
(-0.133798 0.0127965 9.99273e-20)
(-0.137784 0.0105172 -4.69647e-20)
(-0.140896 0.00833373 -4.68537e-23)
(-0.143108 0.00633793 0)
(-0.144415 0.00466215 -3.90339e-20)
(-0.144815 0.00348222 0)
(-0.144202 0.00303461 -3.43935e-20)
(-0.142441 0.00364779 1.29002e-19)
(-0.140754 0.00566106 2.16817e-22)
(-0.00353418 0.0112233 0)
(-0.0107641 0.026082 2.67852e-22)
(-0.0199311 0.0354944 2.71381e-20)
(-0.0298372 0.0411002 -2.56751e-20)
(-0.039802 0.0440212 2.38866e-20)
(-0.0494776 0.0450578 1.36552e-19)
(-0.0586103 0.0447991 -4.28245e-20)
(-0.0670148 0.0436672 -4.0571e-20)
(-0.0745671 0.0419544 7.62505e-20)
(-0.0811853 0.0398581 -1.07792e-19)
(-0.086814 0.0375074 3.38606e-20)
(-0.0914127 0.0349848 3.19873e-20)
(-0.0949489 0.0323417 0)
(-0.0973917 0.0296112 2.82309e-20)
(-0.0987088 0.0268169 0)
(-0.0988638 0.023982 5.01868e-20)
(-0.0978137 0.0211369 -9.4259e-20)
(-0.095506 0.0183292 2.20628e-20)
(-0.0918794 0.0156371 8.31218e-20)
(-0.0868821 0.0131875 3.89938e-20)
(-0.0804799 0.0111863 0)
(-0.0724946 0.00997902 -1.02665e-19)
(-0.0623575 0.0101456 3.22241e-20)
(-0.050965 0.0124204 0)
(-0.00477537 0.0134272 0)
(-0.0132347 0.03159 -8.64193e-20)
(-0.0223282 0.0434218 -2.74938e-20)
(-0.0312815 0.0506992 -5.15115e-20)
(-0.0396479 0.0546868 4.85044e-20)
(-0.0472042 0.0563192 -4.56136e-20)
(-0.0537803 0.0563029 8.64245e-20)
(-0.0592444 0.0551576 4.07279e-20)
(-0.0635016 0.0532531 -1.14821e-19)
(-0.066482 0.0508451 7.23375e-20)
(-0.0681301 0.0481054 -1.02007e-19)
(-0.0683985 0.0451453 2.24638e-19)
(-0.0672428 0.0420344 -1.20565e-19)
(-0.0646186 0.038815 5.68887e-20)
(-0.0604796 0.035513 1.60418e-19)
(-0.0547762 0.0321463 -5.00525e-20)
(-0.0474539 0.0287321 -4.71926e-20)
(-0.0384505 0.0252949 -4.42972e-20)
(-0.0276936 0.021878 0)
(-0.0151086 0.0185559 -7.78237e-20)
(-0.000649619 0.0154755 -7.25959e-20)
(0.0158096 0.0129638 1.02651e-19)
(0.0351149 0.0118459 1.27178e-19)
(0.0578997 0.0136574 -1.19671e-19)
(-0.00608773 0.014861 0)
(-0.0159011 0.0353227 -1.16996e-19)
(-0.0249619 0.048933 -4.13929e-22)
(-0.0328836 0.0574694 1.03809e-19)
(-0.0394474 0.0622597 0)
(-0.0445614 0.0643218 0)
(-0.0481488 0.064444 0)
(-0.0501412 0.0632192 -4.08872e-20)
(-0.0504805 0.0610788 -1.29117e-22)
(-0.0491134 0.0583281 7.25679e-20)
(-0.0459868 0.0551771 -1.02465e-19)
(-0.0410455 0.0517657 -7.3102e-23)
(-0.0342306 0.0481844 0)
(-0.0254797 0.04449 -5.68624e-20)
(-0.0147277 0.0407178 5.36474e-20)
(-0.00190781 0.0368903 -1.50904e-19)
(0.013047 0.0330235 1.88873e-19)
(0.0302054 0.0291336 4.41666e-20)
(0.0496329 0.0252372 -3.35163e-22)
(0.0713903 0.0213625 -1.55764e-19)
(0.0954989 0.0175572 -7.26016e-20)
(0.121989 0.0139713 2.37157e-19)
(0.151328 0.0113582 -1.58452e-19)
(0.188166 0.0120759 0)
(-0.00738343 0.0155839 5.75404e-20)
(-0.0185744 0.0373263 5.86419e-20)
(-0.0276211 0.0519911 -5.59679e-20)
(-0.0344455 0.0612731 -1.04926e-19)
(-0.0390273 0.0665083 9.87971e-20)
(-0.0413995 0.0687576 -9.30513e-20)
(-0.0415786 0.0688599 1.31475e-19)
(-0.0395606 0.0674571 -4.08774e-20)
(-0.0353239 0.0650257 7.75141e-20)
(-0.0288297 0.0619099 0)
(-0.0200218 0.0583524 6.88336e-20)
(-0.00882971 0.0545206 -1.29193e-19)
(0.00482839 0.0505277 1.21422e-19)
(0.0210421 0.0464495 -1.14044e-19)
(0.0399025 0.0423388 0)
(0.0614973 0.038233 1.00576e-19)
(0.0859036 0.0341615 1.88623e-19)
(0.113179 0.0301495 -1.77133e-19)
(0.14336 0.0262218 -8.27212e-20)
(0.176457 0.0224066 -7.73654e-20)
(0.21236 0.0187182 2.17774e-19)
(0.251349 0.0152202 6.68925e-20)
(0.291049 0.0119584 -6.32392e-20)
(0.346673 0.01238 5.79653e-20)
(-0.00860952 0.0157214 -5.75483e-20)
(-0.0210948 0.0377917 1.7954e-19)
(-0.0300627 0.0527515 -5.66021e-20)
(-0.0356486 0.0621943 1.05944e-19)
(-0.0379899 0.0674416 -9.97543e-20)
(-0.0372269 0.0695736 3.86851e-22)
(-0.0334571 0.069456 4.42576e-20)
(-0.0267295 0.0677609 1.66172e-19)
(-0.0170472 0.0649949 -2.33446e-23)
(-0.0043724 0.0615314 -7.31337e-20)
(0.0113666 0.0576408 0)
(0.0302666 0.0535163 -6.47213e-20)
(0.0524378 0.0492956 1.21486e-19)
(0.0779941 0.045079 1.14062e-19)
(0.107038 0.0409407 -5.36296e-20)
(0.139646 0.0369389 -1.17805e-22)
(0.175853 0.033123 -4.71424e-20)
(0.215641 0.0295381 8.79861e-20)
(0.258914 0.0262273 8.27019e-20)
(0.305564 0.0232508 -7.73246e-20)
(0.354906 0.0205438 7.17154e-20)
(0.408752 0.0186179 -6.67211e-20)
(0.457623 0.0158828 0)
(0.535159 0.0181754 -5.78841e-20)
(-0.00974478 0.0154252 5.87375e-20)
(-0.0233192 0.0369858 -6.012e-20)
(-0.0319815 0.0514994 5.72968e-20)
(-0.0359984 0.0604965 0)
(-0.0356243 0.0652929 0)
(-0.0310817 0.0669824 9.514e-20)
(-0.0225246 0.0664463 -8.8833e-20)
(-0.0100308 0.0643741 8.34003e-20)
(0.00639365 0.0612929 -3.91239e-19)
(0.026802 0.0575991 1.11125e-22)
(0.0512891 0.0535876 6.8962e-20)
(0.0799706 0.0494779 0)
(0.112959 0.0454337 -1.21388e-19)
(0.150336 0.041579 2.27872e-19)
(0.192126 0.0380082 -1.60413e-19)
(0.238275 0.0347968 -2.50206e-19)
(0.288628 0.0320057 5.24995e-22)
(0.34291 0.0296854 1.75253e-19)
(0.400681 0.0278607 0)
(0.461652 0.0266694 0)
(0.523871 0.0256803 -7.17067e-20)
(0.59186 0.0264814 6.67115e-20)
(0.646798 0.0249944 -2.45338e-19)
(0.741636 0.0307408 2.30165e-19)
(-0.0107827 0.0148328 0)
(-0.0250835 0.0351805 0)
(-0.0329564 0.0485741 -1.72491e-19)
(-0.0347597 0.0565594 5.48322e-20)
(-0.0308284 0.0604814 3.68556e-22)
(-0.021438 0.0614552 9.62178e-20)
(-0.0067695 0.060377 0)
(0.0130972 0.0579506 -8.39511e-20)
(0.0381681 0.0547204 7.83831e-20)
(0.0685068 0.0511039 -1.47209e-19)
(0.104197 0.0474196 1.63108e-22)
(0.1453 0.0439095 1.2929e-19)
(0.19181 0.0407561 -2.51809e-22)
(0.243612 0.0380943 1.13291e-19)
(0.300449 0.0360199 -1.60138e-19)
(0.361892 0.0345938 0)
(0.427337 0.0338452 1.86054e-19)
(0.496008 0.0337792 -2.6209e-19)
(0.566898 0.0343298 8.07876e-20)
(0.63935 0.0356666 0)
(0.710369 0.036931 6.99927e-20)
(0.785592 0.0404747 2.6151e-19)
(0.842391 0.0404062 -2.45419e-19)
(0.939156 0.0490783 -2.82746e-19)
(-0.0116983 0.0140345 1.80976e-19)
(-0.026149 0.0325845 -2.48928e-19)
(-0.0323988 0.0442974 4.84008e-22)
(-0.0309083 0.0508256 5.53918e-20)
(-0.0220763 0.0535806 -1.03263e-19)
(-0.00620694 0.0537176 -9.57452e-20)
(0.0165126 0.0521561 1.79532e-19)
(0.0460028 0.0496177 -1.2224e-21)
(0.0822521 0.0466652 -1.58011e-19)
(0.125257 0.0437334 2.94972e-19)
(0.174954 0.0411533 -5.39047e-22)
(0.231153 0.0391699 -1.29616e-19)
(0.293473 0.0379528 0)
(0.361308 0.037602 0)
(0.4338 0.0381527 -5.31334e-20)
(0.50985 0.0395774 -9.86089e-20)
(0.588157 0.0417929 -1.84328e-19)
(0.667268 0.0446649 1.73023e-19)
(0.745624 0.0480049 -8.08172e-20)
(0.821913 0.0517285 1.48637e-19)
(0.893655 0.0551538 -7.15064e-20)
(0.963828 0.0597385 1.27028e-19)
(1.01688 0.0607745 -2.99713e-19)
(1.09527 0.0691115 5.59183e-20)
(-0.0124137 0.0130531 6.11123e-20)
(-0.0261342 0.0293101 0)
(-0.0294905 0.0389411 1.18374e-19)
(-0.0231025 0.0437655 -1.11513e-19)
(-0.00744188 0.0452916 1.03357e-19)
(0.0171598 0.0447331 0)
(0.0504884 0.043042 0)
(0.0923984 0.0409587 -8.45323e-20)
(0.142727 0.0390543 9.08137e-22)
(0.201193 0.0377579 7.45698e-20)
(0.2673 0.0373745 -6.89267e-20)
(0.340258 0.038093 1.29747e-19)
(0.418945 0.0399913 0)
(0.50191 0.0430414 2.25191e-19)
(0.587422 0.0471165 -4.21472e-19)
(0.673552 0.0520028 2.95856e-19)
(0.758291 0.0574225 1.82006e-19)
(0.839657 0.0630309 -1.70849e-19)
(0.915869 0.0685394 0)
(0.985286 0.073435 0)
(1.0469 0.0777921 0)
(1.1002 0.0807246 0)
(1.14196 0.0824513 5.89871e-20)
(1.18827 0.0851514 -2.15788e-19)
(-0.247888 -0.0209646 -5.48628e-21)
(-0.262152 -0.020633 5.50829e-21)
(-0.275983 -0.0196969 -1.68302e-22)
(-0.28983 -0.0180791 0)
(-0.303397 -0.0157417 -5.19943e-21)
(-0.316431 -0.0126429 1.01346e-20)
(-0.328605 -0.00877438 1.19782e-23)
(-0.339516 -0.00417048 -4.8127e-21)
(-0.34865 0.00108745 0)
(-0.35551 0.00687281 0)
(-0.359571 0.0128311 -2.68207e-22)
(-0.360185 0.0187971 -2.55309e-22)
(-0.356682 0.024453 -4.0245e-21)
(-0.348409 0.0294213 3.67756e-21)
(-0.334731 0.0332821 0)
(-0.315024 0.0355972 0)
(-0.288696 0.0359648 2.43101e-21)
(-0.255477 0.0344013 -3.27268e-22)
(-0.215344 0.0304185 -1.86274e-21)
(-0.168191 0.0238947 -9.05954e-23)
(-0.114568 0.0151337 0)
(-0.0553262 0.00457734 0)
(0.00845432 -0.00596033 0)
(0.0751535 -0.0158828 0)
(0.143062 -0.024248 0)
(0.210591 -0.0302478 0)
(0.276183 -0.0335619 -1.72302e-22)
(0.338646 -0.0341489 2.72509e-22)
(0.397261 -0.0323999 0)
(0.451716 -0.0286624 0)
(0.50201 -0.0236727 2.39775e-22)
(0.548317 -0.0176623 -2.33027e-22)
(0.59085 -0.0114398 -1.05701e-22)
(0.629931 -0.0049677 0)
(0.665715 0.000872938 0)
(0.698503 0.00652085 -1.46188e-22)
(0.728352 0.0110408 1.421e-22)
(0.755566 0.015138 0)
(0.780166 0.0177978 -9.93064e-23)
(0.802487 0.0201989 1.42329e-22)
(0.822574 0.0211002 -3.98923e-23)
(0.84084 0.0222273 0)
(0.857311 0.0218283 5.68899e-23)
(0.872457 0.0222976 -5.5319e-23)
(0.886222 0.0211884 0)
(0.899122 0.0215607 0)
(0.911097 0.0202188 1.58037e-23)
(0.922695 0.0209308 -4.42443e-23)
(0.933675 0.0197402 0)
(0.944372 0.0211296 0)
(0.954105 0.0201236 8.36688e-24)
(0.963182 0.0221294 -2.44897e-26)
(0.970707 0.0211547 1.03179e-24)
(0.977422 0.0236818 -4.66752e-24)
(0.982355 0.0228385 0)
(0.986875 0.0260354 0)
(0.989623 0.0254331 0)
(0.992732 0.029382 0)
(0.993933 0.029056 0)
(0.996517 0.0337056 0)
(-0.213849 -0.00429396 -5.26582e-22)
(-0.227544 -0.0042249 -2.20461e-20)
(-0.240293 -0.00382339 5.58046e-23)
(-0.25309 -0.00287956 2.06371e-20)
(-0.265706 -0.00147259 3.19401e-22)
(-0.277856 0.000392155 0)
(-0.289208 0.00269355 -1.9261e-20)
(-0.299334 0.00536937 3.80259e-20)
(-0.307714 0.00829436 -1.87621e-20)
(-0.313789 0.0112512 1.77036e-20)
(-0.31695 0.0140499 -1.69395e-20)
(-0.316522 0.0164626 1.58065e-20)
(-0.311808 0.0182141 -1.53667e-20)
(-0.302112 0.0190557 -4.49134e-22)
(-0.286792 0.0187775 -1.27188e-20)
(-0.265209 0.0170544 1.23601e-20)
(-0.236669 0.0133506 -9.89733e-21)
(-0.201135 0.00692332 9.33013e-21)
(-0.158887 -0.00172335 -6.93224e-21)
(-0.109928 -0.012523 1.19918e-20)
(-0.0550314 -0.0243522 -5.12745e-21)
(0.00540663 -0.0366091 -1.99799e-22)
(0.070013 -0.0480321 -1.16184e-21)
(0.136358 -0.057725 1.25752e-21)
(0.20275 -0.0645805 -1.24965e-22)
(0.267497 -0.068114 -5.83082e-23)
(0.329143 -0.0683222 -1.73925e-21)
(0.386627 -0.0654906 -3.33426e-22)
(0.439513 -0.0603117 3.87279e-21)
(0.487708 -0.0533658 -3.94975e-21)
(0.531608 -0.0455229 1.94129e-21)
(0.571571 -0.0370253 -2.27898e-22)
(0.608192 -0.0286475 1.05914e-22)
(0.641851 -0.0203128 -1.92308e-22)
(0.673043 -0.0128325 0)
(0.70199 -0.00574336 0)
(0.728903 4.10616e-05 5.19871e-22)
(0.753872 0.00539268 -3.85335e-22)
(0.777023 0.00924641 -2.94772e-22)
(0.798425 0.0126703 -5.96262e-24)
(0.818161 0.0144526 3.79175e-22)
(0.836344 0.0163587 -6.96237e-23)
(0.853043 0.0166328 0)
(0.868485 0.0176835 0)
(0.882685 0.0170616 0)
(0.895978 0.0178303 0)
(0.908392 0.0167952 -6.72713e-23)
(0.920381 0.0177537 2.89017e-23)
(0.931772 0.0167875 0)
(0.942857 0.0184326 0)
(0.952968 0.0177237 0)
(0.962397 0.0200769 1.29963e-23)
(0.970212 0.0194587 -2.15952e-24)
(0.977187 0.0223353 1.02937e-23)
(0.982291 0.0217916 0)
(0.986975 0.0252487 0)
(0.989803 0.0248326 -4.14076e-24)
(0.99302 0.0289415 -9.41739e-24)
(0.99425 0.0286993 0)
(0.996925 0.0334516 0)
(-0.143326 0.0091263 6.24379e-22)
(-0.154541 0.00927543 -4.38986e-20)
(-0.164272 0.00926141 4.37048e-20)
(-0.173826 0.00969033 -4.0871e-20)
(-0.183311 0.0103545 -3.21565e-22)
(-0.19239 0.0111627 0)
(-0.20071 0.012053 -3.92912e-20)
(-0.20787 0.0129635 3.84908e-20)
(-0.213381 0.0137613 2.88843e-22)
(-0.216678 0.0142252 5.54781e-22)
(-0.217128 0.0141376 5.34282e-22)
(-0.21406 0.0132975 5.11583e-22)
(-0.206744 0.0115321 -3.04028e-20)
(-0.194396 0.00877388 2.99982e-20)
(-0.176561 0.00432552 0)
(-0.152823 -0.00219756 7.71433e-22)
(-0.123202 -0.010869 -2.05953e-20)
(-0.087081 -0.0218635 2.03011e-20)
(-0.0443276 -0.0348425 0)
(0.00485946 -0.0490359 0)
(0.0598611 -0.0634484 -8.7025e-21)
(0.118958 -0.0768484 1.411e-20)
(0.180914 -0.0886805 -8.3584e-21)
(0.243679 -0.0975649 2.16033e-21)
(0.305383 -0.102511 -1.74134e-22)
(0.364324 -0.103216 3.22995e-21)
(0.419248 -0.10001 -5.16376e-21)
(0.469303 -0.0935454 -4.09902e-22)
(0.51433 -0.0848259 3.55838e-21)
(0.554411 -0.0746427 0)
(0.590223 -0.0640161 0)
(0.622239 -0.0532185 -1.3263e-21)
(0.651312 -0.0429611 1.72928e-21)
(0.677853 -0.0330898 2.09286e-24)
(0.70262 -0.0243177 -1.33184e-21)
(0.725775 -0.0161676 1.2943e-21)
(0.747812 -0.00946581 0)
(0.768668 -0.00331658 -1.20479e-22)
(0.788505 0.00121908 -9.08574e-22)
(0.807188 0.00557718 1.66518e-21)
(0.824922 0.00812001 -6.8102e-22)
(0.841526 0.0106848 -6.96698e-23)
(0.857114 0.0115446 5.79659e-22)
(0.871652 0.0131232 -4.45871e-22)
(0.885228 0.012959 -9.05661e-23)
(0.897965 0.014108 -7.81995e-23)
(0.90997 0.0133712 6.74422e-23)
(0.921573 0.0145683 0)
(0.932667 0.0138188 0)
(0.9435 0.0157114 1.6502e-22)
(0.953433 0.0152943 -7.76497e-23)
(0.962749 0.0179928 6.08771e-23)
(0.970491 0.0177322 -7.57841e-23)
(0.977454 0.0209622 -7.92639e-23)
(0.982541 0.0207219 1.85665e-23)
(0.987263 0.0244437 -2.60647e-23)
(0.990093 0.0242166 1.94784e-23)
(0.993369 0.0284889 -8.11939e-24)
(0.994603 0.0283317 0)
(0.99735 0.0331893 0)
(-0.0468368 0.0169594 -9.05625e-20)
(-0.0543614 0.0177555 4.73204e-22)
(-0.0601458 0.0176169 8.54181e-20)
(-0.0652224 0.0176903 -6.5993e-22)
(-0.0702724 0.0178699 0)
(-0.0749997 0.0179432 0)
(-0.0790202 0.0177598 -7.88171e-20)
(-0.0819443 0.0172076 -6.47656e-22)
(-0.0833769 0.0161713 1.11431e-19)
(-0.0828097 0.0144604 -7.6489e-22)
(-0.0796151 0.0118301 -3.52027e-20)
(-0.0731193 0.00814343 -3.16894e-20)
(-0.0625704 0.00329313 3.18013e-20)
(-0.0478409 -0.00339913 0)
(-0.0287684 -0.012144 -2.67878e-20)
(-0.00425646 -0.0230806 2.44512e-20)
(0.026454 -0.0360296 0)
(0.0631009 -0.0504981 0)
(0.105173 -0.0665824 1.55846e-20)
(0.152418 -0.0829725 -2.6815e-21)
(0.20434 -0.0993125 -1.17827e-20)
(0.259447 -0.114114 -6.65446e-21)
(0.316254 -0.126032 6.57806e-21)
(0.372783 -0.133787 -1.52451e-21)
(0.427247 -0.136576 1.82764e-21)
(0.47815 -0.134325 -3.96005e-22)
(0.524555 -0.127697 -2.94146e-22)
(0.56592 -0.117686 -2.26997e-23)
(0.602364 -0.105577 0)
(0.634102 -0.0923332 -3.78323e-21)
(0.661923 -0.0790804 3.90149e-21)
(0.68631 -0.0661634 -2.26e-22)
(0.708173 -0.0542394 0)
(0.727848 -0.0430833 1.9249e-22)
(0.746206 -0.0333232 -2.65341e-21)
(0.763377 -0.0243841 4.63562e-21)
(0.780002 -0.0169875 6.52884e-23)
(0.795933 -0.0103261 -1.9334e-22)
(0.81163 -0.00534063 -1.575e-21)
(0.826688 -0.000630349 -1.85216e-22)
(0.84131 0.00250633 1.22162e-21)
(0.855263 0.00561657 -1.04687e-21)
(0.868705 0.00693427 -5.27655e-25)
(0.88138 0.00894178 -3.9767e-22)
(0.893433 0.00916479 4.77484e-22)
(0.9048 0.010644 5.31312e-22)
(0.915638 0.0101691 -1.5304e-22)
(0.926156 0.0115732 -2.19271e-22)
(0.936299 0.0110101 4.01039e-22)
(0.946282 0.0131178 -2.6809e-22)
(0.955505 0.0129611 6.29848e-23)
(0.964256 0.0159757 -7.93785e-23)
(0.971565 0.0160484 -5.95134e-23)
(0.978245 0.0196133 1.2101e-22)
(0.983122 0.0196631 -3.64561e-24)
(0.987752 0.0236413 2.60564e-23)
(0.990501 0.0235977 0)
(0.993786 0.0280313 8.07771e-24)
(0.994996 0.0279573 -1.03885e-23)
(0.997795 0.0329207 0)
(0.0675362 0.0185749 9.1357e-20)
(0.0640422 0.0204176 -1.78507e-19)
(0.0614874 0.0205438 8.61802e-20)
(0.0605786 0.020407 8.4916e-20)
(0.0600097 0.0203026 -1.66072e-19)
(0.0597314 0.0199526 3.42325e-22)
(0.0601091 0.0190885 7.92084e-20)
(0.0615355 0.0175392 7.67511e-20)
(0.0643571 0.0151438 -7.51812e-20)
(0.0689448 0.0117406 0)
(0.0759008 0.00712489 -6.9628e-20)
(0.0858108 0.00113053 1.34379e-19)
(0.0987467 -0.00675514 -6.48277e-20)
(0.11525 -0.0169069 0)
(0.136084 -0.0289456 0)
(0.161428 -0.0426481 8.08772e-22)
(0.191728 -0.0581629 -4.5269e-20)
(0.227036 -0.0756862 4.3975e-20)
(0.266949 -0.0944777 0)
(0.310939 -0.113391 2.81048e-20)
(0.358324 -0.131369 -4.72145e-20)
(0.407638 -0.146888 3.50542e-20)
(0.457303 -0.158516 -2.39755e-20)
(0.505525 -0.164971 4.56204e-21)
(0.550767 -0.165588 4.86158e-21)
(0.591908 -0.16054 -4.35091e-22)
(0.62848 -0.150805 1.34681e-22)
(0.660369 -0.137661 2.88042e-21)
(0.688004 -0.122611 4.68373e-22)
(0.711737 -0.106738 -3.34753e-21)
(0.732347 -0.0912 -2.28425e-22)
(0.750238 -0.076419 3.39776e-21)
(0.766202 -0.0630311 -6.47129e-21)
(0.780401 -0.0507604 3.44781e-21)
(0.793614 -0.0401638 0)
(0.805878 -0.0306051 2.65633e-21)
(0.81787 -0.0227529 -2.55448e-21)
(0.829428 -0.0156885 1.59459e-21)
(0.84105 -0.0102775 -1.99275e-21)
(0.85242 -0.00541227 1.83468e-22)
(0.863794 -0.00211533 0)
(0.874716 0.00137942 1.3933e-22)
(0.885519 0.00304644 -3.64048e-22)
(0.895835 0.00537427 0)
(0.905839 0.0058936 -8.69449e-22)
(0.915337 0.00763465 3.54381e-22)
(0.924506 0.00736855 -1.35615e-22)
(0.933462 0.00893351 -1.16245e-22)
(0.942181 0.0085116 0)
(0.950866 0.0107851 0)
(0.95896 0.0108371 2.08428e-22)
(0.966785 0.0141168 -3.06629e-22)
(0.973358 0.0144766 1.61161e-22)
(0.979521 0.0183385 -4.88249e-23)
(0.984016 0.018649 -7.39538e-23)
(0.988437 0.0228633 -2.60812e-23)
(0.991028 0.0229896 3.88577e-23)
(0.994272 0.0275765 0)
(0.995431 0.0275812 1.69615e-23)
(0.99826 0.0326478 4.03084e-24)
(0.199863 0.0166849 9.25229e-20)
(0.199065 0.0188957 -9.1852e-20)
(0.197588 0.0190589 6.89752e-22)
(0.198713 0.0187354 -6.6665e-22)
(0.201044 0.0183947 6.55864e-22)
(0.2039 0.0177231 -6.39938e-22)
(0.207518 0.0163779 1.23755e-21)
(0.212262 0.0141767 0)
(0.218434 0.0109179 -1.17539e-21)
(0.226285 0.0063911 1.14283e-21)
(0.236314 0.000427926 1.10786e-21)
(0.248633 -0.00745019 -1.07088e-21)
(0.263545 -0.017525 0)
(0.281707 -0.0295298 0)
(0.303355 -0.0437202 9.17432e-22)
(0.328713 -0.0599904 0)
(0.358096 -0.0781406 -7.78622e-22)
(0.391463 -0.0979277 0)
(0.42838 -0.118672 -3.45002e-20)
(0.468177 -0.139195 6.31085e-20)
(0.509933 -0.158187 -5.07457e-20)
(0.552163 -0.173979 2.23616e-20)
(0.593256 -0.185018 1.11316e-20)
(0.631645 -0.190072 -1.08093e-20)
(0.666199 -0.18865 -2.02183e-21)
(0.696345 -0.181181 1.85385e-21)
(0.722202 -0.168912 0)
(0.744164 -0.153318 -1.26177e-22)
(0.762964 -0.136028 0)
(0.779095 -0.118179 0)
(0.793249 -0.100902 -6.32146e-21)
(0.805709 -0.0846435 6.52329e-21)
(0.817067 -0.0700565 -3.79931e-22)
(0.827269 -0.0568387 -3.72446e-22)
(0.836855 -0.0455098 3.27279e-22)
(0.845715 -0.0354059 2.31917e-21)
(0.85442 -0.0271432 -2.25185e-21)
(0.862766 -0.0197753 2.0645e-21)
(0.871264 -0.0141397 -1.77049e-21)
(0.879574 -0.00895724 -3.68058e-22)
(0.888095 -0.00555221 1.22016e-21)
(0.89634 -0.00205315 1.36241e-23)
(0.904598 -8.14203e-05 -7.86023e-22)