/*--------------------------------*- C++ -*----------------------------------*\
| =========                 |                                                 |
| \\      /  F ield         | OpenFOAM: The Open Source CFD Toolbox           |
|  \\    /   O peration     | Version:  2512                                  |
|   \\  /    A nd           | Website:  www.openfoam.com                      |
|    \\/     M anipulation  |                                                 |
\*---------------------------------------------------------------------------*/
FoamFile
{
    version     2.0;
    format      ascii;
    arch        "LSB;label=32;scalar=64";
    class       volScalarField;
    location    "140.25";
    object      p;
}
// * * * * * * * * * * * * * * * * * * * * * * * * * * * * * * * * * * * * * //

dimensions      [0 2 -2 0 0 0 0];

internalField   nonuniform List<scalar> 
13248
(
-0.4637
-0.460578
-0.457545
-0.454763
-0.452374
-0.450514
-0.449137
-0.448002
-0.446713
-0.444764
-0.441601
-0.436688
-0.429583
-0.419997
-0.407829
-0.393175
-0.376299
-0.357589
-0.337484
-0.316441
-0.294776
-0.272887
-0.250205
-0.227302
-0.472613
-0.468855
-0.465052
-0.461387
-0.457998
-0.455016
-0.452366
-0.449757
-0.446747
-0.44281
-0.437425
-0.430152
-0.420702
-0.408976
-0.395063
-0.379208
-0.361765
-0.343136
-0.323714
-0.303851
-0.283818
-0.263869
-0.243906
-0.22456
-0.482865
-0.478294
-0.473656
-0.469101
-0.464703
-0.460544
-0.456484
-0.45217
-0.447131
-0.440876
-0.432985
-0.423187
-0.411396
-0.397706
-0.382359
-0.365684
-0.348045
-0.32979
-0.311224
-0.2926
-0.2741
-0.255916
-0.237981
-0.220575
-0.49475
-0.48916
-0.483602
-0.47812
-0.472648
-0.467166
-0.461447
-0.45509
-0.447644
-0.43873
-0.428111
-0.415735
-0.401724
-0.386327
-0.369867
-0.352677
-0.335067
-0.317296
-0.29957
-0.282052
-0.264866
-0.24814
-0.231829
-0.216225
-0.508354
-0.501548
-0.494971
-0.488483
-0.48179
-0.474735
-0.467007
-0.458203
-0.447982
-0.43616
-0.422741
-0.407899
-0.391919
-0.37513
-0.357856
-0.340374
-0.322904
-0.305612
-0.288618
-0.272012
-0.255866
-0.240245
-0.225123
-0.210684
-0.523559
-0.515389
-0.507701
-0.500077
-0.491923
-0.48293
-0.472749
-0.461068
-0.447754
-0.432891
-0.416734
-0.399637
-0.381972
-0.364069
-0.346192
-0.328532
-0.311217
-0.294331
-0.277928
-0.262045
-0.246713
-0.231956
-0.21776
-0.204244
-0.540069
-0.530456
-0.521569
-0.512619
-0.502656
-0.491252
-0.478118
-0.463158
-0.446539
-0.428637
-0.40992
-0.390842
-0.371774
-0.352988
-0.334657
-0.31688
-0.299705
-0.283151
-0.267224
-0.251922
-0.237241
-0.223177
-0.209722
-0.196906
-0.557395
-0.546335
-0.53616
-0.52562
-0.513395
-0.499031
-0.482452
-0.463905
-0.443912
-0.423109
-0.402091
-0.381319
-0.361102
-0.341614
-0.32293
-0.305068
-0.288013
-0.271734
-0.2562
-0.24138
-0.227246
-0.213773
-0.200953
-0.188735
-0.574838
-0.562401
-0.550836
-0.538355
-0.523337
-0.505463
-0.485044
-0.462768
-0.439498
-0.416048
-0.393039
-0.370863
-0.349722
-0.329683
-0.310734
-0.292823
-0.275886
-0.259856
-0.244672
-0.23028
-0.216632
-0.203692
-0.191435
-0.179749
-0.591479
-0.577792
-0.564696
-0.549855
-0.531498
-0.50966
-0.485193
-0.459252
-0.432965
-0.40721
-0.382543
-0.359239
-0.337378
-0.316925
-0.297795
-0.279883
-0.263084
-0.247305
-0.23246
-0.218473
-0.205284
-0.192845
-0.181102
-0.16992
-0.606205
-0.591416
-0.576599
-0.558938
-0.536756
-0.510667
-0.482155
-0.45279
-0.423847
-0.396164
-0.370168
-0.345994
-0.323602
-0.302872
-0.283659
-0.265815
-0.249205
-0.233711
-0.219226
-0.205662
-0.192941
-0.181002
-0.169754
-0.159079
-0.617811
-0.602099
-0.585355
-0.564419
-0.537999
-0.507496
-0.475054
-0.442567
-0.411343
-0.382094
-0.355081
-0.330288
-0.307569
-0.286727
-0.267565
-0.249899
-0.23357
-0.218437
-0.204378
-0.191293
-0.179095
-0.167704
-0.157005
-0.146939
-0.341396
-0.344271
-0.34603
-0.347202
-0.348235
-0.34924
-0.350254
-0.351287
-0.35232
-0.353313
-0.354216
-0.354976
-0.355542
-0.355871
-0.355938
-0.355736
-0.355284
-0.354634
-0.353876
-0.35314
-0.352559
-0.352212
-0.352247
-0.353241
-0.350693
-0.353723
-0.355716
-0.357234
-0.358732
-0.360308
-0.361975
-0.363716
-0.365482
-0.367196
-0.368761
-0.370063
-0.370982
-0.371388
-0.371158
-0.37018
-0.368361
-0.365644
-0.362029
-0.357577
-0.352363
-0.346398
-0.33993
-0.334281
-0.361417
-0.364351
-0.366446
-0.368246
-0.370174
-0.372305
-0.374624
-0.37709
-0.379617
-0.38209
-0.384365
-0.386266
-0.387596
-0.388139
-0.387666
-0.385952
-0.382784
-0.377987
-0.371448
-0.363146
-0.353088
-0.34121
-0.327778
-0.314908
-0.373255
-0.375841
-0.377887
-0.37987
-0.382146
-0.384762
-0.387677
-0.390809
-0.394045
-0.397235
-0.400179
-0.402645
-0.404361
-0.405024
-0.404309
-0.40188
-0.397416
-0.390627
-0.381297
-0.369317
-0.354664
-0.337275
-0.317244
-0.296841
-0.385716
-0.387734
-0.389572
-0.391604
-0.394096
-0.397062
-0.400433
-0.404101
-0.407912
-0.411667
-0.415131
-0.418009
-0.419961
-0.420605
-0.419528
-0.416306
-0.410527
-0.401822
-0.389903
-0.374602
-0.355908
-0.333887
-0.308405
-0.279661
-0.39822
-0.399513
-0.400992
-0.402912
-0.405441
-0.408563
-0.412184
-0.416163
-0.420312
-0.424394
-0.428119
-0.43114
-0.433058
-0.43342
-0.431746
-0.427546
-0.420359
-0.409783
-0.395523
-0.377425
-0.355523
-0.329976
-0.300976
-0.268651
-0.41021
-0.410703
-0.411691
-0.413321
-0.415669
-0.418703
-0.42231
-0.426318
-0.430505
-0.434599
-0.438254
-0.44108
-0.442621
-0.442374
-0.439809
-0.434408
-0.425698
-0.413304
-0.396994
-0.376711
-0.352624
-0.324973
-0.294762
-0.26068
-0.421253
-0.420959
-0.421361
-0.42252
-0.424454
-0.427131
-0.43043
-0.434157
-0.438059
-0.44182
-0.445061
-0.447342
-0.448161
-0.446981
-0.443253
-0.436462
-0.426179
-0.412105
-0.394129
-0.372333
-0.347101
-0.318671
-0.288838
-0.255145
-0.431147
-0.430139
-0.42989
-0.430418
-0.431719
-0.433779
-0.436485
-0.439632
-0.442937
-0.446053
-0.448559
-0.449972
-0.449759
-0.447364
-0.442249
-0.433947
-0.422113
-0.406582
-0.3874
-0.364808
-0.339381
-0.311381
-0.282814
-0.2511
-0.439941
-0.438326
-0.437393
-0.437165
-0.437653
-0.43888
-0.440752
-0.44306
-0.445506
-0.447704
-0.449195
-0.449457
-0.447938
-0.444085
-0.437407
-0.427523
-0.414223
-0.397501
-0.377575
-0.35485
-0.329988
-0.303369
-0.276669
-0.247769
-0.447943
-0.445811
-0.44418
-0.443111
-0.442659
-0.442895
-0.443752
-0.445026
-0.446393
-0.447434
-0.44765
-0.446493
-0.443405
-0.437873
-0.42949
-0.418006
-0.403368
-0.385736
-0.365462
-0.343069
-0.319203
-0.294428
-0.269937
-0.244166
-0.455662
-0.453049
-0.450709
-0.448757
-0.447305
-0.446469
-0.446208
-0.446308
-0.44642
-0.446083
-0.444762
-0.441897
-0.43696
-0.42952
-0.4193
-0.406214
-0.390375
-0.372078
-0.351746
-0.329907
-0.307056
-0.283831
-0.260887
-0.238167
-0.356214
-0.361693
-0.368188
-0.374298
-0.378361
-0.378363
-0.371834
-0.357569
-0.334803
-0.303918
-0.2676
-0.230126
-0.196046
-0.168894
-0.150527
-0.141511
-0.142281
-0.153445
-0.173886
-0.198163
-0.216624
-0.219483
-0.203409
-0.173694
-0.140241
-0.111234
-0.0904651
-0.0783622
-0.0736478
-0.0752345
-0.0841389
-0.101318
-0.12178
-0.134811
-0.131655
-0.114646
-0.0933939
-0.0763124
-0.0660708
-0.0616686
-0.0642284
-0.0752286
-0.0884766
-0.0939327
-0.0867111
-0.0723112
-0.0595284
-0.049679
-0.0451005
-0.0451255
-0.0460029
-0.0455395
-0.0428972
-0.0379528
-0.0337317
-0.029317
-0.0247865
-0.0249483
-0.0215598
-0.00755846
-0.330104
-0.327087
-0.32608
-0.32597
-0.325615
-0.323056
-0.316363
-0.304632
-0.286845
-0.262308
-0.233653
-0.204303
-0.177998
-0.157707
-0.145182
-0.141434
-0.147526
-0.164156
-0.189407
-0.216792
-0.236057
-0.237443
-0.218396
-0.184948
-0.147842
-0.115695
-0.0921996
-0.0775228
-0.0703277
-0.0693499
-0.0751592
-0.0888349
-0.1065
-0.1187
-0.117135
-0.103327
-0.0856533
-0.0719615
-0.0645698
-0.0627452
-0.067925
-0.0816922
-0.0970941
-0.103253
-0.0947871
-0.0777159
-0.0622584
-0.0500035
-0.0435289
-0.0413984
-0.0408744
-0.040161
-0.0382021
-0.0350197
-0.0322323
-0.0301097
-0.0269019
-0.0279003
-0.024626
-0.00865339
-0.303745
-0.291254
-0.281668
-0.274016
-0.267885
-0.261875
-0.254368
-0.242455
-0.231913
-0.213948
-0.193059
-0.171889
-0.153399
-0.140059
-0.133628
-0.135538
-0.147257
-0.169205
-0.198634
-0.228431
-0.248325
-0.249019
-0.228152
-0.192295
-0.15272
-0.118324
-0.0927374
-0.0759115
-0.0664774
-0.0630922
-0.0659249
-0.0760774
-0.0908418
-0.102121
-0.10203
-0.0913173
-0.0771584
-0.0668285
-0.0622989
-0.063104
-0.0709019
-0.0873083
-0.104771
-0.111692
-0.102183
-0.0826403
-0.0646064
-0.0500901
-0.0419155
-0.0378755
-0.0360455
-0.0349708
-0.0335172
-0.0319786
-0.0306216
-0.0308741
-0.0289933
-0.0307613
-0.0276049
-0.00972757
-0.279954
-0.257985
-0.239627
-0.223752
-0.210721
-0.200096
-0.190879
-0.180635
-0.169323
-0.160734
-0.14663
-0.133256
-0.122385
-0.11602
-0.115876
-0.123714
-0.141069
-0.167906
-0.200867
-0.232643
-0.253176
-0.253979
-0.232498
-0.195598
-0.154816
-0.119173
-0.0922153
-0.0737669
-0.0624456
-0.056888
-0.0569665
-0.0637236
-0.0755112
-0.0856567
-0.0868958
-0.0789908
-0.0681462
-0.061035
-0.0592588
-0.0626115
-0.0728859
-0.0917505
-0.111201
-0.11899
-0.108713
-0.0869938
-0.0665522
-0.0499495
-0.040283
-0.0345968
-0.0315677
-0.0300346
-0.0288982
-0.0288655
-0.028913
-0.0316057
-0.0310464
-0.0335002
-0.030463
-0.0107689
-0.260881
-0.230388
-0.204209
-0.180416
-0.159888
-0.144
-0.130996
-0.119764
-0.107954
-0.106004
-0.097181
-0.0906709
-0.0868359
-0.0871559
-0.093327
-0.107127
-0.129824
-0.160863
-0.196568
-0.229776
-0.250905
-0.252574
-0.231624
-0.195055
-0.154395
-0.118519
-0.0908707
-0.0713013
-0.0584902
-0.0510939
-0.0487206
-0.05228
-0.0610803
-0.0698581
-0.0723688
-0.0666464
-0.0588266
-0.054678
-0.0554272
-0.061139
-0.0736643
-0.0947846
-0.11611
-0.124874
-0.114195
-0.0907009
-0.0680973
-0.0496066
-0.0386497
-0.0315765
-0.0274703
-0.0254132
-0.0244038
-0.0257159
-0.0271195
-0.032299
-0.0330444
-0.0360814
-0.0331652
-0.0117653
-0.245165
-0.2099
-0.177037
-0.14685
-0.119116
-0.0999725
-0.0817353
-0.0674439
-0.0605949
-0.0544036
-0.050193
-0.0488255
-0.0506912
-0.056889
-0.0688726
-0.0880997
-0.115319
-0.149479
-0.186877
-0.220985
-0.243331
-0.245585
-0.225961
-0.191003
-0.151749
-0.116615
-0.0889296
-0.0686959
-0.0547706
-0.0458768
-0.0414657
-0.0421545
-0.0480287
-0.0551898
-0.0580658
-0.0545388
-0.0494189
-0.0478661
-0.0508282
-0.0586451
-0.0731318
-0.0962471
-0.119294
-0.129137
-0.118471
-0.0936945
-0.0692438
-0.0490821
-0.0370227
-0.0288081
-0.0237632
-0.021158
-0.0200858
-0.0225613
-0.025253
-0.0329439
-0.0349665
-0.0384706
-0.0356787
-0.0127046
-0.234945
-0.198287
-0.161639
-0.127651
-0.0965389
-0.0702685
-0.048215
-0.0312487
-0.0203268
-0.0135476
-0.0116794
-0.0132182
-0.0188413
-0.0293521
-0.0458017
-0.0691294
-0.0994727
-0.135384
-0.173331
-0.207544
-0.230243
-0.233766
-0.21625
-0.184002
-0.147259
-0.113729
-0.0865962
-0.0661012
-0.0513867
-0.0413127
-0.0352482
-0.0335193
-0.0366404
-0.0420334
-0.0448654
-0.0430734
-0.0401877
-0.0407642
-0.045573
-0.0551605
-0.0712478
-0.0960527
-0.120648
-0.131655
-0.121435
-0.0959147
-0.0699891
-0.0483917
-0.0354058
-0.0262669
-0.0204307
-0.0173051
-0.0159876
-0.0194301
-0.0233231
-0.0335277
-0.0367925
-0.0406379
-0.0379733
-0.0135752
-0.228838
-0.193265
-0.156608
-0.121433
-0.0884105
-0.0586646
-0.0330148
-0.0124233
0.00244124
0.0112973
0.0140064
0.0120336
0.00497121
-0.0076934
-0.0265795
-0.0520919
-0.0838175
-0.120016
-0.157399
-0.190868
-0.213448
-0.218206
-0.203321
-0.174631
-0.141261
-0.110035
-0.0839699
-0.0635821
-0.0483722
-0.0374095
-0.0300491
-0.0263591
-0.0270264
-0.0306115
-0.033153
-0.0325803
-0.0313931
-0.0335852
-0.0398129
-0.0507797
-0.0680747
-0.0941995
-0.120137
-0.132391
-0.123055
-0.0973243
-0.0703384
-0.0475529
-0.0338078
-0.0239378
-0.017446
-0.0138658
-0.0121404
-0.0163479
-0.0213372
-0.034037
-0.038502
-0.0425552
-0.0400206
-0.0143673
-0.225336
-0.19233
-0.158432
-0.124702
-0.0917478
-0.0608781
-0.0331915
-0.00968556
0.00859044
0.0206339
0.0259791
0.025633
0.0193431
0.00680053
-0.0122827
-0.0378991
-0.0692402
-0.104357
-0.140161
-0.172136
-0.194137
-0.200001
-0.188105
-0.163587
-0.134199
-0.105795
-0.0812282
-0.0612871
-0.0458507
-0.0342563
-0.0259083
-0.0206812
-0.0192491
-0.0210606
-0.0230765
-0.0232778
-0.0232568
-0.0265525
-0.0337498
-0.0456048
-0.0636554
-0.0907852
-0.117847
-0.131404
-0.123336
-0.0979403
-0.0703659
-0.0466405
-0.0322632
-0.0218347
-0.0148163
-0.0108497
-0.00855891
-0.0133364
-0.0192994
-0.0344602
-0.0400735
-0.0441965
-0.0417936
-0.0150737
-0.223167
-0.193608
-0.163922
-0.133347
-0.10227
-0.0721853
-0.0442638
-0.0194303
0.00120709
0.0162432
0.0257364
0.0283048
0.0245384
0.0140874
-0.00318638
-0.027012
-0.056338
-0.0891226
-0.122445
-0.152132
-0.173194
-0.18029
-0.171771
-0.151889
-0.126897
-0.10168
-0.0789424
-0.0597212
-0.0442491
-0.0321808
-0.0230437
-0.0165875
-0.013373
-0.0134819
-0.0147664
-0.0153932
-0.0159488
-0.0198423
-0.0275517
-0.0398809
-0.0582999
-0.0859429
-0.113878
-0.128771
-0.122314
-0.0978107
-0.070196
-0.0457931
-0.030836
-0.0199494
-0.0125565
-0.00832854
-0.00526252
-0.0104096
-0.0172176
-0.0347803
-0.0414816
-0.0455383
-0.0432628
-0.0156848
-0.221421
-0.196043
-0.170745
-0.143342
-0.114593
-0.086244
-0.0589517
-0.0334441
-0.0109996
0.00675184
0.0178558
0.0233148
0.023173
0.0160944
0.00209772
-0.0185332
-0.0447783
-0.0745829
-0.104949
-0.132354
-0.151397
-0.15956
-0.154577
-0.139675
-0.119428
-0.0977175
-0.077085
-0.0588092
-0.0434557
-0.0310149
-0.0212448
-0.0138112
-0.00907889
-0.00760059
-0.00813634
-0.00881342
-0.00968889
-0.0137414
-0.0214322
-0.0335548
-0.0518442
-0.0800206
-0.108719
-0.124528
-0.119855
-0.0966747
-0.0696042
-0.0448816
-0.0294549
-0.0181237
-0.0105052
-0.00628594
-0.00234495
-0.00759846
-0.0150681
-0.0349914
-0.0426996
-0.0465596
-0.0443945
-0.0161754
-0.219666
-0.200764
-0.180133
-0.155754
-0.130208
-0.105074
-0.0803828
-0.0562545
-0.0332255
-0.0134309
0.00203862
0.0112463
0.0143343
0.0115959
0.00232036
-0.0133893
-0.0345648
-0.0594346
-0.0855556
-0.110316
-0.128469
-0.136202
-0.134389
-0.124295
-0.108682
-0.0905653
-0.0723395
-0.0554817
-0.0407879
-0.0284618
-0.0185455
-0.0106842
-0.00496136
-0.00216226
-0.0020561
-0.00299688
-0.00422524
-0.0083695
-0.0158717
-0.0275301
-0.0451916
-0.0730805
-0.101815
-0.118653
-0.115329
-0.0938582
-0.0676181
-0.0430336
-0.0276291
-0.0160153
-0.00831909
-0.00420022
0.000419466
-0.00494896
-0.0129285
-0.0350484
-0.0437009
-0.0472416
-0.0452
-0.0165117
-0.203862
-0.196206
-0.176506
-0.152696
-0.129004
-0.105845
-0.0828846
-0.0602461
-0.0387007
-0.0204939
-0.00618624
0.00321495
0.00781737
0.00690518
-0.000195708
-0.0135094
-0.0322095
-0.0545723
-0.0782726
-0.100439
-0.115907
-0.122587
-0.120613
-0.111335
-0.0972998
-0.0810577
-0.0646184
-0.0492404
-0.0356287
-0.0239667
-0.0143856
-0.00659599
-0.000572986
0.00305341
0.00401449
0.00338089
0.00265607
-0.00157364
-0.00820258
-0.0189949
-0.0364335
-0.0656571
-0.0967202
-0.115639
-0.11334
-0.0909642
-0.0646132
-0.0401588
-0.0252597
-0.0137629
-0.00615657
-0.00169644
0.00386787
-0.00185101
-0.0103823
-0.034878
-0.0447655
-0.0476925
-0.0457901
-0.0167074
-0.189464
-0.184474
-0.166284
-0.144106
-0.122726
-0.102388
-0.0823962
-0.0627263
-0.0441425
-0.0280105
-0.0150267
-0.00590282
-0.00112054
-0.00128803
-0.00681982
-0.0176997
-0.033199
-0.0517754
-0.0712261
-0.088234
-0.10114
-0.106464
-0.104519
-0.096669
-0.0848902
-0.0711029
-0.0568803
-0.0432782
-0.0309449
-0.0201068
-0.0110171
-0.00346481
0.00264546
0.00669163
0.00804233
0.00741722
0.0062172
0.00296815
-0.00268429
-0.0124551
-0.0292254
-0.0589627
-0.091168
-0.110266
-0.107732
-0.0859503
-0.0605863
-0.0370888
-0.0227943
-0.0115276
-0.00421373
0.000367732
0.00606236
0.000521486
-0.00834496
-0.0346682
-0.0456764
-0.04774
-0.0458752
-0.0167549
-0.17563
-0.171389
-0.155834
-0.136269
-0.117378
-0.0996783
-0.0824252
-0.0654312
-0.0493109
-0.0350225
-0.0233312
-0.0149489
-0.0103523
-0.00993358
-0.0139542
-0.0223281
-0.0343855
-0.0488115
-0.0638023
-0.0771194
-0.0869681
-0.0911888
-0.089778
-0.083594
-0.0739758
-0.0623572
-0.0500268
-0.0379238
-0.0266978
-0.016599
-0.00793961
-0.000635434
0.00542055
0.00971097
0.0114318
0.0109901
0.00978784
0.00687325
0.00171025
-0.00755721
-0.0238723
-0.0530247
-0.0843274
-0.102742
-0.100576
-0.0800521
-0.0561364
-0.0338244
-0.0202125
-0.00930081
-0.0022789
0.00230883
0.00794236
0.00248014
-0.00674695
-0.0344384
-0.0463473
-0.0473772
-0.0454905
-0.0166979
-0.160915
-0.15846
-0.145847
-0.129007
-0.112432
-0.0970113
-0.0821475
-0.0674906
-0.0535411
-0.0410274
-0.0306586
-0.0230151
-0.0184799
-0.017356
-0.0198228
-0.0257683
-0.034644
-0.0454483
-0.0567991
-0.0670297
-0.0745475
-0.0779664
-0.0769677
-0.072016
-0.0640723
-0.0542386
-0.0435604
-0.0328328
-0.0226707
-0.0133246
-0.00512621
0.00188844
0.00779804
0.0122241
0.014344
0.0142532
0.0133123
0.0107607
0.00604041
-0.00285823
-0.0185077
-0.0461543
-0.0761096
-0.0940695
-0.0923529
-0.0732975
-0.0511252
-0.0303091
-0.0175266
-0.00706894
-0.000345283
0.0041214
0.00969747
0.00428812
-0.00521478
-0.0339654
-0.0466892
-0.0466249
-0.0446224
-0.0165063
-0.146969
-0.14623
-0.136078
-0.121694
-0.107289
-0.0939397
-0.0811826
-0.0687202
-0.0567577
-0.0458875
-0.0367097
-0.0296977
-0.0251879
-0.0234294
-0.0245485
-0.0284433
-0.0347029
-0.0425623
-0.0508617
-0.058509
-0.0641298
-0.0667058
-0.0658453
-0.061792
-0.0552036
-0.0468803
-0.0376428
-0.0281446
-0.0189593
-0.0103428
-0.00261575
0.00409927
0.0098128
0.0142692
0.0167315
0.0170678
0.0165689
0.0145885
0.0105053
0.00229246
-0.0121728
-0.0380566
-0.0668483
-0.0842478
-0.0829992
-0.0657118
-0.045626
-0.0265943
-0.0147673
-0.00485154
0.00157792
0.00580497
0.0112757
0.00601615
-0.00356317
-0.0331045
-0.0466075
-0.0454321
-0.0432026
-0.0161412
-0.134355
-0.134461
-0.126314
-0.114232
-0.101929
-0.0905176
-0.0796993
-0.0691307
-0.0589218
-0.0495159
-0.0414078
-0.0350025
-0.0305912
-0.0283719
-0.0284338
-0.0306915
-0.0348317
-0.0402696
-0.0461928
-0.0515259
-0.0554917
-0.0572319
-0.0563609
-0.0529487
-0.0474077
-0.0403039
-0.0322804
-0.0238651
-0.015572
-0.00765814
-0.000417248
0.00598732
0.0114839
0.015884
0.0186082
0.0194106
0.0194958
0.0182699
0.0150457
0.00786646
-0.00515984
-0.0292316
-0.0566677
-0.0733533
-0.0726978
-0.0574677
-0.0397373
-0.0227239
-0.0119621
-0.0026702
0.00347631
0.00737456
0.0126417
0.00764748
-0.00179457
-0.0317496
-0.0459419
-0.0437174
-0.0411796
-0.0155686
-0.122217
-0.123013
-0.116704
-0.106742
-0.0963803
-0.0867272
-0.0776066
-0.0686992
-0.0600366
-0.051945
-0.0448278
-0.0390261
-0.0347827
-0.0322545
-0.0315042
-0.0324672
-0.0349033
-0.0383559
-0.0422519
-0.0458198
-0.0484082
-0.0493775
-0.0483777
-0.0453734
-0.0406119
-0.0344829
-0.02748
-0.0200167
-0.0125343
-0.00528478
0.00146308
0.00754263
0.012824
0.0171243
0.0200325
0.0212762
0.0220226
0.02169
0.0195112
0.0135491
0.00201079
-0.0200464
-0.0458402
-0.061716
-0.0617515
-0.0487898
-0.0335923
-0.018758
-0.00914322
-0.000545366
0.00533649
0.00885801
0.0137872
0.00915483
6.98163e-05
-0.0297454
-0.0444917
-0.0414173
-0.038533
-0.0147607
-0.110599
-0.112124
-0.107403
-0.0992829
-0.0906406
-0.082552
-0.0749263
-0.0674746
-0.0601747
-0.053261
-0.0470541
-0.041835
-0.0378053
-0.0350919
-0.0337436
-0.0337143
-0.0348223
-0.0367302
-0.0390296
-0.0411667
-0.0426143
-0.0428864
-0.0416853
-0.038926
-0.0347434
-0.0293916
-0.0232389
-0.0166046
-0.00985475
-0.00322568
0.00303383
0.0087707
0.0138392
0.01803
0.0210638
0.0226807
0.0240401
0.0246687
0.0236955
0.0191035
0.00906595
-0.0109029
-0.0348828
-0.0497651
-0.0505278
-0.039958
-0.0273585
-0.0147669
-0.00634156
0.00150723
0.00714586
0.0102928
0.0147308
0.0105473
0.00206988
-0.0269119
-0.042049
-0.0384901
-0.0352818
-0.0137017
-0.0998963
-0.101881
-0.0984146
-0.0918674
-0.0847401
-0.0780343
-0.071717
-0.0655329
-0.0594249
-0.0535553
-0.0481743
-0.0435115
-0.0397343
-0.0369473
-0.0351914
-0.0344318
-0.0345381
-0.0352858
-0.0363432
-0.0373319
-0.0378458
-0.0375155
-0.036094
-0.033475
-0.0297193
-0.0249837
-0.0195365
-0.0136207
-0.00753121
-0.00147882
0.00430865
0.00969
0.0145357
0.0186174
0.021741
0.0236724
0.0255208
0.0270026
0.0273014
0.0241811
0.0155633
-0.00239375
-0.024303
-0.0379345
-0.0394379
-0.0312852
-0.0212252
-0.0108299
-0.00358695
0.00347741
0.00889203
0.011723
0.0155358
0.0118858
0.00427477
-0.0231108
-0.0384379
-0.0349229
-0.0314964
-0.0123961
-0.0900288
-0.0922026
-0.0897388
-0.0845397
-0.0787348
-0.0732355
-0.0680517
-0.062962
-0.0578884
-0.0529383
-0.0483042
-0.0441716
-0.0406784
-0.0379107
-0.0359043
-0.0346369
-0.0340137
-0.0338828
-0.034009
-0.0341091
-0.0338849
-0.0330582
-0.0314279
-0.0288853
-0.0254467
-0.0212029
-0.0163429
-0.0110485
-0.00555207
-3.4172e-05
0.00530291
0.0103258
0.0149311
0.0188954
0.0220793
0.024282
0.0264653
0.0285707
0.0299263
0.0280968
0.0207725
0.00495048
-0.0144413
-0.0266482
-0.02891
-0.0230859
-0.015386
-0.00703211
-0.000911574
0.00535978
0.0105635
0.0131922
0.0163131
0.0132632
0.00673315
-0.0183037
-0.0335766
-0.0307502
-0.027304
-0.0108739
-0.0807562
-0.0830695
-0.0814369
-0.0773726
-0.0726952
-0.0682298
-0.0640165
-0.0598642
-0.0556827
-0.0515378
-0.0475752
-0.0439429
-0.0407535
-0.0380783
-0.0359487
-0.0343516
-0.0332266
-0.032465
-0.0319039
-0.0313379
-0.0305504
-0.0293325
-0.0275249
-0.025028
-0.021833
-0.0179869
-0.0136191
-0.00886258
-0.00389784
0.00112576
0.00603519
0.0107048
0.015051
0.0188746
0.0220816
0.024512
0.0268863
0.029311
0.0312525
0.0302945
0.0241992
0.0108429
-0.00560974
-0.0163829
-0.0193674
-0.0156392
-0.0100126
-0.00345696
0.00164537
0.00714657
0.0121467
0.0147257
0.0171928
0.0147761
0.00944774
-0.0126067
-0.0275542
-0.0260742
-0.0228849
-0.00919515
-0.0721281
-0.0745361
-0.0735558
-0.0704185
-0.0666842
-0.0630934
-0.0597027
-0.0563465
-0.0529287
-0.0494838
-0.0461203
-0.0429551
-0.0400792
-0.0375508
-0.0353981
-0.0336168
-0.0321702
-0.0309812
-0.0299358
-0.0288914
-0.0276923
-0.0261842
-0.0242436
-0.021785
-0.0187873
-0.0152701
-0.0113198
-0.00703121
-0.00254289
0.00202439
0.00652828
0.0108529
0.014925
0.0185781
0.0217537
0.0243597
0.026786
0.0292592
0.0313
0.030816
0.0258945
0.0151549
0.00176246
-0.007624
-0.0111517
-0.00913916
-0.00522601
-0.000175348
0.00404003
0.0088194
0.0136151
0.0163051
0.0182789
0.0164971
0.0123578
-0.00633403
-0.0207033
-0.0210766
-0.0184488
-0.00744546
-0.0642105
-0.0665937
-0.066093
-0.063706
-0.060757
-0.0579001
-0.0552001
-0.0525141
-0.0497449
-0.0469043
-0.0440714
-0.0413378
-0.0387764
-0.0364334
-0.0343354
-0.0324842
-0.0308561
-0.029399
-0.0280365
-0.0266704
-0.0251909
-0.0234859
-0.0214622
-0.0190493
-0.0162226
-0.0129859
-0.00939566
-0.00551778
-0.00145729
0.00268984
0.00680855
0.0107964
0.0145857
0.0180425
0.021116
0.0236733
0.0261679
0.0285228
0.0303713
0.0301105
0.0262158
0.0178768
0.00732872
-0.000676602
-0.00441896
-0.00366218
-0.00108247
0.00276063
0.00623139
0.0103528
0.0149212
0.0178397
0.0195892
0.018435
0.0153288
1.72897e-05
-0.0136008
-0.0160172
-0.014203
-0.00572437
-0.0569041
-0.0591916
-0.0590492
-0.0572697
-0.0549695
-0.0527217
-0.0505954
-0.0484682
-0.0462455
-0.043923
-0.0415565
-0.0392169
-0.0369625
-0.0348314
-0.0328439
-0.0310077
-0.029306
-0.0277074
-0.0261615
-0.0246017
-0.0229522
-0.0211332
-0.0190761
-0.0167256
-0.0140581
-0.0110693
-0.00779576
-0.00428224
-0.000608022
0.00315251
0.00690585
0.010566
0.0140691
0.0173086
0.0202355
0.0227354
0.0251228
0.0272533
0.0288032
0.0286303
0.0255737
0.0192316
0.0111201
0.00450004
0.000872854
0.000816475
0.00241749
0.005319
0.00818451
0.0117229
0.016009
0.0191699
0.020997
0.0204586
0.0181307
0.00586554
-0.00692593
-0.0111869
-0.0103231
-0.00412747
-0.0501411
-0.0523169
-0.0524409
-0.0511448
-0.0493717
-0.0476227
-0.0459678
-0.0443023
-0.0425362
-0.0406543
-0.0386946
-0.036711
-0.0347504
-0.0328459
-0.0310074
-0.029245
-0.0275516
-0.0259087
-0.0242836
-0.0226322
-0.0209031
-0.0190414
-0.0169978
-0.0147306
-0.01222
-0.00945823
-0.0064694
-0.00328327
3.99274e-05
0.00344404
0.00685246
0.0101954
0.0134102
0.0164141
0.0191597
0.0215505
0.0237532
0.0256185
0.0268719
0.0267297
0.0243574
0.0195992
0.0134765
0.00816678
0.00489525
0.00438098
0.00530789
0.00748694
0.00986941
0.0129066
0.0168373
0.0201353
0.0221831
0.0222199
0.0203946
0.0106808
-0.00120404
-0.00682668
-0.00692818
-0.00272945
-0.0439261
-0.0459638
-0.0462699
-0.0453504
-0.0440009
-0.0426569
-0.041386
-0.0400986
-0.038711
-0.037201
-0.0355931
-0.0339279
-0.0322416
-0.030559
-0.0288959
-0.0272525
-0.0256286
-0.0240143
-0.0223892
-0.0207254
-0.0189893
-0.0171438
-0.0151553
-0.0129931
-0.0106423
-0.00809505
-0.00536764
-0.00247979
0.000522296
0.00359695
0.00668013
0.00971681
0.0126463
0.0154048
0.0179425
0.0201749
0.0221659
0.0237766
0.0247855
0.0246703
0.0228646
0.0193392
0.0147923
0.0106563
0.00786264
0.00714208
0.00763619
0.0092664
0.0112629
0.0138727
0.017375
0.020642
0.0227642
0.0232733
0.0217093
0.0141054
0.0033257
-0.00308531
-0.00407677
-0.00157567
-0.0382281
-0.0401026
-0.0405245
-0.0398967
-0.0388864
-0.0378689
-0.0369081
-0.0359279
-0.0348517
-0.0336534
-0.0323477
-0.0309647
-0.0295326
-0.0280701
-0.0265882
-0.0250899
-0.0235761
-0.0220418
-0.0204749
-0.0188583
-0.0171711
-0.0153891
-0.0134903
-0.0114533
-0.00926802
-0.00692769
-0.00444465
-0.00183194
0.000874113
0.00364282
0.00642024
0.00916375
0.0118162
0.0143261
0.0166401
0.0186865
0.0204655
0.0218577
0.0226874
0.0226182
0.0212863
0.0187164
0.0153941
0.0122504
0.00997528
0.00921318
0.00945335
0.0106718
0.0123496
0.014589
0.0176027
0.0206564
0.0226377
0.0233629
0.0219027
0.0160485
0.00663358
-3.67508e-05
-0.00178007
-0.000678963
-0.0329988
-0.0347049
-0.0351966
-0.0347927
-0.0340512
-0.0332946
-0.0325819
-0.0318489
-0.0310268
-0.0300879
-0.0290396
-0.0279037
-0.0267018
-0.0254486
-0.0241507
-0.0228116
-0.021433
-0.020013
-0.0185449
-0.0170186
-0.0154215
-0.013739
-0.0119573
-0.0100623
-0.00804836
-0.0059104
-0.0036588
-0.00130257
0.00112886
0.00361272
0.00610383
0.00856913
0.0109551
0.0132197
0.0153078
0.0171609
0.0187425
0.0199576
0.0206689
0.0206658
0.0197307
0.0179001
0.0155145
0.0131815
0.0114074
0.010704
0.0108113
0.0117273
0.0131251
0.0150358
0.0175376
0.0202246
0.0219267
0.0226114
0.0211751
0.0166931
0.00879604
0.0022975
-1.07805e-05
-2.12044e-05
-0.028212
-0.0297505
-0.0302759
-0.0300404
-0.0295101
-0.0289601
-0.0284443
-0.0279088
-0.0272925
-0.0265677
-0.0257369
-0.0248153
-0.0238189
-0.0227591
-0.0216413
-0.0204668
-0.0192369
-0.017952
-0.0166089
-0.0152017
-0.0137237
-0.0121662
-0.0105216
-0.00878145
-0.00694327
-0.00500416
-0.00297351
-0.000858077
0.00131775
0.0035367
0.0057604
0.00796286
0.0100954
0.012124
0.0139942
0.015658
0.0170659
0.0181418
0.0187823
0.0188592
0.0182511
0.0169883
0.0153205
0.0136335
0.0123072
0.0117139
0.0117643
0.0124612
0.0136055
0.0152131
0.0172189
0.0194538
0.0208149
0.0213227
0.0198928
0.0163887
0.00996707
0.00395396
0.00129545
0.000435718
-0.0238413
-0.0252148
-0.0257468
-0.0256364
-0.0252707
-0.0248836
-0.024523
-0.024144
-0.0236932
-0.0231439
-0.0224952
-0.0217578
-0.0209426
-0.0200585
-0.0191119
-0.0180999
-0.0170233
-0.0158836
-0.01468
-0.0134095
-0.0120685
-0.0106526
-0.00915831
-0.00758099
-0.00592083
-0.00417676
-0.00235759
-0.000468976
0.00146845
0.00344129
0.00541639
0.00737299
0.00926786
0.0110735
0.0127397
0.0142297
0.0154836
0.0164511
0.0170548
0.0172153
0.0168706
0.0160422
0.0149234
0.0137462
0.0127955
0.0123321
0.0123668
0.0129044
0.0138217
0.0151436
0.0167011
0.0184617
0.0194703
0.0197658
0.018362
0.0155041
0.0103729
0.00502093
0.00221993
0.000733049
-0.0198566
-0.0210725
-0.0215929
-0.0215739
-0.0213361
-0.0210763
-0.0208372
-0.0205814
-0.0202626
-0.0198563
-0.0193594
-0.0187793
-0.0181239
-0.0174
-0.0166081
-0.0157501
-0.0148243
-0.0138317
-0.0127732
-0.0116476
-0.0104531
-0.00918755
-0.00785028
-0.00643933
-0.00495664
-0.00340257
-0.00178551
-0.000110589
0.0016045
0.0033488
0.00509407
0.00682336
0.00849842
0.0100971
0.0115746
0.0129022
0.0140234
0.0149087
0.0154958
0.0157331
0.015598
0.0151025
0.0143985
0.0136173
0.0129691
0.0126337
0.012672
0.0130929
0.0138109
0.0148663
0.0160347
0.0173495
0.0180249
0.0181189
0.0167717
0.0143354
0.010253
0.00560162
0.00257363
0.000900448
-0.0162322
-0.0173006
-0.0177971
-0.0178437
-0.0177042
-0.0175435
-0.0173987
-0.0172391
-0.0170251
-0.0167345
-0.016363
-0.0159156
-0.0153973
-0.0148117
-0.0141616
-0.0134479
-0.0126671
-0.0118188
-0.0109045
-0.00992479
-0.00887895
-0.00776621
-0.0065872
-0.00534183
-0.00403307
-0.00266229
-0.00123742
0.000236656
0.00174484
0.00327764
0.00481119
0.00633169
0.00780625
0.00921534
0.0105192
0.0116959
0.0127007
0.0135244
0.0141036
0.014406
0.0144337
0.0141904
0.0137957
0.0133267
0.0129038
0.0126816
0.0127315
0.0130645
0.0136119
0.0144246
0.0152631
0.016192
0.016574
0.0164904
0.015224
0.0130822
0.00981095
0.00585206
0.00297602
0.0010051
-0.0129443
-0.0138763
-0.0143414
-0.0144339
-0.0143696
-0.0142856
-0.0142137
-0.0141288
-0.0139974
-0.0137999
-0.0135316
-0.0131952
-0.0127944
-0.0123303
-0.0118041
-0.0112221
-0.0105763
-0.00986505
-0.00908955
-0.00825133
-0.00735089
-0.00638808
-0.00536407
-0.00427975
-0.00313855
-0.0019426
-0.000699121
0.000587283
0.00190339
0.00324131
0.00458102
0.00591052
0.00720281
0.00844202
0.00959161
0.0106304
0.0115074
0.0123003
0.012873
0.0132248
0.0133715
0.0133117
0.0131432
0.0129531
0.0126562
0.0125285
0.012592
0.0128566
0.0132609
0.0138606
0.0144263
0.0150282
0.0151762
0.0149416
0.0137696
0.0118579
0.00919025
0.00585391
0.00316428
0.0010539
-0.00997001
-0.010778
-0.0112076
-0.0113313
-0.0113243
-0.0112993
-0.0112833
-0.011256
-0.0111895
-0.0110667
-0.010883
-0.0106398
-0.0103399
-0.00998413
-0.00957289
-0.00910133
-0.00857472
-0.00798905
-0.00734313
-0.0066383
-0.00587581
-0.00505598
-0.00418003
-0.00324915
-0.00226682
-0.00123548
-0.000161593
0.000950426
0.0020895
0.00324871
0.00441127
0.00556761
0.00669509
0.00778191
0.00880201
0.00974391
0.0106029
0.0112591
0.0117985
0.0121777
0.0124038
0.012467
0.0124245
0.0122519
0.012234
0.0122156
0.0122961
0.0125063
0.0127931
0.0132129
0.0135578
0.0139081
0.0138674
0.0135075
0.0124293
0.0107153
0.00848774
0.00568016
0.0031968
0.0010591
-0.00728866
-0.00798517
-0.00837786
-0.008522
-0.00855816
-0.00857828
-0.00860492
-0.00862175
-0.00860566
-0.00854223
-0.00842697
-0.00826042
-0.00804397
-0.00777809
-0.00746145
-0.00709349
-0.00667431
-0.00620288
-0.00567665
-0.00509572
-0.00446152
-0.00377501
-0.00303747
-0.00225008
-0.00141597
-0.000537611
0.000379325
0.00133084
0.00230765