/*--------------------------------*- C++ -*----------------------------------*\
| =========                 |                                                 |
| \\      /  F ield         | OpenFOAM: The Open Source CFD Toolbox           |
|  \\    /   O peration     | Version:  2512                                  |
|   \\  /    A nd           | Website:  www.openfoam.com                      |
|    \\/     M anipulation  |                                                 |
\*---------------------------------------------------------------------------*/
FoamFile
{
    version     2.0;
    format      ascii;
    arch        "LSB;label=32;scalar=64";
    class       volVectorField;
    location    "140.25";
    object      U;
}
// * * * * * * * * * * * * * * * * * * * * * * * * * * * * * * * * * * * * * //

dimensions      [0 1 -1 0 0 0 0];

internalField   nonuniform List<vector> 
13248
(
(-0.012196 0.0124011 9.8279e-20)
(-0.0177247 0.0249868 0)
(-0.00423001 0.0303483 -1.86061e-19)
(0.0263312 0.0298545 1.75262e-19)
(0.0725813 0.025061 1.64641e-19)
(0.133455 0.0174547 0)
(0.207841 0.00825169 0)
(0.29431 -0.00158934 4.04504e-19)
(0.390873 -0.011334 -9.12011e-22)
(0.494807 -0.0204514 -3.5511e-19)
(0.602669 -0.0285971 3.29288e-19)
(0.710481 -0.0355934 -2.06161e-19)
(0.814083 -0.0414032 0)
(0.90955 -0.0460951 -3.42843e-19)
(0.993598 -0.0498015 6.33462e-19)
(1.06391 -0.0526769 -1.51537e-19)
(1.11929 -0.0548598 -2.51668e-19)
(1.15971 -0.0564564 2.36285e-19)
(1.18617 -0.0574927 0)
(1.20039 -0.058095 0)
(1.20472 -0.0578245 0)
(1.20084 -0.0582357 0)
(1.1926 -0.0549836 5.7973e-20)
(1.17673 -0.0613416 1.89766e-19)
(-0.0101885 0.00928703 -2.96502e-19)
(-0.00873326 0.0162185 2.01901e-19)
(0.0147188 0.0174908 -1.52238e-21)
(0.0580751 0.0145725 -2.67081e-19)
(0.119767 0.00900429 -1.64465e-19)
(0.198275 0.00221906 -1.55638e-19)
(0.291628 -0.00466561 -2.885e-19)
(0.397093 -0.0108458 2.71882e-19)
(0.511017 -0.0158179 0)
(0.628883 -0.0193705 1.40031e-21)
(0.745636 -0.0215564 2.07283e-21)
(0.85619 -0.0226338 2.03364e-19)
(0.956005 -0.0229827 0)
(1.04158 -0.0230121 0)
(1.1108 -0.0230755 2.25281e-19)
(1.163 -0.0234114 -4.23185e-19)
(1.19892 -0.0241156 2.41434e-19)
(1.22036 -0.0251464 -2.26689e-19)
(1.22983 -0.0263528 -9.58007e-20)
(1.23011 -0.0275282 -1.66616e-19)
(1.22387 -0.0283507 -6.35618e-20)
(1.21344 -0.0289461 -1.1693e-19)
(1.20081 -0.0273697 1.80337e-19)
(1.18554 -0.0300673 4.91075e-20)
(-0.00721978 0.00625157 0)
(0.00393309 0.00774188 0)
(0.0406311 0.00547503 9.45084e-20)
(0.100282 0.000976176 8.74891e-20)
(0.180703 -0.00423267 -1.54559e-21)
(0.279348 -0.00880156 -1.59213e-19)
(0.392683 -0.0118232 0)
(0.515979 -0.0128468 -1.3544e-19)
(0.643463 -0.0118537 1.2629e-19)
(0.76881 -0.00920282 -5.41214e-22)
(0.885884 -0.00552172 -2.15747e-19)
(0.989508 -0.00155467 -1.95429e-19)
(1.07606 0.00199597 5.59335e-21)
(1.14377 0.00459816 -1.55164e-19)
(1.19271 0.00596367 3.78065e-19)
(1.2245 0.00605978 0)
(1.2418 0.0050692 -2.31962e-19)
(1.24776 0.00331534 1.13903e-19)
(1.24556 0.00119265 9.57226e-20)
(1.23798 -0.000947464 0)
(1.22728 -0.00267073 7.41373e-20)
(1.21493 -0.00414313 -2.46639e-19)
(1.20219 -0.00390087 2.31528e-19)
(1.18874 -0.00722113 1.3673e-19)
(-0.00283743 0.00320402 -1.03691e-19)
(0.0213087 -0.000318787 -1.06942e-19)
(0.0748643 -0.00510952 9.73791e-20)
(0.154272 -0.00979607 0)
(0.256105 -0.013012 0)
(0.376009 -0.013654 -2.40812e-21)
(0.508121 -0.011271 0)
(0.645248 -0.0060621 -4.07957e-19)
(0.779587 0.00124121 3.78505e-19)
(0.903763 0.00956633 -4.67434e-19)
(1.01186 0.017746 1.072e-19)
(1.10011 0.0247603 0)
(1.16717 0.0299119 1.73215e-19)
(1.21388 0.0329002 -3.18812e-19)
(1.24276 0.0337976 7.61072e-20)
(1.25723 0.032954 1.87418e-19)
(1.26099 0.0308702 -1.20935e-20)
(1.25741 0.02808 -2.0563e-19)
(1.24925 0.0250599 0)
(1.23857 0.0221835 0)
(1.22671 0.0197446 -6.91588e-20)
(1.21449 0.0176902 6.08907e-20)
(1.20255 0.0169992 2.09914e-19)
(1.19032 0.0134312 -1.97125e-19)
(0.0034468 0.000133212 -1.08105e-19)
(0.0443701 -0.00770255 -1.08189e-19)
(0.11841 -0.0135719 3.04646e-19)
(0.220478 -0.0166045 -1.85859e-19)
(0.345099 -0.0158741 1.74937e-19)
(0.485271 -0.0108407 3.19482e-19)
(0.632268 -0.0018681 -2.25163e-19)
(0.776548 0.0098931 -2.72707e-19)
(0.909187 0.0228343 6.20295e-21)
(1.02326 0.0352774 3.501e-19)
(1.11471 0.0458284 0)
(1.18254 0.0536065 9.4397e-20)
(1.22834 0.0583094 0)
(1.25548 0.0601334 -1.51285e-19)
(1.2681 0.0596071 2.12588e-19)
(1.27036 0.0574045 2.19683e-21)
(1.26584 0.0541908 -5.4176e-20)
(1.25726 0.0505251 9.99419e-20)
(1.24654 0.0468239 8.53462e-20)
(1.2349 0.0433642 -7.55326e-20)
(1.22307 0.0403175 6.91406e-20)
(1.21142 0.0376793 -6.08739e-20)
(1.2002 0.0359385 0)
(1.18916 0.0321591 -4.55625e-20)
(0.0120747 -0.00282984 1.08089e-19)
(0.0738632 -0.0138807 1.12826e-19)
(0.171678 -0.0189736 -1.01929e-19)
(0.298244 -0.0182051 1.89969e-19)
(0.445178 -0.0115321 -1.78796e-19)
(0.602199 0.000571177 1.62053e-19)
(0.75778 0.0165525 -7.7486e-20)
(0.901003 0.0341643 2.04779e-19)
(1.02348 0.0510795 -1.28075e-19)
(1.1205 0.0654186 2.25064e-19)
(1.1912 0.0760549 -5.1753e-19)
(1.23784 0.0826645 1.88932e-19)
(1.2646 0.0855732 -1.63922e-19)
(1.27636 0.0855013 1.53979e-19)
(1.27776 0.0833068 1.30804e-19)
(1.27263 0.0797947 1.13212e-19)
(1.26375 0.0756137 -3.14472e-19)
(1.25298 0.0712303 1.94437e-19)
(1.24148 0.0669493 -8.53477e-20)
(1.22988 0.0629534 2.19538e-19)
(1.21853 0.0593406 -7.09326e-20)
(1.20757 0.0561317 -1.68911e-19)
(1.1971 0.0535557 1.55322e-19)
(1.18691 0.0496514 4.55484e-20)
(0.0233796 -0.00540777 0)
(0.110158 -0.0180453 6.89679e-22)
(0.234332 -0.020135 2.10852e-19)
(0.385743 -0.0133148 -1.98028e-19)
(0.552402 0.000999008 -1.79128e-19)
(0.720662 0.0208357 3.32874e-19)
(0.87712 0.0432455 -1.54568e-19)
(1.01123 0.0650586 2.05645e-19)
(1.11703 0.0837096 -4.8592e-21)
(1.19339 0.0976895 -1.15927e-19)
(1.24303 0.106589 2.51701e-19)
(1.27092 0.110854 -3.69999e-19)
(1.28277 0.111413 0)
(1.28381 0.109339 -7.16611e-20)
(1.27823 0.105603 -1.90069e-19)
(1.269 0.10097 5.99236e-20)
(1.25804 0.0959721 2.75147e-21)
(1.24646 0.0909533 -1.27699e-19)
(1.23489 0.0861173 9.41629e-21)
(1.22361 0.0815777 1.46982e-19)
(1.21276 0.0773902 -6.42737e-20)
(1.20238 0.0735857 -2.40337e-20)
(1.19245 0.0701894 7.53946e-20)
(1.18286 0.0660855 0)
(0.0375445 -0.007203 0)
(0.153136 -0.0191812 5.70073e-20)
(0.30518 -0.0157656 -2.72858e-19)
(0.480033 -0.00080143 9.94919e-20)
(0.661842 0.0222156 -9.36366e-20)
(0.83434 0.0494853 -8.51392e-20)
(0.983993 0.0767942 -1.50941e-19)
(1.10266 0.100581 7.52252e-20)
(1.18827 0.118696 6.57462e-20)
(1.24367 0.130505 0)
(1.2746 0.136534 1.48105e-19)
(1.28766 0.137946 -2.19127e-19)
(1.28891 0.136079 1.63259e-19)
(1.28308 0.132129 7.16986e-20)
(1.27349 0.127017 -5.80955e-20)
(1.2622 0.121375 -4.80788e-20)
(1.25039 0.115601 -4.45501e-20)
(1.23867 0.109928 1.34492e-19)
(1.22732 0.104486 0)
(1.21646 0.0993463 6.6375e-20)
(1.20611 0.0945457 5.49705e-20)
(1.19625 0.0901035 -1.37348e-19)
(1.18682 0.0859567 -9.23891e-20)
(1.17774 0.081637 8.5698e-20)
(0.0545638 -0.00774153 -6.02357e-20)
(0.20212 -0.0161969 -1.69761e-21)
(0.382179 -0.00467293 5.52701e-20)
(0.577308 0.020081 1.53802e-19)
(0.768259 0.0519886 4.45742e-20)
(0.937749 0.0854321 -8.61198e-20)
(1.07427 0.115473 7.90261e-20)
(1.17374 0.138905 -6.9487e-20)
(1.23856 0.154593 1.23783e-19)
(1.27505 0.163039 5.2745e-20)
(1.29086 0.165662 -1.49143e-19)
(1.29308 0.164139 4.40186e-20)
(1.28731 0.159974 7.47608e-20)
(1.27736 0.154316 -3.68327e-20)
(1.26562 0.147942 0)
(1.2534 0.141331 5.44836e-20)
(1.24134 0.134757 9.17514e-20)
(1.22975 0.128372 1.53561e-20)
(1.21872 0.122256 -7.61754e-20)
(1.20827 0.116454 3.17836e-20)
(1.19837 0.110992 0)
(1.18896 0.105865 -2.47503e-20)
(1.17997 0.100998 -2.29898e-20)
(1.1713 0.0963556 0)
(0.0742076 -0.00652557 0)
(0.255842 -0.0080778 3.1423e-20)
(0.462543 0.0140274 5.81368e-20)
(0.673312 0.049523 -1.55772e-19)
(0.866819 0.0895706 4.9989e-20)
(1.02694 0.127201 0)
(1.14613 0.157587 7.54145e-20)
(1.22526 0.178614 -1.0514e-19)
(1.27083 0.190527 -6.15572e-20)
(1.2916 0.194971 2.79606e-20)
(1.29601 0.19405 -4.41993e-20)
(1.29081 0.189699 1.07622e-19)
(1.28065 0.1834 5.38837e-20)
(1.2684 0.176148 -3.75278e-20)
(1.25562 0.168547 -3.60066e-21)
(1.24307 0.160933 -1.02295e-19)
(1.23108 0.153488 4.6543e-20)
(1.21975 0.146304 -1.05156e-21)
(1.2091 0.139433 0)
(1.19907 0.132902 -3.18163e-20)
(1.18961 0.126723 0)
(1.18064 0.120873 7.15369e-20)
(1.17207 0.115321 -8.50976e-20)
(1.1638 0.110256 3.87078e-20)
(0.0960003 -0.00308429 -1.60477e-20)
(0.312489 0.00598324 -7.85902e-20)
(0.542978 0.040765 8.90553e-20)
(0.763821 0.0871122 5.25508e-20)
(0.953624 0.133731 -2.52158e-20)
(1.09963 0.173182 4.21796e-20)
(1.19957 0.201671 -2.05631e-20)
(1.2592 0.218718 3.42559e-20)
(1.28824 0.226043 0)
(1.29674 0.226252 7.75961e-20)
(1.29304 0.221865 -3.13391e-21)
(1.28302 0.214855 -6.27144e-20)
(1.2703 0.206552 2.69064e-20)
(1.25687 0.197756 -3.0385e-20)
(1.2437 0.188905 -1.15978e-20)
(1.23117 0.180223 1.33355e-20)
(1.21942 0.171822 -1.03516e-20)
(1.20844 0.163759 -5.58722e-20)
(1.1982 0.156062 3.42729e-20)
(1.18862 0.148746 7.04482e-21)
(1.17961 0.141806 6.19838e-21)
(1.17108 0.135211 5.45374e-21)
(1.16293 0.129002 0)
(1.15504 0.123384 0)
(0.119298 0.00299033 1.60588e-20)
(0.369953 0.026501 -1.61358e-20)
(0.620144 0.0754494 -2.96042e-20)
(0.845201 0.1319 0)
(1.02601 0.182961 -1.24591e-20)
(1.155 0.221848 -1.11175e-20)
(1.23558 0.246586 -1.91382e-20)
(1.27777 0.258592 0)
(1.29337 0.260946 0)
(1.29278 0.256934 0)
(1.2836 0.249242 0)
(1.27063 0.239718 0)
(1.25657 0.22948 -1.69141e-20)
(1.24269 0.219131 7.70899e-21)
(1.22953 0.208971 1.34218e-20)
(1.21726 0.199138 6.26122e-21)
(1.20588 0.189696 1.55629e-20)
(1.19535 0.180673 0)
(1.18559 0.172085 -3.74841e-21)
(1.17651 0.163931 -3.53674e-21)
(1.16801 0.156193 -6.20817e-21)
(1.15998 0.148849 -5.46238e-21)
(1.15232 0.142008 0)
(1.14489 0.135727 3.94254e-21)
(-0.00221179 0.00934013 9.08076e-21)
(-0.00947812 0.0104392 -9.44007e-21)
(-0.022036 0.000709353 -1.78936e-20)
(-0.037199 -0.0149703 0)
(-0.0535853 -0.0333211 -2.38848e-20)
(-0.0705375 -0.0524948 7.42707e-21)
(-0.0875637 -0.0717465 -1.42737e-20)
(-0.104269 -0.0910489 0)
(-0.12035 -0.110732 0)
(-0.135569 -0.131198 0)
(-0.149736 -0.152752 0)
(-0.162693 -0.175529 0)
(-0.174291 -0.199481 -2.08996e-22)
(-0.184383 -0.224394 -9.24326e-21)
(-0.19281 -0.249903 1.77461e-20)
(-0.199401 -0.275497 2.47874e-20)
(-0.203973 -0.300527 7.9231e-21)
(-0.206336 -0.324201 0)
(-0.206316 -0.345601 6.70682e-21)
(-0.203777 -0.363713 -1.89536e-20)
(-0.198589 -0.377487 -1.17846e-20)
(-0.190531 -0.385859 -1.09624e-20)
(-0.179546 -0.387751 0)
(-0.166735 -0.3824 0)
(-0.00342699 0.0150934 -2.75448e-20)
(-0.0117646 0.0236679 4.74026e-20)
(-0.0247659 0.0187091 -1.82667e-20)
(-0.0400283 0.00603196 -3.43674e-20)
(-0.0563233 -0.0105243 4.83443e-20)
(-0.0730737 -0.0287633 -3.07345e-20)
(-0.0898225 -0.047705 4.318e-20)
(-0.106194 -0.0671617 2.79034e-20)
(-0.121906 -0.0873598 0)
(-0.136749 -0.108633 -2.40614e-20)
(-0.150571 -0.131248 -1.7988e-22)
(-0.163259 -0.155326 2.12139e-20)
(-0.174716 -0.180826 3.10002e-20)
(-0.184855 -0.207556 3.85508e-20)
(-0.193586 -0.23518 -1.77853e-20)
(-0.200818 -0.263219 -5.057e-20)
(-0.206452 -0.291049 1.60065e-20)
(-0.210392 -0.317894 -5.96587e-20)
(-0.212563 -0.342834 0)
(-0.212938 -0.364826 1.26442e-20)
(-0.211451 -0.38275 1.17722e-20)
(-0.207791 -0.395425 1.09509e-20)
(-0.201885 -0.401631 0)
(-0.196002 -0.400485 0)
(-0.00517719 0.0205979 0)
(-0.0149075 0.0366356 9.88375e-20)
(-0.0278944 0.0366511 -3.72043e-20)
(-0.0423639 0.027216 3.49507e-20)
(-0.0574065 0.0126605 -1.00689e-19)
(-0.0725897 -0.0044676 0)
(-0.0875169 -0.0229239 -6.01467e-20)
(-0.101847 -0.042334 2.86967e-20)
(-0.115319 -0.062776 -5.47595e-20)
(-0.127738 -0.0844978 2.69279e-20)
(-0.13897 -0.107722 1.45453e-19)
(-0.148928 -0.132556 -6.83496e-20)
(-0.157558 -0.15897 -1.06605e-19)
(-0.164824 -0.186793 -4.11479e-20)
(-0.170704 -0.215721 2.10378e-22)
(-0.175194 -0.245312 1.41127e-19)
(-0.1783 -0.27498 -6.60501e-20)
(-0.180043 -0.303991 -1.00764e-21)
(-0.18047 -0.331454 0)
(-0.179688 -0.356328 -5.20699e-20)
(-0.17775 -0.377434 0)
(-0.174294 -0.393482 -4.13438e-20)
(-0.169005 -0.403204 1.54291e-19)
(-0.165321 -0.405792 -2.50529e-21)
(-0.00730842 0.0252505 0)
(-0.018637 0.0480913 1.26224e-21)
(-0.0311291 0.0529919 3.90509e-20)
(-0.0439186 0.0469287 -3.71912e-20)
(-0.0565486 0.0345614 3.35207e-20)
(-0.0687945 0.0187359 1.97252e-19)
(-0.0803701 0.000956018 -6.17622e-20)
(-0.0909564 -0.018187 -5.97896e-20)
(-0.100294 -0.038618 1.1144e-19)
(-0.108203 -0.0604745 -1.57849e-19)
(-0.114548 -0.0839167 5.06279e-20)
(-0.119243 -0.109027 4.81896e-20)
(-0.12225 -0.135769 0)
(-0.123569 -0.163977 4.11022e-20)
(-0.123238 -0.193357 0)
(-0.12134 -0.223482 7.47895e-20)
(-0.118 -0.253793 -1.35302e-19)
(-0.113383 -0.283599 3.35577e-20)
(-0.107701 -0.312069 1.16826e-19)
(-0.10123 -0.338225 5.20168e-20)
(-0.0942478 -0.360911 0)
(-0.0865706 -0.378774 -1.24413e-19)
(-0.077311 -0.390447 4.01841e-20)
(-0.0692682 -0.395225 0)
(-0.00957965 0.0285557 0)
(-0.0225544 0.0569469 -1.25085e-19)
(-0.034117 0.0663318 -4.03883e-20)
(-0.0444529 0.0636287 -7.52925e-20)
(-0.0536414 0.0535905 7.08993e-20)
(-0.0617041 0.0392534 -6.641e-20)
(-0.06848 0.022347 1.28587e-19)
(-0.0737193 0.00367849 6.08804e-20)
(-0.0771611 -0.0165141 -1.71471e-19)
(-0.0785937 -0.0382443 1.09869e-19)
(-0.0778741 -0.061595 -1.54649e-19)
(-0.0749073 -0.086604 3.4595e-19)
(-0.0696534 -0.113208 -1.84771e-19)
(-0.062135 -0.141221 8.84445e-20)
(-0.0524427 -0.170327 2.45398e-19)
(-0.0407447 -0.200077 -7.63603e-20)
(-0.0272951 -0.229896 -7.37253e-20)
(-0.012427 -0.259098 -6.54932e-20)
(0.0034513 -0.286889 0)
(0.0198498 -0.312385 -1.03713e-19)
(0.0361909 -0.334584 -8.65228e-20)
(0.0520778 -0.352265 1.31088e-19)
(0.068343 -0.363806 1.39096e-19)
(0.0875137 -0.367213 -1.30312e-19)
(-0.0117108 0.0302205 0)
(-0.0261924 0.0624486 -1.73792e-19)
(-0.0364763 0.0755926 -1.69674e-21)
(-0.0437687 0.0760351 1.54037e-19)
(-0.048693 0.0683576 0)
(-0.0515353 0.0556454 0)
(-0.0522812 0.0397795 0)
(-0.0507504 0.0217476 -6.2391e-20)
(-0.0467079 0.00196511 -1.16353e-21)
(-0.0399267 -0.0194572 1.12195e-19)
(-0.0302316 -0.0425094 -1.58998e-19)
(-0.0175159 -0.0671661 -3.5043e-22)
(-0.00174595 -0.093318 0)
(0.0170236 -0.120736 -8.83886e-20)
(0.0386354 -0.149058 8.43169e-20)
(0.0628142 -0.17778 -2.35533e-19)
(0.0891537 -0.20627 2.86004e-19)
(0.117133 -0.233785 6.03436e-20)
(0.146131 -0.2595 -9.74908e-21)
(0.175428 -0.282568 -2.1927e-19)
(0.204197 -0.302151 -9.42294e-20)
(0.231738 -0.317307 2.8101e-19)
(0.257607 -0.32654 -1.82177e-19)
(0.290553 -0.325872 0)
(-0.0134457 0.0301987 8.70954e-20)
(-0.0290985 0.0642763 8.742e-20)
(-0.0378371 0.0801402 -8.47204e-20)
(-0.0416898 0.08325 -1.58831e-19)
(-0.0417547 0.0777761 1.49554e-19)
(-0.0385698 0.066703 -1.42796e-19)
(-0.03228 0.0519689 2.02465e-19)
(-0.0227921 0.0346916 -6.27315e-20)
(-0.00990498 0.0154345 1.21036e-19)
(0.00660087 -0.00555587 0)
(0.0269045 -0.0281662 1.1134e-19)
(0.0511049 -0.0522913 -2.08094e-19)
(0.0791957 -0.0777565 1.94955e-19)
(0.111038 -0.104275 -1.83104e-19)
(0.146341 -0.131423 0)
(0.184642 -0.15864 1.58061e-19)
(0.22531 -0.185234 2.87993e-19)
(0.267554 -0.21041 -2.69889e-19)
(0.310467 -0.233319 -1.19403e-19)
(0.353098 -0.253101 -1.00679e-19)
(0.394332 -0.269011 2.88251e-19)
(0.434036 -0.280108 7.31082e-20)
(0.467815 -0.286643 -7.55483e-20)
(0.516529 -0.281084 5.67512e-20)
(-0.0146098 0.0286817 -8.71071e-20)
(-0.0309135 0.0625713 2.73642e-19)
(-0.0378675 0.0798555 -8.6616e-20)
(-0.0380144 0.0848629 1.62299e-19)
(-0.0327922 0.0811906 -1.52815e-19)
(-0.0229473 0.0715921 5.82093e-22)
(-0.00877769 0.0579652 6.88771e-20)
(0.00971018 0.0414951 2.64086e-19)
(0.0326612 0.0228596 2.16611e-21)
(0.0602596 0.00243012 -1.15751e-19)
(0.0926446 -0.0195664 0)
(0.129845 -0.0429265 -1.05808e-19)
(0.17173 -0.0673904 1.97221e-19)
(0.217967 -0.0925947 1.84155e-19)
(0.267998 -0.11805 -8.69315e-20)
(0.321022 -0.14314 -4.21045e-23)
(0.376021 -0.167143 -7.29242e-20)
(0.431802 -0.189268 1.31578e-19)
(0.487064 -0.208713 1.19349e-19)
(0.5406 -0.224667 -1.06064e-19)
(0.590746 -0.236685 9.12332e-20)
(0.638759 -0.243257 -7.85872e-20)
(0.675106 -0.247434 0)
(0.732336 -0.237663 -5.66581e-20)
(-0.0151399 0.026041 9.03615e-20)
(-0.0314123 0.0578711 -9.18782e-20)
(-0.0362689 0.0751249 8.82442e-20)
(-0.0324276 0.0810088 0)
(-0.021503 0.0784898 0)
(-0.00437998 0.0700083 1.49811e-19)
(0.0185187 0.0573425 -1.39061e-19)
(0.0470851 0.0416835 1.33935e-19)
(0.0813812 0.0237885 -6.2611e-19)
(0.121503 0.00413732 -5.03844e-22)
(0.167463 -0.0169269 1.12031e-19)
(0.219098 -0.039089 0)
(0.275989 -0.0619887 -1.97592e-19)
(0.337417 -0.0851793 3.69589e-19)
(0.402339 -0.108113 -2.58786e-19)
(0.469411 -0.130151 -3.91648e-19)
(0.537054 -0.150596 9.34103e-21)
(0.60356 -0.168734 2.64091e-19)
(0.667199 -0.183909 0)
(0.726561 -0.195435 0)
(0.779619 -0.203342 -9.1218e-20)
(0.828507 -0.205632 7.85757e-20)
(0.862037 -0.207445 -2.50298e-19)
(0.914839 -0.19475 2.34822e-19)
(-0.0150818 0.0227306 0)
(-0.0304873 0.0509668 0)
(-0.0327158 0.0667472 -2.66354e-19)
(-0.0243776 0.0723532 8.43686e-20)
(-0.00710699 0.0701753 -3.06456e-22)
(0.018153 0.0623215 1.50506e-19)
(0.0508939 0.0504069 0)
(0.0909033 0.0355875 -1.33522e-19)
(0.138107 0.0186652 1.25578e-19)
(0.192401 0.000210819 -2.38474e-19)
(0.2535 -0.0193219 -1.08386e-22)
(0.320814 -0.039511 2.10475e-19)
(0.393365 -0.0599095 -1.17186e-21)
(0.469752 -0.0800191 1.80217e-19)
(0.548191 -0.0992898 -2.5831e-19)
(0.626608 -0.117142 0)
(0.70279 -0.133001 2.78065e-19)
(0.774575 -0.146341 -3.9025e-19)
(0.840026 -0.156739 1.1209e-19)
(0.897713 -0.163786 0)
(0.946137 -0.167752 8.62807e-20)
(0.98701 -0.16694 2.89719e-19)
(1.01252 -0.166725 -2.71928e-19)
(1.04927 -0.153046 -2.61924e-19)
(-0.0145396 0.0191777 2.80666e-19)
(-0.0280649 0.0427219 -3.85617e-19)
(-0.0267521 0.055776 5.52939e-22)
(-0.0129446 0.060013 8.5826e-20)
(0.0118166 0.0573815 -1.6082e-19)
(0.0465943 0.0496989 -1.49954e-19)
(0.0908118 0.0384175 2.84359e-19)
(0.144101 0.0246348 3.05397e-22)
(0.206114 0.0091719 -2.52133e-19)
(0.276318 -0.00733456 4.75685e-19)
(0.353817 -0.0243563 3.26372e-22)
(0.437229 -0.0414149 -2.09806e-19)
(0.524651 -0.0580487 0)
(0.613717 -0.0738036 0)
(0.701746 -0.0882427 -8.42269e-20)
(0.785965 -0.100967 -1.5037e-19)
(0.863754 -0.111639 -2.70442e-19)
(0.932885 -0.120013 2.53878e-19)
(0.991755 -0.125913 -1.12147e-19)
(1.03942 -0.129317 1.87807e-19)
(1.07573 -0.130337 -9.92683e-20)
(1.1018 -0.128394 1.28734e-19)
(1.11545 -0.127012 -3.2697e-19)
(1.13147 -0.115043 5.42075e-20)
(-0.013589 0.0156879 9.48463e-20)
(-0.0239589 0.0338917 0)
(-0.0176449 0.0433306 1.83442e-19)
(0.00328001 0.0454008 -1.72799e-19)
(0.0374049 0.041777 1.60965e-19)
(0.0838017 0.034064 0)
(0.141753 0.0235745 0)
(0.210559 0.0113404 -1.34622e-19)
(0.289298 -0.00182761 6.09735e-23)
(0.376607 -0.0152883 1.18585e-19)
(0.470524 -0.0285264 -1.1011e-19)
(0.568467 -0.0411228 2.08204e-19)
(0.667337 -0.052739 0)
(0.763752 -0.0631127 3.51667e-19)
(0.854352 -0.0720546 -6.51381e-19)
(0.936129 -0.0794472 4.52035e-19)
(1.00671 -0.0852343 2.61531e-19)
(1.06457 -0.0894302 -2.45529e-19)
(1.10913 -0.0920408 0)
(1.14062 -0.0932932 0)
(1.16039 -0.0929382 0)
(1.16967 -0.0918331 0)
(1.17096 -0.0896158 6.22775e-20)
(1.16958 -0.0827371 -2.02597e-19)
(-0.151516 -0.368362 -7.01255e-21)
(-0.124808 -0.338454 7.03759e-21)
(-0.0921058 -0.291484 -2.06852e-22)
(-0.0534541 -0.227708 0)
(-0.00951593 -0.147787 -6.82301e-21)
(0.038537 -0.0538539 1.32116e-20)
(0.0896296 0.0519209 -1.76238e-22)
(0.14241 0.164668 -6.04552e-21)
(0.195761 0.277813 0)
(0.248518 0.382731 0)
(0.299094 0.47146 -2.38392e-22)
(0.344717 0.537416 -2.00821e-22)
(0.381892 0.578342 -2.79468e-21)
(0.406644 0.598325 2.55286e-21)
(0.414998 0.606855 0)
(0.406714 0.611712 0)
(0.390595 0.60833 1.89592e-21)
(0.383986 0.576587 1.9616e-22)
(0.403111 0.492937 -1.84361e-21)
(0.451147 0.34908 -1.52687e-22)
(0.518563 0.158258 0)
(0.592769 -0.0508997 0)
(0.663141 -0.242455 0)
(0.721141 -0.385468 0)
(0.761974 -0.469256 0)
(0.784194 -0.503735 0)
(0.79145 -0.505901 2.97045e-22)
(0.789482 -0.491802 -4.8677e-22)
(0.77676 -0.48184 0)
(0.745567 -0.490064 0)
(0.69874 -0.497962 -3.97914e-22)
(0.656929 -0.456561 3.86745e-22)
(0.643713 -0.326968 2.31648e-22)
(0.663016 -0.128915 0)
(0.704509 0.083211 0)
(0.749987 0.249919 3.88321e-22)
(0.792089 0.352781 -3.7746e-22)
(0.82372 0.397176 0)
(0.83758 0.421407 2.18796e-22)
(0.821391 0.447023 -3.16249e-22)
(0.78073 0.457015 1.06927e-22)
(0.738017 0.413538 0)
(0.723126 0.273765 -2.78934e-22)
(0.733386 0.0916585 2.71229e-22)
(0.771867 -0.106557 0)
(0.809106 -0.229135 0)
(0.838841 -0.315102 -7.48073e-23)
(0.828102 -0.361182 2.05417e-22)
(0.792706 -0.377656 0)
(0.755392 -0.358994 0)
(0.754298 -0.208224 -5.60814e-23)
(0.7751 -0.0880561 5.14285e-24)
(0.813949 0.113036 -4.38038e-24)
(0.813538 0.218865 3.66957e-23)
(0.804874 0.317268 0)
(0.78784 0.381708 0)
(0.796988 0.223612 0)
(0.792693 0.193918 0)
(0.809271 -0.0967193 0)
(0.788468 -0.222376 0)
(-0.193154 -0.391434 -6.17088e-22)
(-0.180874 -0.369295 -2.5694e-20)
(-0.161295 -0.329478 2.50709e-22)
(-0.13484 -0.272518 2.3911e-20)
(-0.100811 -0.198411 3.35363e-22)
(-0.0594695 -0.10874 0)
(-0.0118747 -0.00660927 -2.09381e-20)
(0.0397715 0.103762 4.03242e-20)
(0.0936193 0.218814 -1.93856e-20)
(0.148931 0.32592 1.55935e-20)
(0.204455 0.419521 -1.49174e-20)
(0.256681 0.493757 1.12098e-20)
(0.301375 0.546588 -1.08695e-20)
(0.334075 0.581221 -2.60788e-22)
(0.352122 0.603891 -7.80995e-21)
(0.358717 0.616806 7.5901e-21)
(0.365374 0.610801 -8.0133e-21)
(0.387894 0.566496 7.52656e-21)
(0.435805 0.467201 -9.99721e-21)
(0.505256 0.311873 2.04171e-20)
(0.584919 0.115754 -1.03811e-20)
(0.663945 -0.0936234 -6.77694e-22)
(0.732711 -0.28067 -8.7457e-21)
(0.783154 -0.41489 1.55125e-20)
(0.81286 -0.487448 -6.81611e-21)
(0.823307 -0.511343 2.90632e-22)
(0.819271 -0.506136 3.39167e-21)
(0.807586 -0.486666 -3.21113e-22)
(0.788788 -0.469651 -5.24558e-21)
(0.754476 -0.46976 5.03522e-21)
(0.703353 -0.475004 -2.48753e-21)
(0.653087 -0.441468 3.45001e-22)
(0.629109 -0.326904 -2.32111e-22)
(0.640252 -0.142754 4.36394e-22)
(0.677988 0.0620253 0)
(0.725126 0.228321 0)
(0.772722 0.335224 -1.14575e-21)
(0.811615 0.386752 8.68862e-22)
(0.830745 0.420901 6.55969e-22)
(0.818476 0.456382 1.2539e-22)
(0.782668 0.470907 -9.53746e-22)
(0.746309 0.42412 2.66322e-22)
(0.738061 0.276135 0)
(0.75036 0.0855366 0)
(0.788183 -0.117394 0)
(0.820923 -0.239084 0)
(0.848771 -0.317718 3.47524e-22)
(0.836216 -0.355081 -1.32783e-22)
(0.799501 -0.367897 0)
(0.760718 -0.353787 0)
(0.756021 -0.210912 0)
(0.775988 -0.0954458 -8.47886e-23)
(0.810209 0.108379 1.54974e-23)
(0.809895 0.219428 -8.24012e-23)
(0.800482 0.319821 0)
(0.784242 0.382687 0)
(0.79702 0.22247 5.70295e-23)
(0.79415 0.192735 1.82244e-22)
(0.815383 -0.095864 0)
(0.793077 -0.220931 0)
(-0.172165 -0.401279 -1.65313e-21)
(-0.177928 -0.38796 -4.71521e-20)
(-0.174977 -0.356958 4.34517e-20)
(-0.165675 -0.309168 -4.07123e-20)
(-0.14747 -0.243685 -3.37703e-22)
(-0.119941 -0.161537 0)
(-0.083088 -0.0654991 -3.45366e-20)
(-0.0361116 0.0403834 3.37179e-20)
(0.014175 0.153366 2.63658e-22)
(0.0661674 0.262838 3.70032e-22)
(0.122714 0.36111 3.26073e-22)
(0.178264 0.443713 3.51134e-22)
(0.228369 0.50839 -1.7054e-20)
(0.269218 0.556367 1.6836e-20)
(0.300085 0.58991 0)
(0.32628 0.606732 4.31682e-22)
(0.359076 0.595715 -1.63724e-20)
(0.410198 0.540629 1.61704e-20)
(0.482629 0.431537 0)
(0.568348 0.271907 0)
(0.656586 0.0767045 -2.36742e-20)
(0.738219 -0.128861 4.50912e-20)
(0.8039 -0.309061 -3.91355e-20)
(0.845856 -0.434127 3.70299e-21)
(0.863878 -0.496931 2.49826e-20)
(0.862664 -0.512394 -1.95906e-20)
(0.84814 -0.501787 1.43178e-20)
(0.827376 -0.478917 -1.34776e-21)
(0.802866 -0.456452 -5.22507e-21)
(0.766486 -0.448826 0)
(0.712814 -0.450753 0)
(0.655426 -0.424791 2.16347e-21)
(0.620711 -0.326163 -2.72494e-21)
(0.622715 -0.157493 -6.5667e-23)
(0.655624 0.0386095 2.98754e-21)
(0.703712 0.203548 -2.90345e-21)
(0.756063 0.314341 0)
(0.801494 0.373619 2.45847e-22)
(0.825641 0.418309 1.94561e-21)
(0.817707 0.463956 -3.89216e-21)
(0.78743 0.48326 1.74245e-21)
(0.757656 0.433959 2.99075e-22)
(0.755998 0.279124 -3.32453e-21)
(0.770394 0.0814141 2.58626e-21)
(0.80722 -0.125745 6.12725e-22)
(0.834997 -0.247254 4.7914e-22)
(0.860438 -0.319382 -3.48392e-22)
(0.846069 -0.348573 0)
(0.808158 -0.357845 0)
(0.767967 -0.348637 -7.39486e-22)
(0.759605 -0.213728 3.63255e-22)
(0.778583 -0.10288 -3.10555e-22)
(0.808156 0.103621 4.56713e-22)
(0.807883 0.219877 5.58205e-22)
(0.797345 0.322094 -1.48824e-22)
(0.781606 0.383469 2.59758e-22)
(0.798134 0.220923 -2.49081e-22)
(0.796848 0.191094 1.43722e-22)
(0.822729 -0.0950717 0)
(0.798725 -0.219381 0)
(-0.0823903 -0.393566 -8.85232e-20)
(-0.106372 -0.388524 7.07905e-21)
(-0.12119 -0.367199 7.69301e-20)
(-0.131566 -0.330107 -5.88771e-22)
(-0.133647 -0.275628 0)
(-0.125699 -0.204191 0)
(-0.10697 -0.117346 -5.21008e-20)
(-0.074548 -0.018171 2.46847e-21)
(-0.0331478 0.0877324 6.8071e-20)
(0.0114288 0.197257 -1.81963e-21)
(0.0625952 0.29825 -1.94425e-20)
(0.117809 0.387824 -1.5026e-20)
(0.171714 0.462364 1.50119e-20)
(0.221286 0.520576 0)
(0.267027 0.56126 -1.32693e-20)
(0.314445 0.579227 1.20687e-20)
(0.372527 0.563388 0)
(0.448156 0.501626 0)
(0.539203 0.389496 2.13771e-20)
(0.63612 0.232332 2.51654e-21)
(0.729615 0.0423773 -2.18853e-20)
(0.812357 -0.156772 -2.27374e-20)
(0.874643 -0.328987 2.26709e-20)
(0.908059 -0.444996 -1.55054e-20)
(0.914425 -0.499304 3.57198e-21)
(0.901824 -0.508077 1.10633e-20)
(0.877695 -0.493495 9.00598e-22)
(0.848645 -0.468866 1.0975e-23)
(0.81854 -0.442906 0)
(0.780708 -0.428182 4.08834e-21)
(0.726457 -0.425455 -4.20255e-21)
(0.664019 -0.405583 2.96073e-22)
(0.618972 -0.323356 0)
(0.610928 -0.172088 -3.75465e-22)
(0.637886 0.0136238 5.1624e-21)
(0.685948 0.176052 -8.91722e-21)
(0.742083 0.29043 6.30193e-23)
(0.793206 0.357807 2.55821e-22)
(0.822131 0.413312 2.93812e-21)
(0.818869 0.469238 4.23318e-22)
(0.794597 0.493704 -4.30256e-21)
(0.771458 0.443021 3.61171e-21)
(0.776277 0.283004 -3.50423e-23)
(0.792891 0.0794809 2.737e-21)
(0.828592 -0.131485 -3.27541e-21)
(0.85116 -0.25365 -3.23481e-21)
(0.873673 -0.320271 9.54151e-22)
(0.857433 -0.341825 9.68811e-22)
(0.818389 -0.347501 -1.72303e-21)
(0.776806 -0.343342 1.12657e-21)
(0.764725 -0.216527 -3.1631e-22)
(0.782676 -0.11034 3.36885e-22)
(0.807714 0.098713 2.584e-22)
(0.807473 0.220222 -7.84267e-22)
(0.795495 0.32415 -7.72848e-24)
(0.780014 0.384086 -2.737e-22)
(0.800372 0.218977 0)
(0.800809 0.188995 -1.30707e-22)
(0.831293 -0.0943276 3.75446e-22)
(0.805393 -0.217707 0)
(0.0712204 -0.368936 8.19656e-20)
(0.0324259 -0.369367 -1.50737e-19)
(0.00150191 -0.356962 6.83127e-20)
(-0.0271414 -0.330391 5.23748e-20)
(-0.050388 -0.287737 -9.67214e-20)
(-0.0651024 -0.229027 4.48261e-21)
(-0.0686239 -0.154891 3.92418e-20)
(-0.057983 -0.0652335 3.13034e-20)
(-0.0329744 0.0315703 -3.07144e-20)
(-0.00147914 0.133228 0)
(0.0388983 0.233443 -2.36991e-20)
(0.0893506 0.326647 4.46237e-20)
(0.144109 0.407415 -2.11399e-20)
(0.200808 0.4722 0)
(0.260094 0.517165 0)
(0.326152 0.535436 3.93565e-22)
(0.404807 0.516956 -3.07785e-20)
(0.498426 0.453543 2.98957e-20)
(0.60144 0.344537 0)
(0.70447 0.194835 4.8044e-20)
(0.801141 0.0132122 -9.28383e-20)
(0.884752 -0.177231 9.05412e-20)
(0.943294 -0.340205 -8.24396e-20)
(0.968094 -0.446989 6.67074e-21)
(0.963151 -0.494108 5.31569e-20)
(0.939777 -0.498337 -2.2902e-20)
(0.907163 -0.481486 -4.53251e-22)
(0.871051 -0.456554 -4.65264e-21)
(0.835731 -0.429165 7.5831e-22)
(0.796726 -0.408787 3.98248e-21)
(0.743479 -0.400531 2.32828e-22)
(0.678468 -0.384559 -3.87866e-21)
(0.624293 -0.317996 8.12037e-21)
(0.605478 -0.185378 -4.7331e-21)
(0.625171 -0.0117569 0)
(0.671958 0.146318 -4.38596e-21)
(0.730672 0.263696 4.19138e-21)
(0.786506 0.339175 -2.79998e-21)
(0.819964 0.405476 3.47887e-21)
(0.821632 0.471757 -4.06621e-22)
(0.803669 0.501982 0)
(0.787093 0.451369 -6.12064e-22)
(0.798155 0.287815 2.17282e-21)
(0.817199 0.079746 0)
(0.851865 -0.134511 6.18857e-21)
(0.869167 -0.258105 -2.61829e-21)
(0.888266 -0.320306 7.46493e-22)
(0.870112 -0.334852 5.31583e-22)
(0.829953 -0.336871 0)
(0.786921 -0.337817 0)
(0.771044 -0.219235 -8.14868e-22)
(0.788017 -0.117837 1.21078e-21)
(0.80876 0.0935981 -6.72965e-22)
(0.808617 0.220454 2.06406e-22)
(0.794967 0.326038 4.65876e-22)
(0.779552 0.384569 2.73964e-22)
(0.803762 0.216624 -5.66833e-22)
(0.806041 0.186408 0)
(0.841047 -0.0936174 -5.45704e-22)
(0.813051 -0.215883 -1.42717e-22)
(0.270381 -0.330744 7.72693e-20)
(0.225432 -0.332577 -7.66053e-20)
(0.182281 -0.3257 4.79668e-22)
(0.140388 -0.307096 -3.35772e-22)
(0.100108 -0.276421 3.316e-22)
(0.0636522 -0.232042 -2.81791e-22)
(0.0375949 -0.172399 2.91374e-22)
(0.0243031 -0.097836 0)
(0.0249868 -0.0136562 -1.70865e-22)
(0.0384076 0.0765996 1.39248e-22)
(0.0652876 0.171794 1.23176e-22)
(0.105691 0.263624 -2.71152e-22)
(0.156503 0.346039 0)
(0.215784 0.413727 0)
(0.28357 0.460874 2.04475e-22)
(0.362087 0.479674 0)
(0.453975 0.461284 -3.61851e-22)
(0.557928 0.400632 0)
(0.666448 0.299206 -4.03061e-20)
(0.771789 0.160155 8.46989e-20)
(0.870333 -0.0105837 -8.99892e-20)
(0.954205 -0.19068 4.55342e-20)
(1.00846 -0.343259 3.77549e-20)
(1.02458 -0.440881 -3.66603e-20)
(1.00904 -0.482199 -2.37444e-20)
(0.975906 -0.483957 2.28744e-20)
(0.935999 -0.466443 0)
(0.894162 -0.442258 3.28872e-22)
(0.854137 -0.415167 0)
(0.813938 -0.391022 0)
(0.762837 -0.376968 5.6358e-21)
(0.697872 -0.362382 -5.80526e-21)
(0.636643 -0.309677 3.56351e-22)
(0.607021 -0.196536 5.11276e-22)
(0.617831 -0.0374586 -4.08579e-22)
(0.661627 0.114775 -3.21172e-21)
(0.721635 0.234342 3.11865e-21)
(0.781106 0.317593 -3.24437e-21)
(0.818836 0.394413 2.78819e-21)
(0.825584 0.471091 8.01209e-22)
(0.814074 0.507875 -4.50456e-21)
(0.803863 0.458992 -1.82053e-21)
(0.820834 0.293511 3.92754e-21)
(0.842639 0.0823992 0)
(0.876545 -0.134724 -2.79789e-21)
(0.888724 -0.260491 2.69487e-21)
(0.90396 -0.319466 -3.64622e-21)
(0.883882 -0.327713 -5.34945e-22)
(0.842619 -0.325936 0)
(0.798023 -0.331925 2.56799e-22)
(0.778228 -0.221781 -5.22828e-22)
(0.79432 -0.125408 -3.91072e-23)
(0.811129 0.0881896 -1.29482e-22)