/*--------------------------------*- C++ -*----------------------------------*\
| =========                 |                                                 |
| \\      /  F ield         | OpenFOAM: The Open Source CFD Toolbox           |
|  \\    /   O peration     | Version:  2512                                  |
|   \\  /    A nd           | Website:  www.openfoam.com                      |
|    \\/     M anipulation  |                                                 |
\*---------------------------------------------------------------------------*/
FoamFile
{
    version     2.0;
    format      ascii;
    arch        "LSB;label=32;scalar=64";
    class       surfaceScalarField;
    location    "62.75";
    object      phi;
}
// * * * * * * * * * * * * * * * * * * * * * * * * * * * * * * * * * * * * * //

dimensions      [0 3 -1 0 0 0 0];

oriented        oriented;

internalField   nonuniform List<scalar> 
26232
(
1.30882e-07
0.00089945
-0.000899581
0.000183513
0.00169093
-0.00187431
0.00071884
0.00164788
-0.00218321
0.00176576
0.000834444
-0.00188136
0.0034825
-0.000718036
-0.000998709
0.0060254
-0.00299655
0.000453657
0.0095444
-0.00599593
0.00247693
0.0141738
-0.00970762
0.0050782
0.02002
-0.0141082
0.00826206
0.0271471
-0.0191507
0.0120236
0.0355647
-0.0247598
0.0163423
0.0452182
-0.0308321
0.0211785
0.055987
-0.0372411
0.0264723
0.0676879
-0.0438459
0.032145
0.0800862
-0.0505018
0.0381035
0.0929115
-0.057071
0.0442457
0.105877
-0.0634329
0.0504672
0.118701
-0.0694925
0.0566688
0.131125
-0.0751821
0.0627583
0.142932
-0.080479
0.0686715
0.153957
-0.0853562
0.0743316
0.164086
-0.0899247
0.079795
0.173244
-0.0940177
0.0848599
-0.0982115
0.0904336
0.181022
6.03458e-05
0.000839105
0.000439542
0.00131173
0.00132546
0.000761962
0.00290014
-0.000740233
0.00534129
-0.00315919
0.00881609
-0.00647135
0.0134687
-0.0106485
0.019403
-0.0156419
0.0266644
-0.0213696
0.0352244
-0.0277107
0.0449725
-0.0345079
0.0557184
-0.0415779
0.0672042
-0.048727
0.0791265
-0.0557682
0.0911624
-0.0625377
0.102999
-0.0689077
0.11436
-0.0747943
0.125029
-0.0801613
0.134864
-0.0850171
0.143797
-0.0894121
0.151854
-0.0934126
0.159084
-0.0971546
0.16566
-0.100594
-0.104241
0.17169
0.000134442
0.000704662
0.000749155
0.000697022
0.00205221
-0.000541089
0.00424319
-0.00293121
0.00750802
-0.00642403
0.0120031
-0.0109664
0.0178327
-0.0164781
0.0250253
-0.0228346
0.0335152
-0.0298595
0.0431359
-0.0373314
0.0536291
-0.0450011
0.0646688
-0.0526177
0.0758957
-0.0599539
0.086956
-0.0668285
0.097539
-0.0731207
0.107407
-0.0787755
0.116413
-0.0838006
0.124509
-0.088257
0.131735
-0.0922429
0.138201
-0.0958788
0.14407
-0.0992809
0.149496
-0.102581
0.154683
-0.105781
-0.109252
0.159694
0.000222935
0.000481727
0.00111349
-0.000193533
0.00289505
-0.00232265
0.00577369
-0.00580985
0.00992193
-0.0105723
0.0154507
-0.0164952
0.0223787
-0.0234061
0.0306095
-0.0310653
0.0399262
-0.0391762
0.0500091
-0.0474143
0.060473
-0.055465
0.0709163
-0.063061
0.0809728
-0.0700103
0.0903537
-0.0762094
0.0988759
-0.0816428
0.10647
-0.0863699
0.113173
-0.0905037
0.119103
-0.0941861
0.124424
-0.0975641
0.129316
-0.100771
0.133948
-0.103912
0.138442
-0.107076
0.142921
-0.11026
-0.113702
0.147371
0.000327018
0.000154709
0.0015316
-0.00139811
0.00384149
-0.00463255
0.00744902
-0.00941738
0.0124801
-0.0156033
0.0189551
-0.0229703
0.026759
-0.03121
0.0356348
-0.0399411
0.0452094
-0.0487508
0.0550455
-0.0572505
0.064708
-0.0651275
0.0738262
-0.0721792
0.0821397
-0.0783238
0.0895194
-0.0835891
0.0959631
-0.0880865
0.10157
-0.0919766
0.106502
-0.0954355
0.110943
-0.098628
0.115069
-0.10169
0.11902
-0.104722
0.122898
-0.10779
0.126761
-0.110939
0.130662
-0.114162
-0.117607
0.134567
0.000447109
-0.0002924
0.00199801
-0.00294901
0.00486564
-0.00750018
0.009198
-0.0137497
0.0150315
-0.0214368
0.0222494
-0.0301881
0.0305695
-0.0395301
0.0395749
-0.0489465
0.0487813
-0.0579572
0.0577206
-0.0661898
0.066016
-0.0734228
0.0734292
-0.0795925
0.079874
-0.0847686
0.0853967
-0.0891118
0.0901364
-0.0928262
0.0942774
-0.0961175
0.0980064
-0.0991645
0.101483
-0.102105
0.104829
-0.105036
0.108124
-0.108017
0.111417
-0.111083
0.114733
-0.114255
0.118098
-0.117527
-0.120979
0.12147
0.000581749
-0.000874149
0.00249942
-0.00486668
0.005923
-0.0109238
0.0109168
-0.0187436
0.0173828
-0.0279028
0.0250338
-0.0378391
0.0334217
-0.0479181
0.042018
-0.0575427
0.0503158
-0.0662551
0.0579209
-0.0737948
0.0646022
-0.0801042
0.0702984
-0.0852887
0.0750859
-0.089556
0.0791269
-0.0931529
0.0826157
-0.096315
0.0857359
-0.0992378
0.0886363
-0.102065
0.0914237
-0.104892
0.0941669
-0.107779
0.0969068
-0.110757
0.0996656
-0.113842
0.102453
-0.117042
0.10528
-0.120353
-0.123811
0.108112
0.000726827
-0.00160098
0.00301303
-0.00715288
0.00695007
-0.0148608
0.0124761
-0.0242696
0.0193237
-0.0347504
0.027032
-0.0455475
0.035032
-0.055918
0.0427684
-0.0652792
0.0498108
-0.0732974
0.0559137
-0.0798978
0.0610202
-0.0852106
0.0652197
-0.0894882
0.0686866
-0.093023
0.0716207
-0.096087
0.0742039
-0.0988982
0.0765786
-0.101612
0.0788441
-0.10433
0.0810629
-0.107111
0.0832711
-0.109987
0.0854883
-0.112974
0.0877238
-0.116078
0.0899809
-0.119299
0.092263
-0.122635
-0.126094
0.0945453
0.000875393
-0.00247637
0.00350748
-0.00978497
0.00787031
-0.0192236
0.0137394
-0.0301387
0.0206666
-0.0416776
0.0280525
-0.0529334
0.0352842
-0.0631497
0.0418723
-0.0718673
0.0475303
-0.0789554
0.0521821
-0.0845496
0.0559145
-0.088943
0.0589061
-0.0924798
0.061361
-0.0954779
0.0634627
-0.0981887
0.0653528
-0.100788
0.0671278
-0.103387
0.0688472
-0.10605
0.0705449
-0.108809
0.072239
-0.111681
0.0739384
-0.114673
0.075647
-0.117786
0.0773658
-0.121018
0.0790947
-0.124364
-0.127817
0.0808178
0.00101808
-0.00349445
0.0039462
-0.0127131
0.00860508
-0.0238825
0.0145873
-0.0361209
0.0212845
-0.0483748
0.0280238
-0.0596727
0.0342342
-0.0693601
0.0395574
-0.0771905
0.0438712
-0.0832692
0.0472411
-0.0879195
0.0498419
-0.0915438
0.0518817
-0.0945195
0.0535494
-0.0971456
0.0549902
-0.0996296
0.0563026
-0.102101
0.0575463
-0.104631
0.0587548
-0.107258
0.0599459
-0.11
0.0611285
-0.112864
0.0623071
-0.115852
0.0634833
-0.118963
0.064657
-0.122192
0.0658259
-0.125533
-0.128972
0.0669814
0.00114466
-0.0046391
0.0042935
-0.0158619
0.00908749
-0.0286765
0.0149397
-0.0419732
0.0211306
-0.0545656
0.0269918
-0.0655339
0.032061
-0.0744294
0.0361366
-0.0812661
0.0392395
-0.0863721
0.0415288
-0.0902088
0.0432139
-0.0932289
0.0444922
-0.0957978
0.0455175
-0.0981709
0.0463944
-0.100506
0.047186
-0.102892
0.0479274
-0.105373
0.0486369
-0.107968
0.049324
-0.110687
0.0499935
-0.113533
0.050648
-0.116506
0.051288
-0.119603
0.0519127
-0.122816
0.0525184
-0.126139
-0.129555
0.053101
0.00124803
-0.00588713
0.00452279
-0.0191367
0.00927441
-0.0334281
0.0147665
-0.0474653
0.0202361
-0.0600352
0.0250891
-0.0703868
0.029006
-0.0783462
0.0319309
-0.084191
0.0339877
-0.0884289
0.0353803
-0.0916014
0.0363152
-0.0941638
0.0369592
-0.0964418
0.0374275
-0.0986393
0.0377906
-0.10087
0.0380871
-0.103189
0.0383368
-0.105622
0.0385498
-0.108181
0.0387315
-0.110869
0.0388851
-0.113687
0.0390122
-0.116634
0.0391135
-0.119704
0.039188
-0.122891
0.0392321
-0.126183
0.0392453
-0.129568
-0.000222632
-0.000646455
0.000869087
-0.000773092
-0.00139743
0.00194789
-0.00157813
-0.00175918
0.00256421
-0.00258276
-0.00182837
0.002833
-0.00374506
-0.00168894
0.00285123
-0.00503344
-0.00140771
0.0026961
-0.00642434
-0.00103227
0.00242317
-0.0078999
-0.000591124
0.00206668
-0.009446
-9.59777e-05
0.00164208
-0.0110505
0.000454698
0.00114985
-0.0127018
0.00107148
0.00057974
-0.0143881
0.00177005
-8.37234e-05
-0.016096
0.00256836
-0.000860497
-0.0178095
0.00348424
-0.00177075
-0.01951
0.00453389
-0.00283331
-0.021176
0.00573103
-0.00406506
-0.0227828
0.00708622
-0.00547944
-0.0243037
0.00860626
-0.00708538
-0.0257117
0.0102938
-0.00888581
-0.0269825
0.0121476
-0.0108767
-0.0280983
0.0141622
-0.0130465
-0.0290512
0.0163296
-0.0153767
-0.0298518
0.0186463
-0.0178457
0.0211254
-0.030545
-0.0204321
-0.000221738
-0.000424717
-0.000765037
-0.000854135
-0.00155152
-0.000972694
-0.002522
-0.000857886
-0.00363155
-0.00057939
-0.00484634
-0.000192925
-0.0061407
0.000262093
-0.00749439
0.000762566
-0.00889023
0.00129987
-0.0103122
0.00187668
-0.011744
0.0025033
-0.0131681
0.00319414
-0.0145647
0.00396492
-0.0159111
0.00483068
-0.0171817
0.00580445
-0.0183472
0.00689657
-0.0193753
0.00811429
-0.0202307
0.0094617
-0.0208768
0.01094
-0.0212776
0.0125483
-0.0214008
0.0142855
-0.0212229
0.0161517
-0.0207321
0.0181555
0.0203351
-0.0199417
-0.000210165
-0.000214552
-0.0007214
-0.000342901
-0.00145365
-0.00024044
-0.00234511
3.35672e-05
-0.00334819
0.000423695
-0.0044264
0.000885283
-0.00555113
0.00138682
-0.00669874
0.00191018
-0.00784803
0.00244915
-0.00897822
0.00300686
-0.0100675
0.00359258
-0.011092
0.00421869
-0.0120253
0.00489819
-0.0128376
0.00564293
-0.0134955
0.00646243
-0.0139622
0.00736322
-0.0141966
0.00834865
-0.0141537
0.00941881
-0.0137849
0.0105712
-0.0130382
0.0118016
-0.0118599
0.0131072
-0.0101991
0.014491
-0.00801768
0.015974
0.0176451
-0.00532776
-0.00019199
-2.25615e-05
-0.000655263
0.000120372
-0.0013099
0.000414194
-0.00209222
0.000815886
-0.00295204
0.00128352
-0.00384977
0.001783
-0.0047532
0.00229026
-0.00563465
0.00279162
-0.00646825
0.00328276
-0.00722803
0.00376664
-0.00788636
0.00425092
-0.00841309
0.00474541
-0.00877487
0.00525998
-0.00893489
0.00580295
-0.0088526
0.00638014
-0.00848353
0.00699415
-0.00777894
0.00764406
-0.00668522
0.00832509
-0.00514382
0.00902976
-0.00308928
0.0097471
-0.000449234
0.0104672
0.00285538
0.0111863
0.00690839
0.011921
0.0127879
0.0117656
-0.000171664
0.000149103
-0.000580395
0.000529103
-0.00114665
0.000980454
-0.00180486
0.00147409
-0.00250194
0.0019806
-0.00319469
0.00247576
-0.00384684
0.00294241
-0.00442607
0.00337085
-0.00490148
0.00375817
-0.00524157
0.00410672
-0.00541273
0.00442207
-0.00537835
0.00471103
-0.00509829
0.00497992
-0.0045286
0.00523326
-0.00362142
0.00547296
-0.00232489
0.00569762
-0.00058308
0.00590225
0.0016639
0.00607811
0.0044822
0.00621146
0.0079441
0.0062852
0.0121325
0.00627871
0.0171439
0.00617497
0.0230913
0.00597361
0.00570517
0.0301741
-0.00015273
0.000301832
-0.000508137
0.00088451
-0.000985548
0.00145786
-0.00151674
0.00200529
-0.00204514
0.00250899
-0.00252334
0.00295396
-0.0029103
0.00332937
-0.00316842
0.00362897
-0.00326106
0.00385081
-0.00315045
0.00399611
-0.00279625
0.00406788
-0.00215461
0.00406938
-0.00117759
0.0040029
0.000186922
0.00386875
0.00199541
0.00366447
0.00430849
0.00338454
0.00719109
0.00301965
0.0107123
0.00255686
0.0149451
0.00197871
0.0199671
0.00126315
0.0258626
0.000383207
0.0327362
-0.000698613
0.0406616
-0.00195181
-0.00371293
0.0500797
-0.000137317
0.00043915
-0.000444615
0.00119181
-0.000837689
0.00185094
-0.00124431
0.00241191
-0.00160326
0.00286794
-0.00186185
0.00321256
-0.00197299
0.00344051
-0.00189228
0.00354827
-0.0015755
0.00353403
-0.000976522
0.00339713
-4.58114e-05
0.00313717
0.00127053
0.00275305
0.00303126
0.00224217
0.0053002
0.00159981
0.008146
0.000818669
0.0116413
-0.000110741
0.0158638
-0.00120289
0.0208935
-0.00247278
0.0268124
-0.0039402
0.0337043
-0.00562876
0.0416457
-0.00755819
0.0507576
-0.00981057
0.0609649
-0.0121591
-0.015735
0.072987
-0.000125255
0.000564405
-0.000388678
0.00145523
-0.000699611
0.00216187
-0.000979826
0.00269212
-0.0011616
0.00304972
-0.00118477
0.00323573
-0.000993571
0.00324931
-0.000533622
0.00308832
0.000250711
0.0027497
0.00141833
0.00222951
0.0030328
0.0015227
0.0051631
0.000622746
0.00788376
-0.000478493
0.0112744
-0.00179084
0.0154188
-0.00332572
0.0204039
-0.00509588
0.0263164
-0.00711539
0.0332425
-0.0093988
0.0412633
-0.011961
0.050456
-0.0148215
0.0608649
-0.0179671
0.072615
-0.0215606
0.0854541
-0.0249982
-0.0304672
0.100186
-0.000114083
0.000678488
-0.00033166
0.00167281
-0.000552633
0.00238284
-0.000690115
0.0028296
-0.000666864
0.00302647
-0.000411519
0.00298038
0.000144668
0.00269312
0.00107124
0.00216174
0.00244089
0.00138005
0.00433106
0.000339341
0.00682459
-0.000970836
0.0100094
-0.00256207
0.0139772
-0.00444628
0.0188212
-0.00663484
0.0246332
-0.00913772
0.0315001
-0.0119627
0.0394995
-0.0151148
0.0486964
-0.0185957
0.0591374
-0.022402
0.0708517
-0.0265358
0.0838201
-0.0309354
0.0980838
-0.0358244
0.113349
-0.0402636
-0.0472019
0.130084
-9.96962e-05
0.000778185
-0.000259384
0.0018325
-0.000366749
0.00249021
-0.000322883
0.00278574
-3.68463e-05
0.00274043
0.000578506
0.00236503
0.00161075
0.00166088
0.00315009
0.000622409
0.00529101
-0.000760876
0.00813234
-0.00250199
0.0117758
-0.00461427
0.0163228
-0.00710908
0.0218703
-0.0099938
0.0285056
-0.0132701
0.0363005
-0.0169327
0.0453063
-0.0209685
0.0555484
-0.025357
0.0670231
-0.0300704
0.0796944
-0.0350734
0.0934926
-0.040334
0.108316
-0.0457588
0.124015
-0.0515238
0.14045
-0.0566978
-0.0640957
0.157344
-7.75518e-05
0.000855737
-0.00015608
0.00191102
-0.00010829
0.00244242
0.000179858
0.00249759
0.00081769
0.0021026
0.00191353
0.00126918
0.00357741
-2.99566e-06
0.00592257
-0.00172275
0.0090641
-0.0039024
0.0131156
-0.00655346
0.0181835
-0.00968216
0.0243601
-0.0132857
0.0317159
-0.0173496
0.040292
-0.0218462
0.0500939
-0.0267345
0.0610871
-0.0319618
0.073196
-0.0374659
0.0863047
-0.043179
0.100261
-0.0490295
0.114881
-0.0549542
0.129982
-0.0608597
0.145275
-0.0668174
0.160813
-0.0722356
-0.0788772
0.175595
-4.38447e-05
-7.13368e-06
0.000252082
0.000868309
0.0019722
0.00369504
0.00616897
0.00952442
0.0138841
0.0193542
0.0260143
0.0339071
0.0430297
0.0533286
0.0646976
0.0769815
0.0899829
0.103473
0.117202
0.130919
0.144391
0.157368
0.169993
0.181549
-0.029924
0.0310769
-0.0316979
-0.028956
0.035561
-0.036529
-0.0275811
0.0399145
-0.0412894
-0.0257607
0.0438982
-0.0457185
-0.0234416
0.047183
-0.0495022
-0.0205805
0.0493845
-0.0522456
-0.0170968
0.0500047
-0.0534885
-0.0129141
0.0485371
-0.0527198
-0.00802018
0.0445128
-0.0494067
-0.00238277
0.0373546
-0.042992
0.00395179
0.0266638
-0.0329983
0.0109217
0.0121667
-0.0191366
0.0183181
-0.00597663
-0.00141975
0.0260995
-0.0273502
0.0195687
0.0338974
-0.0510708
0.043273
0.0413149
-0.0755746
0.0681572
0.0478989
-0.0988095
0.0922255
0.0529281
-0.118847
0.113818
0.0555411
-0.134624
0.132011
0.0551165
-0.146538
0.146962
0.0519639
-0.1561
0.159253
0.0479791
-0.163948
0.167933
0.0462808
-0.167113
0.168811
0.049442
-0.158726
0.155565
0.0576806
-0.132163
0.123925
0.0693598
-0.0862847
0.0746055
0.0829188
-0.0260216
0.0124626
0.0967624
0.0397532
-0.0535967
0.109221
0.100695
-0.113155
0.118778
0.148633
-0.15819
0.125074
0.180109
-0.186405
0.127812
0.196723
-0.199461
0.125528
0.207783
-0.205499
0.118006
0.224064
-0.216542
0.10899
0.24018
-0.231165
0.104184
0.230512
-0.225706
0.106432
0.172472
-0.174721
0.114448
0.0716815
-0.0796967
0.124381
-0.0421953
0.032262
0.132982
-0.140147
0.131547
0.139269
-0.206057
0.19977
0.142158
-0.236223
0.233334
0.139043
-0.248598
0.251713
0.129976
-0.264411
0.273477
0.119692
-0.274524
0.284808
0.113865
-0.241073
0.2469
0.114767
-0.144616
0.143713
0.120731
-0.0125353
0.00657181
0.128574
0.111509
-0.119352
0.134387
0.192292
-0.198104
0.133697
0.246965
-0.246276
0.126749
0.27918
-0.272232
0.119497
0.289275
-0.282024
0.117588
0.230029
-0.22812
0.121844
0.115254
-0.119511
0.128755
-0.00108146
-0.00582961
0.135465
-0.116615
0.109906
0.140412
-0.137237
0.132289
0.139404
-0.190633
0.191642
-0.14123
0.142865
-0.0183465
0.0294816
-0.0163638
0.0335784
-0.013952
0.0375027
-0.0110586
0.0410048
-0.00764524
0.0437697
-0.00366425
0.0454035
0.000858256
0.0454822
0.0058464
0.0435489
0.011382
0.0389773
0.0174044
0.0313321
0.023834
0.0202342
0.0305413
0.00545938
0.0373814
-0.0128167
0.0442276
-0.0341964
0.0508627
-0.057706
0.0570038
-0.0817157
0.0622551
-0.104061
0.0660252
-0.122617
0.0675124
-0.136111
0.0658315
-0.144857
0.0606491
-0.150918
0.0531887
-0.156488
0.0466461
-0.16057
0.0448833
-0.156964
0.0498266
-0.137107
0.0603917
-0.0968498
0.0742988
-0.0399287
0.0893678
0.0246841
0.10353
0.0865335
0.115124
0.137038
0.123396
0.171837
0.127431
0.192688
0.125869
0.209345
0.119386
0.230548
0.112114
0.247451
0.108958
0.233669
0.111832
0.169598
0.119435
0.0640792
0.128361
-0.0511214
0.135472
-0.147259
0.140067
-0.210652
0.141922
-0.238078
0.138533
-0.245209
0.129265
-0.255142
0.118568
-0.263827
0.112336
-0.234841
0.113215
-0.145495
0.119725
-0.0190446
0.128278
0.102955
0.134181
0.186389
0.133103
0.248042
0.125989
0.286294
0.11917
0.296095
0.118012
0.231187
0.122804
0.110463
0.130135
-0.00841262
0.136666
-0.123146
0.141921
-0.142491
0.141714
-0.190427
-0.13958
-0.0026932
0.0268471
0.000241373
0.0306438
0.00361056
0.0341335
0.00743598
0.0371793
0.0117175
0.0394882
0.0164435
0.0406776
0.0215985
0.0403272
0.0271771
0.0379703
0.0330681
0.0330862
0.0391734
0.0252269
0.0453652
0.0140423
0.0515414
-0.000716756
0.0575412
-0.0188165
0.063261
-0.0399161
0.068566
-0.0630111
0.0732465
-0.0863962
0.0769754
-0.10779
0.0792918
-0.124934
0.0795979
-0.136417
0.0771393
-0.142398
0.0711274
-0.144906
0.0617153
-0.147076
0.0513301
-0.150185
0.0444229
-0.150057
0.0448449
-0.137529
0.0530395
-0.105044
0.066566
-0.0534553
0.0824584
0.00879168
0.0981076
0.0708843
0.111621
0.123525
0.12172
0.161738
0.127009
0.187399
0.126453
0.209901
0.121442
0.235559
0.116133
0.25276
0.114497
0.235305
0.117688
0.166406
0.124523
0.0572444
0.132283
-0.0588814
0.137937
-0.152913
0.140854
-0.213568
0.14164
-0.238865
0.138105
-0.241674
0.128833
-0.24587
0.117842
-0.252837
0.111269
-0.228268
0.112146
-0.146371
0.11911
-0.0260086
0.12818
0.0938853
0.134022
0.180547
0.132599
0.249465
0.125425
0.293468
0.119095
0.302424
0.118698
0.231584
0.124028
0.105133
0.131761
-0.0161453
0.138049
-0.129435
0.143386
-0.147828
0.143909
-0.19095
-0.138054
0.0152202
0.0233925
0.0189846
0.0268794
0.0231192
0.0299989
0.0276783
0.0326203
0.0326395
0.034527
0.0379536
0.0353634
0.043566
0.0347148
0.0494097
0.0321266
0.0553685
0.0271275
0.0613145
0.0192809
0.0670537
0.00830314
0.0726115
-0.00627453
0.0777183
-0.0239234
0.0823216
-0.0445194
0.0863106
-0.067
0.089497
-0.0895826
0.0915801
-0.109873
0.0921963
-0.12555
0.0910579
-0.135279
0.0878302
-0.139171
0.0817657
-0.138841
0.0720866
-0.137397
0.0596926
-0.137791
0.0484455
-0.138809
0.0436018
-0.132685
0.0479549
-0.109398
0.0599681
-0.0654684
0.0761151
-0.00735529
0.0929725
0.0540269
0.1082
0.108297
0.119935
0.150004
0.126494
0.18084
0.127263
0.209132
0.124115
0.238707
0.120887
0.255987
0.120611
0.235582
0.123842
0.163175
0.129672
0.0514139
0.136076
-0.065285
0.140322
-0.157159
0.141626
-0.214872
0.141283
-0.238522
0.137672
-0.238063
0.1286
-0.236799
0.117452
-0.241688
0.110611
-0.221427
0.111514
-0.147275
0.118834
-0.0333278
0.128228
0.0844913
0.133904
0.174871
0.132205
0.251165
0.125077
0.300596
0.119277
0.308224
0.119616
0.231244
0.125463
0.0992862
0.133573
-0.0242562
0.139619
-0.13548
0.14485
-0.153059
0.145973
-0.192073
-0.136753
0.0341412
0.0194253
0.0384072
0.0226134
0.043052
0.025354
0.0481044
0.0275678
0.0535076
0.0291238
0.0591808
0.0296903
0.0650445
0.0288511
0.070994
0.0261771
0.0768898
0.0212316
0.082608
0.0135626
0.0879517
0.00295948
0.092913
-0.0112358
0.0972178
-0.0282281
0.100782
-0.0480833
0.103466
-0.0696843
0.105075
-0.0911919
0.105372
-0.110169
0.104168
-0.124347
0.101429
-0.132539
0.09721
-0.134952
0.0912103
-0.132842
0.0823878
-0.128574
0.0700979
-0.125501
0.0564259
-0.125137
0.0466524
-0.122911
0.0458962
-0.108641
0.0549258
-0.074498
0.0703536
-0.0227831
0.0879939
0.0363866
0.104626
0.0916647
0.117811
0.136819
0.125749
0.172902
0.128189
0.206692
0.127212
0.239684
0.126118
0.257081
0.127056
0.234644
0.130155
0.160076
0.134775
0.0467937
0.139674
-0.0701841
0.142536
-0.160021
0.142336
-0.214672
0.140825
-0.237011
0.13717
-0.234408
0.128505
-0.228134
0.117332
-0.230515
0.110268
-0.214363
0.11122
-0.148227
0.118803
-0.0409111
0.128357
0.0749369
0.133818
0.16941
0.131935
0.253048
0.124957
0.307574
0.119709
0.313473
0.120727
0.230226
0.127062
0.0929512
0.135509
-0.0327032
0.141356
-0.141328
0.146349
-0.158052
0.147907
-0.193631
-0.135745
0.0539859
0.0155192
0.0582382
0.0183611
0.0629392
0.0206531
0.0680933
0.0224137
0.0736024
0.0236147
0.0793618
0.0239308
0.0852683
0.0229446
0.091179
0.0202664
0.0969156
0.0154951
0.102274
0.0082046
0.107464
-0.0022306
0.111753
-0.015525
0.115273
-0.0317487
0.117801
-0.0506111
0.119146
-0.0710293
0.119114
-0.0911599
0.117576
-0.108631
0.114559
-0.121329
0.110257
-0.128237
0.104973
-0.129668
0.0988485
-0.126717
0.0911938
-0.12092
0.0805619
-0.114869
0.0669013
-0.111477
0.0538776
-0.109888
0.0476629
-0.102427
0.0520447
-0.0788798
0.065322
-0.0360604
0.0829377
0.018771
0.100543
0.0740598
0.11503
0.122332
0.124509
0.163423
0.128968
0.202232
0.130432
0.23822
0.131521
0.255992
0.133534
0.232631
0.136377
0.157233
0.139734
0.0434369
0.14301
-0.0734605
0.144495
-0.161505
0.142932
-0.213109
0.140242
-0.234321
0.136524
-0.230689
0.12846
-0.22007
0.117411
-0.219466
0.110117
-0.207069
0.111099
-0.149208
0.118879
-0.0486913
0.128489
0.0653263
0.133744
0.164155
0.131791
0.255002
0.125069
0.314295
0.120377
0.318165
0.122016
0.228587
0.128791
0.0861764
0.137517
-0.0414285
0.14323
-0.147041
0.147907
-0.162728
0.14972
-0.195444
-0.135065
0.0760361
0.01247
0.0795723
0.0148249
0.083693
0.0165324
0.0883554
0.0177513
0.0934337
0.0185364
0.0988191
0.0185454
0.104387
0.0173765
0.109961
0.0146925
0.115372
0.0100846
0.120334
0.00324216
0.12496
-0.00685657
0.128636
-0.0192011
0.131322
-0.0344348
0.132752
-0.0520406
0.13269
-0.0709677
0.130967
-0.0894366
0.127585
-0.10525
0.122804
-0.116548
0.117073
-0.122506
0.110855
-0.12345
0.104489
-0.120351
0.0977799
-0.11421
0.0893877
-0.106477
0.0777766
-0.0998657
0.0640999
-0.096211
0.0535895
-0.0919164
0.0522587
-0.077549
0.0615749
-0.0453766
0.0777849
0.00256094
0.095708
0.0561368
0.111337
0.106702
0.122532
0.152229
0.129308
0.195456
0.133413
0.234115
0.136704
0.252701
0.139738
0.229597
0.142293
0.154678
0.144364
0.0413668
0.146013
-0.07511
0.146112
-0.161604
0.143347
-0.210345
0.139517
-0.230491
0.135669
-0.226842
0.128366
-0.212766
0.117619
-0.20872
0.11005
-0.199499
0.110964
-0.150122
0.118895
-0.0566225
0.128532
0.0556892
0.133658
0.15903
0.131768
0.256892
0.125403
0.32066
0.12127
0.322298
0.123465
0.226392
0.130647
0.0789937
0.139561
-0.0503422
0.145201
-0.152682
0.149534
-0.167062
0.151431
-0.197341
-0.134717
0.101664
0.0109922
0.103826
0.0126626
0.106715
0.0136435
0.110222
0.0142446
0.114233
0.0145256
0.118659
0.0141195
0.123352
0.0126828
0.128101
0.00994402
0.132679
0.00550637
0.137133
-0.00121145
0.140771
-0.0104949
0.14353
-0.0219605
0.145109
-0.0360133
0.145211
-0.0521428
0.143584
-0.0693408
0.140115
-0.0859678
0.134959
-0.100093
0.128584
-0.110172
0.121646
-0.115569
0.11473
-0.116534
0.108197
-0.113818
0.102107
-0.108121
0.0956888
-0.100058
0.0870804
-0.0912573
0.0752522
-0.0843828
0.0629555
-0.0796197
0.0563868
-0.0709803
0.0601796
-0.0491694
0.0731497
-0.0104092
0.0902992
0.0389874
0.10671
0.0902915
0.119682
0.139257
0.128951
0.186187
0.135792
0.227274
0.141268
0.247224
0.145293
0.225572
0.147609
0.152362
0.148577
0.0403987
0.148613
-0.0751451
0.147305
-0.160296
0.143498
-0.206538
0.138622
-0.225615
0.13455
-0.22277
0.128113
-0.20633
0.117881
-0.198488
0.109989
-0.191607
0.110656
-0.150789
0.118685
-0.064651
0.128389
0.0459845
0.133522
0.153897
0.131847
0.258567
0.125938
0.326569
0.122367
0.325868
0.125082
0.223677
0.132621
0.0714543
0.141626
-0.0593464
0.147227
-0.158284
0.151226
-0.17106
0.153059
-0.199174
-0.134688
0.129849
0.0112276
0.130422
0.0120896
0.131726
0.0123396
0.133631
0.0123389
0.136101
0.0120563
0.139063
0.0111574
0.142357
0.00938807
0.1458
0.00650133
0.149058
0.00224867
0.152257
-0.00441047
0.154556
-0.0127943
0.155968
-0.0233722
0.15609
-0.0361357
0.15461
-0.0506624
0.151295
-0.0660255
0.146124
-0.0807973
0.139407
-0.0933763
0.131769
-0.102535
0.123971
-0.107771
0.116643
-0.109206
0.110114
-0.10729
0.104471
-0.102477
0.099417
-0.0950045
0.0936277
-0.085468
0.085107
-0.075862
0.0738875
-0.0684003
0.0642454
-0.0613381
0.0622678
-0.0471919
0.0703288
-0.0184702
0.0851013
0.0242149
0.10149
0.0739026
0.116005
0.124742
0.127773
0.17442
0.137357
0.21769
0.144917
0.239664
0.14982
0.220669
0.152053
0.150129
0.152179
0.0402726
0.150706
-0.0736717
0.147969
-0.157559
0.143265
-0.201834
0.137494
-0.219844
0.133106
-0.218382
0.127579
-0.200803
0.118109
-0.189017
0.109894
-0.183392
0.110076
-0.150972
0.118105
-0.07268
0.127967
0.0361229
0.133294
0.148569
0.132006
0.259856
0.126643
0.331932
0.123653
0.328859
0.126854
0.220476
0.134723
0.0635856
0.143701
-0.0683247
0.149269
-0.163852
0.152964
-0.174755
0.154622
-0.200831
-0.134948
0.155971
0.0125997
0.155342
0.0127191
0.155234
0.0124472
0.155614
0.011959
0.156528
0.0111426
0.157895
0.00979051
0.159555
0.00772792
0.161378
0.00467782
0.163178
0.000449202
0.164556
-0.00578887
0.165241
-0.0134794
0.164976
-0.0231069
0.16341
-0.0345694
0.160236
-0.0474888
0.155282
-0.0610709
0.148635
-0.0741505
0.140731
-0.0854724
0.132277
-0.0940803
0.124029
-0.0995233
0.116575
-0.101751
0.110211
-0.100926
0.104989
-0.0972554
0.100814
-0.0908293
0.0970683
-0.0817221
0.092001
-0.0707948
0.0839197
-0.0603189
0.0742396
-0.0516581
0.0681798
-0.041132
0.0706238
-0.0209142
0.0813786
0.0134601
0.0964391
0.0588421
0.111804
0.109377
0.125718
0.160506
0.137845
0.205562
0.147419
0.23009
0.153206
0.214882
0.155449
0.147887
0.155028
0.0406937
0.152219
-0.0708635
0.148046
-0.153386
0.142551
-0.196339
0.13609
-0.213383
0.131317
-0.213608
0.126665
-0.196151
0.118213
-0.180566
0.109764
-0.174944
0.109195
-0.150402
0.11706
-0.0805452
0.127184
0.0259989
0.132926
0.142827
0.1322
0.260581
0.127478
0.336654
0.125097
0.331239
0.128791
0.216782
0.136931
0.0554455
0.145785
-0.0771782
0.151293
-0.16936
0.154723
-0.178185
0.156136
-0.202244
-0.135466
0.174047
0.014147
0.172934
0.0138323
0.172063
0.0133188
0.17154
0.0124814
0.171408
0.0112748
0.171571
0.00962802
0.171922
0.00737684
0.172324
0.00427523
0.172409
0.000364399
0.172284
-0.00566423
0.17143
-0.0126249
0.169589
-0.0212663
0.166458
-0.0314378
0.161802
-0.0428332
0.155549
-0.0548184
0.147899
-0.0665002
0.139358
-0.076931
0.130617
-0.0853397
0.122342
-0.0912485
0.115012
-0.0944203
0.108875
-0.0947897
0.103996
-0.0923757
0.100338
-0.087172
0.0977512
-0.0791349
0.0952876
-0.0683312
0.0909383
-0.0559696
0.0837676
-0.0444875
0.0765514
-0.0339158
0.074536
-0.0188988
0.080382
0.0076141
0.0925895
0.0466345
0.107652
0.0943144
0.12314
0.145019
0.137594
0.191108
0.148912
0.218772
0.155341
0.208453
0.157879
0.145349
0.157211
0.0413619
0.153332
-0.0669839
0.147754
-0.147808
0.141539
-0.190123
0.134592
-0.206437
0.129365
-0.208381
0.125416
-0.192201
0.118162
-0.173312
0.109651
-0.166433
0.108086
-0.148836
0.11552
-0.0879798
0.125959
0.0155608
0.132356
0.13643
0.132399
0.260538
0.128409
0.340644
0.12667
0.332979
0.130869
0.212583
0.139248
0.0470665
0.147876
-0.0858056
0.153275
-0.17476
0.156474
-0.181384
0.157612
-0.203382
-0.136211
0.180643
0.0150532
0.179679
0.0147964
0.178871
0.0141264
0.178201
0.0131512
0.177665
0.0118112
0.177224
0.0100692
0.176785
0.00781517
0.176245
0.00481541
0.17579
0.000819741
0.174384
-0.00425827
0.17236
-0.0106007
0.169366
-0.018273
0.165187
-0.0272583
0.15968
-0.0373258
0.152879
-0.0480177
0.145063
-0.0586841
0.136725
-0.0685933
0.128444
-0.0770583
0.120729
-0.0835343
0.113933
-0.0876239
0.108235
-0.0890918
0.103697
-0.0878381
0.100301
-0.0837757
0.0980535
-0.0768873
0.0967532
-0.067031
0.095087
-0.0543033
0.0911542
-0.0405547
0.0852619
-0.0280234
0.0810728
-0.0147096
0.0827002
0.00598667
0.0910582
0.0382765
0.104151
0.0812217
0.119696
0.129474
0.135522
0.175282
0.14836
0.205934
0.156075
0.200737
0.159493
0.141931
0.158998
0.0418567
0.153998
-0.061984
0.147205
-0.141015
0.140438
-0.183356
0.133213
-0.199212
0.127491
-0.202659
0.123966
-0.188676
0.117948
-0.167294
0.109583
-0.158068
0.106927
-0.146181
0.113631
-0.0946835
0.124307
0.00488491
0.131531
0.129206
0.132555
0.259514
0.12937
0.343829
0.128342
0.334007
0.133102
0.207822
0.141651
0.038518
0.149971
-0.0941259
0.155199
-0.179988
0.158187
-0.184372
0.159057
-0.204252
-0.137152
0.196439
0.0157496
-0.197136
0.196276
0.0149598
0.196202
0.0141999
0.196293
0.0130608
0.196593
0.0115105
0.197122
0.00954093
0.197897
0.00704024
0.198839
0.00387252
0.199771
-0.000111603
0.200649
-0.00513648
0.201248
-0.0111998
0.201337
-0.0183615
0.20064
-0.0265622
0.198901
-0.0355864
0.195942
-0.0450587
0.191726
-0.0544676
0.18636
-0.063228
0.180059
-0.0707575
0.173086
-0.0765613
0.165711
-0.0802486
0.158178
-0.0815587
0.150703
-0.0803628
0.143432
-0.0765044
0.136472
-0.0699275
0.130002
-0.0605611
0.123708
-0.048009
0.116218
-0.0330647
0.106473
-0.018279
0.0958916
-0.00412809
0.0874517
0.0144266
0.083722
0.0420062
0.0853616
0.0795821
0.0920348
0.1228
0.102858
0.164459
0.116793
0.191999
0.134112
0.183418
0.15333
0.122713
0.168314
0.0268718
0.175365
-0.0690346
0.174669
-0.140319
0.169149
-0.177836
0.160427
-0.19049
0.151078
-0.19331
0.143317
-0.180916
0.134471
-0.158448
0.12331
-0.146907
0.115153
-0.138024
0.113819
-0.0933488
0.115949
0.00275511
0.115836
0.129319
0.112775
0.262575
0.11043
0.346175
0.114616
0.32982
0.12521
0.197229
0.136807
0.0269212
0.145108
-0.102427
0.148412
-0.183292
0.148852
-0.184812
0.147054
-0.202454
-0.136004
0.209196
0.0156069
-0.209054
0.209493
0.0146634
0.210004
0.0136886
0.210602
0.0124632
0.211259
0.0108535
0.211995
0.0088048
0.212782
0.00625354
0.213548
0.00310645
0.214229
-0.000792982
0.214655
-0.00556294
0.214673
-0.011217
0.214091
-0.0177803
0.212708
-0.025179
0.210345
-0.0332228
0.206889
-0.0416031
0.202327
-0.0499059
0.196751
-0.0576513
0.190338
-0.0643446
0.183325
-0.0695488
0.175975
-0.0728986
0.168531
-0.0741146
0.161208
-0.0730393
0.154172
-0.069469
0.147503
-0.0632584
0.141347
-0.054405
0.135749
-0.0424104
0.129848
-0.0271639
0.122178
-0.0106096
0.112475
0.00557491
0.103307
0.0235951
0.0977751
0.047538
0.0980652
0.079292
0.104609
0.116256
0.116343
0.152725
0.13215
0.176192
0.151482
0.164085
0.171172
0.103024
0.185595
0.0124489
0.191064
-0.0745042
0.188515
-0.13777
0.181345
-0.170666
0.171556
-0.180701
0.161262
-0.183016
0.152892
-0.172545
0.144149
-0.149705
0.132858
-0.135616
0.123669
-0.128835
0.121272
-0.0909519
0.122999
0.00102801
0.122913
0.129405
0.120132
0.265356
0.118717