/*--------------------------------*- C++ -*----------------------------------*\
| =========                 |                                                 |
| \\      /  F ield         | OpenFOAM: The Open Source CFD Toolbox           |
|  \\    /   O peration     | Version:  2512                                  |
|   \\  /    A nd           | Website:  www.openfoam.com                      |
|    \\/     M anipulation  |                                                 |
\*---------------------------------------------------------------------------*/
FoamFile
{
    version     2.0;
    format      ascii;
    arch        "LSB;label=32;scalar=64";
    class       volScalarField;
    location    "113.25";
    object      p;
}
// * * * * * * * * * * * * * * * * * * * * * * * * * * * * * * * * * * * * * //

dimensions      [0 2 -2 0 0 0 0];

internalField   nonuniform List<scalar> 
13248
(
-0.338926
-0.337993
-0.336589
-0.334778
-0.33254
-0.329784
-0.326366
-0.322119
-0.316882
-0.31053
-0.302987
-0.294252
-0.284401
-0.273588
-0.262033
-0.249998
-0.237759
-0.225582
-0.213701
-0.202314
-0.191523
-0.181511
-0.172049
-0.163542
-0.347132
-0.345162
-0.342845
-0.340206
-0.337186
-0.333702
-0.329606
-0.324715
-0.318851
-0.31188
-0.303733
-0.29443
-0.284078
-0.272863
-0.261026
-0.248832
-0.236543
-0.224395
-0.212579
-0.201241
-0.190464
-0.180319
-0.170693
-0.161808
-0.356283
-0.353204
-0.349887
-0.346325
-0.342425
-0.338105
-0.333206
-0.32752
-0.320849
-0.313056
-0.30409
-0.294009
-0.282965
-0.27118
-0.25892
-0.246451
-0.23402
-0.221831
-0.210039
-0.198753
-0.188019
-0.17789
-0.168251
-0.159236
-0.366582
-0.362309
-0.357926
-0.353384
-0.348526
-0.343256
-0.337388
-0.33068
-0.322925
-0.314004
-0.30392
-0.292792
-0.280837
-0.268324
-0.255536
-0.242732
-0.230131
-0.217898
-0.206144
-0.194935
-0.184294
-0.174246
-0.164685
-0.155802
-0.378223
-0.372658
-0.367162
-0.361598
-0.355699
-0.349324
-0.342246
-0.334203
-0.325007
-0.314609
-0.303104
-0.290707
-0.277702
-0.264394
-0.251062
-0.237938
-0.225191
-0.212933
-0.201231
-0.190111
-0.179579
-0.169631
-0.160192
-0.151411
-0.391303
-0.384355
-0.377709
-0.371075
-0.36401
-0.356296
-0.347669
-0.337887
-0.326849
-0.31463
-0.301459
-0.287651
-0.273544
-0.259444
-0.245598
-0.23218
-0.219301
-0.207021
-0.195364
-0.184328
-0.173899
-0.164058
-0.154745
-0.146075
-0.40575
-0.397355
-0.389532
-0.381746
-0.373308
-0.363912
-0.353301
-0.341331
-0.328064
-0.313757
-0.298781
-0.283529
-0.26835
-0.253512
-0.239198
-0.225516
-0.212518
-0.200215
-0.188596
-0.177639
-0.167313
-0.157585
-0.148415
-0.139851
-0.421279
-0.411426
-0.402396
-0.393314
-0.383193
-0.371668
-0.358581
-0.34399
-0.328197
-0.31166
-0.294863
-0.278224
-0.262054
-0.246552
-0.231823
-0.217905
-0.204796
-0.192469
-0.180888
-0.170011
-0.159795
-0.150198
-0.14119
-0.132747
-0.43737
-0.426113
-0.415834
-0.405229
-0.393011
-0.378847
-0.36281
-0.345269
-0.326803
-0.308039
-0.289515
-0.271616
-0.254573
-0.238494
-0.223407
-0.209287
-0.196088
-0.183753
-0.172224
-0.161443
-0.151356
-0.141918
-0.133092
-0.124796
-0.453263
-0.440714
-0.429112
-0.41667
-0.401873
-0.384575
-0.365231
-0.344587
-0.323478
-0.30263
-0.282561
-0.26357
-0.245787
-0.229227
-0.213847
-0.199572
-0.18632
-0.174009
-0.162561
-0.151906
-0.141979
-0.13273
-0.124102
-0.115983
-0.467974
-0.454281
-0.441232
-0.426564
-0.408699
-0.387872
-0.365037
-0.341323
-0.317746
-0.295048
-0.273659
-0.253764
-0.235382
-0.218449
-0.202859
-0.188497
-0.175251
-0.163019
-0.151706
-0.14123
-0.131517
-0.122504
-0.114108
-0.10622
-0.480393
-0.465748
-0.451102
-0.433788
-0.412395
-0.38774
-0.36135
-0.334697
-0.308889
-0.2846
-0.262129
-0.241529
-0.222715
-0.205547
-0.189867
-0.175524
-0.162383
-0.150322
-0.139234
-0.129024
-0.119614
-0.110928
-0.102855
-0.0953384
-0.348829
-0.350873
-0.352041
-0.352825
-0.353699
-0.354837
-0.356299
-0.358092
-0.360192
-0.362555
-0.365127
-0.367846
-0.37063
-0.373382
-0.375975
-0.378259
-0.380054
-0.381154
-0.381329
-0.380301
-0.378029
-0.374223
-0.368881
-0.362368
-0.338843
-0.341483
-0.342919
-0.343728
-0.344436
-0.345199
-0.346057
-0.346999
-0.347982
-0.348945
-0.349815
-0.350513
-0.350947
-0.351017
-0.350608
-0.349598
-0.347862
-0.345259
-0.341658
-0.336972
-0.331174
-0.324158
-0.316146
-0.30829
-0.329988
-0.333061
-0.334686
-0.335488
-0.336018
-0.336409
-0.336678
-0.336796
-0.336702
-0.336319
-0.335558
-0.334324
-0.332521
-0.330049
-0.326811
-0.322718
-0.317685
-0.311645
-0.304543
-0.296481
-0.287477
-0.277527
-0.266897
-0.257352
-0.322702
-0.326038
-0.327768
-0.328539
-0.328897
-0.328946
-0.328679
-0.328051
-0.326986
-0.325391
-0.323167
-0.320212
-0.31643
-0.31173
-0.306036
-0.299293
-0.291466
-0.282554
-0.272629
-0.261809
-0.250273
-0.238138
-0.225555
-0.214278
-0.317279
-0.32071
-0.322467
-0.323183
-0.323376
-0.323121
-0.322387
-0.321111
-0.319206
-0.316568
-0.313095
-0.308684
-0.303245
-0.296705
-0.289016
-0.280162
-0.270167
-0.259101
-0.247099
-0.234353
-0.221144
-0.207744
-0.194298
-0.181574
-0.313878
-0.317249
-0.318953
-0.319584
-0.319617
-0.319093
-0.317958
-0.316136
-0.313529
-0.310028
-0.30553
-0.299938
-0.293175
-0.285192
-0.275972
-0.265544
-0.253989
-0.241444
-0.228107
-0.214237
-0.200168
-0.186258
-0.172707
-0.160285
-0.312538
-0.315699
-0.317266
-0.317778
-0.317647
-0.316883
-0.315413
-0.313145
-0.309974
-0.305791
-0.300492
-0.293993
-0.286233
-0.277188
-0.26688
-0.255384
-0.242832
-0.229423
-0.215415
-0.201122
-0.186912
-0.173163
-0.160391
-0.147711
-0.313188
-0.315992
-0.317329
-0.317683
-0.317377
-0.316395
-0.314646
-0.312028
-0.308428
-0.303736
-0.297855
-0.290711
-0.282265
-0.27252
-0.261537
-0.249435
-0.236399
-0.222678
-0.208576
-0.194442
-0.180683
-0.167469
-0.156115
-0.143384
-0.315667
-0.317974
-0.319008
-0.319124
-0.318607
-0.317409
-0.315422
-0.312529
-0.308611
-0.303558
-0.297278
-0.289711
-0.280839
-0.270697
-0.259381
-0.247057
-0.233952
-0.220355
-0.206603
-0.193036
-0.180139
-0.167706
-0.157877
-0.146037
-0.31973
-0.321396
-0.321998
-0.321816
-0.321039
-0.319598
-0.317372
-0.314233
-0.310056
-0.304728
-0.298163
-0.290313
-0.281185
-0.270844
-0.259425
-0.247131
-0.234227
-0.221025
-0.207874
-0.195082
-0.18315
-0.171747
-0.162954
-0.152808
-0.325109
-0.326009
-0.326061
-0.325463
-0.324323
-0.322559
-0.320035
-0.316615
-0.312163
-0.306564
-0.299737
-0.291651
-0.282334
-0.271886
-0.260474
-0.248332
-0.235744
-0.223027
-0.210507
-0.198477
-0.1873
-0.176916
-0.168556
-0.160073
-0.331563
-0.331586
-0.330959
-0.329806
-0.328167
-0.325952
-0.323024
-0.31923
-0.314426
-0.308493
-0.301356
-0.292998
-0.283472
-0.272906
-0.261495
-0.249491
-0.237179
-0.224855
-0.212796
-0.201262
-0.190443
-0.180537
-0.171931
-0.164271
-0.353333
-0.340076
-0.324131
-0.306127
-0.287554
-0.270376
-0.256863
-0.249094
-0.248428
-0.254792
-0.266461
-0.280384
-0.291953
-0.29587
-0.287865
-0.266084
-0.232128
-0.192399
-0.15478
-0.124844
-0.104717
-0.0939951
-0.0912272
-0.0956696
-0.108196
-0.128498
-0.150603
-0.163794
-0.160118
-0.141474
-0.116333
-0.093422
-0.0776215
-0.0695503
-0.0677425
-0.0727687
-0.0866098
-0.105428
-0.118243
-0.115283
-0.0991413
-0.0800235
-0.064484
-0.0546579
-0.050527
-0.0535748
-0.0598904
-0.0619138
-0.0571112
-0.0506005
-0.0434017
-0.0391314
-0.0369705
-0.0362435
-0.0362916
-0.0347584
-0.0281944
-0.0217458
-0.0112242
-0.0017845
-0.299735
-0.289236
-0.278114
-0.266439
-0.255847
-0.247936
-0.244484
-0.246845
-0.255688
-0.270146
-0.287956
-0.305586
-0.318616
-0.322362
-0.312631
-0.287604
-0.249483
-0.205297
-0.163451
-0.129695
-0.106004
-0.091804
-0.0856307
-0.086493
-0.0948449
-0.110772
-0.12969
-0.142306
-0.140928
-0.126451
-0.105672
-0.0866249
-0.0741591
-0.0688992
-0.0696103
-0.0773134
-0.0940654
-0.115338
-0.129265
-0.125478
-0.107026
-0.0849498
-0.0664463
-0.0542591
-0.0478256
-0.0486521
-0.0529269
-0.054199
-0.0505947
-0.0459571
-0.0411422
-0.0387988
-0.0391009
-0.0400544
-0.0407425
-0.0391626
-0.0312841
-0.0238674
-0.0117121
-0.00145426
-0.249514
-0.241308
-0.23557
-0.22944
-0.225784
-0.226376
-0.23148
-0.242299
-0.25866
-0.279087
-0.300974
-0.320827
-0.33467
-0.338358
-0.327734
-0.300871
-0.26028
-0.21337
-0.168809
-0.13241
-0.106014
-0.0889002
-0.0795861
-0.0769681
-0.0811806
-0.0926036
-0.108072
-0.119851
-0.120644
-0.110154
-0.0936665
-0.0785406
-0.0695065
-0.0671319
-0.0704167
-0.0807437
-0.100177
-0.123684
-0.138694
-0.134328
-0.113924
-0.0892023
-0.0679546
-0.0535815
-0.0450725
-0.0438987
-0.0463034
-0.0468216
-0.0442054
-0.0412187
-0.0386964
-0.0383219
-0.041236
-0.0439323
-0.0451342
-0.0434125
-0.03423
-0.0258851
-0.0121934
-0.001154
-0.207586
-0.199076
-0.201941
-0.199018
-0.200593
-0.207054
-0.218732
-0.235607
-0.256951
-0.281051
-0.305254
-0.326261
-0.340537
-0.344303
-0.333442
-0.305961
-0.264535
-0.216689
-0.171038
-0.133265
-0.105071
-0.0857076
-0.0737196
-0.0679505
-0.0682675
-0.0752508
-0.0870257
-0.0975141
-0.100327
-0.0931346
-0.0807161
-0.069419
-0.0637541
-0.0641777
-0.069924
-0.0826443
-0.104475
-0.130056
-0.146214
-0.141603
-0.119671
-0.0926995
-0.0690158
-0.0526766
-0.0423473
-0.0394324
-0.0401684
-0.0399169
-0.0380513
-0.0364553
-0.0360953
-0.0376911
-0.0433435
-0.0478368
-0.0494267
-0.0474623
-0.0369957
-0.0277755
-0.0126609
-0.000881892
-0.177865
-0.172827
-0.172507
-0.174338
-0.180232
-0.190918
-0.206586
-0.226893
-0.25086
-0.276695
-0.30183
-0.323189
-0.337631
-0.341471
-0.330738
-0.303614
-0.262889
-0.215881
-0.170765
-0.132807
-0.103617
-0.0825974
-0.0684281
-0.0599747
-0.0568507
-0.0596151
-0.0675523
-0.0761955
-0.0800158
-0.0758373
-0.0672007
-0.0594854
-0.0569517
-0.0599507
-0.0679267
-0.0827338
-0.106656
-0.134113
-0.151515
-0.147108
-0.124152
-0.0954042
-0.0696652
-0.0516096
-0.039715
-0.0353164
-0.0346091
-0.0335892
-0.032233
-0.03174
-0.0333658
-0.0368919
-0.0453822
-0.0517141
-0.0535692
-0.0512602
-0.0395444
-0.0295156
-0.0131073
-0.000636168
-0.157791
-0.154156
-0.153846
-0.15741
-0.1654
-0.178095
-0.195427
-0.216923
-0.241549
-0.267541
-0.292458
-0.313738
-0.327822
-0.331473
-0.321047
-0.29505
-0.256328
-0.211718
-0.168552
-0.131482
-0.102037
-0.0798856
-0.0639832
-0.0532925
-0.0472967
-0.0463382
-0.0504407
-0.0567389
-0.0606182
-0.0588766
-0.0535437
-0.0489947
-0.0492065
-0.054471
-0.064387
-0.0809219
-0.106552
-0.135677
-0.154426
-0.150673
-0.127279
-0.0972877
-0.069929
-0.0504291
-0.0372151
-0.0315766
-0.0296666
-0.0279044
-0.026837
-0.0271421
-0.0305327
-0.0359061
-0.0472987
-0.0554958
-0.0575075
-0.0547574
-0.0418417
-0.0310822
-0.0135223
-0.000413798
-0.14685
-0.14432
-0.143618
-0.147091
-0.155446
-0.16845
-0.185692
-0.206673
-0.230455
-0.255345
-0.278984
-0.298992
-0.312647
-0.315851
-0.305907
-0.281748
-0.246145
-0.205163
-0.165029
-0.129698
-0.100632
-0.0778145
-0.0605714
-0.0480512
-0.0396848
-0.0356005
-0.036136
-0.0397996
-0.0430716
-0.0429591
-0.0402143
-0.0382737
-0.0407568
-0.0479071
-0.0593959
-0.0772088
-0.104116
-0.134691
-0.154841
-0.152199
-0.129001
-0.0983282
-0.0698197
-0.0491668
-0.0348671
-0.0282057
-0.0253282
-0.0228871
-0.0219245
-0.0227275
-0.0276211
-0.0347124
-0.0490306
-0.059103
-0.0611885
-0.0579124
-0.043857
-0.0324556
-0.0138945
-0.000209615
-0.144134
-0.142378
-0.140375
-0.142407
-0.149788
-0.161763
-0.17758
-0.196797
-0.218606
-0.241503
-0.263647
-0.281424
-0.293459
-0.296025
-0.286842
-0.26516
-0.233541
-0.197026
-0.160629
-0.127629
-0.0994556
-0.0764018
-0.0581888
-0.0442284
-0.0339637
-0.0273549
-0.0247785
-0.0257392
-0.0278945
-0.0286277
-0.0276116
-0.0277069
-0.0319284
-0.0404943
-0.0531299
-0.0717583
-0.0994314
-0.131147
-0.152778
-0.151697
-0.129304
-0.0985201
-0.0693488
-0.0478472
-0.0326826
-0.0251896
-0.0215534
-0.018522
-0.0175532
-0.018554
-0.0246565
-0.0332917
-0.0505105
-0.0624494
-0.0645598
-0.0606923
-0.0455662
-0.0336238
-0.01422
-1.68292e-05
-0.147712
-0.145988
-0.14225
-0.142325
-0.147753
-0.157508
-0.170823
-0.187339
-0.206218
-0.226255
-0.246965
-0.261742
-0.271485
-0.273419
-0.265345
-0.246714
-0.219646
-0.18802
-0.155693
-0.125369
-0.0984807
-0.0755939
-0.0567765
-0.0417409
-0.0300139
-0.0214342
-0.0162892
-0.0146672
-0.0153251
-0.0161565
-0.0160341
-0.0176904
-0.0230759
-0.0325321
-0.0458066
-0.0647035
-0.092706
-0.125285
-0.148442
-0.149243
-0.128247
-0.0979563
-0.068624
-0.0465727
-0.0307203
-0.0225336
-0.0183252
-0.0147871
-0.0137379
-0.0146682
-0.0216634
-0.0316211
-0.0516768
-0.0654437
-0.0675734
-0.06307
-0.0469548
-0.0345801
-0.0145069
0.000169676
-0.15398
-0.151359
-0.146494
-0.145041
-0.148008
-0.15469
-0.164779
-0.17794
-0.193235
-0.20935
-0.224213
-0.239228
-0.247874
-0.249763
-0.24332
-0.2282
-0.205932
-0.179269
-0.15108
-0.123611
-0.0982997
-0.0759246
-0.056814
-0.0409666
-0.0280777
-0.0179278
-0.0106848
-0.00667857
-0.00552008
-0.00561145
-0.00579417
-0.00855255
-0.0144906
-0.024306
-0.0377887
-0.0565902
-0.084365
-0.117359
-0.142042
-0.145018
-0.126004
-0.0968411
-0.0678542
-0.0455422
-0.0291062
-0.0202507
-0.0156079
-0.0116945
-0.0105232
-0.0110976
-0.018665
-0.0297066
-0.0524573
-0.0679851
-0.0701797
-0.0650166
-0.0480111
-0.0353113
-0.0147522
0.000354135
-0.15926
-0.155404
-0.150646
-0.148398
-0.148866
-0.152342
-0.15905
-0.168657
-0.180349
-0.193337
-0.205863
-0.216708
-0.22421
-0.226462
-0.22209
-0.210752
-0.193324
-0.171566
-0.147512
-0.123
-0.0994411
-0.0777878
-0.0585878
-0.0420858
-0.0282078
-0.0167804
-0.00782942
-0.00166907
0.00147682
0.00243405
0.00282495
-0.000640465
-0.00649421
-0.0160748
-0.0291234
-0.0472621
-0.0747351
-0.108299
-0.133931
-0.139249
-0.122339
-0.0949281
-0.0667668
-0.0445634
-0.0277137
-0.0182195
-0.0131663
-0.00909264
-0.00796517
-0.00796695
-0.0156662
-0.0274751
-0.0528295
-0.0700006
-0.0723035
-0.0664672
-0.0486868
-0.0357827
-0.0148965
0.000558871
-0.161172
-0.157508
-0.153574
-0.150525
-0.149264
-0.150334
-0.153936
-0.159783
-0.167569
-0.177074
-0.186566
-0.194869
-0.200379
-0.202413
-0.199625
-0.191444
-0.178142
-0.160675
-0.140404
-0.118816
-0.0972463
-0.0767517
-0.0580358
-0.0414879
-0.0272091
-0.0151843
-0.00531499
0.00235445
0.00726723
0.00907905
0.00751708
0.0059964
0.000515088
-0.00852212
-0.0209341
-0.0380996
-0.0644337
-0.0973627
-0.123639
-0.1295
-0.116136
-0.0908796
-0.0638727
-0.0423371
-0.025629
-0.0159746
-0.0105835
-0.00645791
-0.00554495
-0.00511438
-0.0128306
-0.0250952
-0.0526563
-0.0713685
-0.0739145
-0.0673863
-0.0488841
-0.035955
-0.0148386
0.000834545
-0.157945
-0.157165
-0.153393
-0.149705
-0.147846
-0.148214
-0.15073
-0.155214
-0.161408
-0.168805
-0.175984
-0.182325
-0.186537
-0.187453
-0.184072
-0.175991
-0.163471
-0.147334
-0.128726
-0.108905
-0.0890122
-0.0699534
-0.0523468
-0.0365498
-0.0226706
-0.0107473
-0.000716699
0.00745925
0.0133486
0.0163062
0.0159187
0.0140994
0.00914029
0.00130702
-0.00984879
-0.0262716
-0.0532932
-0.0888631
-0.118439
-0.128294
-0.111428
-0.0859018
-0.0594813
-0.0387448
-0.0226232
-0.0134536
-0.00803758
-0.00376914
-0.00247941
-0.0012201
-0.00906203
-0.0217933
-0.0518393
-0.0728409
-0.0755324
-0.0681538
-0.048699
-0.0358702
-0.0146088
0.00113443
-0.153557
-0.154438
-0.150941
-0.146902
-0.144644
-0.144576
-0.146382
-0.149697
-0.154156
-0.159074
-0.164196
-0.168437
-0.170737
-0.1702
-0.166157
-0.15833
-0.146925
-0.132562
-0.116106
-0.0985259
-0.0807182
-0.0634348
-0.0472246
-0.0324278
-0.0192008
-0.00766031
0.0022541
0.0106539
0.0170833
0.0206107
0.020633
0.0190797
0.01508
0.00856893
-0.00126569
-0.0167542
-0.0439183
-0.0806868
-0.110878
-0.119054
-0.103288
-0.0789691
-0.0542729
-0.0350509
-0.0198837
-0.0111185
-0.00572226
-0.00163519
-0.000224349
0.00127957
-0.00632227
-0.0191411
-0.0508575
-0.0737824
-0.0762587
-0.0681142
-0.0480344
-0.0353551
-0.0142682
0.00128336
-0.146787
-0.149151
-0.14648
-0.142572
-0.140117
-0.139678
-0.140814
-0.143009
-0.145909
-0.149131
-0.152283
-0.154599
-0.155338
-0.153854
-0.149637
-0.142435
-0.132327
-0.119715
-0.105221
-0.0895892
-0.0735566
-0.0577747
-0.0427496
-0.0288304
-0.0161916
-0.00498337
0.00476677
0.0131589
0.0198414
0.0239367
0.0248373
0.0235956
0.0201776
0.0145499
0.00541939
-0.00972745
-0.036464
-0.0719179
-0.100691
-0.108423
-0.0940117
-0.0715722
-0.0488976
-0.0312661
-0.0171107
-0.00880928
-0.00351212
0.000397504
0.00185731
0.0033504
-0.00425914
-0.0171912
-0.0497806
-0.0739462
-0.0762087
-0.0674384
-0.0469864
-0.0345168
-0.0138794
0.00135816
-0.138341
-0.142158
-0.140535
-0.137027
-0.1345
-0.133709
-0.134254
-0.135583
-0.137322
-0.139159
-0.140764
-0.141672
-0.141348
-0.139264
-0.134994
-0.128301
-0.119204
-0.107981
-0.0950998
-0.0811464
-0.0667162
-0.0523547
-0.0385021
-0.0254916
-0.0135046
-0.00270332
0.00680554
0.0150687
0.0218663
0.0264995
0.0282461
0.0276455
0.0251071
0.0204333
0.011912
-0.00289345
-0.0284665
-0.0618843
-0.0893362
-0.0968222
-0.0838428
-0.0635897
-0.0431581
-0.0272932
-0.0143025
-0.00654258
-0.00139676
0.00237173
0.00383278
0.00531197
-0.0023688
-0.0152554
-0.0480788
-0.0731908
-0.0754449
-0.0661313
-0.0455489
-0.0333396
-0.0134078
0.00138017
-0.129222
-0.134041
-0.13339
-0.130414
-0.127957
-0.12693
-0.127037
-0.127718
-0.128574
-0.129363
-0.129867
-0.129764
-0.128644
-0.126093
-0.121776
-0.115499
-0.107259
-0.0972475
-0.0858024
-0.0733644
-0.0603989
-0.0473559
-0.0346162
-0.0224944
-0.0111835
-0.000845211
0.00837161
0.0164427
0.0232121
0.0281819
0.0306339
0.0309526
0.0295666
0.0261758
0.0187174
0.00469194
-0.0196052
-0.0513108
-0.0771496
-0.0841488
-0.0728564
-0.055191
-0.0372199
-0.0232195
-0.0114943
-0.00433111
0.000620167
0.00427708
0.00566937
0.00714965
-0.000453514
-0.0129466
-0.0454973
-0.0713683
-0.0737839
-0.0640908
-0.04368
-0.0318088
-0.0128388
0.0013526
-0.119708
-0.125122
-0.125306
-0.122924
-0.120666
-0.119529
-0.119322
-0.119524
-0.119756
-0.119812
-0.119529
-0.11868
-0.116972
-0.114102
-0.109812
-0.103944
-0.0964741
-0.0875231
-0.0773286
-0.0662216
-0.0545673
-0.0427377
-0.0310586
-0.0198153
-0.00920502
0.000613783
0.00947684
0.0173098
0.0239598
0.0291058
0.0321171
0.0332994
0.0331174
0.0312762
0.0253273
0.0122646
-0.0109303
-0.0407186
-0.0642706
-0.0706882
-0.0614007
-0.0466204
-0.0312196
-0.0191051
-0.00870915
-0.00218434
0.00252642
0.00610185
0.00737749
0.00884754
0.00150288
-0.0102734
-0.0419834
-0.0682549
-0.0710326
-0.0612488
-0.0413649
-0.0299278
-0.0121535
0.00128352
-0.109985
-0.115728
-0.116584
-0.114784
-0.112798
-0.111651
-0.111248
-0.111133
-0.110949
-0.110502
-0.109672
-0.108313
-0.106225
-0.103186
-0.098996
-0.0935245
-0.0867354
-0.0787045
-0.0696013
-0.0596748
-0.0492087
-0.0385043
-0.0278367
-0.0174571
-0.00756
0.00169734
0.0101487
0.0177011
0.0241857
0.0293913
0.0327843
0.0346488
0.0354763
0.0350607
0.0306448
0.0186286
-0.00313289
-0.0302913
-0.0510088
-0.0569183
-0.0498803
-0.038131
-0.0253128
-0.0150298
-0.00597501
-0.000110061
0.00431644
0.00784363
0.0089827
0.0104042
0.00345773
-0.00733568
-0.0374792
-0.0636784
-0.0670629
-0.0575778
-0.0386134
-0.0277157
-0.0113357
0.00118598
-0.100319
-0.106144
-0.107496
-0.106219
-0.104539
-0.103462
-0.102967
-0.102664
-0.102214
-0.101445
-0.100273
-0.0986047
-0.096306
-0.0932147
-0.089178
-0.0840903
-0.0779154
-0.0707008
-0.0625661
-0.0536962
-0.044309
-0.0346454
-0.0249371
-0.0154022
-0.00622471
0.00244189
0.0104341
0.0176581
0.0239395
0.0291127
0.0327392
0.0350661
0.0365421
0.0370633
0.033841
0.0231479
0.00363412
-0.0201049
-0.037794
-0.0434444
-0.0387624
-0.0299891
-0.019651
-0.0110763
-0.00331867
0.00188862
0.00599358
0.00950226
0.0105151
0.0118318
0.00540813
-0.00414778
-0.0319649
-0.0575961
-0.0618248
-0.0530943
-0.0354618
-0.0252113
-0.0103724
0.00107708
-0.0908562
-0.0965806
-0.0982764
-0.0974505
-0.0960816
-0.0951239
-0.0946104
-0.0942079
-0.0936127
-0.0926694
-0.0913145
-0.0894914
-0.0871111
-0.0840594
-0.0802225
-0.075518
-0.0699121
-0.0634334
-0.0561654
-0.0482447
-0.0398389
-0.0311396
-0.0223398
-0.0136267
-0.00516932
0.00288711
0.0103843
0.0172329
0.0232679
0.0283351
0.0320665
0.0346602
0.0364435
0.0373446
0.0349153
0.0258853
0.00938926
-0.010457
-0.0253366
-0.0309801
-0.0285173
-0.0224348
-0.0143618
-0.00732486
-0.00076992
0.00380837
0.00756763
0.0110783
0.012015
0.0131769
0.0074254
-0.000692804
-0.0255508
-0.0501222
-0.0553771
-0.0478753
-0.0319768
-0.0224739
-0.00925494
0.000976963
-0.0817102
-0.0872149
-0.0891223
-0.0886651
-0.0875862
-0.0867725
-0.0862898
-0.0858577
-0.0852072
-0.0841977
-0.0827779
-0.0809153
-0.0785549
-0.0756184
-0.0720224
-0.067703
-0.0626308
-0.0568222
-0.0503363
-0.0432744
-0.0357653
-0.0279607
-0.0200196
-0.0121012
-0.00435789
0.0030768
0.0100529
0.0164842
0.0222267
0.027144
0.030853
0.0335552
0.0354324
0.0363676
0.0344698
0.0272194
0.0139799
-0.00202687
-0.0144736
-0.0201543
-0.0195062
-0.0156433
-0.00953566
-0.00384347
0.00163784
0.00563745
0.00904897
0.012573
0.0135328
0.0145288
0.00961278
0.00299657
-0.0184944
-0.0415613
-0.0479151
-0.0420555
-0.0282504
-0.0195823
-0.00798116
0.000907508
-0.0729922
-0.0781717
-0.0801747
-0.0800065
-0.0791871
-0.078524
-0.0781045
-0.0776938
-0.0770523
-0.0760521
-0.0746525
-0.0728373
-0.0705743
-0.0678108
-0.0644862
-0.0605523
-0.0559844
-0.0507927
-0.0450192
-0.0387395
-0.0320524
-0.0250779
-0.0179462
-0.010792
-0.00375031
0.00305828
0.00949498
0.0154769
0.0208864
0.0256502
0.0291883
0.0318808
0.0337386
0.0345821
0.0330789
0.0274274
0.0171418
0.00454281
-0.005766
-0.0112766
-0.0118923
-0.00970614
-0.00522449
-0.000681471
0.00387189
0.00735261
0.0104363
0.0139808
0.0151092
0.0159974
0.0120571
0.00683387
-0.0111829
-0.0324178
-0.0397742
-0.0358169
-0.024389
-0.0166297
-0.00656051
0.000889601
-0.0647303
-0.0695231
-0.0715405
-0.0715944
-0.0710003
-0.0704848
-0.0701452
-0.0697853
-0.0691945
-0.0682569
-0.066938
-0.0652313
-0.0631201
-0.0605698
-0.0575373
-0.0539865
-0.0498982
-0.0452786
-0.0401582
-0.034594
-0.0286622
-0.0224576
-0.0160867
-0.00966271
-0.00330371
0.00288072
0.00876527
0.0142712
0.0193012
0.0238986
0.0271444
0.0297613
0.0315454
0.0322838
0.0310861
0.0267234
0.0188727
0.00912878
0.000768018
-0.00430742
-0.00565923
-0.00464144
-0.00144796
0.00213063
0.00590301
0.00892939
0.0117139
0.0152693
0.0167212
0.0176769
0.0147979
0.0106893
-0.00410249
-0.0233292
-0.0314074
-0.029397
-0.0205062
-0.0137144
-0.00502351
0.000937324
-0.0569418
-0.0613333
-0.0633094
-0.0635267
-0.0631212
-0.0627408
-0.0624859
-0.0621932
-0.0616784
-0.0608365
-0.0596367
-0.0580781
-0.056154
-0.0538426
-0.0511135
-0.0479401
-0.0443077
-0.0402205
-0.0357013
-0.0307934
-0.0255562
-0.020065
-0.0144064
-0.00867563
-0.00297503
0.00259669
0.0079255
0.0129214
0.0174605
0.0213944
0.0247732
0.0273315
0.0290255
0.0296878
0.0287438
0.0254003
0.019485
0.0120723
0.00543245
0.000977207
-0.000691158
-0.0004174
0.00179688
0.00458074
0.00770406
0.0103463
0.0128656
0.016382
0.0182423
0.0195627
0.0177248
0.014337
0.00222641
-0.0149363
-0.0233124
-0.0230628
-0.0167135
-0.0109274
-0.00342885
0.00104874
-0.0496728
-0.0536516
-0.0555394
-0.0558692
-0.0556174
-0.0553559
-0.0551836
-0.0549647
-0.054539
-0.0538107
-0.0527516
-0.0513638
-0.0496468
-0.0475876
-0.0451645
-0.0423583
-0.0391577
-0.0355662
-0.031601
-0.0272959
-0.0226972
-0.0178655
-0.0128709
-0.00779344
-0.00272081
0.00225861
0.00704109
0.0115305
0.0155946
0.0190299
0.0223238
0.0247611
0.0263539
0.0269776
0.0262704
0.023748
0.0193464
0.0137972
0.00863309
0.00488198
0.00317853
0.00302604
0.00452559
0.00667214
0.00925566
0.011578
0.0138703
0.0172734
0.019499
0.0212686
0.0204162
0.0173869
0.00735236
-0.00770841
-0.0159172
-0.0170755
-0.0131131
-0.00834363
-0.00186183
0.00120195
-0.0429311
-0.0464922
-0.0482595
-0.0486629
-0.0485353
-0.0483769
-0.0482811
-0.048135
-0.0478017
-0.0471941
-0.0462852
-0.045078
-0.0435759
-0.0417714
-0.0396494
-0.0371955
-0.0344014
-0.0312702
-0.0278152
-0.0240632
-0.0200506
-0.0158262
-0.0114473
-0.00698056
-0.00250055
0.00191458
0.006174
0.0101915
0.0138628
0.0170969
0.0199707
0.0222012
0.023682
0.024299
0.0238215
0.0219716
0.0187528
0.0146664
0.0107367
0.00769244
0.00612204
0.00576552
0.00676394
0.00841489
0.0105499
0.0126012
0.0146962
0.017895
0.0203499
0.02242
0.0222915
0.019414
0.0110188
-0.00186349
-0.00952211
-0.0116712
-0.009794
-0.00602052
-0.000431104
0.00135958
-0.0366923
-0.0398549
-0.0414879
-0.0419362
-0.0419072
-0.0418353
-0.0418072
-0.0417291
-0.0414858
-0.0409975
-0.0402385
-0.0392117
-0.0379224
-0.0363669
-0.0345344
-0.0324141
-0.0299996
-0.0272938
-0.0243071
-0.0210612
-0.0175847
-0.0139174
-0.0101055
-0.00620525
-0.00227902
0.00160517
0.00537028
0.00894196
0.0122354
0.015183
0.0177293
0.0197478
0.0211222
0.0217545
0.0214953
0.0202005
0.0179046
0.0149546
0.0120335
0.00964608
0.00829785
0.00788488
0.00854719
0.0098225
0.0115861
0.0133969
0.01531
0.0181979
0.0206855
0.0227208
0.0229899
0.0202598
0.0132547
0.00256771
-0.00431098
-0.00703731
-0.00681897
-0.00400039
0.000743935
0.00147695
-0.0309481
-0.0337396
-0.0352319
-0.0357023
-0.0357496
-0.0357492
-0.035781
-0.0357683
-0.0356021
-0.0352241
-0.0346082
-0.033755
-0.0326698
-0.0313514
-0.0297918
-0.0279829
-0.0259196
-0.0236043
-0.0210455
-0.0182605
-0.0152723
-0.0121131
-0.00882046
-0.00544124
-0.00202737
0.00136256
0.00466409
0.00781335
0.0107378
0.013374
0.0156438
0.0174685
0.0187484
0.0194089
0.0193505
0.0185094
0.0169265
0.014852
0.0127621
0.0109418
0.00984873
0.00946755
0.00991747
0.0109125
0.0123696
0.0139531
0.0156822
0.0181768
0.0204973
0.0222413
0.0226003
0.0201104
0.0143168
0.00568136
-0.000331693
-0.00327571
-0.00422605
-0.00229937
0.00158062
0.0015178
-0.0256891
-0.0281346
-0.0294834
-0.0299584
-0.0300637
-0.0301206
-0.0302006
-0.0302366
-0.0301429
-0.0298684
-0.0293877
-0.0286976
-0.0278032
-0.0267054
-0.0253986
-0.0238763
-0.0221345
-0.020175
-0.0180044
-0.015637
-0.0130908
-0.0103922
-0.00757162
-0.00466787
-0.00172394
0.00121102
0.00408271
0.00683542
0.00940614
0.0117392
0.0137599
0.0154107
0.0166072
0.0172979
0.0174147
0.0169372
0.0159028
0.0144942
0.0130057
0.0117209
0.0108937
0.0105948
0.0109202
0.0117081
0.012911
0.0142717
0.0158036
0.0178655
0.0198854
0.02124
0.0214834
0.0192945
0.0145461
0.00768292
0.00251932
-0.000378511
-0.00203779
-0.000914844
0.00207215
0.00147559
-0.0208885
-0.023017
-0.0242265
-0.0246946
-0.0248434
-0.0249455
-0.0250644
-0.0251448
-0.0251129
-0.0249294
-0.0245693
-0.0240279
-0.0233081
-0.0224117
-0.0213351
-0.0200731
-0.0186223
-0.0169838
-0.015163
-0.013171
-0.0110224
-0.00873869
-0.00634402
-0.00387056
-0.0013532
0.00116668
0.00364298
0.0060283
0.00826825
0.0103166
0.0121088
0.0136026
0.0147234
0.0154378
0.0156977
0.0155067
0.0148935
0.0139949
0.0129841
0.0121199
0.011539
0.0113429
0.0116021
0.0122361
0.0132267
0.0143711
0.0156911
0.017324
0.0189559
0.0199491
0.0199998
0.0181127
0.0142527
0.00883834
0.00444014
0.00174538
-0.000257963
0.000161324
0.00226847
0.00137399
-0.0165197
-0.0183637
-0.0194422
-0.0198962
-0.0200772
-0.0202152
-0.0203665
-0.020487
-0.0205146
-0.0204027
-0.0201447
-0.0197341
-0.0191704
-0.0184545
-0.0175841
-0.0165553
-0.0153648
-0.0140134
-0.0125048
-0.0108479
-0.00905431
-0.00714118
-0.00512787
-0.00304054
-0.000907614
0.0012365
0.00335375
0.00540455
0.00734199
0.00912597
0.0107036
0.0120565
0.0131047
0.0138302
0.0141997
0.014228
0.0139334
0.0134235
0.0127956
0.0122485
0.0118764
0.0117808
0.0120094
0.0125278
0.0133397
0.0142788
0.0153815
0.0166311
0.0178735
0.0185343
0.0184035
0.0167831
0.01366
0.00940175
0.00565309
0.00322327
0.00112874
0.00096479
0.0022567
0.00112323
-0.0125602
-0.0141502
-0.015107
-0.0155418
-0.0157455
-0.015911
-0.0160862
-0.0162355
-0.0163055
-0.0162621
-0.0160934
-0.0157977
-0.0153728
-0.0148176
-0.01413
-0.0133075
-0.0123474
-0.0112499
-0.0100174
-0.00865709
-0.00717773
-0.00559313
-0.00391862
-0.00217517
-0.000385739
0.00142154
0.00321623
0.00496593
0.00663089
0.00817949
0.00958022
0.0107757
0.0117458
0.0124673
0.0129121
0.0130997
0.0130412
0.0128242
0.0124815
0.0121794
0.0119783
0.0119706
0.0121873
0.0126169
0.0132767
0.0140282
0.0149196
0.0158403
0.0167307
0.0171117
0.0168417
0.0154441
0.0129105
0.00956414
0.00636116
0.0041939
0.0021649
0.00154948
0.00214904
0.000994042
-0.00898397
-0.0103492
-0.0111947
-0.0116077
-0.0118272
-0.0120132
-0.012207
-0.0123797
-0.0124874
-0.0124991
-0.0124035
-0.0122048
-0.0119002
-0.0114857
-0.0109585
-0.0103165
-0.00955781
-0.0086824
-0.00769187
-0.00659147
-0.00538799
-0.00409222
-0.00271617
-0.00127641
0.000208785
0.00171714
0.00322358
0.00470146
0.00612077
0.00745366
0.0086642
0.00973237
0.0106251
0.0113308
0.0118222
0.0121191
0.0122235
0.0121918
0.0120792
0.0119678
0.0119034
0.011966
0.0121784
0.0125376
0.0130678
0.0136541
0.0143475
0.0149944
0.0155925
0.015754
0.0153859
0.0141734
0.0120973
0.00945738
0.00672077
0.00478579
0.00290684
0.0019725
0.0020131
0.00087544
-0.00576457
-0.00693286
-0.00767823
-0.00806859
-0.0082984
-0.00849952
-0.00870671
-0.00889689
-0.0090342
-0.00909357
-0.00906499
-0.00894541
-0.00873963
-0.00844437
-0.00805542
-0.00756978
-0.00698547
-0.00630237
-0.00552164
-0.00464704
-0.00368355
-0.00263946
-0.00152406
-0.000350264
0.000867641
0.00211196
0.00336294
0.00459974
0.00579752
0.00693436
0.00798123
0.00892055
0.00972896
0.0104015
0.0109135
0.0112786
0.0114946
0.0116069
0.0116396
0.0116627
0.0117
0.0118141
0.0120225
0.0123238
0.0127442
0.0131884
0.013704
0.014131
0.0144964
0.0144946
0.0140633
0.013007
0.0112806
0.00917573
0.0068398
0.00507703
0.00340855
0.00227892
0.00188885
0.000776377
-0.00287726
-0.00387438
-0.00453072
-0.00489845
-0.00513445
-0.00534622
-0.00556277
-0.00576587
-0.00592638
-0.0060237
-0.00604865
-0.00599931
-0.0058758
-0.00568019
-0.00540837
-0.00505629
-0.00462136
-0.0041032
-0.00350258
-0.00282213
-0.00206544
-0.00123872
-0.000349068
0.000593668
0.00157855
0.00259189
0.00361834
0.00464134
0.00564122
0.00660112
0.00749907
0.00832108
0.00904571
0.00966747
0.0101714
0.0105692
0.0108525
0.0110561
0.0111876
0.0113008
0.0114081
0.0115552
0.0117561
0.012008
0.0123359
0.012661
0.0130248
0.0132846
0.0134644
0.0133465
0.0128785
0.011953
0.0104965
0.00878831
0.00680862
0.00521524
0.00366755
0.0024657
0.00179052
0.000699757
-0.000298307
-0.00114766
-0.00172553
-0.00207142
-0.00231051
-0.00252943
-0.00275208
-0.00296417
-0.00314231
-0.00326965
-0.00333847
-0.00334668
-0.00329402
-0.00317999
-0.00300514
-0.00276522
-0.00245683
-0.00207883
-0.00163147
-0.00111651
-0.000536464
0.00010413
0.000799959
0.00154368
0.00232704
0.00313965
0.00396969
0.00480442
0.00562872
0.00642945
0.00718925
0.00789756
0.0085365
0.00910258
0.00958215
0.00998346
0.0102981