/*--------------------------------*- C++ -*----------------------------------*\
| =========                 |                                                 |
| \\      /  F ield         | OpenFOAM: The Open Source CFD Toolbox           |
|  \\    /   O peration     | Version:  2512                                  |
|   \\  /    A nd           | Website:  www.openfoam.com                      |
|    \\/     M anipulation  |                                                 |
\*---------------------------------------------------------------------------*/
FoamFile
{
    version     2.0;
    format      ascii;
    arch        "LSB;label=32;scalar=64";
    class       volScalarField;
    location    "146.75";
    object      p;
}
// * * * * * * * * * * * * * * * * * * * * * * * * * * * * * * * * * * * * * //

dimensions      [0 2 -2 0 0 0 0];

internalField   nonuniform List<scalar> 
13248
(
-0.306763
-0.305958
-0.303981
-0.301056
-0.297391
-0.293128
-0.288401
-0.283355
-0.278143
-0.272917
-0.267822
-0.262982
-0.258489
-0.254395
-0.250705
-0.247375
-0.244317
-0.241417
-0.238534
-0.235558
-0.232271
-0.228704
-0.224038
-0.21885
-0.314495
-0.31277
-0.310085
-0.306619
-0.302532
-0.297961
-0.293019
-0.287809
-0.282429
-0.276975
-0.271531
-0.266167
-0.26093
-0.255836
-0.250878
-0.246019
-0.241205
-0.236374
-0.231457
-0.226385
-0.221057
-0.215408
-0.209155
-0.202846
-0.324058
-0.321213
-0.317656
-0.313517
-0.308894
-0.303907
-0.298629
-0.293096
-0.287335
-0.281372
-0.275239
-0.26897
-0.262602
-0.256168
-0.249695
-0.243206
-0.236713
-0.230221
-0.223721
-0.217192
-0.210564
-0.203832
-0.196792
-0.189896
-0.335391
-0.331263
-0.326703
-0.321782
-0.316511
-0.310968
-0.30516
-0.299038
-0.292552
-0.285674
-0.278416
-0.270831
-0.262998
-0.255014
-0.246974
-0.238964
-0.231048
-0.223264
-0.215622
-0.208104
-0.200666
-0.193299
-0.185865
-0.178817
-0.34848
-0.342945
-0.337293
-0.331507
-0.325466
-0.319175
-0.31255
-0.305456
-0.297788
-0.289519
-0.28071
-0.271484
-0.262008
-0.252451
-0.242965
-0.233665
-0.224624
-0.215873
-0.207411
-0.199214
-0.191242
-0.183472
-0.175817
-0.16858
-0.363305
-0.356277
-0.349485
-0.342763
-0.335797
-0.328476
-0.320623
-0.31205
-0.302672
-0.292544
-0.281835
-0.270782
-0.259633
-0.248603
-0.237856
-0.227493
-0.217564
-0.208075
-0.199004
-0.190315
-0.181964
-0.173916
-0.166109
-0.158747
-0.379753
-0.371189
-0.363233
-0.355484
-0.347355
-0.3386
-0.328984
-0.318356
-0.306753
-0.294389
-0.281581
-0.268663
-0.255927
-0.243585
-0.231768
-0.220537
-0.2099
-0.199836
-0.190301
-0.181246
-0.172624
-0.164386
-0.156495
-0.149036
-0.397533
-0.387443
-0.378307
-0.369379
-0.359734
-0.349014
-0.337027
-0.323787
-0.309549
-0.294731
-0.27978
-0.265081
-0.250909
-0.237427
-0.224708
-0.21276
-0.201552
-0.191031
-0.181139
-0.171815
-0.163005
-0.154655
-0.146734
-0.139231
-0.416121
-0.404577
-0.394229
-0.383878
-0.372246
-0.358954
-0.344007
-0.327714
-0.310612
-0.293304
-0.276308
-0.259991
-0.244562
-0.23011
-0.216637
-0.204101
-0.192434
-0.18156
-0.171405
-0.161898
-0.152976
-0.144585
-0.136687
-0.129194
-0.434734
-0.421866
-0.410233
-0.398113
-0.38394
-0.367483
-0.349117
-0.329537
-0.309554
-0.289886
-0.271042
-0.253314
-0.236817
-0.221554
-0.207463
-0.194456
-0.182436
-0.171306
-0.160978
-0.151371
-0.142411
-0.134043
-0.126206
-0.118776
-0.452351
-0.438319
-0.425268
-0.410943
-0.393662
-0.373555
-0.35151
-0.328627
-0.305918
-0.284127
-0.263684
-0.244768
-0.22739
-0.211474
-0.196901
-0.183547
-0.171286
-0.160006
-0.149605
-0.139988
-0.131078
-0.122807
-0.115083
-0.107789
-0.467807
-0.452813
-0.438174
-0.421173
-0.400249
-0.376122
-0.350284
-0.324204
-0.299004
-0.275364
-0.253585
-0.233715
-0.215661
-0.199273
-0.184382
-0.17083
-0.158469
-0.147171
-0.136819
-0.127313
-0.118567
-0.110503
-0.103
-0.095995
-0.336006
-0.33869
-0.340203
-0.341061
-0.341707
-0.34225
-0.342727
-0.343143
-0.343483
-0.343714
-0.343794
-0.343681
-0.343342
-0.342756
-0.341927
-0.340885
-0.339696
-0.338466
-0.337349
-0.336542
-0.336273
-0.336757
-0.338228
-0.341094
-0.326877
-0.32925
-0.330459
-0.330946
-0.331102
-0.331031
-0.330777
-0.330366
-0.329801
-0.329078
-0.328193
-0.327151
-0.325975
-0.324716
-0.323452
-0.322302
-0.321419
-0.320995
-0.32125
-0.32243
-0.324782
-0.32851
-0.333765
-0.340943
-0.319226
-0.32117
-0.322029
-0.32215
-0.321849
-0.321221
-0.320314
-0.319169
-0.317814
-0.316271
-0.314571
-0.31276
-0.310912
-0.309131
-0.307558
-0.306368
-0.305779
-0.30603
-0.307376
-0.310067
-0.314348
-0.320372
-0.328163
-0.33808
-0.312867
-0.314349
-0.314853
-0.314624
-0.313904
-0.312769
-0.311274
-0.309474
-0.307419
-0.30516
-0.302759
-0.300297
-0.29789
-0.295683
-0.29386
-0.292607
-0.292217
-0.292924
-0.294992
-0.298661
-0.304132
-0.311534
-0.320819
-0.331912
-0.307579
-0.308651
-0.30883
-0.308278
-0.307168
-0.305564
-0.303524
-0.301119
-0.298421
-0.295511
-0.292483
-0.289431
-0.28653
-0.283935
-0.281852
-0.280514
-0.280178
-0.281101
-0.28353
-0.287678
-0.293701
-0.301668
-0.311662
-0.32279
-0.303191
-0.303964
-0.303871
-0.303021
-0.301542
-0.299487
-0.296922
-0.293935
-0.290622
-0.287092
-0.283466
-0.279884
-0.276515
-0.27355
-0.271208
-0.269726
-0.269352
-0.270332
-0.272885
-0.277187
-0.283368
-0.291326
-0.301504
-0.311875
-0.299644
-0.300252
-0.299946
-0.298816
-0.296976
-0.29448
-0.291403
-0.287852
-0.28395
-0.279833
-0.275651
-0.271573
-0.267786
-0.264499
-0.261936
-0.260333
-0.259929
-0.260943
-0.263559
-0.267891
-0.274079
-0.281688
-0.291788
-0.300772
-0.297019
-0.297574
-0.297099
-0.295701
-0.293509
-0.290587
-0.287027
-0.282955
-0.27852
-0.273887
-0.269234
-0.264755
-0.260658
-0.257163
-0.254499
-0.252894
-0.252563
-0.253691
-0.256418
-0.260746
-0.266847
-0.273823
-0.2834
-0.290525
-0.295539
-0.296087
-0.295456
-0.293794
-0.291267
-0.287958
-0.283979
-0.279477
-0.274624
-0.26961
-0.26464
-0.259928
-0.255697
-0.252171
-0.249571
-0.2481
-0.24793
-0.249179
-0.251916
-0.256019
-0.261648
-0.267626
-0.275845
-0.280944
-0.295516
-0.296008
-0.295192
-0.293264
-0.290432
-0.286802
-0.282507
-0.27771
-0.272601
-0.267392
-0.262297
-0.257542
-0.253346
-0.24992
-0.247451
-0.24609
-0.245938
-0.247031
-0.249348
-0.252707
-0.257149
-0.26171
-0.267691
-0.270831
-0.297261
-0.297551
-0.296474
-0.294263
-0.291153
-0.287275
-0.282772
-0.277819
-0.272612
-0.267358
-0.262277
-0.25758
-0.253463
-0.250095
-0.247608
-0.246078
-0.245521
-0.245887
-0.247064
-0.248891
-0.25127
-0.253812
-0.25708
-0.258441
-0.300992
-0.300859
-0.299402
-0.296855
-0.29347
-0.289383
-0.284741
-0.279715
-0.27449
-0.269259
-0.264215
-0.259535
-0.255371
-0.251834
-0.248984
-0.246824
-0.245292
-0.244278
-0.243614
-0.243163
-0.242719
-0.242337
-0.242148
-0.241936
-0.346626
-0.355466
-0.366554
-0.37884
-0.390731
-0.400047
-0.404274
-0.400928
-0.387635
-0.363253
-0.328191
-0.28549
-0.240419
-0.198765
-0.164955
-0.141132
-0.127388
-0.123042
-0.128032
-0.142365
-0.163113
-0.182462
-0.190297
-0.181493
-0.158748
-0.130684
-0.105364
-0.0872075
-0.077257
-0.0744116
-0.0778232
-0.089049
-0.108856
-0.131352
-0.144324
-0.138847
-0.118882
-0.0950013
-0.0760829
-0.0640029
-0.0579941
-0.0593305
-0.0679818
-0.0777263
-0.0793941
-0.0714209
-0.0609406
-0.0517319
-0.0460668
-0.0451717
-0.0469594
-0.0484269
-0.0468253
-0.0415193
-0.0363334
-0.0291535
-0.0212198
-0.018939
-0.0155753
-0.00628507
-0.352744
-0.367749
-0.384377
-0.401447
-0.417104
-0.429028
-0.434685
-0.431544
-0.417214
-0.390362
-0.351541
-0.304122
-0.253888
-0.207097
-0.168384
-0.13992
-0.121731
-0.112965
-0.113202
-0.122401
-0.138563
-0.155391
-0.163911
-0.158306
-0.140712
-0.1178
-0.0968361
-0.0822807
-0.0754051
-0.0752431
-0.0812877
-0.0955218
-0.118467
-0.143365
-0.156998
-0.150011
-0.127382
-0.100388
-0.0785081
-0.0638511
-0.0555968
-0.0544601
-0.0606319
-0.0685511
-0.0699146
-0.0637203
-0.0557313
-0.0492344
-0.0457605
-0.0474165
-0.0513683
-0.0537412
-0.0519447
-0.0449942
-0.0385676
-0.0295087
-0.0200225
-0.0166366
-0.012716
-0.0050999
-0.354318
-0.373506
-0.393554
-0.413534
-0.43151
-0.445147
-0.451812
-0.448986
-0.434246
-0.406109
-0.365136
-0.314881
-0.261432
-0.211297
-0.169221
-0.137266
-0.115334
-0.102458
-0.0979802
-0.101914
-0.113144
-0.126948
-0.135636
-0.132992
-0.120624
-0.102906
-0.086427
-0.0756538
-0.0719876
-0.0745736
-0.0832287
-0.100251
-0.12594
-0.152948
-0.167321
-0.159265
-0.134455
-0.104779
-0.080259
-0.0632608
-0.052971
-0.0495602
-0.0533948
-0.0595816
-0.0606126
-0.0560301
-0.0503262
-0.04645
-0.0452048
-0.0495573
-0.0557992
-0.0590533
-0.0569436
-0.0482604
-0.0405923
-0.0297949
-0.0188242
-0.0143606
-0.0098933
-0.00393681
-0.35066
-0.37204
-0.393735
-0.415097
-0.43417
-0.448747
-0.456069
-0.453638
-0.438973
-0.410565
-0.368983
-0.317846
-0.263291
-0.211817
-0.168037
-0.133854
-0.109098
-0.0927719
-0.0840825
-0.0829181
-0.0889719
-0.0991395
-0.107226
-0.106825
-0.0994151
-0.0865871
-0.0744944
-0.0674804
-0.0669444
-0.0721409
-0.0831586
-0.102554
-0.130583
-0.159536
-0.174896
-0.16634
-0.139914
-0.108073
-0.0813376
-0.0623087
-0.050236
-0.044813
-0.0465219
-0.0510832
-0.0517152
-0.0485165
-0.0448208
-0.0434151
-0.0443704
-0.0515131
-0.060149
-0.0642784
-0.0617606
-0.0512757
-0.042378
-0.0299971
-0.0176312
-0.0121383
-0.00721399
-0.00280564
-0.342206
-0.364159
-0.386168
-0.407804
-0.427225
-0.441679
-0.449354
-0.44717
-0.432874
-0.404985
-0.36417
-0.314054
-0.260532
-0.209681
-0.165733
-0.130446
-0.103712
-0.0846142
-0.0723409
-0.0666636
-0.0676192
-0.0736684
-0.080442
-0.0835823
-0.0780142
-0.0694162
-0.0613898
-0.057879
-0.0602049
-0.0677355
-0.0807523
-0.102047
-0.131996
-0.16269
-0.179316
-0.170997
-0.143666
-0.110257
-0.0817922
-0.0610872
-0.0475056
-0.0403502
-0.0401745
-0.0432552
-0.0434171
-0.0413292
-0.03931
-0.0401575
-0.0432203
-0.0531944
-0.064291
-0.069304
-0.0663207
-0.0539982
-0.0438993
-0.0301013
-0.0164496
-0.0099906
-0.00454506
-0.00171327
-0.330797
-0.352015
-0.373108
-0.393903
-0.413353
-0.427199
-0.43407
-0.431703
-0.417853
-0.391112
-0.352297
-0.304897
-0.254262
-0.205733
-0.162981
-0.127595
-0.0996436
-0.0784284
-0.0632128
-0.0536964
-0.0500264
-0.0517175
-0.0560483
-0.0590414
-0.0567803
-0.0519986
-0.0475384
-0.0470726
-0.0518722
-0.0613922
-0.0760001
-0.0986593
-0.129988
-0.162204
-0.180353
-0.173051
-0.145647
-0.111335
-0.0816664
-0.0596659
-0.044854
-0.0362497
-0.0344439
-0.0362284
-0.0358674
-0.0345929
-0.0338814
-0.036706
-0.0417227
-0.0545027
-0.0680786
-0.0740122
-0.070548
-0.0563918
-0.0451354
-0.0300885
-0.0152824
-0.00793874
-0.00197982
-0.000667017
-0.318545
-0.337732
-0.356714
-0.376018
-0.392984
-0.406168
-0.411978
-0.409282
-0.395986
-0.371025
-0.335356
-0.292101
-0.245797
-0.200862
-0.160346
-0.125686
-0.0971631
-0.0744121
-0.0568722
-0.0442212
-0.0365778
-0.0340373
-0.035283
-0.0373468
-0.0369574
-0.0350936
-0.0334962
-0.0354859
-0.0422712
-0.0533571
-0.0690784
-0.0924932
-0.124609
-0.158112
-0.177979
-0.172428
-0.145829
-0.11133
-0.0809952
-0.0580911
-0.042326
-0.0325451
-0.0293554
-0.0300422
-0.0291566
-0.0284162
-0.0286237
-0.0331
-0.0398538
-0.0553383
-0.0713653
-0.0782803
-0.074365
-0.0584243
-0.0460722
-0.0299437
-0.0141293
-0.00599717
0.000466886
0.000328354
-0.306256
-0.321901
-0.337876
-0.355366
-0.370269
-0.380408
-0.384726
-0.381692
-0.369278
-0.346841
-0.315318
-0.277248
-0.236202
-0.195638
-0.158042
-0.12474
-0.0962191
-0.0724655
-0.0531846
-0.0380955
-0.027236
-0.0209066
-0.018803
-0.0192177
-0.0198626
-0.0193783
-0.019867
-0.0236466
-0.0318284
-0.0439728
-0.0603283
-0.0839241
-0.116203
-0.150632
-0.172405
-0.169217
-0.144237
-0.110275
-0.0798056
-0.0563924
-0.0399494
-0.0292478
-0.0249036
-0.0246764
-0.0233035
-0.0228744
-0.0236267
-0.0293864
-0.0376071
-0.0556149
-0.0740146
-0.0819864
-0.0776987
-0.0600709
-0.0467038
-0.0296691
-0.0129974
-0.00417572
0.00278672
0.00127025
-0.293024
-0.304018
-0.317637
-0.331718
-0.343412
-0.350774
-0.354006
-0.350923
-0.33996
-0.320774
-0.294072
-0.261699
-0.226258
-0.190349
-0.155994
-0.124469
-0.0964444
-0.0721966
-0.0517181
-0.0348462
-0.0215454
-0.0120982
-0.00674073
-0.00483823
-0.00480183
-0.00524281
-0.00717003
-0.012054
-0.0209922
-0.033647
-0.0501244
-0.0733873
-0.105376
-0.140359
-0.164042
-0.163659
-0.141023
-0.108322
-0.0782428
-0.0546976
-0.0378233
-0.0264083
-0.0210914
-0.0201141
-0.0182966
-0.0178146
-0.0189715
-0.0256191
-0.0349772
-0.0552706
-0.0759115
-0.0850192
-0.0804917
-0.061328
-0.0470368
-0.0292827
-0.011913
-0.00249887
0.00497482
0.00215843
-0.27793
-0.284037
-0.294164
-0.30571
-0.313885
-0.319755
-0.322404
-0.319787
-0.310888
-0.295416
-0.273735
-0.247024
-0.21705
-0.185711
-0.154671
-0.125175
-0.0980415
-0.0737489
-0.0525193
-0.03436
-0.0192295
-0.0073196
0.000971349
0.00556716
0.00722762
0.006829
0.00426187
-0.00104162
-0.0101648
-0.0228308
-0.0390785
-0.0617116
-0.0928342
-0.127931
-0.153397
-0.15606
-0.13648
-0.105808
-0.0766398
-0.0532739
-0.0361498
-0.0241356
-0.0179174
-0.0163189
-0.0141659
-0.0136797
-0.0147284
-0.0218416
-0.0320291
-0.054259
-0.0769467
-0.0872727
-0.082693
-0.0622081
-0.0470873
-0.028776
-0.0108921
-0.00100711
0.00701953
0.00299414
-0.26061
-0.264122
-0.272127
-0.279646
-0.285455
-0.290297
-0.292676
-0.29101
-0.28453
-0.272851
-0.256024
-0.23467
-0.209877
-0.182965
-0.155264
-0.12795
-0.101944
-0.0778914
-0.0561962
-0.0370473
-0.0204829
-0.00661607
0.00421492
0.0116094
0.0155353
0.0163428
0.0141578
0.00909157
0.000353882
-0.0117492
-0.0272593
-0.0489369
-0.0794286
-0.114647
-0.140884
-0.14671
-0.130343
-0.102471
-0.0747834
-0.0518778
-0.0347317
-0.0222675
-0.0151991
-0.0130227
-0.0107541
-0.0103473
-0.011078
-0.0181014
-0.0286844
-0.0525501
-0.0771393
-0.0886558
-0.0841503
-0.0626349
-0.0468267
-0.0280419
-0.0098673
0.000328004
0.00890833
0.00377666
-0.243294
-0.247181
-0.251653
-0.255438
-0.258819
-0.26217
-0.263865
-0.262713
-0.258046
-0.249387
-0.236553
-0.219739
-0.199503
-0.17669
-0.152322
-0.12745
-0.103024
-0.0798005
-0.0583234
-0.0389256
-0.0217801
-0.00700109
0.00529464
0.014835
0.0210878
0.023492
0.0225712
0.017839
0.00980038
-0.00143935
-0.0161056
-0.0365618
-0.0655003
-0.0995533
-0.126055
-0.133187
-0.120945
-0.0963774
-0.070695
-0.0487614
-0.0321858
-0.0198222
-0.0123647
-0.00971282
-0.00742225
-0.00727035
-0.00780422
-0.014619
-0.0253078
-0.0501637
-0.0762501
-0.0891199
-0.0846975
-0.0623741
-0.0461174
-0.0269068
-0.00869721
0.00167598
0.0107008
0.00450982
-0.228811
-0.239014
-0.24232
-0.242009
-0.243115
-0.244936
-0.245613
-0.243854
-0.238917
-0.23041
-0.218232
-0.202567
-0.183881
-0.162884
-0.140441
-0.117455
-0.0947492
-0.0729842
-0.0526368
-0.0340138
-0.0172945
-0.00261072
0.00994144
0.0201975
0.0277422
0.0320258
0.0319892
0.0279632
0.0210544
0.0112764
-0.00213723
-0.0222183
-0.0526918
-0.0898647
-0.119318
-0.128256
-0.11375
-0.089249
-0.0646715
-0.0439384
-0.028345
-0.0165653
-0.00935892
-0.00656154
-0.00405172
-0.00352003
-0.00318457
-0.00983556
-0.0206126
-0.0467565
-0.0752813
-0.0898805
-0.0855978
-0.0617003
-0.0450149
-0.0255578
-0.00749095
0.00305895
0.0124364
0.00518899
-0.211839
-0.224244
-0.226872
-0.225651
-0.224936
-0.225145
-0.224733
-0.222263
-0.216985
-0.208649
-0.197275
-0.183048
-0.166325
-0.147634
-0.127635
-0.107036
-0.0865057
-0.0666057
-0.0477706
-0.0303014
-0.0144059
-0.000229594
0.0121804
0.0227075
0.0308999
0.0358114
0.0367576
0.0341059
0.0286703
0.0205268
0.0084793
-0.0111357
-0.0424993
-0.0807094
-0.109708
-0.116542
-0.102721
-0.0800791
-0.0577951
-0.0389647
-0.0247337
-0.0137478
-0.00678626
-0.00388218
-0.00145349
-0.000876859
-0.000279432
-0.00644625
-0.0168989
-0.0435908
-0.0738241
-0.0892595
-0.0849395
-0.0602696
-0.0432747
-0.0239553
-0.00631354
0.0043272
0.0137147
0.00570605
-0.19472
-0.207821
-0.210822
-0.208959
-0.20695
-0.205923
-0.204704
-0.201862
-0.196637
-0.188841
-0.178534
-0.165863
-0.151066
-0.134507
-0.11668
-0.0981529
-0.0794907
-0.0611956
-0.0436763
-0.0272371
-0.0120936
0.00158445
0.0137016
0.0241452
0.0326013
0.0382697
0.0402029
0.0385983
0.0343833
0.0274492
0.0161527
-0.00348714
-0.0346006
-0.0708641
-0.0974314
-0.103175
-0.0908107
-0.0707435
-0.0509822
-0.0340608
-0.0211459
-0.0109833
-0.00433376
-0.00138414
0.000961205
0.001568
0.00220631
-0.0038513
-0.0141818
-0.0408417
-0.0715367
-0.0872333
-0.0832051
-0.0582886
-0.0411229
-0.0221642
-0.00507926
0.00553608
0.0147819
0.00614264
-0.178816
-0.191171
-0.194249
-0.192259
-0.18966
-0.187891
-0.186146
-0.18314
-0.178121
-0.170896
-0.161532
-0.150166
-0.136975
-0.12223
-0.106308
-0.0896643
-0.0727682
-0.0560486
-0.0398694
-0.0245206
-0.0102168
0.00285815
0.0145636
0.0247717
0.0332831
0.0393674
0.0421962
0.0417884
0.0388899
0.0332034
0.022678
0.00333655
-0.026561
-0.0602125
-0.084237
-0.0890054
-0.0782981
-0.0610633
-0.0439919
-0.0290735
-0.0175314
-0.00827585
-0.0020055
0.000946325
0.00326452
0.0039157
0.00460737
-0.00141707
-0.0116049
-0.0376228
-0.0680925
-0.08404
-0.0804756
-0.055764
-0.0385922
-0.0201382
-0.00377788
0.00665114
0.0156643
0.00651632
-0.162988
-0.174495
-0.17769
-0.175894
-0.173132
-0.170947
-0.168853
-0.165781
-0.161021
-0.154365
-0.145877
-0.135689
-0.123951
-0.110859
-0.0966932
-0.0818019
-0.0665652
-0.0513481
-0.0364748
-0.0222214
-0.00880287
0.00359179
0.0147989
0.0246555
0.0330018
0.0392301
0.0427512
0.043406
0.0417743
0.0374409
0.0280503
0.00965719
-0.0185154
-0.0491853
-0.0701557
-0.074134
-0.065453
-0.0513249
-0.0370477
-0.024149
-0.0139603
-0.00564693
0.000196297
0.0031086
0.00544072
0.00612211
0.00688142
0.00104807
-0.00868447
-0.0335369
-0.0634801
-0.0795759
-0.07659
-0.0526319
-0.0356824
-0.0178887
-0.00241584
0.00764877
0.0163319
0.00681232
-0.147476
-0.158354
-0.161595
-0.160036
-0.157307
-0.154943
-0.152682
-0.14965
-0.145209
-0.139145
-0.131507
-0.122417
-0.111997
-0.100394
-0.0878106
-0.0745165
-0.0608189
-0.0470285
-0.0334308
-0.0202817
-0.00779019
0.00385388
0.0144769
0.023896
0.0319695
0.0381584
0.0420719
0.0434795
0.0428152
0.0396007
0.0313815
0.01451
-0.0109767
-0.0376829
-0.0554553
-0.0591858
-0.052847
-0.0418527
-0.0303002
-0.0193669
-0.0104768
-0.00310972
0.00227189
0.00509747
0.00747281
0.00819734
0.00901911
0.00355567
-0.0054239
-0.0287009
-0.0576791
-0.0737098
-0.0714725
-0.0488702
-0.0324271
-0.0154394
-0.000998907
0.00850969
0.01675
0.00701243
-0.132974
-0.142973
-0.146091
-0.144761
-0.142201
-0.139853
-0.137587
-0.134695
-0.130619
-0.125152
-0.118324
-0.110243
-0.101014
-0.0907483
-0.0795978
-0.0677685
-0.0555069
-0.0430731
-0.0307156
-0.0186671
-0.00712719
0.00371507
0.0136859
0.0225964
0.0303321
0.0363364
0.0404191
0.0422936
0.0422181
0.0396878
0.0325148
0.017846
-0.00380533
-0.0259988
-0.0407403
-0.0449442
-0.0410136
-0.0329377
-0.0238965
-0.0148133
-0.00713558
-0.000680579
0.0042238
0.00692126
0.00936079
0.0101662
0.0110272
0.00606028
-0.00198463
-0.0232505
-0.050697
-0.0664743
-0.0651521
-0.0444896
-0.0288769
-0.0128319
0.000463334
0.00922055
0.016894
0.00710635
-0.119292
-0.128299
-0.13128
-0.130214
-0.127906
-0.12569
-0.123529
-0.120846
-0.117158
-0.112273
-0.10621
-0.0990597
-0.0909139
-0.0818606
-0.0720134
-0.0615294
-0.050604
-0.0394531
-0.0282915
-0.0173281
-0.0067504
0.00325625
0.0125212
0.0208457
0.0280423
0.0339093
0.0380251
0.0401637
0.0404234
0.0383336
0.0322438
0.0202271
0.00279339
-0.0151362
-0.0276101
-0.0322102
-0.0303962
-0.024816
-0.0179565
-0.0105539
-0.00398546
0.00162476
0.00605482
0.008599
0.0111114
0.0120505
0.0129193
0.00854497
0.001584
-0.0172543
-0.0426847
-0.0580465
-0.0577551
-0.0395387
-0.0250983
-0.0101253
0.00195703
0.00978011
0.0167564
0.00709257
-0.106288
-0.114457
-0.117323
-0.11651
-0.114474
-0.112447
-0.110456
-0.108024
-0.104733
-0.10041
-0.0950658
-0.0887774
-0.0816224
-0.0736716
-0.0650109
-0.0557603
-0.0460746
-0.0361317
-0.0261158
-0.0162123
-0.00659418
0.00256158
0.0110901
0.0187971
0.0254971
0.031064
0.0350952
0.0373675
0.0378616
0.0361898
0.0312327
0.021769
0.00815647
-0.00608762
-0.0166459
-0.0214683
-0.0212418
-0.0176271
-0.0125626
-0.00663601
-0.00106747
0.00378721
0.00776153
0.0101488
0.0127323
0.0138746
0.0147377
0.0110701
0.00531543
-0.010848
-0.0339419
-0.0487329
-0.0495157
-0.0341128
-0.0211706
-0.00739311
0.00346428
0.010206
0.0163546
0.00698021
-0.0942081
-0.101577
-0.104274
-0.103666
-0.101904
-0.100102
-0.0983186
-0.0961607
-0.0932675
-0.0894828
-0.0848109
-0.0793172
-0.073068
-0.0661203
-0.05854
-0.0504195
-0.0418809
-0.0330706
-0.0241446
-0.015266
-0.00659142
0.00171486
0.00949609
0.0165718
0.0227765
0.0279583
0.0318211
0.0341412
0.0348261
0.0335739
0.0296544
0.0223258
0.0118695
0.00071482
-0.00811265
-0.0127973
-0.0135871
-0.0114168
-0.00776206
-0.00309015
0.00158843
0.0057844
0.00933452
0.0115787
0.0142231
0.0156567
0.0165713
0.0137341
0.00920446
-0.00427391
-0.0248912
-0.0389623
-0.0407733
-0.028356
-0.0171807
-0.00471761
0.00496381
0.0105442
0.015738
0.00679276
-0.0830896
-0.0896224
-0.0921129
-0.0916896
-0.0902014
-0.0886373
-0.087079
-0.0852022
-0.0826959
-0.0794194
-0.0753717
-0.0706082
-0.0651854
-0.0591501
-0.0525532
-0.0454661
-0.0379854
-0.0302306
-0.0223334
-0.014435
-0.00667565
0.000795343
0.0078323
0.0142706
0.019957
0.0247331
0.0283749
0.0306759
0.0315079
0.0306401
0.0276123
0.0220058
0.01407
0.00546653
-0.00175267
-0.00600976
-0.00733644
-0.00616416
-0.00357337
6.67077e-05
0.00396367
0.00759194
0.0107629
0.0128886
0.0155709
0.0173761
0.0184774
0.0166009
0.0131869
0.00214987
-0.0160561
-0.0292511
-0.0319432
-0.0224581
-0.0132183
-0.00218078
0.00642627
0.0108713
0.014992
0.00657132
-0.0727894
-0.0785571
-0.0808579
-0.0806032
-0.0793709
-0.0780388
-0.0767047
-0.075102
-0.0729622
-0.0701582
-0.0666849
-0.0625885
-0.0579172
-0.0527098
-0.0470059
-0.0408608
-0.0343509
-0.0275735
-0.0206387
-0.0136682
-0.00678509
-0.000123573
0.00618455
0.0119903
0.0171517
0.0215158
0.024906
0.0271405
0.0280844
0.0275647
0.0253024
0.0210862
0.0151458
0.00860609
0.00284752
-0.000825578
-0.00233507
-0.00180692
8.83125e-06
0.00282804
0.00605038
0.0091874
0.0120334
0.0140744
0.0167565
0.0189555
0.0204416
0.01961
0.0170946
0.00803971
-0.00797666
-0.0201197
-0.0234568
-0.0166409
-0.00937534
0.000146654
0.00780847
0.0112773
0.0142266
0.00637201
-0.0633088
-0.0684032
-0.0705223
-0.0703957
-0.0693888
-0.0682749
-0.0671572
-0.0658141
-0.0640142
-0.0616437
-0.058694
-0.0552031
-0.051212
-0.0467528
-0.0418567
-0.0365663
-0.0309423
-0.0250633
-0.0190214
-0.0129195
-0.00686548
-0.000977447
0.00462794
0.00981729
0.0144603
0.0184195
0.0215462
0.023687
0.0247193
0.0245146
0.0229088
0.0198182
0.015447
0.0105599
0.00608394
0.00305225
0.00158901
0.00173767
0.00300901
0.00519483
0.00784834
0.0105583
0.0131268
0.0151165
0.0177589
0.0203039
0.0228926
0.0224412
0.0205196
0.0129664
-0.00105318
-0.0119703
-0.0156875
-0.0111357
-0.00574555
0.00221081
0.00905307
0.0118331
0.0135412
0.00624877
-0.0546717
-0.0591333
-0.0610457
-0.061019
-0.0602176
-0.0593115
-0.0583975
-0.0572944
-0.0558044
-0.0538262
-0.0513491
-0.0484036
-0.0450243
-0.0412376
-0.0370682
-0.0325492
-0.0277283
-0.0226691
-0.0174477
-0.0121507
-0.0068711
-0.00171171
0.00322501
0.00782413
0.0119661
0.0155375
0.0184016
0.0204356
0.0215363
0.0216085
0.0205622
0.0183812
0.0152426
0.0116718
0.00829831
0.00588868
0.00460321
0.00456178
0.00546626
0.00717605
0.00936141
0.0117021
0.0140247
0.0159743
0.0185316
0.0212324
0.0240585
0.0244714
0.0229092
0.0165679
0.0045337
-0.005038
-0.00890565
-0.0061581
-0.0024207
0.00397843
0.0100883
0.0125435
0.0129954
0.006224
-0.0468054
-0.0506816
-0.0524016
-0.0524593
-0.0518382
-0.0511168
-0.0503874
-0.0495007
-0.0482883
-0.0466607
-0.0446055
-0.042147
-0.0393137
-0.0361275
-0.0326078
-0.0287801
-0.0246822
-0.0203649
-0.0158904
-0.0113315
-0.00676634
-0.00228253
0.00202926
0.00607245
0.00974704
0.0129416
0.015549
0.0174694
0.0186191
0.018927
0.0183484
0.0168986
0.0147256
0.0122021
0.00974127
0.00790474
0.00686092
0.00675844
0.00742872
0.00878912
0.0105965
0.0126201
0.0147145
0.0166095
0.0190231
0.0216968
0.0244693
0.0253537
0.023973
0.0187279
0.00876015
0.000561175
-0.00327518
-0.00187669
0.000519866
0.00544292
0.0108389
0.0132927
0.0125813
0.00626793
-0.0396489
-0.0430098
-0.0445561
-0.044685
-0.0442155
-0.0436528
-0.0430855
-0.0423905
-0.0414232
-0.040105
-0.0384225
-0.0363946
-0.0340446
-0.0313904
-0.0284473
-0.0252348
-0.0217824
-0.0181305
-0.0143298
-0.0104398
-0.00652631
-0.00266267
0.00107439
0.004602
0.00784116
0.0106744
0.0130375
0.0148408
0.0160195
0.0165199
0.0163208
0.0154516
0.0140363
0.0123347
0.0106111
0.00927955
0.00849961
0.00841842
0.0089494
0.0100584
0.0115645
0.0133159
0.0151908
0.0169996
0.0192084
0.0216911
0.0241582
0.0251544
0.0238824
0.0196268
0.0116855
0.00481361
0.0011627
0.00161731
0.00302025
0.00662567
0.0112579
0.0138456
0.0122101
0.00629638
-0.0331736
-0.0360798
-0.0374627
-0.0376368
-0.0372942
-0.0368712
-0.0364489
-0.0359222
-0.0351682
-0.0341192
-0.0327623
-0.0311113
-0.0291853
-0.0269986
-0.0245631
-0.0218935
-0.0190126
-0.0159522
-0.0127531
-0.00946354
-0.00613816
-0.00283741
0.000373517
0.00342404
0.006247
0.00875826
0.0108925
0.012577
0.013763
0.0144097
0.0145111
0.0140959
0.0132624
0.0122022
0.0110583
0.0101612
0.00963907
0.00962595
0.0100833
0.0110135
0.0122802
0.013797
0.0154582
0.0171392
0.019097
0.02128
0.0233166
0.0242048
0.0230378
0.019616
0.0134718
0.00782992
0.00448255
0.00431956
0.0050488
0.00755274
0.0113457
0.0139651
0.0117372
0.00618246
-0.027334
-0.0298326
-0.0310605
-0.0312718
-0.0310424
-0.0307367
-0.030435
-0.030052
-0.0294819
-0.0286652
-0.0275894
-0.0262652
-0.0247077
-0.0229281
-0.0209356
-0.0187409
-0.0163615
-0.0138222
-0.0111553
-0.0083995
-0.00559918
-0.00280405
-6.73979e-05
0.00255147
0.00499514
0.00720392
0.00912151
0.010685
0.0118558
0.0126046
0.0129327
0.0128595
0.0124614
0.0118428
0.0111992
0.0106701
0.0103832
0.0104587
0.0108844
0.011687
0.0127644
0.0140773
0.0155286
0.0170454
0.0187267
0.0205698
0.0221518
0.0228422
0.0218023
0.0190507
0.0143722
0.00981652
0.00671844
0.00629763
0.00660159
0.00823048
0.0111253
0.0135418
0.0110269
0.00581639
-0.0220745
-0.0242156
-0.0253043
-0.0255423
-0.0254054
-0.0252009
-0.0249998
-0.0247375
-0.0243238
-0.0237057
-0.0228707
-0.0218271
-0.0205867
-0.0191584
-0.0175489
-0.015766
-0.0138229
-0.0117383
-0.00953755
-0.00725124
-0.00491495
-0.00256861
-0.000255785
0.00197447
0.00407595
0.00600737
0.00771527
0.00915344
0.0102894
0.0110995
0.0115867
0.0117676
0.0117054
0.011449
0.0111461
0.010907
0.0108207
0.0109863
0.0114043
0.0121147
0.0130413
0.0141742
0.0154227
0.0167543
0.018158
0.0196156
0.0208254
0.0213112
0.0204148
0.0181978
0.0146562
0.0110359
0.00839759
0.00769118
0.00770248
0.00865892
0.0106459
0.0126112
0.0100282
0.00519274
-0.0173495
-0.0191804
-0.0201444
-0.0204004
-0.0203405
-0.0202207
-0.0201021
-0.0199381
-0.0196548
-0.0192047
-0.0185746
-0.0177697
-0.0167998
-0.0156717
-0.0143904
-0.0129613
-0.011394
-0.00970251
-0.00790643
-0.00602939
-0.00409949
-0.00214835
-0.0002101
0.00167643
0.00347197
0.00513992
0.00664628
0.00795808
0.00904314
0.009878
0.0104669
0.010821
0.0109755
0.0110045
0.0109647
0.0109496
0.0110249
0.0112708
0.011692
0.0123332
0.0131366
0.0141109
0.0151702
0.0163107
0.0174561
0.0185955
0.0194652
0.0197669
0.0190092
0.0172258
0.0145434
0.0116873
0.00949879
0.00860479
0.00839504
0.00884865
0.00998741
0.0113439
0.00884548
0.00441922
-0.0131182
-0.0146795
-0.0155311
-0.015798
-0.0158014
-0.0157543
-0.0157081
-0.0156215
-0.0154426
-0.0151307
-0.0146716
-0.0140679
-0.0133265
-0.0124526
-0.01145
-0.010322
-0.00907537
-0.00772066
-0.00627255
-0.00474906
-0.0031718
-0.00156508
4.37959e-05
0.00162519
0.00314897
0.00458146
0.00589982
0.0070708
0.00808744
0.00891771
0.00956293
0.0100325
0.0103515
0.0105611
0.0107092
0.0108593
0.0110574
0.0113669
0.0117926
0.0123784
0.0130782
0.0139129
0.0148011
0.0157558
0.0166697
0.0175409
0.0181437
0.0182949
0.0176599
0.0162266
0.0141817
0.0119283
0.0101224
0.00913516
0.00874309
0.00882299
0.00924047
0.00995236
0.00762592
0.00363398
-0.00933754
-0.0106655
-0.0114171
-0.0116893
-0.0117433
-0.011755
-0.0117689
-0.0117521
-0.011656
-0.0114541
-0.0111346
-0.010698
-0.0101478
-0.00948736
-0.00871897
-0.0078449
-0.0068698
-0.00580102
-0.00464945
-0.00342856
-0.00215467
-0.000846366
0.00047546
0.00178804
0.00306844
0.00429162
0.00543719
0.00648143
0.00740422
0.00819816
0.00886342
0.00939421
0.00981277
0.0101426
0.0104182
0.0106827
0.0109676
0.0113215
0.0117473
0.0122847
0.0128963
0.0136077
0.0143441
0.0151265
0.0158424
0.0164923
0.0168961
0.016935
0.0164001
0.0152446
0.0136699
0.0118804
0.0103836
0.00937043
0.00882039
0.00862122
0.00847893
0.00860284
0.00647694
0.00293354
-0.00596752
-0.0070953
-0.0077587
-0.00803208
-0.0081263
-0.00818522
-0.0082468
-0.00828527
-0.00826108
-0.00814739
-0.00793726
-0.00763817
-0.00724623
-0.00676342
-0.00619056
-0.00552881
-0.00478127
-0.00395305
-0.00305208
-0.00208817
-0.00107336
-2.1599e-05
0.00105146
0.00212872
0.00319263
0.00422378
0.00520515
0.00611809
0.00695127
0.00769302
0.00834226
0.00889582
0.0093657
0.00976607
0.0101199
0.0104563
0.0107957
0.0111746
0.0115933
0.0120853
0.0126196
0.0132223
0.0138269
0.0144556
0.0150068
0.0154798
0.0157378
0.0156979
0.0152413
0.0143032
0.0130729
0.0116324
0.0103754
0.00937938
0.00870492
0.00828932
0.00775087
0.00739467
0.00545823
0.00235683
-0.00297261
-0.00392932
-0.00451521
-0.00478664
-0.00491226
-0.00500877
-0.00510818
-0.00519078
-0.00522509
-0.00518945
-0.00507563
-0.00487912
-0.00461143
-0.00427165
-0.00385887
-0.00337265
-0.00281437
-0.002187
-0.001496
-0.000748524
4.65837e-05
0.00087926
0.00173807
0.00261025
0.00348252
0.00434002
0.00516979
0.00595779
0.00669494
0.00737051
0.00798222
0.00852658
0.00901054
0.00944175
0.00983447
0.0102078
0.0105742
0.0109598
0.0113629
0.0118104
0.0122754
0.0127822
0.0132742
0.0137705
0.0141874
0.0145215
0.0146733
0.0145807
0.014184
0.0134137
0.0124318
0.0112523
0.0101718
0.00921026
0.00842392
0.00786857
0.00708051
0.00637307
0.00459689
0.00190399
-0.000319284
-0.00113026
-0.00164825
-0.00191524
-0.0020647
-0.00219028
-0.00231848
-0.00243419
-0.0025122
-0.00253474
-0.0024947
-0.0023913
-0.00222544
-0.0020003
-0.00171752
-0.00137542
-0.000973291
-0.00051245
3.5755e-06
0.000569878
0.00118013
0.00182712
0.00250255
0.00319708
0.00390101
0.00460334
0.0052941
0.00596237
0.00660079
0.00720061
0.00775892
0.00827177
0.00874235
0.00917429
0.00957544
0.00995794
0.0103284
0.0107051
0.0110841
0.0114863
0.0118885
0.0123108
0.0127076
0.0130927
0.0134001
0.013626
0.0137011