/*--------------------------------*- C++ -*----------------------------------*\
| =========                 |                                                 |
| \\      /  F ield         | OpenFOAM: The Open Source CFD Toolbox           |
|  \\    /   O peration     | Version:  2512                                  |
|   \\  /    A nd           | Website:  www.openfoam.com                      |
|    \\/     M anipulation  |                                                 |
\*---------------------------------------------------------------------------*/
FoamFile
{
    version     2.0;
    format      ascii;
    arch        "LSB;label=32;scalar=64";
    class       surfaceScalarField;
    location    "149";
    object      phi;
}
// * * * * * * * * * * * * * * * * * * * * * * * * * * * * * * * * * * * * * //

dimensions      [0 3 -1 0 0 0 0];

oriented        oriented;

internalField   nonuniform List<scalar> 
26232
(
1.32115e-05
0.000805707
-0.000818919
0.000204033
0.00127628
-0.0014671
0.000743989
0.000818848
-0.0013588
0.00181302
-0.000479162
-0.000589869
0.00359245
-0.0025777
0.000798268
0.00625822
-0.0054594
0.00279364
0.0099706
-0.00911248
0.0054001
0.0148612
-0.013514
0.00862332
0.0210181
-0.0186153
0.0124584
0.0284714
-0.0243336
0.0168803
0.0371829
-0.0305498
0.0218383
0.0470428
-0.0371148
0.0272549
0.0578741
-0.0438603
0.0330291
0.0694451
-0.0506139
0.0390429
0.0814883
-0.0572142
0.045171
0.093722
-0.0635241
0.0512903
0.105873
-0.0694406
0.0572892
0.117699
-0.0749008
0.0630756
0.129
-0.0798811
0.0685793
0.139638
-0.0844033
0.0737662
0.14953
-0.0884976
0.0786053
0.158656
-0.092294
0.0831683
0.167022
-0.095727
0.0873609
-0.0992519
0.0918202
0.174453
9.66126e-05
0.000709095
0.000545211
0.000827678
0.00152907
-0.000165014
0.00323974
-0.00218983
0.0058667
-0.00520466
0.00958334
-0.00917604
0.0145281
-0.0140572
0.0207832
-0.0197691
0.0283556
-0.0261878
0.0371647
-0.0331426
0.0470406
-0.0404258
0.0577365
-0.0478107
0.068951
-0.0550748
0.0803587
-0.0620216
0.0916425
-0.0684981
0.102524
-0.074406
0.112789
-0.079705
0.122298
-0.0844097
0.130997
-0.0885798
0.138904
-0.0923105
0.146112
-0.0957059
0.152731
-0.0989134
0.158934
-0.10193
-0.105182
0.164864
0.000180731
0.000528364
0.000900378
0.000108031
0.00235875
-0.00162339
0.00475663
-0.00458771
0.00828008
-0.00872811
0.0130761
-0.0139721
0.0192245
-0.0202056
0.0267117
-0.0272563
0.035416
-0.0348921
0.0451094
-0.042836
0.0554785
-0.0507948
0.0661604
-0.0584926
0.0767868
-0.0657012
0.0870271
-0.0722618
0.0966236
-0.0780946
0.105414
-0.0831963
0.113338
-0.0876293
0.120431
-0.0915022
0.126801
-0.0949496
0.132603
-0.0981125
0.138012
-0.101116
0.143181
-0.104082
0.148273
-0.107022
-0.110235
0.153326
0.000271961
0.000256403
0.00128482
-0.000904829
0.00325278
-0.00359135
0.00637566
-0.00771059
0.0108132
-0.0131656
0.0166491
-0.0198081
0.0238576
-0.0274141
0.0322832
-0.0356818
0.0416457
-0.0442546
0.0515719
-0.0527621
0.0616464
-0.0608693
0.0714705
-0.0683167
0.0807148
-0.0749456
0.0891561
-0.0807031
0.0966924
-0.0856309
0.103337
-0.0898413
0.109196
-0.0934881
0.114432
-0.0967378
0.119228
-0.0997458
0.123757
-0.102642
0.128163
-0.105522
0.13254
-0.108459
0.136972
-0.111453
-0.1147
0.141437
0.000376341
-0.000119938
0.00171117
-0.00223966
0.00422172
-0.0061019
0.00808539
-0.0115743
0.0134002
-0.0184804
0.0201407
-0.0265486
0.0281306
-0.035404
0.0370476
-0.0445989
0.0464654
-0.0536724
0.0559215
-0.0622182
0.0649914
-0.0699393
0.0733505
-0.0766758
0.0808091
-0.0824042
0.0873179
-0.0872119
0.0929471
-0.09126
0.0978477
-0.0947419
0.102208
-0.0978484
0.106214
-0.100744
0.110025
-0.103556
0.113756
-0.106373
0.117486
-0.109252
0.121255
-0.112228
0.125099
-0.115297
-0.118582
0.128981
0.000497054
-0.000616992
0.00218185
-0.00392445
0.00525254
-0.00917259
0.00983092
-0.0161526
0.015909
-0.0245584
0.0233082
-0.0339479
0.0316791
-0.0437748
0.0405499
-0.0534697
0.0494122
-0.0625346
0.0578122
-0.0706183
0.0654228
-0.0775499
0.072077
-0.08333
0.0777629
-0.08809
0.0825882
-0.0920372
0.0867304
-0.0954022
0.0903872
-0.0983987
0.0937394
-0.101201
0.0969299
-0.103935
0.100059
-0.106686
0.103191
-0.109505
0.106361
-0.112422
0.109584
-0.115451
0.112879
-0.118591
-0.121907
0.116204
0.000633099
-0.00125009
0.00268497
-0.00597632
0.0063027
-0.0127903
0.0115108
-0.0213607
0.0181517
-0.0311994
0.0258697
-0.0416658
0.0341585
-0.0520636
0.0424621
-0.0617733
0.0502872
-0.0703597
0.0572882
-0.0776193
0.0633026
-0.0835643
0.0683375
-0.0883649
0.0725217
-0.0922743
0.0760469
-0.0955624
0.0791142
-0.0984696
0.0818988
-0.101183
0.0845336
-0.103835
0.0871091
-0.10651
0.089681
-0.109257
0.0922805
-0.112104
0.0949228
-0.115064
0.0976131
-0.118142
0.100357
-0.121335
-0.124672
0.103121
0.000779363
-0.00202945
0.00319527
-0.00839222
0.00730501
-0.0169001
0.0129932
-0.0270489
0.0199243
-0.0381306
0.027575
-0.0493165
0.0353418
-0.0598305
0.0426771
-0.0691086
0.0491946
-0.0768772
0.0547131
-0.0831378
0.0592388
-0.08809
0.0629082
-0.0920343
0.0659203
-0.0952864
0.068479
-0.0981211
0.0707574
-0.100748
0.0728839
-0.10331
0.0749438
-0.105895
0.0769887
-0.108555
0.0790473
-0.111316
0.0811341
-0.114191
0.0832548
-0.117185
0.0854105
-0.120297
0.0876018
-0.123526
-0.126875
0.0898052
0.000927621
-0.00295708
0.00367835
-0.0111429
0.00817962
-0.0214013
0.0141431
-0.0330124
0.0210542
-0.0450417
0.0282696
-0.0565319
0.0351731
-0.0667339
0.0413115
-0.0752471
0.0464574
-0.082023
0.0505941
-0.0872745
0.0538528
-0.0913487
0.056435
-0.0946166
0.0585487
-0.0974001
0.0603696
-0.0999419
0.0620261
-0.102404
0.0636026
-0.104886
0.0651491
-0.107442
0.0666934
-0.110099
0.0682495
-0.112872
0.0698241
-0.115766
0.0714193
-0.11878
0.0730349
-0.121913
0.0746691
-0.12516
-0.128513
0.0763074
0.00106757
-0.00402465
0.00409592
-0.0141713
0.00884826
-0.0261537
0.0148499
-0.039014
0.0214378
-0.0516296
0.0279216
-0.0630156
0.0337545
-0.0725668
0.0386301
-0.0801227
0.0424828
-0.0858758
0.0454225
-0.0902141
0.0476476
-0.0935739
0.0493716
-0.0963405
0.0507764
-0.098805
0.051996
-0.101161
0.053117
-0.103526
0.0541909
-0.10596
0.0552456
-0.108496
0.0562956
-0.111149
0.0573482
-0.113925
0.0584066
-0.116824
0.0594713
-0.119845
0.0605415
-0.122983
0.0616144
-0.126233
-0.129582
0.0626826
0.00118862
-0.00521327
0.00441256
-0.0173952
0.00924838
-0.0309895
0.0150466
-0.0448122
0.021053
-0.057636
0.0266074
-0.06857
0.0312894
-0.0772489
0.0349508
-0.0837841
0.037658
-0.0885829
0.0395964
-0.0921526
0.0409837
-0.0949611
0.0420124
-0.0973691
0.0428259
-0.0996186
0.0435181
-0.101854
0.0441439
-0.104151
0.0447332
-0.106549
0.0453013
-0.109065
0.0458564
-0.111704
0.0464024
-0.114471
0.0469411
-0.117363
0.0474724
-0.120376
0.0479949
-0.123505
0.0485046
-0.126743
-0.130076
0.048999
0.00128384
-0.0064971
0.00460354
-0.0207149
0.00934374
-0.0357297
0.0147179
-0.0501864
0.0199512
-0.0628693
0.024477
-0.0730958
0.0280239
-0.0807958
0.0305824
-0.0863426
0.0323069
-0.0903075
0.0334137
-0.0932594
0.0341076
-0.095655
0.0345465
-0.097808
0.0348355
-0.0999076
0.0350368
-0.102055
0.0351837
-0.104298
0.0352933
-0.106659
0.0353741
-0.109145
0.0354311
-0.111761
0.0354668
-0.114507
0.0354828
-0.117379
0.0354791
-0.120372
0.0354542
-0.123481
0.0354041
-0.126693
0.0353287
-0.13
-0.000221248
-0.00262649
0.00284773
-0.000813732
-0.006354
0.00694648
-0.00173106
-0.00898118
0.00989851
-0.00292663
-0.0107269
0.0119224
-0.00435429
-0.0118017
0.0132293
-0.00597224
-0.0123984
0.0140163
-0.00774556
-0.0126744
0.0144478
-0.0096465
-0.0127414
0.0146424
-0.011653
-0.0126634
0.0146699
-0.0137467
-0.012462
0.0145556
-0.0159098
-0.0121257
0.0142889
-0.0181234
-0.0116198
0.0138334
-0.020365
-0.0108952
0.0131368
-0.0226073
-0.00989536
0.0121377
-0.0248173
-0.00856068
0.0107707
-0.0269564
-0.00683155
0.00897064
-0.0289816
-0.00464946
0.00667457
-0.0308357
-0.00196315
0.00381726
-0.032389
0.0012368
0.000316493
-0.0337238
0.00498061
-0.00364575
-0.0347034
0.00929031
-0.00831076
-0.0352825
0.0141415
-0.0135623
-0.0354467
0.0195108
-0.0193466
0.0253619
-0.035267
-0.0255416
-0.000305897
-0.00232059
-0.00107626
-0.00558363
-0.00221679
-0.00784066
-0.00365063
-0.00929303
-0.00531496
-0.0101373
-0.00716112
-0.0105522
-0.00915347
-0.0106821
-0.0112666
-0.0106283
-0.0134818
-0.0104482
-0.0157828
-0.010161
-0.0181526
-0.00975592
-0.0205706
-0.00920181
-0.0230105
-0.00845533
-0.0254387
-0.00746713
-0.0278133
-0.0061861
-0.0300847
-0.00456007
-0.0321906
-0.00254361
-0.0340515
-0.000102198
-0.0355951
0.0027804
-0.0367586
0.00614403
-0.0374581
0.00998987
-0.0376247
0.014308
-0.0372005
0.0190867
0.0243577
-0.0361963
-0.000368102
-0.00195249
-0.00126333
-0.0046884
-0.00255098
-0.00655301
-0.00412784
-0.00771616
-0.00591546
-0.00834972
-0.0078568
-0.00861087
-0.00991213
-0.00862677
-0.0120538
-0.00848661
-0.0142608
-0.00824123
-0.0165138
-0.00790799
-0.0187912
-0.00747848
-0.0210662
-0.00692688
-0.0233043
-0.00621723
-0.0254624
-0.00530898
-0.0274883
-0.00416023
-0.0293157
-0.00273265
-0.0308713
-0.000987971
-0.0320617
0.0010882
-0.0328073
0.00352591
-0.0329988
0.00633553
-0.032533
0.0095241
-0.0313188
0.0130938
-0.0292711
0.017039
0.0213824
-0.0262958
-0.000406626
-0.00154586
-0.00137372
-0.00372132
-0.00273568
-0.00519104
-0.00436796
-0.00608388
-0.00617797
-0.00653971
-0.00809919
-0.00668966
-0.0100847
-0.00664122
-0.0121006
-0.00647078
-0.014119
-0.00622283
-0.016113
-0.00591392
-0.0180524
-0.00553914
-0.0199002
-0.00507908
-0.0216113
-0.00450606
-0.0231314
-0.0037889
-0.0243951
-0.00289651
-0.025327
-0.00180074
-0.0258365
-0.000478552
-0.025833
0.00108472
-0.0252062
0.00289912
-0.0238364
0.00496577
-0.0215946
0.00728222
-0.0183513
0.00985057
-0.013996
0.0126837
0.015946
-0.00855959
-0.000422999
-0.00112286
-0.00141333
-0.00273099
-0.00278487
-0.00381949
-0.00439744
-0.00447132
-0.00614658
-0.00479056
-0.00795607
-0.00488017
-0.0097701
-0.00482719
-0.0115456
-0.00469528
-0.0132454
-0.00452309
-0.0148322
-0.00432704
-0.0162651
-0.00410632
-0.0174957
-0.0038484
-0.0184677
-0.00353408
-0.0191151
-0.00314151
-0.0193623
-0.00264935
-0.0191236
-0.00203939
-0.0183043
-0.00129789
-0.0168007
-0.000418864
-0.0144983
0.000596736
-0.0112701
0.00173753
-0.00697329
0.00298543
-0.00144843
0.00432571
0.00546192
0.00577332
0.00738957
0.0140184
-0.000419578
-0.000703284
-0.00138986
-0.0017607
-0.00271415
-0.00249521
-0.00424245
-0.00294302
-0.00586121
-0.0031718
-0.00748511
-0.00325627
-0.00904878
-0.00326352
-0.0104989
-0.00324513
-0.0117875
-0.00323455
-0.012866
-0.00324846
-0.0136821
-0.00329025
-0.0141764
-0.00335407
-0.0142819
-0.00342866
-0.0139227
-0.00350063
-0.0130153
-0.00355682
-0.0114679
-0.0035868
-0.00918139
-0.00358435
-0.00605073
-0.00354952
-0.00196389
-0.00349011
0.00319759
-0.00342395
0.00956464
-0.00338162
0.0172909
-0.00340059
0.0265255
-0.0034612
-0.00391453
0.0378296
-0.000398167
-0.000305117
-0.00130849
-0.000850381
-0.00253235
-0.00127134
-0.00391508
-0.00156029
-0.0053364
-0.00175048
-0.00670242
-0.00189025
-0.00793758
-0.00202836
-0.00897708
-0.00220563
-0.00976043
-0.0024512
-0.0102265
-0.00278242
-0.01031
-0.00320675
-0.00993962
-0.00372442
-0.00903721
-0.00433107
-0.00751779
-0.00502005
-0.00529018
-0.00578444
-0.00225819
-0.00661879
0.00167827
-0.00752081
0.00662197
-0.00849322
0.0126774
-0.00954551
0.0199493
-0.0106958
0.0285362
-0.0119686
0.0385851
-0.0134495
0.0500518
-0.0149278
-0.0176541
0.0637913
-0.000359618
5.4501e-05
-0.00117064
-3.93552e-05
-0.00223941
-0.000202579
-0.00340996
-0.000389734
-0.00455628
-0.000604169
-0.00557509
-0.00087143
-0.00637862
-0.00122483
-0.00688757
-0.00169668
-0.00702559
-0.00231319
-0.00671506
-0.00309295
-0.00587455
-0.00404726
-0.00441776
-0.00518122
-0.00225364
-0.00649519
0.0007125
-0.00798618
0.00457727
-0.00964921
0.0094372
-0.0114787
0.0153866
-0.0134702
0.0225153
-0.0156219
0.0309062
-0.0179364
0.0406361
-0.0204257
0.0517501
-0.0230826
0.064372
-0.0260714
0.0782498
-0.0288056
-0.0336211
0.0942169
-0.00030459
0.000359091
-0.000976717
0.000632771
-0.00183161
0.000652314
-0.00271356
0.000492211
-0.00348978
0.000172054
-0.00404506
-0.000316145
-0.00427589
-0.000994003
-0.00408407
-0.0018885
-0.00337309
-0.00302417
-0.00204528
-0.00442076
-1.03811e-06
-0.0060915
0.00286038
-0.00804263
0.00663874
-0.0102735
0.0114298
-0.0127773
0.017322
-0.0155414
0.024393
-0.0185497
0.0327067
-0.0217839
0.0423104
-0.0252257
0.0532323
-0.0288583
0.0654829
-0.0326763
0.0790312
-0.0366309
0.0938917
-0.0409319
0.109807
-0.0447205
-0.0509202
0.127106
-0.000235006
0.000594097
-0.000730057
0.00112782
-0.0013108
0.00123306
-0.00182072
0.00100213
-0.00211835
0.000469678
-0.0020733
-0.000361195
-0.00156254
-0.00150476
-0.00046675
-0.00298429
0.00133141
-0.00482234
0.00394701
-0.00703636
0.00749055
-0.00963503
0.012064
-0.0126161
0.0177558
-0.0159654
0.024636
-0.0196575
0.0327514
-0.0236568
0.0421221
-0.0279204
0.0527398
-0.0324016
0.0645671
-0.037053
0.077538
-0.0418292
0.0915581
-0.0466964
0.106514
-0.0515866
0.122232
-0.0566497
0.138644
-0.0611326
-0.067546
0.15527
-0.000154996
0.000749093
-0.000440895
0.00141372
-0.00069182
0.00148399
-0.000748199
0.00105851
-0.000457447
0.000178926
0.000327275
-0.00114592
0.00174869
-0.00292618
0.00394406
-0.00517965
0.0070435
-0.00792177
0.011165
-0.0111579
0.0164081
-0.0148781
0.0228459
-0.0190539
0.0305189
-0.0236384
0.0394292
-0.0285678
0.0495385
-0.033766
0.0607676
-0.0391495
0.0730002
-0.0446342
0.0860884
-0.0501411
0.099859
-0.0555998
0.114122
-0.0609593
0.128695
-0.0661601
0.143311
-0.0712656
0.158068
-0.0758894
-0.0814183
0.17194
-6.98252e-05
-0.000123202
1.97879e-06
0.000470619
0.00144781
0.00309553
0.00556945
0.00901311
0.0135497
0.0192721
0.0262324
0.0344334
0.0438241
0.0542992
0.0657042
0.077845
0.0904999
0.103434
0.116414
0.129221
0.141666
0.153569
0.16504
0.175442
-0.0328855
0.0420739
-0.0444554
-0.029988
0.0539836
-0.056881
-0.026488
0.066179
-0.069679
-0.0223173
0.0780022
-0.082173
-0.0173288
0.0886876
-0.0936761
-0.0112183
0.0972623
-0.103373
-0.00359832
0.102664
-0.110284
0.00590517
0.1037
-0.113204
0.0173556
0.0991863
-0.110637
0.0305555
0.0882027
-0.101403
0.0449277
0.0703755
-0.0847477
0.0596567
0.0460599
-0.0607888
0.0740594
0.0157554
-0.0301582
0.0877356
-0.0194265
0.00575034
0.100484
-0.0579228
0.0451744
0.111859
-0.0957204
0.0843454
0.121107
-0.127428
0.11818
0.12749
-0.14908
0.142697
0.1308
-0.160341
0.157031
0.131546
-0.163662
0.162915
0.130234
-0.162191
0.163504
0.126523
-0.159984
0.163695
0.120039
-0.16172
0.168204
0.112216
-0.16744
0.175263
0.106598
-0.167203
0.172821
0.106443
-0.145205
0.14536
0.112345
-0.0935972
0.0876951
0.122477
-0.0207481
0.0106165
0.133812
0.0549581
-0.0662935
0.143741
0.117565
-0.127494
0.15086
0.159713
-0.166832
0.155145
0.182638
-0.186923
0.15651
0.192573
-0.193939
0.154077
0.202516
-0.200083
0.147826
0.219564
-0.213312
0.140206
0.232056
-0.224436
0.134958
0.213827
-0.208578
0.134361
0.146306
-0.145709
0.138344
0.0456898
-0.0496728
0.144712
-0.0615985
0.055231
0.151386
-0.141041
0.134367
0.155851
-0.192987
0.188521
0.155605
-0.217032
0.217278
0.149867
-0.237389
0.243128
0.141484
-0.24912
0.257503
0.13549
-0.224679
0.230673
0.135572
-0.161512
0.16143
0.140977
-0.0378671
0.032462
0.147723
0.0573358
-0.0640818
0.150496
0.166131
-0.168904
0.14776
0.227419
-0.224684
0.142811
0.276874
-0.271925
0.140508
0.284504
-0.282201
0.142272
0.169225
-0.170989
0.145378
0.103496
-0.106602
0.145646
-0.0975619
0.0972947
0.144086
-0.182164
0.183724
0.142369
-0.274808
0.276524
0.140732
-0.346458
0.348095
-0.0901784
0.0920321
-0.0325887
0.0384662
-0.0280831
0.0494781
-0.0225198
0.0606156
-0.0158278
0.0713103
-0.00800068
0.0808605
0.00131369
0.0879479
0.0121324
0.0918449
0.024432
0.0914008
0.0380112
0.0856071
0.0523825
0.0738314
0.0668391
0.0559188
0.0806958
0.0322032
0.0934581
0.00299305
0.104962
-0.0309306
0.115129
-0.0680899
0.123574
-0.104165
0.129686
-0.13354
0.133033
-0.152427
0.133661
-0.160969
0.132196
-0.162197
0.129329
-0.159324
0.124787
-0.155442
0.117698
-0.154632
0.108741
-0.158483
0.10132
-0.159782
0.0995513
-0.143436
0.104921
-0.0989666
0.115739
-0.0315662
0.128583
0.0421139
0.140373
0.105776
0.149467
0.150619
0.155556
0.176548
0.158296
0.189834
0.156934
0.203878
0.151746
0.224751
0.145166
0.238636
0.140427
0.218565
0.139483
0.14725
0.142352
0.0428203
0.147149
-0.0663948
0.152184
-0.146077
0.155419
-0.196221
0.154541
-0.216155
0.148448
-0.231295
0.139806
-0.240478
0.133715
-0.218588
0.134189
-0.161986
0.140205
-0.0438832
0.147471
0.0500702
0.15061
0.162993
0.148077
0.229952
0.143287
0.281664
0.140875
0.286916
0.142727
0.167374
0.146058
0.100164
0.146352
-0.097856
0.14471
-0.180522
0.142827
-0.272925
0.141104
-0.344735
-0.0882885
-0.0215839
0.0337544
-0.0157985
0.0436926
-0.00870653
0.0535236
-0.000179216
0.062783
0.0100585
0.0706228
0.0214467
0.0765597
0.0339892
0.0793024
0.047506
0.0778839
0.0615959
0.0715172
0.0756846
0.0597428
0.0891218
0.0424815
0.101365
0.0199602
0.11203
-0.00767228
0.121202
-0.0401029
0.128753
-0.0756407
0.134291
-0.109703
0.137337
-0.136586
0.137793
-0.152883
0.13601
-0.159186
0.132678
-0.158864
0.12853
-0.155176
0.123441
-0.150353
0.11623
-0.14742
0.106698
-0.148951
0.0977255
-0.15081
0.0940706
-0.139781
0.0983748
-0.103271
0.109278
-0.0424695
0.123263
0.0281289
0.136726
0.0923126
0.147758
0.139588
0.155678
0.168628
0.159913
0.185599
0.159859
0.203931
0.155987
0.228624
0.150532
0.24409
0.146224
0.222873
0.144782
0.148692
0.146388
0.0412148
0.149563
-0.0695704
0.152926
-0.14944
0.154932
-0.198226
0.153527
-0.21475
0.147255
-0.225024
0.138479
-0.231702
0.132288
-0.212397
0.133029
-0.162727
0.139527
-0.0503809
0.147267
0.0423302
0.150821
0.159439
0.148545
0.232228
0.143919
0.28629
0.141373
0.289461
0.143286
0.16546
0.146873
0.0965782
0.147205
-0.0981883
0.145455
-0.178772
0.143396
-0.270865
0.141607
-0.342947
-0.0863881
-0.00309835
0.0282931
0.00405337
0.0365409
0.0125704
0.0450066
0.0223821
0.0529712
0.033295
0.0597099
0.0453708
0.0644839
0.0583264
0.0663469
0.0717809
0.0644294
0.0852429
0.0580552
0.0981557
0.04683
0.109972
0.0306654
0.120295
0.00963693
0.128933
-0.0163098
0.135906
-0.0470762
0.141032
-0.0807672
0.143837
-0.112508
0.143988
-0.136737
0.141749
-0.150644
0.13783
-0.155268
0.132957
-0.153992
0.127768
-0.149987
0.122303
-0.144887
0.115372
-0.14049
0.105963
-0.139542
0.0959654
-0.140812
0.0902672
-0.134083
0.092829
-0.105833
0.103188
-0.0528282
0.117841
0.0134755
0.13275
0.077404
0.145636
0.126701
0.155394
0.158871
0.161245
0.179748
0.162728
0.202447
0.160381
0.230971
0.15612
0.248352
0.152174
0.226819
0.150088
0.150777
0.150372
0.040931
0.151905
-0.0711031
0.153607
-0.151142
0.154381
-0.199001
0.152517
-0.212885
0.14622
-0.218727
0.137436
-0.222918
0.131146
-0.206107
0.132022
-0.163603
0.138885
-0.0572437
0.147077
0.0341376
0.151113
0.155403
0.14917
0.234171
0.144729
0.290731
0.142026
0.292165
0.143965
0.163521
0.147813
0.0927304
0.148196
-0.0985711
0.146318
-0.176894
0.144072
-0.26862
0.142231
-0.341106
-0.0845019
0.0205819
0.0217296
0.027994
0.0291288
0.0366341
0.0363665
0.046535
0.0430703
0.0575323
0.0487126
0.0694198
0.0525965
0.0818726
0.053894
0.0944644
0.0518376
0.106696
0.045824
0.118071
0.0354542
0.128168
0.0205692
0.136761
0.0010434
0.143705
-0.0232535
0.148834
-0.052205
0.151733
-0.0836671
0.151905
-0.112679
0.149317
-0.134148
0.144655
-0.145982
0.138935
-0.149548
0.132898
-0.147955
0.126973
-0.144062
0.121262
-0.139177
0.114828
-0.134056
0.106153
-0.130867
0.0958808
-0.13054
0.0883489
-0.126551
0.0886065
-0.10609
0.0976423
-0.061864
0.112382
-0.00126436
0.128402
0.0613837
0.142981
0.112122
0.154535
0.147317
0.162104
0.172179
0.165327
0.199224
0.164699
0.231599
0.16172
0.251331
0.158085
0.230454
0.155285
0.153577
0.154179
0.0420371
0.154109
-0.0710329
0.154192
-0.151225
0.153742
-0.19855
0.151469
-0.210613
0.145278
-0.212536
0.136604
-0.214245
0.130217
-0.199719
0.131098
-0.164484
0.138221
-0.0643671
0.146857
0.025502
0.151457
0.150803
0.149946
0.235682
0.145735
0.294941
0.142855
0.295045
0.144763
0.161613
0.148873
0.0886205
0.149312
-0.0990108
0.147292
-0.174874
0.144851
-0.266179
0.142964
-0.339219
-0.0826536
0.0443228
0.0152363
0.0516151
0.0218365
0.0599695
0.0280121
0.0694688
0.0335711
0.0799257
0.0382556
0.0910607
0.0414615
0.102534
0.0424209
0.113926
0.0404454
0.124774
0.0349763
0.134666
0.0255619
0.143234
0.0120013
0.150525
-0.00624755
0.156057
-0.0287854
0.159568
-0.0557166
0.160389
-0.0844874
0.158101
-0.110392
0.153071
-0.129118
0.146379
-0.13929
0.139236
-0.142405
0.132378
-0.141097
0.126009
-0.137694
0.120162
-0.133329
0.114267
-0.128161
0.106755
-0.123355
0.0970605
-0.120846
0.0883097
-0.1178
0.0860198
-0.1038
0.0929284
-0.0687725
0.106976
-0.0153124
0.123662
0.0446979
0.13966
0.0961239
0.152905
0.134073
0.162254
0.162829
0.167384
0.194094
0.168649
0.230334
0.167063
0.252917
0.163765
0.233752
0.160201
0.157142
0.157715
0.0445232
0.156102
-0.0694202
0.154641
-0.149764
0.152981
-0.19689
0.150334
-0.207966
0.144354
-0.206556
0.135899
-0.205789
0.12942
-0.19324
0.130183
-0.165247
0.13747
-0.0716537
0.146549
0.0164225
0.151812
0.14554
0.150853
0.236641
0.146941
0.298853
0.143874
0.298112
0.145684
0.159804
0.150036
0.0842686
0.15054
-0.0995151
0.14837
-0.172705
0.145726
-0.263534
0.143794
-0.337287
-0.080867
0.0688829
0.0101447
0.0749467
0.0157727
0.0821792
0.0207796
0.0905857
0.0251646
0.099912
0.0289293
0.109858
0.0315151
0.12009
0.0321891
0.130198
0.0303375
0.139749
0.0254251
0.148397
0.0169139
0.155824
0.00457466
0.161893
-0.0123166
0.166161
-0.0330534
0.168019
-0.0575748
0.166745
-0.0832134
0.162169
-0.105816
0.155069
-0.122017
0.146809
-0.13103
0.138655
-0.134252
0.131282
-0.133723
0.12473
-0.131142
0.118867
-0.127466
0.113419
-0.122714
0.107189
-0.117124
0.0988303
-0.112487
0.0898179
-0.108788
0.0852198
-0.0992024
0.0894046
-0.0729573
0.101816
-0.0277238
0.118568
0.0279458
0.135582
0.0791098
0.150332
0.119323
0.161459
0.151702
0.168611
0.186942
0.171924
0.227021
0.171865
0.252977
0.16902
0.236597
0.16473
0.161431
0.160834
0.0484191
0.157802
-0.0663881
0.154902
-0.146865
0.152062
-0.194049
0.149057
-0.204961
0.143376
-0.200876
0.135234
-0.197647
0.128672
-0.186679
0.129202
-0.165777
0.136559
-0.0790109
0.146088
0.00689353
0.152123
0.139505
0.151859
0.236906
0.148338
0.302374
0.145087
0.301363
0.146728
0.158162
0.151286
0.0797108
0.151862
-0.100091
0.149541
-0.170384
0.146685
-0.260678
0.144706
-0.335308
-0.0791672
0.0966864
0.00767518
0.100455
0.0120037
0.105632
0.0156035
0.112076
0.0187197
0.119515
0.0214905
0.127693
0.0233378
0.136281
0.0236008
0.144863
0.0217557
0.153006
0.0172821
0.160261
0.00965897
0.166717
-0.00188152
0.171361
-0.0169611
0.174055
-0.0357472
0.173983
-0.0575024
0.17055
-0.0797805
0.163931
-0.0991975
0.15523
-0.113315
0.145923
-0.121724
0.13718
-0.125509
0.129553
-0.126096
0.123003
-0.124592
0.117252
-0.121715
0.112143
-0.117605
0.107025
-0.112006
0.100409
-0.10587
0.0921982
-0.100577
0.0860845
-0.0930887
0.0872736
-0.0741464
0.0972588
-0.037709
0.113244
0.0119608
0.130724
0.0616296
0.146699
0.103348
0.159526
0.138875
0.168733
0.177735
0.174171
0.221583
0.175774
0.251374
0.173527
0.238844
0.168663
0.166295
0.163483
0.0535995
0.159122
-0.0620271
0.154918
-0.142661
0.150943
-0.190074
0.147581
-0.201599
0.142271
-0.195566
0.134529
-0.189905
0.127893
-0.180043
0.128085
-0.165968
0.135422
-0.0863482
0.145402
-0.00308644
0.152325
0.132582
0.152913
0.236318
0.1499
0.305386
0.146483
0.304781
0.147892
0.156753
0.152605
0.0749972
0.153258
-0.100744
0.150792
-0.167918
0.147716
-0.257602
0.145686
-0.333278
-0.0775812
0.127099
0.00768141
0.128493
0.0106099
0.13128
0.0128163
0.13528
0.0147204
0.14031
0.0164605
0.146196
0.017451
0.152628
0.0171697
0.15921
0.0151732
0.165545
0.0109467
0.171089
0.00411573
0.175712
-0.0065052
0.178587
-0.0198358
0.17926
-0.0364203
0.177017
-0.0552597
0.171524
-0.0742872
0.163281
-0.0909548
0.153545
-0.103579
0.143717
-0.111895
0.134769
-0.116561
0.127101
-0.118429
0.12066
-0.11815
0.115126
-0.116181
0.110309
-0.112788
0.105998
-0.107695
0.101099
-0.100972
0.0945199
-0.0939974
0.0880754
-0.0866441
0.0866498
-0.0727208
0.0935953
-0.0446545
0.107901
-0.00234537
0.125141
0.0443899
0.141943
0.0865458
0.156289
0.124529
0.167537
0.166488
0.175219
0.213902
0.178617
0.247976
0.177075
0.240386
0.171807
0.171563
0.165518
0.0598881
0.159959
-0.0564678
0.154604
-0.137306
0.149562
-0.185032
0.145832
-0.197869
0.140957
-0.19069
0.133712
-0.18266
0.127014
-0.173345
0.126766
-0.165721
0.133993
-0.0935744
0.144424
-0.0135174
0.152344
0.124661
0.153955
0.234707
0.151586
0.307755
0.148043
0.308325
0.149159
0.155637
0.153973
0.0701833
0.154708
-0.101479
0.152106
-0.165316
0.148803
-0.254299
0.146719
-0.331194
-0.07614
0.153973
0.00897794
0.153937
0.0106464
0.154961
0.0117919
0.156908
0.0127734
0.159777
0.0135917
0.163427
0.0138008
0.16757
0.0130269
0.171877
0.0108654
0.176019
0.00680524
0.179547
0.000587687
0.181856
-0.00881405
0.182536
-0.0205162
0.180965
-0.0348494
0.176629
-0.0509232
0.169473
-0.0671318
0.160199
-0.0816805
0.150021
-0.0934016
0.140124
-0.101997
0.131259
-0.107696
0.123704
-0.110874
0.117427
-0.111872
0.112172
-0.110926
0.107683
-0.1083
0.103927
-0.103939
0.10041
-0.0974553
0.0958206
-0.0894076
0.0902526
-0.0810762
0.0872274
-0.0696956
0.091132
-0.0485592
0.10276
-0.0139733
0.118988
0.0281618
0.136083
0.0694505
0.151662
0.10895
0.164795
0.153355
0.174644
0.204053
0.17994
0.24268
0.179376
0.24095
0.173962
0.176977
0.166857
0.0669934
0.160252
-0.0498626
0.153903
-0.130958
0.147887
-0.179015
0.14376
-0.193742
0.139365
-0.186296
0.132734
-0.176029
0.125996
-0.166606
0.125201
-0.164926
0.132221
-0.100594
0.143083
-0.0243798
0.152102
0.115642
0.154899
0.23191
0.153335
0.309319
0.149736
0.311924
0.150514
0.154858
0.155362
0.0653356
0.156192
-0.102309
0.153464
-0.162588
0.149929
-0.250764
0.14779
-0.329055
-0.0748788
0.170571
0.0103471
0.170172
0.0110453
0.170345
0.0116196
0.171164
0.0119545
0.172705
0.0120505
0.174798
0.0117073
0.177207
0.0106185
0.179664
0.00840781
0.181739
0.00473006
0.18325
-0.00092318
0.183553
-0.00911675
0.182228
-0.0191911
0.178795
-0.0314161
0.172949
-0.0450774
0.164866
-0.0590489
0.155293
-0.0721077
0.145265
-0.0833738
0.135694
-0.0924263
0.127142
-0.0991435
0.119813
-0.103546
0.113709
-0.105768
0.108691
-0.105908
0.104512
-0.104121
0.101111
-0.100538
0.0984594
-0.0948039
0.0956405
-0.0865887
0.0917131
-0.0771487
0.0883582
-0.0663407
0.0896981
-0.0498991
0.0982803
-0.0225554
0.112536
0.0139064
0.129204
0.0527821
0.14566
0.092494
0.160647
0.138368
0.17283
0.191869
0.180158
0.235352
0.18055
0.240558
0.175237
0.18229
0.16756
0.0746704
0.160142
-0.0424441
0.152936
-0.123752
0.146066
-0.172146
0.141476
-0.189152
0.137535
-0.182354
0.131613
-0.170107
0.12487
-0.159863
0.123419
-0.163475
0.130086
-0.107262
0.141305
-0.0355983
0.151518
0.105429
0.15568
0.227748
0.155084
0.309915
0.15151
0.315498
0.151952
0.154416
0.156747
0.0605406
0.157691
-0.103253
0.154848
-0.159745
0.151078
-0.246995
0.14889
-0.326867
-0.0738358
0.174969
0.0108203
0.174696
0.0113185
0.174811
0.0115038
0.17529
0.0114759
0.176148
0.0111928
0.177316
0.0105393
0.178622
0.00931228
0.179863
0.00716702
0.180843
0.00374974
0.181079
-0.00115889
0.179936
-0.00797443
0.177337
-0.0165913
0.172902
-0.0269813
0.166534
-0.0387093
0.158514
-0.0510297
0.149498
-0.063091
0.140264
-0.0741398
0.131459
-0.0836219
0.123496
-0.0911805
0.116554
-0.0966036
0.110667
-0.09988
0.105806
-0.101048
0.101825
-0.100139
0.0985932
-0.0973061
0.0962787
-0.0924894
0.0945793
-0.0848893
0.0923426
-0.074912
0.0896431
-0.0636412
0.0893939
-0.0496499
0.0947791
-0.0279407
0.106343
0.00234254
0.121591
0.0375339
0.137963
0.0761224
0.154024
0.122308
0.168278
0.177615
0.177898
0.225732
0.179842
0.238614
0.175274
0.186857
0.167694
0.0822508
0.159582
-0.0343325
0.151713
-0.115882
0.144219
-0.164652
0.139141
-0.184074
0.135557
-0.17877
0.130384
-0.164935
0.123668
-0.153146
0.121522
-0.161329
0.127774
-0.113514
0.139131
-0.0469549
0.150506
0.0940539
0.156151
0.222102
0.156727
0.30934
0.153332
0.318893
0.153439
0.154309
0.15811
0.0558705
0.159182
-0.104326
0.156231
-0.156793
0.152248
-0.243011
0.150013
-0.324632
-0.0730481
0.19312
0.0114568
-0.193756
0.193066
0.0113722
0.193264
0.0113056
0.193753
0.0109873
0.194612
0.0103338
0.195878
0.00927345
0.197569
0.00762119
0.199608
0.00512829
0.201753
0.00160458
0.203904
-0.00331021
0.205643
-0.00971275
0.206661
-0.0176094
0.206554
-0.0268746
0.205019
-0.0371748
0.201958
-0.0479684
0.197493
-0.0586256
0.191887
-0.068534
0.185443
-0.0771782
0.178455
-0.0841924
0.171185
-0.0893332
0.163839
-0.092534
0.156589
-0.0937986
0.149536
-0.0930865
0.142634
-0.0904034
0.13599
-0.085846
0.129768
-0.0786672
0.123353
-0.0684964
0.11591
-0.0561982
0.108566
-0.0423067
0.104512
-0.0238861
0.105792
0.00106265
0.111421
0.0319046
0.118898
0.0686458
0.126232
0.114973
0.133121
0.170726
0.14026
0.218593
0.148952
0.229922
0.1599
0.175909
0.169477
0.0726735
0.174539
-0.0393947
0.173655
-0.114999
0.167992
-0.158989
0.160985
-0.177067
0.154151
-0.171936
0.146102
-0.156886
0.137056
-0.144101
0.130693
-0.154966
0.13029
-0.113111
0.133492
-0.0501568
0.136817
0.0907294
0.137988
0.220931
0.138295
0.309033
0.139529
0.317659
0.143977
0.14986
0.150967
0.0488807
0.152885
-0.106244
0.149112
-0.153021
0.143819
-0.237718
0.138701
-0.319514
-0.0703662
0.205379
0.0114129
-0.205335
0.205707
0.0110437
0.206325
0.0106883
0.207183
0.0101288
0.208284
0.00923249
0.209647
0.00791131
0.211234
0.00603336
0.212941
0.00342138
0.214669
-0.000123447
0.216164
-0.00480533
0.217161
-0.0107094
0.217383
-0.0178316
0.216565
-0.0260562
0.21451
-0.0351204
0.211156
-0.0446142
0.206576
-0.0540451
0.200951
-0.0629096
0.19453
-0.0707572
0.187585
-0.0772467
0.180379
-0.0821277
0.173124
-0.0852793
0.165966
-0.0866397
0.159021
-0.0861422
0.152279
-0.0836617
0.145733
-0.0792993
0.139617
-0.0725513
0.133796
-0.0626751
0.127371
-0.0497732
0.120378
-0.0353138
0.115087
-0.0185954
0.114296
0.00185376
0.118432
0.0277688
0.125544
0.0615331
0.133613
0.106905
0.141749
0.16259
0.150455
0.209886
0.161119
0.219258
0.173581
0.163447
0.18383
0.0624243
0.188378
-0.0439419
0.186589
-0.11321
0.179795
-0.152195
0.171726
-0.168998
0.16431
-0.16452
0.15613
-0.148705
0.146724
-0.134695
0.13971
-0.147952
0.138723
-0.112124
0.141904
-0.0533374
0.145782
0.0868515
0.147749
0.218964
0.149047
0.307734
0.150873
0.315834
0.155374
0.145359
0.162527