/*--------------------------------*- C++ -*----------------------------------*\
| =========                 |                                                 |
| \\      /  F ield         | OpenFOAM: The Open Source CFD Toolbox           |
|  \\    /   O peration     | Version:  2512                                  |
|   \\  /    A nd           | Website:  www.openfoam.com                      |
|    \\/     M anipulation  |                                                 |
\*---------------------------------------------------------------------------*/
FoamFile
{
    version     2.0;
    format      ascii;
    arch        "LSB;label=32;scalar=64";
    class       volScalarField;
    location    "191.25";
    object      p;
}
// * * * * * * * * * * * * * * * * * * * * * * * * * * * * * * * * * * * * * //

dimensions      [0 2 -2 0 0 0 0];

internalField   nonuniform List<scalar> 
13248
(
-0.420946
-0.418556
-0.415065
-0.410808
-0.406243
-0.401865
-0.398102
-0.395258
-0.393479
-0.392728
-0.392786
-0.393273
-0.393695
-0.393502
-0.392164
-0.389232
-0.384394
-0.377491
-0.368508
-0.357571
-0.344707
-0.330225
-0.31294
-0.293863
-0.429927
-0.426861
-0.422819
-0.418125
-0.41318
-0.408422
-0.404192
-0.400684
-0.397923
-0.395761
-0.3939
-0.391937
-0.389427
-0.385953
-0.381181
-0.374898
-0.367021
-0.357579
-0.346676
-0.33444
-0.320976
-0.306391
-0.290468
-0.274112
-0.441303
-0.43725
-0.432474
-0.42724
-0.421832
-0.416591
-0.411728
-0.407292
-0.403178
-0.399154
-0.394908
-0.390111
-0.384468
-0.377771
-0.369912
-0.360884
-0.350756
-0.339636
-0.327642
-0.314883
-0.301417
-0.287374
-0.272589
-0.25769
-0.454969
-0.449672
-0.443999
-0.438101
-0.432085
-0.426146
-0.420337
-0.41455
-0.408582
-0.402192
-0.395156
-0.387313
-0.378581
-0.368965
-0.358535
-0.3474
-0.335676
-0.323467
-0.310858
-0.297912
-0.284683
-0.271255
-0.257565
-0.244198
-0.470763
-0.464039
-0.457338
-0.45064
-0.443804
-0.436842
-0.429632
-0.421952
-0.413585
-0.404392
-0.394333
-0.383463
-0.371908
-0.359825
-0.347369
-0.334672
-0.321831
-0.308909
-0.295943
-0.28296
-0.26998
-0.257044
-0.24412
-0.231555
-0.488484
-0.48022
-0.472399
-0.464748
-0.456799
-0.448355
-0.43916
-0.428971
-0.417688
-0.405379
-0.39224
-0.378532
-0.364516
-0.350412
-0.336376
-0.322507
-0.30885
-0.295422
-0.282218
-0.269232
-0.256461
-0.243913
-0.231574
-0.219657
-0.507814
-0.49798
-0.488976
-0.480171
-0.470705
-0.460187
-0.448333
-0.435032
-0.420429
-0.404867
-0.388764
-0.372512
-0.356418
-0.340682
-0.325412
-0.310645
-0.296374
-0.282572
-0.269203
-0.256236
-0.243644
-0.231408
-0.219521
-0.208052
-0.528289
-0.516918
-0.506665
-0.496424
-0.48491
-0.471631
-0.456443
-0.439536
-0.421394
-0.402625
-0.383797
-0.365338
-0.347518
-0.330466
-0.314217
-0.298747
-0.284002
-0.269919
-0.25644
-0.243511
-0.231086
-0.219133
-0.207641
-0.196565
-0.549205
-0.536397
-0.524802
-0.512744
-0.498556
-0.481815
-0.462731
-0.441928
-0.420242
-0.398477
-0.377244
-0.35692
-0.337684
-0.319575
-0.302552
-0.286536
-0.271436
-0.25716
-0.24363
-0.230772
-0.218527
-0.206852
-0.195715
-0.184996
-0.569612
-0.555514
-0.542435
-0.528085
-0.510566
-0.489769
-0.466447
-0.441711
-0.416684
-0.392252
-0.368972
-0.34711
-0.326733
-0.307786
-0.290164
-0.273742
-0.258396
-0.244014
-0.230495
-0.217754
-0.205716
-0.194329
-0.18353
-0.173169
-0.588336
-0.573113
-0.55834
-0.541165
-0.519716
-0.494459
-0.466806
-0.43832
-0.410292
-0.383576
-0.358606
-0.33551
-0.314239
-0.294657
-0.276603
-0.259914
-0.244441
-0.23005
-0.216626
-0.204066
-0.192288
-0.181221
-0.170764
-0.160788
-0.604093
-0.587934
-0.571229
-0.550694
-0.524804
-0.494833
-0.462908
-0.430948
-0.400293
-0.371675
-0.345359
-0.321324
-0.299411
-0.279413
-0.261117
-0.244328
-0.228873
-0.214601
-0.201381
-0.1891
-0.177668
-0.166997
-0.156957
-0.147488
-0.363475
-0.364562
-0.365242
-0.365871
-0.366831
-0.368318
-0.370423
-0.37318
-0.376592
-0.380648
-0.385328
-0.390604
-0.39643
-0.402727
-0.409377
-0.41621
-0.422997
-0.429443
-0.43519
-0.439828
-0.442874
-0.444218
-0.442969
-0.438993
-0.372914
-0.373083
-0.373265
-0.373683
-0.374615
-0.376259
-0.378728
-0.382072
-0.386305
-0.391432
-0.397448
-0.404335
-0.412053
-0.420525
-0.429619
-0.439135
-0.448795
-0.458234
-0.467
-0.474559
-0.480357
-0.484064
-0.484049
-0.480463
-0.381589
-0.380828
-0.380479
-0.380606
-0.381387
-0.383026
-0.385658
-0.389346
-0.394117
-0.399983
-0.406943
-0.414981
-0.424056
-0.434079
-0.444901
-0.456294
-0.467936
-0.479402
-0.490161
-0.499575
-0.506926
-0.511412
-0.512053
-0.508013
-0.388996
-0.387408
-0.386515
-0.386263
-0.386742
-0.388169
-0.3907
-0.39442
-0.399369
-0.405561
-0.412994
-0.421645
-0.431461
-0.442338
-0.454103
-0.4665
-0.479168
-0.491635
-0.503306
-0.513454
-0.521267
-0.525797
-0.526223
-0.520843
-0.394865
-0.39263
-0.391226
-0.390517
-0.390536
-0.391519
-0.393658
-0.397065
-0.401798
-0.407879
-0.415303
-0.424035
-0.434004
-0.445085
-0.457082
-0.469708
-0.482568
-0.495144
-0.506791
-0.516743
-0.524124
-0.527812
-0.527415
-0.520068
-0.399157
-0.396513
-0.394669
-0.39345
-0.39287
-0.393198
-0.394669
-0.397437
-0.40159
-0.407165
-0.414155
-0.422516
-0.432158
-0.442933
-0.454615
-0.466891
-0.479297
-0.491306
-0.502221
-0.511186
-0.517367
-0.519397
-0.517504
-0.507669
-0.40206
-0.399267
-0.397079
-0.395332
-0.394061
-0.393577
-0.394171
-0.396049
-0.39934
-0.404107
-0.410353
-0.418024
-0.427014
-0.437143
-0.448128
-0.459619
-0.471156
-0.482076
-0.491638
-0.498923
-0.503171
-0.502851
-0.498744
-0.486194
-0.403968
-0.401259
-0.398829
-0.396566
-0.39457
-0.393202
-0.392812
-0.393666
-0.395944
-0.399741
-0.405074
-0.411886
-0.420032
-0.429298
-0.439378
-0.449803
-0.460011
-0.4693
-0.476873
-0.481776
-0.483356
-0.480163
-0.473272
-0.458194
-0.405447
-0.40298
-0.400384
-0.397642
-0.394947
-0.392715
-0.391353
-0.391186
-0.392445
-0.395255
-0.399642
-0.405532
-0.412752
-0.421003
-0.429872
-0.438815
-0.44717
-0.454178
-0.459044
-0.460912
-0.459291
-0.45309
-0.443399
-0.426451
-0.407187
-0.405001
-0.40227
-0.399095
-0.395777
-0.392784
-0.390568
-0.389503
-0.389851
-0.391757
-0.395234
-0.400166
-0.406298
-0.413237
-0.420461
-0.427329
-0.433122
-0.437099
-0.438576
-0.436974
-0.432071
-0.423326
-0.411734
-0.394123
-0.40993
-0.407926
-0.405033
-0.401468
-0.397628
-0.394021
-0.391126
-0.38933
-0.388908
-0.389984
-0.392525
-0.396337
-0.401068
-0.40622
-0.411181
-0.415268
-0.417791
-0.418135
-0.415827
-0.410643
-0.402642
-0.391984
-0.379659
-0.363086
-0.414356
-0.412308
-0.409169
-0.405238
-0.400975
-0.396899
-0.393485
-0.391112
-0.390007
-0.390237
-0.391688
-0.394067
-0.396927
-0.399702
-0.401761
-0.402483
-0.401319
-0.397867
-0.39189
-0.383412
-0.372527
-0.35983
-0.345915
-0.330818
-0.431368
-0.416183
-0.395107
-0.368748
-0.338436
-0.305848
-0.275564
-0.249036
-0.22905
-0.217688
-0.215781
-0.222168
-0.23324
-0.243248
-0.244671
-0.238915
-0.218294
-0.187867
-0.154849
-0.126039
-0.105397
-0.0938809
-0.0905305
-0.0941811
-0.105331
-0.125346
-0.151624
-0.174363
-0.181116
-0.168477
-0.142257
-0.113421
-0.0898798
-0.0746997
-0.0669289
-0.0654246
-0.0716154
-0.0856844
-0.100779
-0.1059
-0.097045
-0.0814864
-0.0670492
-0.0575187
-0.053033
-0.0554771
-0.0631945
-0.068196
-0.0648973
-0.0577123
-0.0481785
-0.041553
-0.0360862
-0.0331759
-0.03252
-0.0313442
-0.0265879
-0.0211322
-0.0119954
-0.0025533
-0.473491
-0.455921
-0.430947
-0.399515
-0.362984
-0.32375
-0.28519
-0.250057
-0.221037
-0.200402
-0.189536
-0.188205
-0.193857
-0.20155
-0.205165
-0.201056
-0.185766
-0.162095
-0.135854
-0.113003
-0.0973474
-0.0900127
-0.0902132
-0.0971521
-0.111865
-0.135752
-0.16546
-0.190097
-0.196463
-0.181089
-0.151361
-0.119166
-0.0927014
-0.0749402
-0.0648577
-0.0610719
-0.064539
-0.0757744
-0.0888485
-0.0937364
-0.0866628
-0.0740315
-0.0627996
-0.055942
-0.0540603
-0.0590375
-0.0692869
-0.075693
-0.0715733
-0.0626119
-0.0506479
-0.0422614
-0.0347319
-0.0302009
-0.0284365
-0.026831
-0.0231343
-0.018552
-0.0112163
-0.00284875
-0.501213
-0.482223
-0.454046
-0.418494
-0.377012
-0.332097
-0.286928
-0.244692
-0.208249
-0.179894
-0.161097
-0.152213
-0.151907
-0.15649
-0.160622
-0.159311
-0.149318
-0.13267
-0.113507
-0.0969348
-0.0865625
-0.0835824
-0.0873567
-0.0974866
-0.115437
-0.142597
-0.175097
-0.201438
-0.207913
-0.190685
-0.158247
-0.123337
-0.0944529
-0.0744719
-0.0623189
-0.0564392
-0.0573087
-0.0657293
-0.0767731
-0.0814096
-0.0760397
-0.0662333
-0.0580946
-0.0538752
-0.0546682
-0.0622511
-0.0750634
-0.0829184
-0.0780143
-0.0672214
-0.0528399
-0.0427706
-0.0333757
-0.0273343
-0.0244469
-0.0223464
-0.0196504
-0.0159265
-0.0104304
-0.00315811
-0.513624
-0.493939
-0.464175
-0.426127
-0.381348
-0.332438
-0.282695
-0.235371
-0.193327
-0.158834
-0.133425
-0.117757
-0.111302
-0.111771
-0.114931
-0.115945
-0.110645
-0.101043
-0.0887914
-0.0784008
-0.0732468
-0.0744357
-0.0814953
-0.0943967
-0.114993
-0.144771
-0.179632
-0.207744
-0.214971
-0.196912
-0.1627
-0.125836
-0.0951444
-0.0734058
-0.0594943
-0.0517709
-0.050261
-0.0559894
-0.0650014
-0.0693011
-0.0654765
-0.0582828
-0.0530273
-0.0513213
-0.0547557
-0.0649216
-0.0802958
-0.0896556
-0.0840787
-0.0714678
-0.0547248
-0.0430696
-0.032016
-0.0245938
-0.0205974
-0.017935
-0.016172
-0.0132791
-0.00964399
-0.00348219
-0.511577
-0.491124
-0.46153
-0.423377
-0.377672
-0.327216
-0.2754
-0.225342
-0.179752
-0.140797
-0.110024
-0.0883277
-0.0758072
-0.0713049
-0.0720456
-0.0739829
-0.0717918
-0.0688826
-0.0627825
-0.0580368
-0.0576075
-0.0624634
-0.0723214
-0.0874678
-0.110107
-0.14191
-0.178804
-0.208728
-0.217323
-0.199573
-0.164689
-0.126741
-0.0948884
-0.0718715
-0.0565532
-0.0472781
-0.0436658
-0.0468764
-0.0539015
-0.0577583
-0.0552544
-0.0503626
-0.0476782
-0.0482671
-0.0542187
-0.0668712
-0.0847519
-0.0956655
-0.0896011
-0.0752784
-0.0562839
-0.0431565
-0.0306482
-0.0219907
-0.0169289
-0.013641
-0.0127342
-0.0106322
-0.00886101
-0.00382048
-0.496648
-0.475304
-0.447584
-0.411655
-0.367502
-0.318158
-0.267
-0.216805
-0.169999
-0.128567
-0.0939449
-0.0671428
-0.0487697
-0.0386691
-0.0354868
-0.0367853
-0.0398695
-0.0381244
-0.0366075
-0.0365791
-0.0400475
-0.0479037
-0.0600082
-0.0768888
-0.101
-0.134216
-0.172749
-0.204476
-0.214952
-0.198621
-0.164219
-0.126145
-0.0937996
-0.0699801
-0.0536101
-0.0430831
-0.0377021
-0.038635
-0.043764
-0.0470715
-0.0456143
-0.0426489
-0.0421252
-0.0447211
-0.0529879
-0.0679522
-0.0882116
-0.100722
-0.0944326
-0.078589
-0.0575037
-0.0430302
-0.0292597
-0.0195293
-0.0134777
-0.00950245
-0.00936751
-0.00800592
-0.00808258
-0.00417127
-0.471789
-0.449473
-0.424833
-0.392865
-0.352321
-0.306437
-0.258383
-0.210428
-0.164634
-0.122777
-0.0861472
-0.0556923
-0.0322273
-0.0163261
-0.00785659
-0.00564512
-0.00732156
-0.00889331
-0.0110944
-0.0146973
-0.0211643
-0.0313019
-0.0450801
-0.0632106
-0.0882873
-0.122364
-0.162012
-0.195494
-0.208296
-0.194234
-0.16141
-0.124172
-0.0919935
-0.0678223
-0.0507395
-0.0392515
-0.0324297
-0.0313823
-0.034757
-0.0374615
-0.0367565
-0.0353175
-0.0364722
-0.0407327
-0.0510264
-0.0680483
-0.0905148
-0.104643
-0.0984326
-0.0813374
-0.058372
-0.0426938
-0.0278382
-0.0172036
-0.010269
-0.00554959
-0.00609714
-0.00541803
-0.00730721
-0.00453294
-0.440247
-0.417398
-0.396656
-0.369562
-0.333938
-0.293174
-0.249951
-0.205948
-0.162897
-0.122356
-0.0854667
-0.0530911
-0.0260203
-0.00506132
0.00913802
0.0165298
0.0182124
0.016596
0.0127207
0.00691888
-0.00157874
-0.0132901
-0.0282305
-0.0472343
-0.0729153
-0.107388
-0.147658
-0.182706
-0.197978
-0.186779
-0.156447
-0.120927
-0.0895495
-0.0654535
-0.0479803
-0.0358113
-0.0278686
-0.0251502
-0.0269418
-0.0290444
-0.0291398
-0.028536
-0.0308388
-0.0363783
-0.0483489
-0.0670924
-0.0915722
-0.107292
-0.10149
-0.0834756
-0.0588856
-0.0421568
-0.02639
-0.0150143
-0.00731461
-0.00180234
-0.00294381
-0.00288401
-0.00653214
-0.00490462
-0.405614
-0.383455
-0.366924
-0.344607
-0.314317
-0.279466
-0.241898
-0.202693
-0.16335
-0.12527
-0.0894679
-0.0567393
-0.0278027
-0.00341051
0.0156154
0.0285224
0.0351101
0.0363334
0.0334415
0.0272571
0.0179158
0.00538477
-0.0102567
-0.0298647
-0.0559578
-0.090577
-0.131064
-0.167198
-0.184698
-0.176751
-0.149664
-0.11665
-0.0866696
-0.0630429
-0.0454664
-0.0328607
-0.024077
-0.0199752
-0.0203443
-0.0218154
-0.0221568
-0.0224295
-0.0253541
-0.0317581
-0.0449634
-0.0650749
-0.0913609
-0.108587
-0.103547
-0.0849944
-0.0590843
-0.0414529
-0.0249457
-0.0129932
-0.00464729
0.00172848
7.687e-05
-0.000417025
-0.0057544
-0.00528595
-0.372008
-0.352228
-0.339442
-0.320869
-0.295535
-0.266526
-0.234581
-0.200262
-0.164879
-0.129708
-0.0957303
-0.0636868
-0.0342567
-0.00817631
0.0139034
0.0311964
0.0428586
0.0485685
0.0490974
0.044629
0.0359833
0.0235217
0.00765119
-0.0122957
-0.0385725
-0.0729479
-0.113156
-0.149803
-0.169084
-0.164827
-0.141671
-0.111889
-0.0838524
-0.0610144
-0.0435186
-0.0306259
-0.0211805
-0.0158926
-0.0149767
-0.0157987
-0.0162375
-0.0171764
-0.0200946
-0.0269797
-0.04102
-0.0620698
-0.0898518
-0.1085
-0.104609
-0.085895
-0.0590434
-0.040642
-0.0235171
-0.0111582
-0.00234395
0.00501637
0.00295391
0.00197183
-0.00497041
-0.00567646
-0.342863
-0.327332
-0.317154
-0.300985
-0.279971
-0.256293
-0.229564
-0.199949
-0.168512
-0.136387
-0.104564
-0.0736483
-0.0442953
-0.0172401
0.00679304
0.027068
0.0427834
0.0534958
0.0583491
0.0569958
0.0509134
0.0398635
0.0245308
0.00463778
-0.0216382
-0.055841
-0.0955987
-0.131855
-0.152435
-0.151177
-0.132334
-0.10648
-0.0809312
-0.0592002
-0.0419299
-0.0288856
-0.0189503
-0.0126403
-0.0105443
-0.0107888
-0.0113523
-0.0131343
-0.0152731
-0.022115
-0.0363924
-0.0581219
-0.0873046
-0.107066
-0.104607
-0.0859874
-0.058643
-0.0396722
-0.0219865
-0.00938962
-0.000351183
0.00801531
0.00566265
0.00427565
-0.00417435
-0.00607587
-0.317433
-0.308409
-0.298805
-0.283314
-0.265449
-0.245991
-0.223799
-0.198705
-0.171355
-0.142591
-0.113265
-0.084124
-0.0558711
-0.0292153
-0.00482115
0.0167145
0.034838
0.0495355
0.058633
0.0624312
0.0597584
0.0514993
0.0379336
0.01916
-0.00607008
-0.0388786
-0.0768445
-0.111715
-0.131201
-0.133201
-0.119182
-0.0977038
-0.0751506
-0.0551466
-0.0386699
-0.0259965
-0.016091
-0.00926254
-0.00625166
-0.00600165
-0.00669007
-0.0101834
-0.0109026
-0.0176397
-0.0316924
-0.0534699
-0.0834087
-0.104218
-0.10265
-0.0848789
-0.0573235
-0.038166
-0.0200645
-0.00745549
0.0017412
0.0108274
0.00820932
0.00646701
-0.00336529
-0.00649349
-0.289105
-0.294038
-0.282704
-0.265425
-0.247553
-0.229063
-0.208532
-0.185424
-0.160165
-0.133542
-0.10633
-0.0791787
-0.0526851
-0.0274477
-0.00402698
0.017088
0.0354604
0.0509936
0.0607685
0.0663327
0.0665676
0.0608576
0.0490624
0.0312928
0.00628814
-0.0275057
-0.0671923
-0.102636
-0.123901
-0.121969
-0.107713
-0.0876369
-0.0670018
-0.048766
-0.0335903
-0.0217786
-0.0123569
-0.00559704
-0.00213875
-0.00138225
-0.00146776
0.00209839
-0.00479706
-0.0112371
-0.0252146
-0.0477116
-0.0795336
-0.10264
-0.103487
-0.0837029
-0.0552692
-0.0360975
-0.0179115
-0.00551842
0.00406183
0.0144272
0.0107544
0.00865194
-0.00252001
-0.00696044
-0.260808
-0.26953
-0.259553
-0.242263
-0.224835
-0.20782
-0.189531
-0.169008
-0.14646
-0.122607
-0.0981474
-0.0736317
-0.0495565
-0.026436
-0.00478822
0.0149412
0.0323248
0.0462771
0.0575285
0.0642486
0.0659326
0.0618475
0.0516575
0.0352688
0.0113361
-0.0213849
-0.0590169
-0.0910403
-0.10748
-0.105786
-0.0931908
-0.0760029
-0.0583218
-0.0424175
-0.0288149
-0.0180065
-0.00921361
-0.0026518
0.00103003
0.00202989
0.00205584
0.00414071
-0.000750178
-0.0065693
-0.0200826
-0.0426793
-0.0753107
-0.099472
-0.0998319
-0.0808316
-0.0525145
-0.0335939
-0.0156133
-0.00362051
0.00612497
0.0165747
0.0128431
0.0105225
-0.00172753
-0.00731342
-0.235474
-0.244361
-0.236449
-0.220796
-0.204633
-0.189198
-0.172999
-0.154884
-0.134848
-0.113507
-0.091506
-0.0693464
-0.0474616
-0.0263052
-0.00634575
0.0119917
0.0282889
0.041869
0.0525783
0.0593476
0.0614832
0.0581945
0.0490383
0.0338359
0.0115901
-0.0179172
-0.0502826
-0.0767476
-0.0900441
-0.089099
-0.0791025
-0.065087
-0.0502192
-0.0364473
-0.0242935
-0.0144058
-0.00622954
5.36898e-05
0.00384806
0.00507508
0.00512744
0.00650601
0.00258354
-0.00302538
-0.0163051
-0.038596
-0.0704522
-0.094444
-0.095002
-0.0769937
-0.0493149
-0.030807
-0.0132178
-0.00166491
0.00807923
0.0185643
0.0147259
0.0121897
-0.000906214
-0.00754458
-0.212257
-0.220512
-0.21447
-0.200901
-0.186262
-0.172241
-0.157788
-0.141777
-0.12403
-0.105024
-0.0853395
-0.0654351
-0.0456875
-0.0264817
-0.00823289
0.00865648
0.0237715
0.0365394
0.0465644
0.0531368
0.0555357
0.0529687
0.0449569
0.0313654
0.0117759
-0.0132696
-0.0399671
-0.0616712
-0.0729272
-0.0730645
-0.0656804
-0.0545995
-0.0423412
-0.0306124
-0.0198975
-0.0109344
-0.00339848
0.00253777
0.00635802
0.00782976
0.00798205
0.00899223
0.00573324
0.000316984
-0.0126867
-0.0341061
-0.0644089
-0.088093
-0.0891128
-0.0722139
-0.0456192
-0.0277457
-0.0107014
0.000354774
0.00989088
0.0204259
0.0164744
0.0137446
-1.07104e-06
-0.00766113
-0.190498
-0.198394
-0.193816
-0.182177
-0.169132
-0.156519
-0.143672
-0.129587
-0.11398
-0.0971798
-0.0796879
-0.0619221
-0.0442171
-0.0269058
-0.0103607
0.00503435
0.0188788
0.03069
0.0400223
0.0463187
0.0489303
0.0471624
0.0405819
0.0291227
0.0127524
-0.00778506
-0.0294585
-0.0471731
-0.0569932
-0.0582272
-0.053247
-0.044832
-0.0349345
-0.0250763
-0.0157245
-0.00765246
-0.00074233
0.00480808
0.00857596
0.0102733
0.010576
0.0114207
0.00877577
0.00376015
-0.00855264
-0.0286486
-0.0573016
-0.0805085
-0.0820043
-0.0664475
-0.0414259
-0.024436
-0.00809631
0.00242328
0.0115446
0.0220798
0.0180725
0.0152133
0.000998808
-0.00765264
-0.170693
-0.178084
-0.174545
-0.1646
-0.15315
-0.141969
-0.130643
-0.118323
-0.10468
-0.0899271
-0.0744835
-0.0587262
-0.042959
-0.0274746
-0.0126017
0.00130982
0.0138839
0.0247027
0.0333368
0.039316
0.0421009
0.0411351
0.0360551
0.0268265
0.0136084
-0.00281225
-0.0200679
-0.0343951
-0.0430596
-0.0451748
-0.042169
-0.0359805
-0.0280997
-0.019892
-0.0118062
-0.00458901
0.0017208
0.00686846
0.010516
0.0124028
0.0129212
0.0137857
0.0117201
0.00731638
-0.00392039
-0.022479
-0.0492955
-0.0716772
-0.073705
-0.0597664
-0.0367688
-0.0209172
-0.00543891
0.00452229
0.0130323
0.023478
0.0194804
0.0165692
0.00209037
-0.00749026
-0.152753
-0.159384
-0.156649
-0.148225
-0.138302
-0.128517
-0.118621
-0.107907
-0.0960477
-0.0831771
-0.0696358
-0.0557578
-0.0418176
-0.0280722
-0.0148063
-0.00233411
0.00899764
0.0188256
0.0267572
0.0323933
0.0352978
0.0350413
0.0313369
0.0241797
0.0138282
0.00102268
-0.0124978
-0.0241345
-0.031555
-0.0341423
-0.0325607
-0.0281157
-0.0219056
-0.0151197
-0.0081826
-0.00177464
0.00396921
0.00872237
0.0122017
0.0142425
0.0150306
0.0160729
0.0145737
0.0108974
0.000948633
-0.0158486
-0.040496
-0.0617741
-0.064395
-0.0523064
-0.0317112
-0.017239
-0.00277176
0.00662788
0.0143594
0.0245875
0.0206691
0.0177862
0.00328972
-0.00713555
-0.136178
-0.142182
-0.140159
-0.133084
-0.124559
-0.11608
-0.107507
-0.0982535
-0.0880115
-0.0768599
-0.0650733
-0.0529401
-0.0407049
-0.0285935
-0.0168523
-0.00575878
0.00437178
0.0132361
0.0204744
0.0257536
0.0287246
0.0290629
0.026559
0.0212358
0.0133667
0.00357215
-0.00687049
-0.0161342
-0.0223757
-0.025058
-0.0244025
-0.0212572
-0.0163912
-0.0108008
-0.00488068
0.000772511
0.00598506
0.0103729
0.0136599
0.0158208
0.0169034
0.0182606
0.0173428
0.0144491
0.0059543
-0.00885693
-0.0311363
-0.0511204
-0.0543432
-0.0442683
-0.026353
-0.0134605
-0.000139384
0.00871138
0.015553
0.0253897
0.021638
0.0188656
0.00462783
-0.0065426
-0.120991
-0.126496
-0.125053
-0.119138
-0.111862
-0.104579
-0.0972189
-0.0892892
-0.0805077
-0.0709159
-0.0607333
-0.0502053
-0.0395465
-0.0289551
-0.0186437
-0.00885088
0.000152929
0.00808193
0.0146491
0.0195703
0.0225666
0.0233942
0.0219055
0.0181353
0.012325
0.00498653
-0.00291959
-0.0101184
-0.0152252
-0.0177278
-0.0176024
-0.0153779
-0.0115635
-0.00695931
-0.00191957
0.00304269
0.00775482
0.0118159
0.0149136
0.017166
0.0185346
0.020299
0.0200409
0.0180249
0.0111191
-0.00169107
-0.0216172
-0.0401506
-0.043906
-0.0359148
-0.0208286
-0.00964847
0.00241535
0.0107397
0.0166686
0.0257653
0.0224266
0.0198321
0.00613566
-0.00565988
-0.107291
-0.112228
-0.111216
-0.106304
-0.100148
-0.0939491
-0.0876875
-0.0809498
-0.0734798
-0.065293
-0.0565645
-0.0475006
-0.0382869
-0.029095
-0.0201066
-0.0115269
-0.00358696
0.00346987
0.00940163
0.0139704
0.0169534
0.0181675
0.0175076
0.0150115
0.0108881
0.00555686
-0.000267635
-0.00572677
-0.00976418
-0.0119135
-0.0120288
-0.0104217
-0.00740816
-0.00360363
0.000688877
0.00503286
0.00927365
0.0130405
0.0159748
0.018301
0.0199253
0.0221127
0.0226599
0.021676
0.0163727
0.00528867
-0.0124554
-0.0293747
-0.0335089
-0.0275546
-0.0153006
-0.00587531
0.00485464
0.0126775
0.017799
0.02608
0.023128
0.0207275
0.00783494
-0.0044416
-0.094833
-0.099212
-0.0985608
-0.0945291
-0.0893669
-0.0841378
-0.0788582
-0.0731833
-0.0668822
-0.0599512
-0.0525286
-0.0447868
-0.0368845
-0.0289676
-0.0211912
-0.0137276
-0.00677062
-0.000523516
0.00480839
0.00902997
0.0119623
0.013467
0.0134697
0.0120062
0.00925132
0.00554165
0.00142877
-0.00260262
-0.0056674
-0.00737635
-0.00753595
-0.00631543
-0.00389431
-0.00072678
0.00294081
0.00674397
0.0105462
0.0140375
0.0168393
0.0192289
0.0210807
0.0236361
0.0250348
0.0251977
0.0213607
0.0115909
-0.00414955
-0.0192662
-0.0235846
-0.019512
-0.00994742
-0.00221855
0.00714708
0.0144893
0.0190321
0.0262996
0.0238605
0.0216051
0.00972199
-0.00287335
-0.0834482
-0.0873778
-0.0870366
-0.0837606
-0.0794659
-0.0750918
-0.07068
-0.0659433
-0.0606746
-0.0548562
-0.048596
-0.0420369
-0.0353127
-0.0285461
-0.0218655
-0.0154171
-0.0093596
-0.00386153
0.000909362
0.00479059
0.00763916
0.00934922
0.00986792
0.00922402
0.00755548
0.00513652
0.00248009
-0.0004625
-0.00266286
-0.00389845
-0.00397754
-0.00297522
-0.000978846
0.00169039
0.00484137
0.00817964
0.0115823
0.0148074
0.0174947
0.0199266
0.0219849
0.0248429
0.0268825
0.0280417
0.0254144
0.0167224
0.00297272
-0.0101741
-0.0145148
-0.0120923
-0.00494586
0.00123944
0.00926695
0.0161404
0.0204138
0.0265262
0.0247493
0.0225119
0.0117381
-0.00100837
-0.0731723
-0.0766683
-0.0765506
-0.0739167
-0.0703771
-0.0667547
-0.0631054
-0.0591899
-0.0548246
-0.0499828
-0.0447476
-0.0392359
-0.0335591
-0.0278197
-0.0221236
-0.0165892
-0.0113459
-0.00653154
-0.00228413
0.00126486
0.00400087
0.00584037
0.00674271
0.00673054
0.00589926
0.00442077
0.00248211
0.000863428
-0.000521623
-0.00128575
-0.00121273
-0.000311679
0.00139005
0.00367581
0.00640471
0.00934667
0.0123923
0.0153592
0.0179322
0.0203655
0.0225695
0.0257017
0.0279484
0.0296701
0.0279347
0.020387
0.00874521
-0.00236708
-0.00660611
-0.00554345
-0.000445028
0.00441706
0.011193
0.0175971
0.0218898
0.0268656
0.0258685
0.0234522
0.0137405
0.00100097
-0.0639241
-0.0669858
-0.0669879
-0.064924
-0.0620488
-0.0590829
-0.0560953
-0.0528902
-0.0493074
-0.0453145
-0.040974
-0.0363809
-0.0316275
-0.0267968
-0.0219741
-0.0172545
-0.0127418
-0.00854929
-0.00478699
-0.00156089
0.0010364
0.0029387
0.0041132
0.00457606
0.00439589
0.00370839
0.00270348
0.00174793
0.000983784
0.00063935
0.000891579
0.00176603
0.00327001
0.00526423
0.0076515
0.0102569
0.0129864
0.0157041
0.0181518
0.0205289
0.0227235
0.0251719
0.0280627
0.0299379
0.0288162
0.0225756
0.0130761
0.00393202
-7.17101e-05
-1.40981e-05
0.00345956
0.00724691
0.0129078
0.0188241
0.0232883
0.0273463
0.0271584
0.0243536
0.0155018
0.00290401
-0.0555827
-0.0583196
-0.0585271
-0.0568242
-0.0544652
-0.0520417
-0.0496142
-0.0470156
-0.044103
-0.0408408
-0.0372747
-0.0334798
-0.0295301
-0.0254943
-0.0214421
-0.0174486
-0.0135854
-0.00995185
-0.00663607
-0.00372252
-0.00128509
0.000623917
0.00197564
0.00277904
0.00308746
0.00300707
0.00266729
0.00227892
0.00201101
0.00202411
0.00245583
0.00334641
0.00472127
0.00649546
0.00860731
0.0109263
0.013376
0.0158552
0.0181647
0.0204397
0.0226078
0.0249889
0.0275011
0.0291688
0.0284212
0.0234989
0.016002
0.00866402
0.00503161
0.00446328
0.00673316
0.00968492
0.0144003
0.0197859
0.0243584
0.0278593
0.0283899
0.0250575
0.0167628
0.00442402
-0.048019
-0.0504304
-0.050711
-0.0494245
-0.0475301
-0.045569
-0.0436192
-0.0415368
-0.0391947
-0.0365563
-0.0336531
-0.0305445
-0.0272897
-0.0239438
-0.0205658
-0.0172227
-0.0139217
-0.0107874
-0.00788204
-0.00527031
-0.00300974
-0.00114202
0.000306783
0.0013416
0.00200097
0.00235103
0.00249393
0.00256001
0.00268609
0.0029924
0.00358674
0.00451304
0.00580427
0.00741205
0.00930072
0.011375
0.0135769
0.0158279
0.0179844
0.02012
0.0221922
0.0243576
0.0264445
0.0277873
0.0272428
0.0234897
0.0177389
0.0119833
0.00881864
0.00795476
0.00938998
0.0117076
0.0156513
0.0204486
0.0248974
0.0281474
0.0291877
0.0253326
0.0173255
0.00538917
-0.0412178
-0.0433323
-0.0436741
-0.0427006
-0.0412102
-0.0396565
-0.0381007
-0.0364411
-0.03457
-0.0324608
-0.03012
-0.0275953
-0.0249345
-0.0221785
-0.0193686
-0.0165371
-0.0137811
-0.0111097
-0.00858602
-0.00626489
-0.00419361
-0.00240602
-0.00092627
0.000247142
0.0011356
0.0017896
0.00227492
0.00268258
0.00310964
0.00364679
0.0043771
0.00534276
0.00657769
0.00805685
0.0097628
0.0116267
0.0136081
0.0156406
0.0176291
0.0195956
0.0215082
0.0234029
0.0250933
0.0261194
0.0256899
0.0228979
0.0185831
0.0141652
0.0114869
0.0105812
0.0114721
0.0133113
0.0166172
0.0207693
0.0248476
0.0279411
0.0291644
0.0249553
0.0171357
0.00580103
-0.0350998
-0.0369458
-0.0373266
-0.0366062
-0.0354453
-0.034227
-0.0330146
-0.031721
-0.0302558
-0.0285721
-0.0266958
-0.0246599
-0.0225011
-0.020251
-0.0179375
-0.015596
-0.0132726
-0.011
-0.00882097
-0.00677497
-0.00489922
-0.00322221
-0.0017662
-0.000526952
0.000501585
0.00135275
0.00207111
0.00271896
0.00336368
0.00407227
0.00490686
0.00590474
0.00709692
0.00847241
0.010026
0.011707
0.0134902
0.0153163
0.0171269
0.0189054
0.0206222
0.0222461
0.0236013
0.0243722
0.0240263
0.0219945
0.0188168
0.0154869
0.0131912
0.0124762
0.0130351
0.0145043
0.017254
0.020723
0.0242317
0.0270719
0.0281222
0.0238514
0.016294
0.00577493
-0.0295942
-0.0312051
-0.0316086
-0.0310921
-0.0302013
-0.0292598
-0.028326
-0.0273283
-0.0261884
-0.0248723
-0.0233888
-0.0217643
-0.0200274
-0.0182033
-0.016315
-0.0143862
-0.012447
-0.0105271
-0.00865856
-0.00687117
-0.00519806
-0.00364807
-0.00224912
-0.001006
8.91984e-05
0.001054
0.00191722
0.00272155
0.00351236
0.00433805
0.00524368
0.00625999
0.00741338
0.00870012
0.0101226
0.0116427
0.013247
0.0148812
0.0165112
0.0180959
0.019606
0.0209839
0.022075
0.0226627
0.0223969
0.020953
0.0186542
0.0162073
0.0144251
0.0137949
0.0141389
0.0153042
0.0175416
0.0203239
0.0231463
0.0250735
0.0261644
0.022137
0.0149948
0.00544761
-0.0246515
-0.0260536
-0.0264642
-0.0261097
-0.0254391
-0.0247243
-0.024018
-0.0232626
-0.0223919
-0.0213753
-0.0202163
-0.0189342
-0.0175507
-0.0160843
-0.0145526
-0.0129733
-0.0113674
-0.00975675
-0.00816453
-0.00661649
-0.00512516
-0.0037292
-0.0024251
-0.00121976
-0.000116531
0.000896026
0.00183471
0.00272776
0.00360466
0.00449951
0.00544384
0.00646142
0.00757361
0.00877957
0.0100854
0.0114621
0.0129037
0.0143613
0.0158154
0.0172134
0.0185255
0.0196924
0.020583
0.021051
0.0208676
0.0198715
0.0182392
0.0164941
0.0151499
0.0146256
0.0148349
0.0157421
0.0174985
0.0196315
0.0217987
0.0230843
0.0236947
0.0200423
0.0134544
0.004942
-0.0202192
-0.0214343
-0.0218401
-0.0216133
-0.0211213
-0.0205909
-0.0200691
-0.0195098
-0.0188574
-0.0180843
-0.0171909
-0.0161911
-0.0151007
-0.0139337
-0.0127024
-0.0114194
-0.0100995
-0.0087583
-0.00741326
-0.00608163
-0.00478753
-0.00353675
-0.00234071
-0.00120613
-0.000136493
0.000874319
0.00183474
0.00276278
0.00367674
0.00459982
0.00555319
0.00655415
0.00761887
0.00874733
0.00994652
0.0111932
0.0124864
0.0137832
0.015072
0.0162986
0.0174348
0.0184254
0.0191665
0.019562
0.0194605
0.0188029
0.0176683
0.0164593
0.0154634
0.0150535
0.0151754
0.0158567
0.017172
0.0187199
0.0202894
0.0209854
0.0210571
0.0177977
0.0118547
0.0043609
-0.0162458
-0.0172959
-0.017689
-0.017562
-0.0172135
-0.0168318
-0.0164583
-0.0160562
-0.0155791
-0.0150025
-0.0143249
-0.0135559
-0.0127073
-0.0117888
-0.010809
-0.00977659
-0.00870186
-0.00759614
-0.00647295
-0.00534434
-0.00422369
-0.00311996
-0.0020438
-0.0010004
6.30786e-06
0.000978879
0.00192057
0.00284215
0.00375421
0.00467179
0.00560835
0.00657567
0.00758509
0.00863622
0.0097353
0.0108633
0.0120212
0.0131724
0.0143099
0.0153846
0.0163744
0.0172168
0.0178464
0.0182011
0.0181755
0.0177698
0.0170038
0.0161875
0.0154693
0.0151591
0.0152162
0.0156955
0.0166218
0.0176613
0.0187026
0.0188998
0.018487
0.0155787
0.0103152
0.00377866
-0.0126889
-0.013594
-0.0139688
-0.0139183
-0.0136841
-0.0134213
-0.0131658
-0.0128885
-0.0125509
-0.0121318
-0.0116282
-0.0110468
-0.010396
-0.00968258
-0.00891217
-0.00809048
-0.00722439
-0.00632194
-0.00539313
-0.00444576
-0.00348866
-0.00252952
-0.00157747
-0.000637307
0.000286885
0.00119569
0.00208935
0.00297365
0.00385389
0.00473929
0.00563771
0.00655628
0.00750252
0.00847494
0.00947818
0.0104969
0.0115321
0.0125522
0.0135529
0.0144934
0.0153533
0.0160817
0.0166305
0.0169629
0.017002
0.0167796
0.0162838
0.0157491
0.0152408
0.0150099
0.0150114
0.0153107
0.0159079
0.0165188
0.0171038
0.016913
0.0161179
0.0134992
0.00890035
0.0032384
-0.00951078
-0.0102882
-0.0106406
-0.0106479
-0.010504
-0.0103354
-0.0101731
-0.00999398
-0.00976662
-0.00947257
-0.00910833
-0.00867826
-0.00818833
-0.00764314
-0.00704609
-0.00640059
-0.00571109
-0.00498293
-0.00422308
-0.0034372
-0.00263099
-0.00181001
-0.000981633
-0.00015035
0.000679765
0.00150826
0.00233381
0.00315896
0.0039856
0.00481869
0.00566223
0.00651988
0.00739584
0.00828781
0.00919863
0.0101153
0.0110382
0.0119419
0.0128215
0.013644
0.0143922
0.0150299
0.0155181
0.0158364
0.0159278
0.0158352
0.0155309
0.0151921
0.0148382
0.0146667
0.0146127
0.0147558
0.0150823
0.0153411
0.0155452
0.0150706
0.0140079
0.0116224
0.00763818
0.00275969
-0.00667633
-0.00734186
-0.00766985
-0.00772011
-0.00764678
-0.00755235
-0.00746283
-0.00736038
-0.00721927
-0.0070239
-0.0067705
-0.00646181
-0.00610191
-0.00569379
-0.00523943
-0.00474052
-0.00419966
-0.00362012
-0.00300644
-0.00236281
-0.00169336
-0.00100171
-0.000293013
0.000428806
0.00115973
0.00189864
0.00264359
0.00339526
0.00415336
0.00492002
0.00569654
0.00648414
0.00728458
0.0080947
0.00891573
0.0097366
0.0105566
0.0113562
0.012129
0.0128487