/*--------------------------------*- C++ -*----------------------------------*\
| =========                 |                                                 |
| \\      /  F ield         | OpenFOAM: The Open Source CFD Toolbox           |
|  \\    /   O peration     | Version:  2512                                  |
|   \\  /    A nd           | Website:  www.openfoam.com                      |
|    \\/     M anipulation  |                                                 |
\*---------------------------------------------------------------------------*/
FoamFile
{
    version     2.0;
    format      ascii;
    arch        "LSB;label=32;scalar=64";
    class       volScalarField;
    location    "107.5";
    object      p;
}
// * * * * * * * * * * * * * * * * * * * * * * * * * * * * * * * * * * * * * //

dimensions      [0 2 -2 0 0 0 0];

internalField   nonuniform List<scalar> 
13248
(
-0.41618
-0.413783
-0.410359
-0.406231
-0.401839
-0.39766
-0.394097
-0.391431
-0.389792
-0.389135
-0.389248
-0.389767
-0.390221
-0.390087
-0.388857
-0.386099
-0.381501
-0.374901
-0.36627
-0.355717
-0.343255
-0.329189
-0.312341
-0.293715
-0.424913
-0.421866
-0.41789
-0.413303
-0.408495
-0.403893
-0.399826
-0.396474
-0.393855
-0.391823
-0.390087
-0.388256
-0.385902
-0.382617
-0.378075
-0.372061
-0.364486
-0.355368
-0.344803
-0.332912
-0.319794
-0.305555
-0.289977
-0.273968
-0.43597
-0.431968
-0.427267
-0.422126
-0.416831
-0.411717
-0.406996
-0.402714
-0.398766
-0.394925
-0.390884
-0.386317
-0.380932
-0.374517
-0.36696
-0.358246
-0.348437
-0.337636
-0.325957
-0.313511
-0.300352
-0.286612
-0.272126
-0.257524
-0.449279
-0.444066
-0.438478
-0.432668
-0.426752
-0.420931
-0.415263
-0.40965
-0.403893
-0.397752
-0.391
-0.383467
-0.375064
-0.365785
-0.355691
-0.344884
-0.333478
-0.321576
-0.309265
-0.296608
-0.283658
-0.2705
-0.257069
-0.243952
-0.464695
-0.458082
-0.451477
-0.444868
-0.438132
-0.431295
-0.424251
-0.416789
-0.408693
-0.399818
-0.390109
-0.379608
-0.368423
-0.3567
-0.34459
-0.332222
-0.319692
-0.307065
-0.294382
-0.281669
-0.268949
-0.256261
-0.243572
-0.231236
-0.482028
-0.473891
-0.466176
-0.458621
-0.450787
-0.442497
-0.433516
-0.423607
-0.412664
-0.400735
-0.387997
-0.374691
-0.361063
-0.347326
-0.333635
-0.320087
-0.306734
-0.293591
-0.280658
-0.267928
-0.255402
-0.243084
-0.230961
-0.219252
-0.500965
-0.491269
-0.482377
-0.473683
-0.464362
-0.454051
-0.442478
-0.42953
-0.415332
-0.400201
-0.38453
-0.368695
-0.352993
-0.337622
-0.32269
-0.308237
-0.29426
-0.280734
-0.267625
-0.254903
-0.242542
-0.230522
-0.218838
-0.207563
-0.52105
-0.509822
-0.49969
-0.489585
-0.478266
-0.465263
-0.450436
-0.433955
-0.416273
-0.397969
-0.379589
-0.36155
-0.344117
-0.327424
-0.311505
-0.296341
-0.281881
-0.268066
-0.254836
-0.24214
-0.229935
-0.218186
-0.206884
-0.19599
-0.541596
-0.528931
-0.517471
-0.505586
-0.491657
-0.475276
-0.456633
-0.436319
-0.415132
-0.39385
-0.373069
-0.353162
-0.334307
-0.316548
-0.299847
-0.284129
-0.269304
-0.255285
-0.241994
-0.229359
-0.217322
-0.20584
-0.194882
-0.184334
-0.561671
-0.547714
-0.534787
-0.520661
-0.503479
-0.483125
-0.460315
-0.436115
-0.411611
-0.387669
-0.364838
-0.343386
-0.323381
-0.304775
-0.287466
-0.271332
-0.256252
-0.242117
-0.228827
-0.216298
-0.204457
-0.193252
-0.182622
-0.172421
-0.580119
-0.565032
-0.550437
-0.533547
-0.512517
-0.487779
-0.460694
-0.432774
-0.405281
-0.379054
-0.354527
-0.331831
-0.310922
-0.291671
-0.27392
-0.257509
-0.242292
-0.228138
-0.214932
-0.202574
-0.190982
-0.180087
-0.169789
-0.159961
-0.59567
-0.579644
-0.563151
-0.542969
-0.517575
-0.48819
-0.456874
-0.425497
-0.395378
-0.367242
-0.341358
-0.317711
-0.29615
-0.276471
-0.258467
-0.241945
-0.226735
-0.212688
-0.199675
-0.187585
-0.176329
-0.16582
-0.155931
-0.146601
-0.355626
-0.356849
-0.357621
-0.358291
-0.359231
-0.360615
-0.362526
-0.364992
-0.368015
-0.371583
-0.375676
-0.380266
-0.385309
-0.390735
-0.396439
-0.402274
-0.40804
-0.41349
-0.418329
-0.42223
-0.424871
-0.425599
-0.424281
-0.420646
-0.364987
-0.365365
-0.365692
-0.366188
-0.367128
-0.368694
-0.370984
-0.374041
-0.377879
-0.382499
-0.387896
-0.394053
-0.400936
-0.408475
-0.416554
-0.425003
-0.43358
-0.441969
-0.449776
-0.45654
-0.461759
-0.46476
-0.464996
-0.461814
-0.37374
-0.373257
-0.373094
-0.373337
-0.374167
-0.375769
-0.378262
-0.381699
-0.386105
-0.391488
-0.39785
-0.405178
-0.413434
-0.422548
-0.432381
-0.442737
-0.453334
-0.463793
-0.473636
-0.482284
-0.489079
-0.493261
-0.494008
-0.490596
-0.3814
-0.380123
-0.37945
-0.379355
-0.379936
-0.381386
-0.383842
-0.387379
-0.392028
-0.397804
-0.404705
-0.412715
-0.421786
-0.431831
-0.442695
-0.45415
-0.465875
-0.477442
-0.488305
-0.497796
-0.505159
-0.509532
-0.510096
-0.505405
-0.387671
-0.385747
-0.384583
-0.38407
-0.384248
-0.385328
-0.387478
-0.390794
-0.395324
-0.401086
-0.408076
-0.416265
-0.425592
-0.435948
-0.447158
-0.458963
-0.471001
-0.482801
-0.49376
-0.50317
-0.510208
-0.513849
-0.513655
-0.507023
-0.392465
-0.390102
-0.3885
-0.387509
-0.387145
-0.387649
-0.389228
-0.392011
-0.396073
-0.401441
-0.408109
-0.416038
-0.425148
-0.435307
-0.446315
-0.457887
-0.469575
-0.480911
-0.491243
-0.499776
-0.505717
-0.507808
-0.506243
-0.497174
-0.395914
-0.393346
-0.391387
-0.389886
-0.388878
-0.388643
-0.389436
-0.391435
-0.394746
-0.399418
-0.40545
-0.412793
-0.421346
-0.430948
-0.441345
-0.452205
-0.463123
-0.473468
-0.482551
-0.48952
-0.493662
-0.493526
-0.489918
-0.478203
-0.398351
-0.395799
-0.393569
-0.391558
-0.389855
-0.388788
-0.38867
-0.38973
-0.39212
-0.395915
-0.401123
-0.407688
-0.415476
-0.424291
-0.433844
-0.443713
-0.453382
-0.462197
-0.469419
-0.474156
-0.475805
-0.472944
-0.46672
-0.452534
-0.400286
-0.397906
-0.395475
-0.392975
-0.390582
-0.388677
-0.387628
-0.387721
-0.389149
-0.392018
-0.396338
-0.402035
-0.408949
-0.416803
-0.425218
-0.433694
-0.441624
-0.448304
-0.452993
-0.454883
-0.453516
-0.447788
-0.438851
-0.422786
-0.402361
-0.400204
-0.397604
-0.39465
-0.391621
-0.388951
-0.387054
-0.386261
-0.3868
-0.388788
-0.392228
-0.397004
-0.402879
-0.409491
-0.416358
-0.422891
-0.428423
-0.432262
-0.433766
-0.432373
-0.427865
-0.419668
-0.408786
-0.39195
-0.405285
-0.403274
-0.400481
-0.397108
-0.393527
-0.390214
-0.387612
-0.386069
-0.385828
-0.386989
-0.38951
-0.393207
-0.39775
-0.402676
-0.407419
-0.411342
-0.413797
-0.414203
-0.4121
-0.407261
-0.39972
-0.389598
-0.377861
-0.361898
-0.409725
-0.40766
-0.4046
-0.400829
-0.396783
-0.392956
-0.389792
-0.387635
-0.386687
-0.386999
-0.388457
-0.390781
-0.393551
-0.396235
-0.398242
-0.398982
-0.39793
-0.394695
-0.389034
-0.380954
-0.370524
-0.358309
-0.344893
-0.330288
-0.413873
-0.400504
-0.381979
-0.358705
-0.331881
-0.303471
-0.276019
-0.252242
-0.23449
-0.224638
-0.223389
-0.229559
-0.239837
-0.248937
-0.250981
-0.242466
-0.221212
-0.190689
-0.157569
-0.128496
-0.107526
-0.0957384
-0.0922076
-0.0958345
-0.10724
-0.127617
-0.153734
-0.175438
-0.18101
-0.166389
-0.13954
-0.110865
-0.0877989
-0.0731019
-0.0657223
-0.0645014
-0.0709177
-0.0848725
-0.0990721
-0.102659
-0.0942488
-0.079248
-0.0654152
-0.0563245
-0.0521433
-0.0547844
-0.0627809
-0.067994
-0.0644493
-0.0570541
-0.0473967
-0.0406543
-0.0353251
-0.0321788
-0.0311894
-0.0297636
-0.0256162
-0.0211616
-0.0121983
-0.0019911
-0.456029
-0.440344
-0.418285
-0.390176
-0.357249
-0.321641
-0.28608
-0.253384
-0.226153
-0.206665
-0.196185
-0.194752
-0.199777
-0.206581
-0.209536
-0.203975
-0.188131
-0.164383
-0.138167
-0.11527
-0.0995256
-0.0921047
-0.0922489
-0.0992937
-0.114432
-0.138801
-0.168333
-0.191747
-0.196232
-0.179
-0.148513
-0.116423
-0.0904001
-0.073083
-0.0633573
-0.0598104
-0.0634525
-0.0745911
-0.0870049
-0.0908777
-0.0839988
-0.0718337
-0.0612385
-0.0548571
-0.0532989
-0.0585186
-0.0690307
-0.075706
-0.0712918
-0.0620454
-0.0498786
-0.0413192
-0.0339529
-0.0290958
-0.0270634
-0.0251464
-0.0220182
-0.0184326
-0.011157
-0.00215131
-0.485012
-0.467923
-0.442589
-0.410385
-0.372423
-0.330882
-0.288537
-0.248368
-0.213264
-0.185604
-0.166931
-0.157693
-0.15684
-0.160544
-0.163754
-0.161421
-0.151084
-0.134399
-0.115386
-0.0989897
-0.0887575
-0.0858485
-0.0896647
-0.100022
-0.118575
-0.14635
-0.178719
-0.203658
-0.207819
-0.188605
-0.155286
-0.12043
-0.0919639
-0.0723967
-0.0605688
-0.0548929
-0.0558952
-0.0642366
-0.0748149
-0.0787638
-0.0734938
-0.0640876
-0.0566225
-0.0529158
-0.0540513
-0.0619224
-0.0749727
-0.0831517
-0.0779097
-0.0667621
-0.052097
-0.0417976
-0.0325929
-0.0261564
-0.0230701
-0.0205809
-0.0184019
-0.0156667
-0.0101197
-0.00233287
-0.499522
-0.481719
-0.454447
-0.419458
-0.377928
-0.332037
-0.28473
-0.239072
-0.197946
-0.163736
-0.138185
-0.121994
-0.114876
-0.114567
-0.116953
-0.117368
-0.111859
-0.102176
-0.0901976
-0.080195
-0.075373
-0.0767438
-0.0839115
-0.0971587
-0.118554
-0.149163
-0.183997
-0.210563
-0.215149
-0.194887
-0.159665
-0.122805
-0.0925106
-0.0711611
-0.0575448
-0.0499956
-0.0485858
-0.0542437
-0.062938
-0.0667524
-0.0630224
-0.0561832
-0.0516514
-0.0504977
-0.0542952
-0.0647965
-0.0803771
-0.0901089
-0.0841601
-0.0711301
-0.0540231
-0.0420796
-0.031241
-0.023374
-0.0192507
-0.016111
-0.014804
-0.0128877
-0.00909571
-0.00253932
-0.500064
-0.481511
-0.453958
-0.418297
-0.375342
-0.327419
-0.27755
-0.228694
-0.183591
-0.144561
-0.113372
-0.091061
-0.0778243
-0.0725952
-0.0726901
-0.0742344
-0.0724176
-0.0692598
-0.0636038
-0.0594435
-0.0594886
-0.0645936
-0.0746124
-0.0902441
-0.113927
-0.146852
-0.183846
-0.212158
-0.217909
-0.197688
-0.161639
-0.12364
-0.0921589
-0.0695074
-0.0544565
-0.0453289
-0.0417907
-0.0449308
-0.0517462
-0.0552428
-0.0528581
-0.0482886
-0.0463963
-0.0475839
-0.0539207
-0.0669608
-0.0850115
-0.0963276
-0.0898696
-0.075075
-0.0556387
-0.0421639
-0.0298903
-0.0207552
-0.0156418
-0.0117798
-0.0112598
-0.0101184
-0.00809237
-0.00277357
-0.487896
-0.468447
-0.442344
-0.408332
-0.366344
-0.318953
-0.269193
-0.219722
-0.173004
-0.131173
-0.0958807
-0.0683295
-0.0492069
-0.0384099
-0.0346227
-0.0354728
-0.0380753
-0.0372911
-0.036562
-0.0373168
-0.0413756
-0.049548
-0.0618982
-0.0794491
-0.10491
-0.139599
-0.178419
-0.20858
-0.216021
-0.196953
-0.161226
-0.123038
-0.0910288
-0.0675468
-0.0514164
-0.0410114
-0.0356843
-0.0365426
-0.0415303
-0.044558
-0.0432534
-0.0405716
-0.0409273
-0.0441763
-0.052855
-0.0682609
-0.0886572
-0.101583
-0.0948821
-0.0785302
-0.05693
-0.0420497
-0.0285268
-0.0182983
-0.0122753
-0.00762409
-0.0077993
-0.00737942
-0.00711387
-0.00303719
-0.46567
-0.445196
-0.421804
-0.391247
-0.352312
-0.307817
-0.260659
-0.213026
-0.167019
-0.124538
-0.0870542
-0.0557044
-0.0314115
-0.014789
-0.00571976
-0.00308467
-0.00461503
-0.00681743
-0.00989178
-0.0143659
-0.02153
-0.0321028
-0.0462952
-0.0653612
-0.092157
-0.128087
-0.168334
-0.200271
-0.209833
-0.192822
-0.158552
-0.12113
-0.0892381
-0.0653683
-0.0484953
-0.037103
-0.0303196
-0.0291893
-0.0324684
-0.0349383
-0.0344188
-0.0331967
-0.0353435
-0.0403183
-0.0510573
-0.0685757
-0.0911456
-0.105686
-0.0990784
-0.0814364
-0.0578838
-0.0417389
-0.0271377
-0.0159923
-0.00916981
-0.00367306
-0.00444752
-0.00468882
-0.00616241
-0.00333143
-0.436451
-0.415247
-0.395417
-0.369344
-0.334864
-0.295021
-0.25232
-0.208387
-0.164969
-0.123715
-0.0859049
-0.0525531
-0.0245727
-0.00282537
0.0120237
0.0198918
0.0217556
0.0198015
0.0152057
0.00860095
-0.000653981
-0.0129762
-0.0286021
-0.048893
-0.076688
-0.113388
-0.154564
-0.188044
-0.199978
-0.185682
-0.153799
-0.118018
-0.0868647
-0.0630237
-0.0457274
-0.0336255
-0.0257091
-0.0228968
-0.0246263
-0.0265095
-0.0265446
-0.0263227
-0.0297631
-0.0360823
-0.0485368
-0.0678354
-0.0923762
-0.108519
-0.102353
-0.0837444
-0.0584962
-0.0412387
-0.0257275
-0.0138351
-0.00633096
5.41524e-05
-0.00122457
-0.00206262
-0.00523909
-0.00365745
-0.403626
-0.382759
-0.366879
-0.345324
-0.315836
-0.28158
-0.244312
-0.205074
-0.165358
-0.126615
-0.089949
-0.0562622
-0.0263876
-0.0011522
0.0185878
0.0320562
0.0389715
0.0401509
0.03687
0.03016
0.0201189
0.00680875
-0.00984269
-0.0311241
-0.0596889
-0.096815
-0.138372
-0.172981
-0.187178
-0.176016
-0.147292
-0.113939
-0.0841074
-0.060678
-0.0432411
-0.0306718
-0.0219015
-0.0176953
-0.0180279
-0.0192995
-0.0196337
-0.020081
-0.0243188
-0.0315637
-0.0452916
-0.0660271
-0.0923437
-0.110019
-0.104618
-0.0854386
-0.0588087
-0.040582
-0.0243244
-0.0118537
-0.0037896
0.00355389
0.00185521
0.000485039
-0.00434382
-0.00401645
-0.371139
-0.35225
-0.339968
-0.322013
-0.297262
-0.268667
-0.236934
-0.202582
-0.166905
-0.131201
-0.0965043
-0.0636095
-0.0332844
-0.00636237
0.0164245
0.0342953
0.0463504
0.0522363
0.0527445
0.0481791
0.0389958
0.0256649
0.00851514
-0.0134016
-0.0423417
-0.0793416
-0.12071
-0.155937
-0.172078
-0.164492
-0.139653
-0.109447
-0.0814663
-0.0587548
-0.0413546
-0.028466
-0.0190196
-0.0136151
-0.0126819
-0.0133323
-0.0137642
-0.0145992
-0.0190946
-0.0268715
-0.0414702
-0.0632176
-0.0910184
-0.110131
-0.105864
-0.0865216
-0.0588981
-0.0398322
-0.022944
-0.0100577
-0.0016184
0.00680787
0.00478276
0.00294178
-0.00347419
-0.00440969
-0.342507
-0.327528
-0.31779
-0.302146
-0.28158
-0.258229
-0.231688
-0.202082
-0.170452
-0.137946
-0.105579
-0.073968
-0.0438243
-0.015957
0.00881701
0.0296681
0.0456889
0.0568289
0.0615748
0.0605261
0.0540762
0.0421542
0.0253663
0.00331391
-0.0256836
-0.0624582
-0.103215
-0.138033
-0.155633
-0.151227
-0.130767
-0.104396
-0.0787843
-0.0570914
-0.0398613
-0.0267881
-0.0168391
-0.0103954
-0.00829168
-0.0084045
-0.00895205
-0.0101569
-0.0143147
-0.0220646
-0.0369271
-0.059454
-0.0886579
-0.108886
-0.106001
-0.0867995
-0.0586297
-0.0389358
-0.0214756
-0.00832599
0.000245254
0.00975344
0.00754003
0.00529867
-0.00262397
-0.00483843
-0.317373
-0.308644
-0.29944
-0.284407
-0.266936
-0.247797
-0.225831
-0.200834
-0.17343
-0.144446
-0.11474
-0.0850773
-0.0561983
-0.0288696
-0.00381315
0.0182765
0.0365346
0.0493198
0.0613639
0.0653086
0.0623693
0.0533439
0.0383616
0.0175032
-0.0102451
-0.0453311
-0.0840969
-0.117579
-0.134798
-0.133741
-0.118134
-0.0960134
-0.0732701
-0.0532194
-0.0367216
-0.0239832
-0.0140538
-0.00707388
-0.00405848
-0.00372449
-0.00448284
-0.00645972
-0.01003
-0.0176321
-0.0322713
-0.0549377
-0.0849187
-0.106228
-0.104291
-0.0858659
-0.0574055
-0.0374887
-0.0196232
-0.00643279
0.00221005
0.0124979
0.0101256
0.00752744
-0.00179568
-0.00531113
-0.289432
-0.294487
-0.283528
-0.266705
-0.249236
-0.231058
-0.210739
-0.187731
-0.162438
-0.135636
-0.1081
-0.0804946
-0.0534448
-0.0275914
-0.00353857
0.0181819
0.0371813
0.054352
0.0631671
0.0684851
0.0683384
0.0617559
0.0483917
0.0283778
0.000818798
-0.0349878
-0.0747946
-0.108017
-0.125212
-0.121932
-0.106572
-0.086041
-0.0652717
-0.0469801
-0.0317503
-0.0198387
-0.0103747
-0.00345631
-7.82625e-06
0.000805441
0.000386482
0.00153432
-0.00408828
-0.0112197
-0.0257793
-0.0493065
-0.081244
-0.104866
-0.104822
-0.0848048
-0.0554074
-0.0354403
-0.0175245
-0.00453554
0.004373
0.0155514
0.0126885
0.00973902
-0.000964519
-0.00585121
-0.261456
-0.270251
-0.260595
-0.243709
-0.226636
-0.209879
-0.191753
-0.171299
-0.148715
-0.124708
-0.0999731
-0.0750743
-0.0505274
-0.0268749
-0.00466944
0.0156402
0.0337382
0.048909
0.0593109
0.0655884
0.0667082
0.0616149
0.0497844
0.03118
0.00494687
-0.029168
-0.0661814
-0.095608
-0.108954
-0.105693
-0.0922521
-0.0746919
-0.0568442
-0.0408219
-0.0271104
-0.0161671
-0.00731124
-0.000574052
0.00309936
0.0041291
0.00370534
0.00407759
-0.00010972
-0.00651707
-0.0206159
-0.0443754
-0.0772241
-0.101881
-0.101515
-0.0820206
-0.0527162
-0.0329947
-0.0152881
-0.0026736
0.00630723
0.01779
0.0147825
0.0116321
-0.000228983
-0.00630426
-0.236297
-0.245279
-0.237622
-0.222293
-0.206421
-0.191199
-0.175135
-0.157079
-0.137021
-0.115564
-0.0933495
-0.0708852
-0.0486199
-0.0270295
-0.00660677
0.0122245
0.0290768
0.0431814
0.0535066
0.0597996
0.0612657
0.0569189
0.0462054
0.0290644
0.00506809
-0.0251128
-0.0564407
-0.0806177
-0.0914978
-0.0891827
-0.0784816
-0.0640898
-0.0489907
-0.0350372
-0.0227267
-0.0126676
-0.00440709
0.00206458
0.00585011
0.00709803
0.00670085
0.00691076
0.00319852
-0.00293704
-0.0168236
-0.0403931
-0.0725677
-0.097031
-0.0968911
-0.0782715
-0.0495832
-0.0302715
-0.0129528
-0.000756103
0.0081469
0.0198285
0.016669
0.013311
0.000488157
-0.0066682
-0.213215
-0.221572
-0.215735
-0.202428
-0.188034
-0.174201
-0.15987
-0.143917
-0.126162
-0.107072
-0.0872248
-0.0670822
-0.0470342
-0.0274831
-0.00886342
0.00841345
0.0238972
0.036897
0.0466898
0.0528054
0.054526
0.0509677
0.0416164
0.0264938
0.00570882
-0.0195801
-0.0452573
-0.0650818
-0.0744722
-0.0734479
-0.0654054
-0.0539154
-0.0413602
-0.029389
-0.0184723
-0.00930192
-0.00166039
0.00447787
0.00829268
0.00979603
0.00954897
0.00972849
0.00640852
0.000476291
-0.01317
-0.0359837
-0.0667246
-0.0908692
-0.0911782
-0.0735751
-0.0459405
-0.0272757
-0.0104984
0.00122415
0.00987858
0.0217042
0.018403
0.0148585
0.00124503
-0.00694875
-0.191556
-0.199546
-0.195142
-0.183721
-0.170885
-0.158436
-0.145698
-0.13167
-0.116065
-0.0992081
-0.0815974
-0.0636534
-0.0457205
-0.0281457
-0.0113204
0.00435132
0.018422
0.0303255
0.0394705
0.0453565
0.0473518
0.0447346
0.037081
0.024473
0.00727801
-0.0133418
-0.0341619
-0.0504379
-0.0587456
-0.0589579
-0.0533193
-0.0444465
-0.0341886
-0.0240322
-0.0144396
-0.0061277
0.000909075
0.00667581
0.0104453
0.0121974
0.0121756
0.0124272
0.00959275
0.00405326
-0.00894059
-0.0305645
-0.0598062
-0.0834674
-0.0842191
-0.067876
-0.0417867
-0.0240317
-0.00795449
0.00325148
0.0114861
0.023346
0.0199678
0.0162976
0.00205462
-0.00713426
-0.171801
-0.179289
-0.175904
-0.166143
-0.154869
-0.14383
-0.132604
-0.120341
-0.106711
-0.0919276
-0.0764046
-0.0605214
-0.0445897
-0.0289148
-0.0138431
0.000251178
0.0129493
0.0237854
0.0322487
0.0378713
0.040128
0.038463
0.0325451
0.0224609
0.00866217
-0.00776706
-0.0243552
-0.0376306
-0.0450303
-0.0462204
-0.0425447
-0.035855
-0.0275655
-0.019015
-0.0106571
-0.00317249
0.00328478
0.00866335
0.012323
0.0142925
0.0145723
0.0150239
0.0127432
0.00781317
-0.00413775
-0.024375
-0.0519535
-0.074787
-0.0760279
-0.0612354
-0.0371531
-0.020575
-0.00535418
0.00530615
0.012963
0.0247125
0.0213235
0.0176004
0.00291528
-0.00719193
-0.153883
-0.160613
-0.158015
-0.149748
-0.139976
-0.130316
-0.120512
-0.109856
-0.0980228
-0.0851427
-0.0715554
-0.0575959
-0.043545
-0.029671
-0.0162746
-0.00369204
0.0076994
0.0174958
0.0252655
0.0305959
0.0330609
0.032241
0.0278935
0.0201101
0.00935442
-0.00343332
-0.0164297
-0.0271686
-0.0336495
-0.0354155
-0.0331711
-0.0282025
-0.0215546
-0.0143946
-0.00716222
-0.000465086
0.00544609
0.0104453
0.0139502
0.0161001
0.0167385
0.0175152
0.0158436
0.0116601
0.000973205
-0.0176509
-0.0432462
-0.0649797
-0.0667633
-0.0537753
-0.0321012
-0.0169522
-0.00273609
0.00736287
0.014319
0.0257709
0.0224374
0.0187398
0.00384989
-0.00707477
-0.137312
-0.143412
-0.141511
-0.134573
-0.12618
-0.117812
-0.109325
-0.100132
-0.0899245
-0.0787815
-0.0669762
-0.0547983
-0.042497
-0.0303074
-0.0184893
-0.00733894
0.00281
0.0116108
0.0186974
0.0237193
0.0263336
0.0262298
0.0232444
0.0174718
0.00932215
-0.000445283
-0.010461
-0.0189991
-0.0244987
-0.0264637
-0.0251761
-0.0215067
-0.0161925
-0.0102103
-0.00397986
0.00197771
0.00737514
0.0120252
0.0153549
0.0176468
0.0186606
0.0198755
0.0188757
0.0155276
0.00628293
-0.0104757
-0.0338963
-0.0543397
-0.0566774
-0.0456852
-0.0267295
-0.0132203
-0.00014073
0.00939245
0.0155828
0.0265032
0.0233057
0.0197179
0.00490637
-0.00672285
-0.12211
-0.127706
-0.126375
-0.120582
-0.113422
-0.106239
-0.0989601
-0.0910916
-0.0823524
-0.0727835
-0.062604
-0.0520606
-0.0413717
-0.0307426
-0.0203955
-0.0105848
-0.00160059
0.00625989
0.012691
0.0174002
0.0201143
0.0206049
0.0187629
0.0146741
0.0086775
0.00138034
-0.00617269
-0.0128041
-0.0173026
-0.0191843
-0.0184749
-0.0157438
-0.0114866
-0.00648547
-0.00112786
0.00414761
0.00905777
0.0133968
0.0165594
0.0189592
0.0203261
0.0220442
0.0218269
0.0194527
0.0118049
-0.00303605
-0.0242834
-0.0432716
-0.0461245
-0.0372251
-0.0211716
-0.00944465
0.00239229
0.0113638
0.0168047
0.0269233
0.0239673
0.0205666
0.00614353
-0.00606537
-0.108374
-0.113403
-0.112497
-0.107694
-0.101641
-0.0955332
-0.0893478
-0.0826717
-0.0752498
-0.0670971
-0.0583884
-0.0493312
-0.0401145
-0.0309154
-0.0219231
-0.0133511
-0.00544558
0.00153956
0.00735086
0.0117479
0.0145132
0.0154762
0.0145627
0.0118483
0.00761275
0.00233652
-0.00320051
-0.0082195
-0.0117467
-0.0133587
-0.0129466
-0.0108634
-0.00742418
-0.00322863
0.00138239
0.00604322
0.0104898
0.0145457
0.0175714
0.0200559
0.0217329
0.0239366
0.0246517
0.0234476
0.0174325
0.00427686
-0.0149103
-0.0322628
-0.0355276
-0.0287061
-0.0155898
-0.00569636
0.00482769
0.0132473
0.0180528
0.0270903
0.0245082
0.0213434
0.00762066
-0.00503297
-0.0958451
-0.10034
-0.0997906
-0.0958574
-0.0907894
-0.0856436
-0.080435
-0.0748208
-0.0685711
-0.061682
-0.0542915
-0.0465728
-0.0386868
-0.0307839
-0.0230236
-0.0155856
-0.0086728
-0.00249554
0.00273522
0.00682139
0.00958997
0.0109118
0.0107389
0.00913522
0.00631734
0.00266162
-0.00122398
-0.0048943
-0.00752254
-0.00876671
-0.00845752
-0.00679895
-0.00397733
-0.000433507
0.00354682
0.00766556
0.0116781
0.015462
0.0183809
0.0209357
0.0228859
0.0254809
0.0271406
0.0272171
0.022718
0.0109285
-0.00626917
-0.0217777
-0.0253174
-0.0204602
-0.0101637
-0.0020528
0.0071374
0.0150175
0.0193919
0.0271128
0.0250603
0.0221295
0.0093777
-0.00358566
-0.0845429
-0.0885021
-0.088229
-0.0850334
-0.0808163
-0.0765152
-0.0721696
-0.0674923
-0.0622767
-0.0565051
-0.0502849
-0.0437595
-0.0370649
-0.0303272
-0.0236782
-0.0172665
-0.0112552
-0.00581901
-0.00113097
0.0026462
0.00537535
0.00695848
0.00736115
0.00663264
0.00493867
0.00255494
-0.000137516
-0.0025623
-0.00436812
-0.00520325
-0.0048715
-0.00347331
-0.00110668
0.00191775
0.00537029
0.00901709
0.0126331
0.0161465
0.0189761
0.0215782
0.0237631
0.0266314
0.0290086
0.0301334
0.0269092
0.0164005
0.00131198
-0.0121876
-0.0159087
-0.0128157
-0.00507303
0.00140249
0.00929858
0.0166543
0.0208465
0.027135
0.0257807
0.0230126
0.0113987
-0.00175165
-0.0741908
-0.0777484
-0.0776911
-0.0751182
-0.0716448
-0.068087
-0.0645011
-0.0606452
-0.0563345
-0.0515424
-0.0463517
-0.0408807
-0.0352421
-0.0295397
-0.023884
-0.0183968
-0.0131963
-0.00843309
-0.00424982
-0.000778066
0.00187361
0.00362907
0.004462
0.00441027
0.00360009
0.00223179
0.000589354
-0.00094037
-0.00204999
-0.00248355
-0.00205663
-0.000803463
0.00123573
0.00385112
0.0068663
0.0101044
0.0133637
0.0166076
0.0193478
0.0219604
0.0243174
0.0272625
0.0299925
0.0316669
0.0294226
0.020386
0.00761857
-0.00383453
-0.00765932
-0.00604591
-0.000470854
0.0045873
0.0112885
0.0181356
0.0223602
0.0273102
0.0267941
0.0240445
0.0135734
0.000334095
-0.0648806
-0.0680292
-0.0681243
-0.0660628
-0.0632258
-0.0603113
-0.0573882
-0.0542458
-0.0507197
-0.0467784
-0.0424855
-0.0379358
-0.0332224
-0.0284322
-0.023657
-0.0190081
-0.0145153
-0.010361
-0.00664724
-0.00347727
-0.000937043
0.000913192
0.0020525
0.00250645
0.00236766
0.00179106
0.000964871
0.0001576
-0.00037719
-0.000445274
0.000111076
0.00129538
0.00310342
0.0053992
0.00805449
0.0109383
0.0138796
0.0168581
0.0194913
0.0220674
0.0245168
0.0273023
0.0300297
0.0317645
0.0302233
0.0228452
0.0124573
0.00297352
-0.000810451
-0.000313009
0.00354355
0.00743643
0.0130861
0.0194248
0.0237759
0.0277326
0.0281122
0.0251982
0.0156779
0.00241647
-0.0564504
-0.0592326
-0.0594651
-0.0578577
-0.0555403
-0.0531288
-0.0507995
-0.0482714
-0.0454172
-0.0422067
-0.0386868
-0.0349345
-0.0310244
-0.0270244
-0.0230046
-0.0190288
-0.0152284
-0.0116407
-0.00836773
-0.00549664
-0.00309724
-0.00121789
0.000121378
0.000937614
0.00129917
0.00130184
0.00110349
0.000871267
0.000804926
0.00105241
0.00174535
0.00290664
0.00455301
0.0065994
0.00895905
0.0115349
0.0141911
0.0169096
0.0194113
0.0219028
0.0243772
0.0268741
0.0292988
0.0308076
0.0297209
0.0239598
0.0157876
0.00813602
0.00458305
0.00434969
0.00693221
0.00991058
0.0146724
0.0204758
0.0248761
0.0283332
0.0295571
0.0263299
0.0174088
0.0041841
-0.0488382
-0.051303
-0.0516391
-0.0504197
-0.0486067
-0.0467412
-0.0447893
-0.0427297
-0.0404271
-0.0378302
-0.0349669
-0.0318962
-0.0286781
-0.0253683
-0.022026
-0.0186806
-0.0154363
-0.0123442
-0.00947545
-0.00689571
-0.00466071
-0.00280848
-0.00135488
-0.000293581
0.000416787
0.000849393
0.00110888
0.00131847
0.00162118
0.00212867
0.00294796
0.0041098
0.00564158
0.00749196
0.0096077
0.0119148
0.0143122
0.0167775
0.0191146
0.0214594
0.0239792
0.0260184
0.0280455
0.0292406
0.0284291
0.0240691
0.0178176
0.0118042
0.00864126
0.00800922
0.00970443
0.0119925
0.0160205
0.0212392
0.0254951
0.0288301
0.0307143
0.0271381
0.0184756
0.00541185
-0.041988
-0.0441543
-0.0445472
-0.0436255
-0.0421874
-0.0406828
-0.0391716
-0.0375538
-0.0357207
-0.0336396
-0.0313314
-0.0288403
-0.0262127
-0.0234886
-0.0207036
-0.0179239
-0.0151836
-0.0125368
-0.0100391
-0.00774157
-0.00568947
-0.00391316
-0.00241054
-0.00119904
-0.000255396
0.000473385
0.00106133
0.0015946
0.00217462
0.00288459
0.00380886
0.00497851
0.00642518
0.00811843
0.01003
0.0121014
0.0142635
0.0164823
0.0186194
0.0206944
0.0224971
0.0247632
0.0264839
0.027399
0.0267656
0.0235426
0.0188675
0.0142633
0.0115895
0.0107873
0.0118926
0.0136781
0.0170855
0.0216597
0.0255958
0.0288616
0.0310645
0.0272463
0.0187047
0.00605298
-0.0358172
-0.0377102
-0.0381354
-0.0374571
-0.0363372
-0.0351587
-0.033984
-0.0327246
-0.0312895
-0.0296441
-0.0278023
-0.0257981
-0.0236683
-0.0214453
-0.01916
-0.0168479
-0.0145455
-0.0122923
-0.0101305
-0.00810062
-0.00624507
-0.0046125
-0.00308432
-0.00179941
-0.00071643
0.000204297
0.00101309
0.00177042
0.00254723
0.00340423
0.00440602
0.00557974
0.00695743
0.00851994
0.0102574
0.0121213
0.0140685
0.0160564
0.0179946
0.0198683
0.0215958
0.0234091
0.0248046
0.0254958
0.0249997
0.0226681
0.0192311
0.0157987
0.0136703
0.0128139
0.0135392
0.0149656
0.0178197
0.0216961
0.0251885
0.0281779
0.0302713
0.0264294
0.0181135
0.00619482
-0.030258
-0.0319107
-0.0323527
-0.0318719
-0.0310155
-0.0301079
-0.0292071
-0.0282415
-0.0271331
-0.0258485
-0.0243952
-0.0227991
-0.0210883
-0.0192877
-0.0174208
-0.0155123
-0.0135898
-0.0116826
-0.00982075
-0.00803026
-0.00633779
-0.00473058
-0.00336418
-0.00210318
-0.000966536
5.78283e-05
0.000999518
0.00189875
0.00280334
0.00375638
0.00480585
0.00597324
0.00728823
0.00873709
0.0103225
0.0120025
0.0137535
0.0155297
0.0172731
0.0189537
0.0205141
0.021998
0.0231194
0.023652
0.0232765
0.0216278
0.0191345
0.0166258
0.0150684
0.0141926
0.0146931
0.0158575
0.0181988
0.0213502
0.0243144
0.0267752
0.0284016
0.0247644
0.016883
0.00596164
-0.0252618
-0.026701
-0.0271452
-0.0268213
-0.02618
-0.0254942
-0.0248166
-0.0240896
-0.0232467
-0.0222572
-0.0211242
-0.0198665
-0.0185055
-0.0170595
-0.0155458
-0.0139817
-0.0123876
-0.0107848
-0.00919657
-0.00764758
-0.00614173
-0.0047219
-0.00340334
-0.00217333
-0.00103118
3.46641e-05
0.00104196
0.00201731
0.00299216
0.0039962
0.00506402
0.00621114
0.00746327
0.00880904
0.0102579
0.0117732
0.0133452
0.0149274
0.0164836
0.0179752
0.0193486
0.0205831
0.0214941
0.0219272
0.0216627
0.0205281
0.0187396
0.0168677
0.0151569
0.0149852
0.0154095
0.0163678
0.0182345
0.0206729
0.0230754
0.0246677
0.0258115
0.0225219
0.0152662
0.00548201
-0.0207771
-0.0220252
-0.0224602
-0.0222595
-0.0217923
-0.0212865
-0.0207893
-0.0202543
-0.0196258
-0.0188758
-0.0180045
-0.0170252
-0.0159538
-0.0148036
-0.0135867
-0.0123152
-0.0110036
-0.00966674
-0.00832183
-0.00698385
-0.00567998
-0.00441267
-0.00319629
-0.00203424
-0.000927331
0.000131742
0.00115252
0.0021521
0.00315039
0.00416705
0.00522627
0.00633804
0.00752331
0.00877189
0.0100955
0.011462
0.0128702
0.0142759
0.0156561
0.0169691
0.0181642
0.019207
0.0199652
0.0203424
0.0201816
0.0194333
0.0181802
0.0168663
0.0157326
0.0154682
0.0157689
0.0165307
0.0179677
0.0197482
0.0215981
0.0224979
0.0229492
0.0200056
0.0134988
0.00487893
-0.016753
-0.0178321
-0.0182504
-0.0181455
-0.0178179
-0.0174568
-0.017104
-0.0167225
-0.0162655
-0.0157084
-0.0150492
-0.0142973
-0.0134642
-0.0125593
-0.0115908
-0.0105671
-0.00949801
-0.00839442
-0.00726969
-0.00613517
-0.00500451
-0.00388508
-0.00278778
-0.00171689
-0.000675217
0.000340976
0.00133585
0.0023197
0.00330437
0.00430217
0.00532927
0.00639125
0.00750407
0.00865811
0.0098648
0.0110961
0.0123544
0.0136006
0.014819
0.0159689
0.0170067
0.0179008
0.0185492
0.0188995
0.0188335
0.0183721
0.0175242
0.0166429
0.0158743
0.0156364
0.0158275
0.016394
0.0174508
0.0186573
0.0199734
0.0203266
0.0201309
0.0174616
0.0117486
0.0042489
-0.0131473
-0.0140776
-0.014474
-0.0144421
-0.0142252
-0.0139796
-0.0137413
-0.0134812
-0.0131604
-0.0127573
-0.0122688
-0.0117013
-0.011063
-0.0103603
-0.00959867
-0.00878331
-0.00792099
-0.00701911
-0.00608736
-0.00513353
-0.00416638
-0.00319221
-0.00221991
-0.00125378
-0.000297536
0.000650307
0.00159069
0.00252911
0.00347186
0.00442603
0.00540172
0.00640114
0.0074357
0.00849617
0.00959199
0.0106998
0.0118219
0.0129244
0.0139957
0.0150011
0.0159048
0.0166824
0.0172523
0.0175913
0.017607
0.0173544
0.0168067
0.0162399
0.0157183
0.0155364
0.0156367
0.0160139
0.0167412
0.0174693
0.0182863
0.0182301
0.0175268
0.0150549
0.0101112
0.00365042
-0.00992236
-0.0107215
-0.0110923
-0.0111151
-0.0109854
-0.010831
-0.0106828
-0.0105179
-0.0103042
-0.0100233
-0.00967124
-0.00925228
-0.00877217
-0.00823525
-0.00764479
-0.00700376
-0.00631643
-0.00558758
-0.0048238
-0.00403079
-0.0032146
-0.00237966
-0.00153261
-0.000677467
0.000181623
0.00104476
0.00191115
0.00278323
0.00366361
0.00455562
0.00546503
0.00639168
0.00734289
0.00831031
0.00930035
0.0102937
0.0112921
0.0122665
0.0132073
0.0140855
0.0148713
0.01556
0.0160728
0.0164064
0.0164874
0.0163827
0.0160505
0.015701
0.0153531
0.0152276
0.0152438
0.0154488
0.0158961
0.0162437
0.0166163
0.016256
0.0152093
0.0128817
0.00863365
0.00311099
-0.00704349
-0.00772763
-0.00807107
-0.00813408
-0.00807236
-0.0079894
-0.00791144
-0.00782046
-0.00769047
-0.00750559
-0.00726188
-0.00696189
-0.00660954
-0.00620761
-0.00575793
-0.00526189
-0.00472186
-0.00414073
-0.0035226
-0.00287127
-0.00219226
-0.00148777
-0.000762237
-1.89205e-05
0.00073796
0.00150747
0.00228802
0.00308025
0.00388449
0.00470162
0.00553425
0.00638082
0.00724525
0.00811999
0.00900885
0.00989587