/*--------------------------------*- C++ -*----------------------------------*\
| =========                 |                                                 |
| \\      /  F ield         | OpenFOAM: The Open Source CFD Toolbox           |
|  \\    /   O peration     | Version:  2512                                  |
|   \\  /    A nd           | Website:  www.openfoam.com                      |
|    \\/     M anipulation  |                                                 |
\*---------------------------------------------------------------------------*/
FoamFile
{
    version     2.0;
    format      ascii;
    arch        "LSB;label=32;scalar=64";
    class       surfaceScalarField;
    location    "107.5";
    object      phi;
}
// * * * * * * * * * * * * * * * * * * * * * * * * * * * * * * * * * * * * * //

dimensions      [0 3 -1 0 0 0 0];

oriented        oriented;

internalField   nonuniform List<scalar> 
26232
(
4.73824e-05
0.00106154
-0.00110892
0.0004825
0.00194861
-0.00238373
0.00153417
0.00175181
-0.00280347
0.00339971
0.00050067
-0.00236621
0.00626346
-0.00180443
-0.00105932
0.0102985
-0.00517264
0.00113764
0.0156568
-0.00960491
0.00424656
0.0224485
-0.0150756
0.00828395
0.0307176
-0.0215155
0.0132464
0.0404159
-0.0288011
0.0191028
0.0513861
-0.0367533
0.0257831
0.0633585
-0.045145
0.0331726
0.0759651
-0.0537188
0.0411121
0.0887703
-0.0622095
0.0494043
0.101314
-0.0703692
0.0578259
0.11316
-0.0779906
0.0661446
0.123947
-0.0849256
0.0741383
0.133427
-0.0910974
0.0816172
0.141492
-0.0965
0.0884358
0.148158
-0.101199
0.0945321
0.153566
-0.105267
0.0998589
0.157839
-0.108913
0.104641
0.160921
-0.111814
0.108732
-0.115122
0.113272
0.162771
0.000100281
0.000961258
0.000712301
0.00133659
0.00209762
0.000366485
0.00448812
-0.00188983
0.00809346
-0.00540977
0.0130893
-0.0101685
0.0195928
-0.0161085
0.0276324
-0.0231152
0.0371205
-0.0310035
0.0478396
-0.0395203
0.0594499
-0.0483636
0.0715183
-0.0572134
0.0835658
-0.0657662
0.0951242
-0.073768
0.105793
-0.0810383
0.115286
-0.0874837
0.123458
-0.0930975
0.130308
-0.0979476
0.135962
-0.102153
0.14062
-0.105857
0.144546
-0.109193
0.147926
-0.112292
0.15124
-0.115128
-0.118259
0.154377
0.000187693
0.000773565
0.00106178
0.000462509
0.00290392
-0.00147566
0.005963
-0.00494891
0.0104451
-0.00989183
0.0164841
-0.0162075
0.0241048
-0.0237292
0.0331915
-0.0322019
0.0434771
-0.041289
0.0545608
-0.050604
0.065955
-0.0597579
0.0771505
-0.0684089
0.0876862
-0.0763019
0.0972092
-0.083291
0.105513
-0.0893421
0.112548
-0.0945182
0.118401
-0.0989509
0.12326
-0.102806
0.127356
-0.10625
0.130925
-0.109426
0.134165
-0.112433
0.137233
-0.11536
0.140253
-0.118149
-0.121179
0.143173
0.000301846
0.000471719
0.0015046
-0.000740248
0.00389384
-0.0038649
0.00770882
-0.00876388
0.0131106
-0.0152936
0.0201365
-0.0232333
0.0286605
-0.0322531
0.0383812
-0.0419227
0.0488497
-0.0517575
0.0595329
-0.0612872
0.0698986
-0.0701236
0.0794967
-0.078007
0.0880197
-0.0848249
0.095329
-0.0906003
0.101446
-0.0954594
0.106515
-0.0995873
0.110749
-0.103185
0.114375
-0.106433
0.1176
-0.109475
0.120583
-0.11241
0.123448
-0.115298
0.126269
-0.118181
0.129153
-0.121033
-0.124102
0.132077
0.000435414
3.63048e-05
0.00201232
-0.00231716
0.00499916
-0.00685174
0.00958995
-0.0133547
0.0158506
-0.0215543
0.0236663
-0.031049
0.0327211
-0.041308
0.0425301
-0.0517317
0.0525196
-0.061747
0.0621318
-0.0708994
0.0709191
-0.0789109
0.0786048
-0.0856927
0.085098
-0.091318
0.0904674
-0.0959697
0.0948884
-0.0998804
0.0985827
-0.103282
0.101768
-0.106369
0.104625
-0.10929
0.107291
-0.11214
0.10986
-0.114979
0.112397
-0.117835
0.114944
-0.120727
0.11755
-0.123639
-0.126704
0.120152
0.000582744
-0.000546439
0.00255928
-0.0042937
0.0061518
-0.0104443
0.0114658
-0.0186687
0.0184201
-0.0285085
0.026708
-0.0393369
0.0358238
-0.0504238
0.0451555
-0.0610634
0.0541103
-0.0707018
0.0622261
-0.0790152
0.0692357
-0.0859205
0.0750735
-0.0915304
0.0798352
-0.0960797
0.0837136
-0.0998481
0.0869336
-0.1031
0.0897037
-0.106052
0.0921905
-0.108856
0.094514
-0.111613
0.0967544
-0.114381
0.098964
-0.117188
0.101178
-0.120049
0.103418
-0.122968
0.105717
-0.125938
-0.129029
0.108042
0.000740233
-0.00128667
0.00312027
-0.00667374
0.00728098
-0.014605
0.0131922
-0.0245799
0.0205841
-0.0359005
0.0289519
-0.0477047
0.0376497
-0.0591216
0.0460371
-0.0694508
0.0536141
-0.0782788
0.0600966
-0.0854978
0.0654206
-0.0912444
0.0696917
-0.0958015
0.0731111
-0.0994992
0.075906
-0.102643
0.0782805
-0.105475
0.0803936
-0.108165
0.0823558
-0.110818
0.0842389
-0.113497
0.0860875
-0.116229
0.0879298
-0.119031
0.0897852
-0.121904
0.0916671
-0.12485
0.0935926
-0.127864
-0.13097
0.0955342
0.000901785
-0.00218846
0.00366546
-0.00943741
0.00830941
-0.0192489
0.0146259
-0.0308964
0.0221408
-0.0434153
0.0301874
-0.0557513
0.0380676
-0.0670018
0.045217
-0.0766002
0.0513036
-0.0843655
0.0562387
-0.0904328
0.0601208
-0.0951266
0.0631531
-0.0988338
0.0655657
-0.101912
0.0675641
-0.104641
0.0693056
-0.107216
0.0708977
-0.109757
0.0724083
-0.112329
0.0738779
-0.114966
0.0753317
-0.117683
0.076786
-0.120485
0.0782533
-0.123372
0.0797437
-0.12634
0.0812683
-0.129388
-0.132516
0.0828137
0.00105943
-0.00324789
0.00415997
-0.0125379
0.00915746
-0.0242464
0.0156411
-0.03738
0.0229511
-0.0507253
0.0303318
-0.063132
0.0371295
-0.0737995
0.0429294
-0.0824001
0.0475871
-0.0890232
0.0511745
-0.0940202
0.0538882
-0.0978402
0.0559618
-0.100907
0.0576068
-0.103557
0.0589852
-0.10602
0.0602066
-0.108438
0.0613386
-0.110889
0.0624207
-0.113411
0.063476
-0.116022
0.0645195
-0.118727
0.0655615
-0.121527
0.0666108
-0.124421
0.0676747
-0.127404
0.0687597
-0.130473
-0.133616
0.06986
0.0012031
-0.00445099
0.00456672
-0.0159016
0.00975313
-0.0294328
0.0161482
-0.0437751
0.0229585
-0.0575356
0.0294264
-0.0695999
0.0350182
-0.0793913
0.0394964
-0.0868783
0.0428794
-0.0924061
0.045344
-0.0964848
0.0471253
-0.0996215
0.0484443
-0.102226
0.0494733
-0.104586
0.0503289
-0.106875
0.0510827
-0.109192
0.0517752
-0.111581
0.0524294
-0.114065
0.0530591
-0.116651
0.0536741
-0.119342
0.0542818
-0.122135
0.0548888
-0.125028
0.0555012
-0.128017
0.0561233
-0.131096
-0.134249
0.0567566
0.00132239
-0.00577338
0.00485275
-0.0194319
0.0100443
-0.0346244
0.0161072
-0.049838
0.0221871
-0.0636155
0.0276021
-0.0750149
0.0319782
-0.0837675
0.0352436
-0.0901437
0.0375336
-0.0946961
0.0390765
-0.0980277
0.0401042
-0.100649
0.040804
-0.102926
0.0413053
-0.105087
0.0416871
-0.107257
0.0419943
-0.109499
0.0422508
-0.111838
0.0424704
-0.114285
0.0426622
-0.116843
0.0428333
-0.119513
0.0429893
-0.122291
0.0431353
-0.125174
0.0432754
-0.128157
0.0434115
-0.131232
-0.134386
0.0435479
0.001411
-0.00718438
0.0049974
-0.0230183
0.010008
-0.039635
0.0155297
-0.0553596
0.0207246
-0.0688104
0.0250398
-0.0793301
0.0282653
-0.0869929
0.03046
-0.0923384
0.0318282
-0.0960643
0.0326086
-0.0988081
0.0330068
-0.101048
0.0331704
-0.10309
0.0331912
-0.105108
0.033121
-0.107187
0.0329871
-0.109365
0.0328038
-0.111655
0.0325799
-0.114061
0.0323219
-0.116585
0.0320353
-0.119226
0.0317251
-0.121981
0.0313958
-0.124845
0.0310509
-0.127812
0.0306911
-0.130872
0.030323
-0.134017
-0.000131261
0.00271852
-0.00258726
-0.000519752
0.00681767
-0.00642918
-0.00116039
0.00994857
-0.00930794
-0.00203366
0.0122613
-0.011388
-0.00310871
0.0139111
-0.012836
-0.00434918
0.0150576
-0.0138171
-0.0057183
0.0158458
-0.0144767
-0.00718206
0.01639
-0.0149262
-0.00871044
0.0167658
-0.0152374
-0.010277
0.0170093
-0.0154428
-0.0118576
0.0171222
-0.0155415
-0.0134286
0.0170783
-0.0155074
-0.0149648
0.0168323
-0.0152961
-0.0164385
0.0163254
-0.0148518
-0.0178182
0.0154911
-0.0141114
-0.0190679
0.0142578
-0.0130081
-0.0201471
0.0125531
-0.0114738
-0.0210113
0.0103061
-0.00944192
-0.0216112
0.00745013
-0.00685023
-0.0219138
0.00393137
-0.00362875
-0.0218455
-0.00025628
0.000187915
-0.021341
-0.00511853
0.00461409
-0.0203983
-0.0106369
0.00969415
-0.0166504
-0.01907
0.0153221
-2.52488e-05
0.00274377
-0.000170954
0.00696338
-0.000477659
0.0102553
-0.000955997
0.0127396
-0.00159296
0.014548
-0.00235938
0.015824
-0.00321756
0.016704
-0.00412676
0.0172992
-0.00504721
0.0176862
-0.00594189
0.017904
-0.0067768
0.0179571
-0.00752021
0.0178217
-0.00814147
0.0174536
-0.00860987
0.0167938
-0.00889433
0.0157755
-0.00896197
0.0143255
-0.00877763
0.0123687
-0.00830486
0.00983332
-0.00750595
0.00665122
-0.00633632
0.00276174
-0.00475818
-0.00183442
-0.00270116
-0.00717555
-0.000132159
-0.0132059
-0.0197609
0.00297833
7.81068e-05
0.00266566
0.00017878
0.0068627
0.000224558
0.0102095
0.000178956
0.0127852
3.82003e-05
0.0146888
-0.000177003
0.0160392
-0.000429172
0.0169561
-0.000672498
0.0175425
-0.000858376
0.0178721
-0.0009393
0.0179849
-0.000870872
0.0178886
-0.000612347
0.0175632
-0.000126376
0.0169676
0.000621859
0.0160456
0.00166654
0.0147308
0.00303947
0.0129525
0.00477016
0.0106381
0.00688822
0.00771527
0.00942299
0.00411645
0.0123908
-0.000206099
0.0158479
-0.00529146
0.0198219
-0.0111495
0.0243412
-0.0177252
-0.0249343
0.0295146
0.00016671
0.00249895
0.000491915
0.0065375
0.000874532
0.00982688
0.00125992
0.0123998
0.00163043
0.0143183
0.00199839
0.0156712
0.00239771
0.0165568
0.00287607
0.0170642
0.00348766
0.0172605
0.00428782
0.0171848
0.00532955
0.0168469
0.00666175
0.016231
0.00832877
0.0153006
0.0103706
0.0140037
0.012823
0.0122784
0.0157189
0.0100567
0.0190888
0.00726809
0.022962
0.00384213
0.0273626
-0.000284148
0.0323204
-0.00516395
0.0378569
-0.0108279
0.0439963
-0.0172889
0.050719
-0.0244479
-0.0323886
0.0581733
0.000230772
0.00226818
0.000734319
0.00603395
0.00140311
0.00915809
0.00217481
0.0116281
0.00302309
0.01347
0.00395241
0.0147419
0.00499148
0.0155177
0.00618586
0.0158698
0.00759085
0.0158555
0.00926543
0.0155102
0.0112679
0.0148444
0.0136535
0.0138455
0.0164728
0.0124812
0.0197725
0.0107041
0.0235954
0.00845554
0.027982
0.00567012
0.0329671
0.00228292
0.0385955
-0.00178618
0.0448982
-0.0065869
0.0519042
-0.01217
0.0596283
-0.018552
0.0680804
-0.025741
0.077178
-0.0335456
-0.042313
0.0871024
0.000263686
0.00200449
0.000881032
0.0054166
0.001756
0.00828312
0.00283051
0.0105536
0.00407669
0.0122238
0.00549423
0.0133244
0.00710635
0.0139056
0.00895421
0.0140219
0.0110908
0.0137189
0.0135757
0.0130253
0.0164704
0.0119497
0.0198359
0.0104799
0.0237314
0.00858565
0.0282137
0.00622185
0.0333413
0.00332798
0.0391651
-0.000153765
0.0457517
-0.00430364
0.0531399
-0.00917442
0.0613741
-0.014821
0.0704758
-0.0212718
0.0804362
-0.0285124
0.0912076
-0.0365124
0.102627
-0.0449645
-0.0544666
0.11478
0.000263224
0.00174127
0.000921251
0.00475858
0.00190583
0.00729855
0.00317469
0.00928475
0.0047067
0.0106918
0.00650208
0.011529
0.00858138
0.0118263
0.0109825
0.0116208
0.0137569
0.0109445
0.0169652
0.00981701
0.0206745
0.0082404
0.0249558
0.00619868
0.0298843
0.00365713
0.0355247
0.000581418
0.0419729
-0.00312021
0.049296
-0.00747682
0.0575539
-0.0125616
0.0667981
-0.0184186
0.0770466
-0.0250696
0.0882676
-0.0324927
0.100381
-0.0406259
0.113205
-0.0493365
0.126514
-0.0582729
-0.0680255
0.140073
0.000232211
0.00150906
0.000861872
0.00412892
0.0018614
0.00629902
0.00321423
0.00793192
0.00491443
0.0089916
0.00697023
0.00947317
0.00940623
0.00939032
0.0122635
0.00876354
0.015598
0.00760999
0.0194791
0.00593597
0.0239868
0.00373262
0.0292071
0.000978445
0.0352376
-0.0023734
0.042182
-0.00636302
0.0501109
-0.011049
0.0591071
-0.016473
0.06921
-0.0226645
0.0804138
-0.0296223
0.0926496
-0.0373054
0.105763
-0.0456062
0.119539
-0.0544014
0.133614
-0.0634124
0.147744
-0.0724023
-0.0815385
0.161257
0.000178971
0.00133009
0.00072956
0.00357833
0.00167353
0.00535505
0.00302774
0.00657772
0.00481006
0.00720928
0.00704651
0.00723673
0.00977649
0.00666034
0.0130558
0.00548425
0.016957
0.00370872
0.0215683
0.00132474
0.0269905
-0.00168956
0.0333334
-0.00536448
0.0406977
-0.00973771
0.0491771
-0.0148424
0.0588286
-0.0207006
0.0696657
-0.0273101
0.081635
-0.0346338
0.0946023
-0.0425896
0.108344
-0.0510471
0.122548
-0.0598106
0.136837
-0.0686903
0.150744
-0.0773194
0.164007
-0.085665
-0.0932914
0.17576
0.000117283
0.0012128
0.000570093
0.00312552
0.00143385
0.00449129
0.00276489
0.00524668
0.00461382
0.00536035
0.00703586
0.00481469
0.010098
0.00359816
0.0138843
0.00169803
0.0184933
-0.000900299
0.0240361
-0.00421804
0.0306251
-0.00827864
0.0383628
-0.0131022
0.0473219
-0.0186967
0.0575277
-0.0250483
0.0689384
-0.0321112
0.081429
-0.0398007
0.0947836
-0.0479884
0.108698
-0.0565041
0.122791
-0.0651402
0.136647
-0.073666
0.149811
-0.0818549
0.161912
-0.0894203
0.172652
-0.0964051
-0.102131
0.181492
6.47794e-05
0.00114802
0.000442037
0.00274826
0.00126096
0.00367237
0.00262194
0.00388571
0.00461654
0.00336575
0.00733966
0.00209157
0.0108931
4.46947e-05
0.0153961
-0.00280495
0.0209658
-0.00646996
0.0277143
-0.0109665
0.0357279
-0.0162923
0.0450461
-0.0224203
0.05564
-0.0292906
0.0673956
-0.036804
0.0801046
-0.0448202
0.0934659
-0.053162
0.1071
-0.0616225
0.120578
-0.0699824
0.133458
-0.0780203
0.145351
-0.085559
0.155922
-0.092426
0.165096
-0.0985936
0.172667
-0.103977
-0.108255
0.178791
3.91024e-05
0.000403629
0.00127252
0.00279201
0.00509844
0.00832765
0.0126189
0.0180979
0.0248743
0.0330106
0.0425014
0.0532536
0.0650752
0.0776756
0.0906813
0.103664
0.11618
0.127814
0.13823
0.147203
0.154636
0.160683
0.165438
0.170456
-0.0170004
-0.0321485
0.030079
-0.01469
-0.0446166
0.0423063
-0.0122747
-0.0579109
0.0554955
-0.00989851
-0.0714304
0.0690542
-0.00770349
-0.0845716
0.0823766
-0.00573882
-0.0967559
0.0947913
-0.00381035
-0.107438
0.10551
-0.00140794
-0.115996
0.113593
0.00222604
-0.121473
0.117839
0.00810996
-0.122524
0.11664
0.0166543
-0.117187
0.108643
0.0278955
-0.103953
0.0927114
0.0411204
-0.0820185
0.0687936
0.0553539
-0.0517717
0.0375382
0.0698517
-0.014843
0.000345148
0.0841295
0.0264248
-0.0407026
0.0976438
0.0682343
-0.0817486
0.109481
0.105491
-0.117328
0.118657
0.134012
-0.143188
0.124732
0.152324
-0.158399
0.127934
0.16154
-0.164742
0.128351
0.16513
-0.165547
0.125565
0.168889
-0.166103
0.119895
0.176974
-0.171304
0.113727
0.184896
-0.178727
0.110698
0.178033
-0.175005
0.11302
0.142026
-0.144347
0.120295
0.0753613
-0.0826365
0.130373
-0.00715226
-0.00292633
0.140613
-0.0849665
0.0747267
0.148694
-0.142859
0.134778
0.153652
-0.177654
0.172697
0.155882
-0.193109
0.190878
0.155352
-0.196844
0.197374
0.151034
-0.201141
0.205459
0.143059
-0.211909
0.219885
0.134448
-0.218895
0.227506
0.129349
-0.19261
0.197709
0.129984
-0.124141
0.123506
0.135497
-0.022617
0.0171042
0.143424
0.0735823
-0.0815091
0.150947
0.148993
-0.156516
0.154932
0.196488
-0.200474
0.15305
0.229922
-0.228039
0.146164
0.262053
-0.255168
0.138504
0.259436
-0.251775
0.135101
0.221279
-0.217875
0.137478
0.103106
-0.105483
0.144014
-0.00862087
0.00208407
0.149311
-0.121999
0.116702
0.149425
-0.195884
0.19577
0.144762
-0.241245
0.245908
0.140336
-0.297735
0.302161
0.139742
-0.218958
0.219552
0.142486
-0.177023
0.174279
0.14391
0.00467919
-0.00610329
0.142863
0.131878
-0.13083
0.141136
0.217423
-0.215696
0.139579
0.371041
-0.369484
0.162686
-0.16127
0.00505791
-0.0342281
0.00673696
-0.0462957
0.00826257
-0.0594365
0.00939466
-0.0725625
0.0098587
-0.0850356
0.0094771
-0.0963743
0.00821335
-0.106174
0.00636289
-0.114145
0.00482412
-0.119935
0.00494953
-0.12265
0.00823951
-0.120477
0.0153788
-0.111092
0.0262583
-0.092898
0.0399146
-0.065428
0.0552211
-0.0301495
0.0712092
0.0104367
0.0869313
0.0525122
0.101306
0.0911161
0.113177
0.122141
0.121904
0.143597
0.127378
0.156066
0.129435
0.163073
0.127939
0.170385
0.123864
0.18105
0.119848
0.188911
0.118853
0.179028
0.122131
0.138749
0.128926
0.0685659
0.137457
-0.0156838
0.145644
-0.0931535
0.151622
-0.148837
0.154598
-0.180631
0.155155
-0.193665
0.153527
-0.195217
0.14862
-0.196233
0.140116
-0.203406
0.130831
-0.20961
0.125261
-0.18704
0.126105
-0.124985
0.13256
-0.0290715
0.141905
0.0642368
0.150792
0.140106
0.15572
0.191561
0.154519
0.231123
0.148201
0.268371
0.140949
0.266688
0.137402
0.224826
0.139038
0.10147
0.144823
-0.0144058
0.149652
-0.126827
0.149611
-0.195844
0.144764
-0.236398
0.140316
-0.293287
0.139722
-0.218364
0.142315
-0.179617
0.143597
0.00339737
0.142446
0.133029
0.140747
0.219122
0.139226
0.372562
0.164049
0.0308291
-0.0355427
0.0320533
-0.0475199
0.0329123
-0.0602955
0.0332224
-0.0728726
0.0327322
-0.0845455
0.0311194
-0.0947615
0.0280473
-0.103102
0.0234245
-0.109522
0.0177286
-0.114239
0.0122532
-0.117174
0.0090507
-0.117275
0.0101492
-0.11219
0.0164922
-0.099241
0.0276867
-0.0766225
0.0423726
-0.0448354
0.0592636
-0.00645428
0.0766323
0.0351436
0.0931863
0.0745621
0.107578
0.10775
0.118895
0.132281
0.126638
0.148322
0.130495
0.159216
0.130678
0.170203
0.128647
0.183081
0.126967
0.190591
0.127829
0.178167
0.131695
0.134882
0.137637
0.0626236
0.144368
-0.0224142
0.150335
-0.0991203
0.154167
-0.15267
0.15525
-0.181713
0.154248
-0.192663
0.151653
-0.192622
0.146392
-0.190972
0.137657
-0.194671
0.127854
-0.199806
0.12174
-0.180926
0.122572
-0.125818
0.129764
-0.0362636
0.140355
0.0536459
0.150537
0.129924
0.156465
0.185632
0.156115
0.231472
0.150543
0.273943
0.143781
0.273449
0.140062
0.228545
0.140843
0.100689
0.145749
-0.0193121
0.150065
-0.131143
0.149893
-0.195672
0.144869
-0.231374
0.140333
-0.288751
0.139727
-0.217758
0.142232
-0.182122
0.14343
0.00219945
0.142167
0.134291
0.140473
0.220817
0.13901
0.374025
0.165329
0.0588699
-0.0362392
0.0594957
-0.0481457
0.0597221
-0.0605219
0.0592489
-0.0723994
0.0579061
-0.0832027
0.0554715
-0.0923269
0.051617
-0.0992478
0.0459627
-0.103868
0.0383211
-0.106597
0.0292536
-0.108107
0.0204619
-0.108483
0.0146669
-0.106395
0.0143604
-0.0989345
0.0206611
-0.0829231
0.0327846
-0.0569589
0.0489225
-0.0225922
0.0671147
0.0169513
0.0852787
0.0563981
0.101831
0.0911977
0.115505
0.118606
0.125433
0.138394
0.131243
0.153405
0.133463
0.167983
0.133813
0.182731
0.134552
0.189852
0.137061
0.175657
0.141154
0.13079
0.146061
0.0577163
0.150881
-0.0272344
0.154605
-0.102844
0.156317
-0.154382
0.155615
-0.181011
0.153175
-0.190223
0.149697
-0.189144
0.144252
-0.185527
0.135591
-0.18601
0.125513
-0.189728
0.118816
-0.174229
0.1194
-0.126402
0.127078
-0.0439415
0.138722
0.0420018
0.150121
0.118526
0.157119
0.178635
0.157794
0.230797
0.153134
0.278604
0.146942
0.279641
0.143038
0.232449
0.142868
0.100859
0.146779
-0.023223
0.150528
-0.134892
0.150244
-0.195388
0.145053
-0.226183
0.14036
-0.284058
0.139728
-0.217126
0.142213
-0.184607
0.143396
0.0010159
0.14202
0.135668
0.140312
0.222524
0.138937
0.3754
0.166494
0.0874314
-0.0365682
0.0873935
-0.0481077
0.0866892
-0.0598176
0.0850905
-0.0708007
0.0825736
-0.0806857
0.0791169
-0.0888703
0.0746093
-0.0947402
0.0687845
-0.0980431
0.0611834
-0.098996
0.0514445
-0.0983677
0.0400757
-0.0971141
0.0291267
-0.0954465
0.0218036
-0.0916115
0.0210645
-0.082184
0.0279609
-0.0638553
0.0412076
-0.0358389
0.0587322
-0.00057323
0.0775919
0.0375384
0.0957176
0.0730721
0.111346
0.102978
0.123296
0.126443
0.131184
0.145518
0.135737
0.16343
0.138715
0.179752
0.141919
0.186648
0.1459
0.171677
0.150066
0.126623
0.153841
0.0539413
0.156806
-0.0301995
0.15835
-0.104388
0.157992
-0.154023
0.155627
-0.178647
0.151906
-0.186501
0.147637
-0.184876
0.142137
-0.180027
0.133822
-0.177695
0.123757
-0.179663
0.116535
-0.167008
0.116638
-0.126505
0.124477
-0.0517808
0.136945
0.0295344
0.149467
0.106003
0.157606
0.170496
0.159475
0.228928
0.155885
0.282194
0.150343
0.285182
0.146246
0.236546
0.145082
0.102023
0.147892
-0.0260332
0.151015
-0.138015
0.150637
-0.195009
0.145296
-0.220842
0.140375
-0.279138
0.139694
-0.216445
0.142229
-0.187141
0.143477
-0.000232235
0.141996
0.137149
0.140263
0.224257
0.139012
0.376651
0.167508
0.11463
-0.036418
0.113812
-0.04729
0.112027
-0.0580325
0.109148
-0.0679221
0.105282
-0.0768193
0.100543
-0.0841311
0.0950232
-0.0892207
0.0887704
-0.0917903
0.0816148
-0.0918404
0.0730107
-0.0897636
0.0623693
-0.0864727
0.0500382
-0.0831154
0.0382167
-0.07979
0.0305089
-0.0744761
0.0300921
-0.0634386
0.0378399
-0.0435866
0.0521922
-0.0149255
0.0702336
0.019497
0.088955
0.0543507
0.105979
0.0859541
0.119766
0.112656
0.129831
0.135454
0.136935
0.156326
0.142682
0.174005
0.148311
0.181019
0.153686
0.166302
0.157938
0.122372
0.160725
0.051154
0.161977
-0.0314516
0.161461
-0.103872
0.159118
-0.151681
0.155232
-0.17476
0.150402
-0.181672
0.145436
-0.17991
0.139952
-0.174543
0.132204
-0.169946
0.122467
-0.169927
0.114854
-0.159395
0.114285
-0.125935
0.12196
-0.0594567
0.134953
0.0165415
0.148482
0.0924743
0.157829
0.161149
0.16105
0.225707
0.158675
0.284569
0.153859
0.289999
0.149601
0.240805
0.147419
0.104204
0.149062
-0.0276755
0.151493
-0.140447
0.151036
-0.194552
0.145578
-0.215384
0.140363
-0.273922
0.139598
-0.21568
0.142249
-0.189792
0.143651
-0.00163478
0.142086
0.138714
0.140323
0.22602
0.139239
0.377735
0.168334
0.139058
-0.0354039
0.137173
-0.0454044
0.134079
-0.0549383
0.129772
-0.0636151
0.124485
-0.0715325
0.118421
-0.0780672
0.111785
-0.0825842
0.104803
-0.0848088
0.0976236
-0.0846609
0.090093
-0.082233
0.0815776
-0.0779572
0.0712588
-0.0727966
0.0592901
-0.0678214
0.0478562
-0.0630422
0.0407195
-0.0563019
0.0410826
-0.0439497
0.0495551
-0.0233981
0.0642976
0.00475451
0.0819274
0.0367209
0.0994319
0.0684496
0.114705
0.0973831
0.126937
0.123221
0.136683
0.14658
0.14521
0.165478
0.153165
0.173064
0.159859
0.159608
0.164299
0.117932
0.166337
0.0491162
0.166185
-0.0312998
0.163803
-0.10149
0.159625
-0.147503
0.154367
-0.169502
0.148618
-0.175922
0.14306
-0.174352
0.137617
-0.1691
0.130577
-0.162906
0.121468
-0.160818
0.113684
-0.15161
0.112333
-0.124585
0.119493
-0.0666169
0.132682
0.00335292
0.147067
0.0780895
0.157671
0.150544
0.16239
0.220989
0.161362
0.285596
0.157355
0.294006
0.152981
0.245179
0.149818
0.107367
0.15025
-0.028107
0.151928
-0.142125
0.151406
-0.19403
0.145877
-0.209855
0.140314
-0.26836
0.139419
-0.214785
0.142239
-0.192612
0.143896
-0.00329181
0.142281
0.140329
0.14049
0.227812
0.139622
0.378603
0.168935
0.158978
-0.0331249
0.155716
-0.0421427
0.151129
-0.0503518
0.145366
-0.0578513
0.138736
-0.0649029
0.131482
-0.0708133
0.123887
-0.0749894
0.116269
-0.0771907
0.108889
-0.077281
0.101867
-0.0752104
0.0950093
-0.0710997
0.0875879
-0.0653752
0.0786411
-0.0588745
0.0681379
-0.052539
0.0581211
-0.0462851
0.0522154
-0.038044
0.0534304
-0.0246131
0.0622564
-0.00407143
0.0764217
0.0225555
0.092809
0.0520623
0.108711
0.0814808
0.122733
0.1092
0.134941
0.134372
0.146083
0.154335
0.156194
0.162953
0.164138
0.151664
0.168914
0.113156
0.170497
0.0475336
0.169246
-0.0300486
0.165267
-0.0975111
0.159445
-0.141681
0.152973
-0.16303
0.146493
-0.169442
0.140463
-0.168322
0.135055
-0.163693
0.128782
-0.156632
0.120549
-0.152586
0.112858
-0.143919
0.110721
-0.122447
0.117054
-0.07295
0.130076
-0.00966883
0.145132
0.0630334
0.157016
0.138661
0.163345
0.214659
0.163784
0.285157
0.160669
0.297121
0.156243
0.249605
0.152202
0.111407
0.151412
-0.0273161
0.152282
-0.142996
0.151704
-0.193451
0.146165
-0.204316
0.140224
-0.262419
0.139142
-0.213703
0.142168
-0.195639
0.144188
-0.00531099
0.142572
0.141945
0.140762
0.229621
0.140164
0.379202
0.16927
0.172214
-0.0295789
0.1676
-0.0375285
0.161678
-0.0444298
0.154772
-0.0509452
0.147184
-0.057315
0.139134
-0.0627632
0.130942
-0.0667971
0.122968
-0.0692172
0.115518
-0.0698312
0.108803
-0.0684955
0.102893
-0.0651896
0.0975341
-0.060016
0.0919367
-0.0532771
0.0850796
-0.0456819
0.0768151
-0.0380207
0.0689116
-0.0301405
0.0646252
-0.0203268
0.0666986
-0.00614475
0.0752212
0.0140328
0.0883386
0.0389449
0.103312
0.0665072
0.11814
0.0943715
0.132178
0.120335
0.145476
0.141038
0.157414
0.151014
0.166494
0.142584
0.171736
0.107914
0.173191
0.0460784
0.171088
-0.0279457
0.165742
-0.0921645
0.158476
-0.134416
0.150949
-0.155504
0.143922
-0.162415
0.137563
-0.161963
0.132175
-0.158305
0.126658
-0.151115
0.119484
-0.145412
0.112162
-0.136597
0.109333
-0.119618
0.114626
-0.0782422
0.127108
-0.0221516
0.142604
0.0475373
0.155743
0.125523
0.163789
0.206613
0.165803
0.283142
0.163658
0.299266
0.159275
0.253988
0.154471
0.116212
0.152499
-0.0253449
0.152514
-0.143011
0.151883
-0.19282
0.14641
-0.198843
0.140091
-0.2561
0.138762
-0.212373
0.142004
-0.198881
0.144501
-0.00780745
0.142948
0.143498
0.141139
0.231429
0.140868
0.379473
0.169298
0.177249
-0.0253364
0.171786
-0.0320656
0.165116
-0.0377593
0.15772
-0.0435499
0.149804
-0.0493987
0.141549
-0.0545083
0.133281
-0.0585287
0.125346
-0.0612824
0.118051
-0.0625365
0.111655
-0.0620995
0.106345
-0.0598797
0.10214
-0.0558109
0.0987301
-0.049867
0.0953513
-0.0423032
0.0910044
-0.0336738
0.0854159
-0.0245519
0.079991
-0.0149018
0.07761
-0.00376374
0.0802576
0.0113852
0.0884238
0.0307787
0.100534
0.0543974
0.114582
0.0803231
0.129292
0.105625
0.143927
0.126403
0.157177
0.137764
0.167189
0.132573
0.172994
0.102108
0.174529
0.0445436
0.171748
-0.0251645
0.165168
-0.0855846
0.156643
-0.125891
0.148217
-0.147077
0.140807
-0.155006
0.134283
-0.155438
0.128913
-0.152935
0.124082
-0.146284
0.11808
-0.13941
0.111386
-0.129903
0.108028
-0.116261
0.112157
-0.0823709
0.123776
-0.0337709
0.13944
0.0318741
0.153759
0.111203
0.163552
0.19682
0.167217
0.279477
0.166153
0.300331
0.161944
0.258196
0.156558
0.121598
0.153471
-0.0222576
0.152597
-0.142137
0.151901
-0.192124
0.146584
-0.193526
0.139926
-0.249441
0.138289
-0.210737
0.141716
-0.202308
0.144809
-0.0109012
0.143398
0.144909
0.141619
0.233209
0.141738
0.379354
0.168978
0.174655
-0.0211999
0.169057
-0.0264679
0.162411
-0.0311137
0.155231
-0.0363698
0.147587
-0.0417544
0.139671
-0.0465925
0.131792
-0.0506498
0.124252
-0.0537424
0.11735
-0.0556338
0.111379
-0.0561293
0.106577
-0.0550775
0.103038
-0.0522718
0.100707
-0.0475357
0.0992532
-0.0408495
0.0980076
-0.0324281
0.0961901
-0.0227345
0.0935847
-0.0122963
0.0913257
-0.00150477
0.0906384
0.0120725
0.0941569
0.0272603
0.102147
0.0464077
0.113631
0.0688389
0.127368
0.0918877
0.14207
0.111701
0.15577
0.124064
0.166382
0.12196
0.172986
0.0955044
0.174807
0.0427232
0.171493
-0.0218504
0.163819
-0.0779114
0.154246
-0.116318
0.14509
-0.137921
0.13741
-0.147326
0.130844
-0.148872
0.125463
-0.147554
0.121146
-0.141967
0.116312
-0.134576
0.110444
-0.124035
0.106722
-0.112539
0.109612
-0.0852613
0.120088
-0.0442472
0.135586
0.0163769
0.150984
0.0958048
0.162629
0.185175
0.16805
0.274056
0.168067
0.300314
0.16416
0.262104
0.158425
0.127333
0.154338
-0.0181714
0.152559
-0.140357
0.151761
-0.191327
0.146678
-0.188444
0.139757
-0.242521
0.137754
-0.208734
0.141288
-0.205842
0.145085
-0.0146982
0.143911
0.146083
0.142202
0.234918
0.142776
0.378779
0.168268
0.166959
-0.0177034
0.161703
-0.0212113
0.155909
-0.02532
0.149595
-0.0300561
0.142817
-0.0349767
0.13586
-0.0396348
0.128974
-0.0437646
0.122397
-0.0471648
0.116373
-0.0496095
0.111114
-0.0508704
0.106776
-0.0507402
0.103515
-0.04901
0.101468
-0.0454894
0.100669
-0.0400506
0.100901
-0.0326598
0.101602
-0.0234357
0.10206
-0.0127545
0.101529
-0.000973316
0.101907
0.0116946
0.103777
0.0253898
0.108627
0.0415578
0.116882
0.0605845
0.128133
0.0806367
0.141292
0.0985413
0.154419
0.110937
0.165474
0.110905
0.17286
0.0881187
0.174976
0.0406074
0.17061
-0.0174844
0.161766
-0.0690682
0.151464
-0.106016
0.141905
-0.128362
0.134096
-0.139517
0.127572
-0.142348
0.122136
-0.142118
0.118078
-0.137908
0.114266
-0.130763
0.109338
-0.119108
0.10542
-0.10862
0.107109
-0.0869506
0.116226
-0.0533644
0.131217
0.00138594
0.147276
0.0797462
0.16057
0.171881
0.167853
0.266773
0.16915
0.299016
0.165755
0.265499
0.159987
0.133102
0.15504
-0.0132244
0.152401
-0.137718
0.151475
-0.190401
0.146683
-0.183651
0.139596
-0.235434
0.13717
-0.206307
0.140767
-0.20944
0.145313
-0.0192433
0.144477
0.146918
0.142884
0.236511
0.143982
0.377681
0.167121
0.202796
-0.0143632
-0.206136
0.200291
-0.0187064
0.197478
-0.0225067
0.194077
-0.0266553
0.190042
-0.0309414
0.185444
-0.0350372
0.180372
-0.0386927
0.1749
-0.041692
0.169121
-0.0438308
0.163157
-0.0449063
0.157136
-0.0447194
0.151202
-0.0430758
0.145507
-0.0397948
0.140191
-0.0347345
0.135342
-0.0278107
0.130907
-0.0190011
0.126638
-0.00848472
0.122053
0.00361073
0.117254
0.0164939
0.11281
0.0298339
0.109997
0.0443714
0.110266
0.0603149
0.114639
0.0762637
0.123242
0.0899386
0.135809
0.0983706
0.152328
0.0943859
0.170846
0.0696011
0.185864
0.0255886
0.193663
-0.0252828
0.193959
-0.0693646
0.188926
-0.100982
0.181035
-0.120471
0.172371
-0.130854
0.163702
-0.133679
0.155287
-0.133703
0.147766
-0.130388
0.140677
-0.123675
0.132491
-0.110921
0.123989
-0.100119
0.119091
-0.0820526
0.120163
-0.0544366
0.126053
-0.00450373
0.132495
0.0733037
0.137327
0.167049
0.140515
0.263585
0.144391
0.29514
0.149927
0.259963
0.155151
0.127877
0.15802
-0.0160932
0.158446
-0.138144
0.156455
-0.188409
0.15069
-0.177887
0.14195
-0.226694
0.136377
-0.200734
0.13512
-0.208182
0.134704
-0.0188274
0.131572
0.15005
0.129009
0.239075
0.131148
0.375541
0.165496
0.211662
-0.011846
-0.214179
0.208927
-0.0159711
0.206156
-0.0197359
0.202913
-0.0234122
0.19909
-0.0271187
0.194747
-0.0306941
0.189959
-0.0339044
0.184801
-0.0365344
0.179367
-0.0383968
0.173773
-0.0393122
0.168153
-0.039099
0.162653
-0.0375764
0.15743
-0.0345719
0.152637
-0.029941
0.148413
-0.0235871
0.144853
-0.0154406
0.141827
-0.0054586
0.139182
0.00625517
0.136663
0.0190133
0.134326
0.0321706
0.132964
0.0457337
0.13393
0.0593483
0.138414
0.0717802
0.146917
0.0814349
0.159566
0.0857222
0.175731
0.0782212
0.192218
0.0531141
0.204303
0.0135036
0.209046
-0.0300257
0.207104
-0.0674227
0.20059
-0.0944688
0.191769
-0.11165
0.182551
-0.121635
0.173637
-0.124765
0.165007
-0.125073
0.157182
-0.122563
0.15016
-0.116652
0.142373
-0.103134
0.133854
-0.0915994
0.128152
-0.0763516
0.128308
-0.0545919
0.133803
-0.00999917
0.140686
0.0664209
0.146339
0.161396
0.150512
0.259412
0.155574
0.290078
0.16224
0.253297
0.16806
0.122058
0.170777
-0.0188105
0.170388
-0.137754
0.167643
-0.185665
0.161248
-0.171492
0.151784
-0.217229
0.145309
-0.19426
0.143792
-0.206665
0.143586
-0.0186211
0.140295
0.15334
0.137576
0.241794
0.140265
0.372852
0.163592
0.220307
-0.00992379
-0.222229
0.217845
-0.0135091
0.215107
-0.016998
0.212008
-0.020313
0.208428
-0.0235392
0.204366
-0.0266318
0.199882
-0.0294211
0.195057
-0.031709
0.189979
-0.0333185
0.184756
-0.0340892
0.179517
-0.0338606
0.174411
-0.0324702
0.1696
-0.0297604