/*--------------------------------*- C++ -*----------------------------------*\
| =========                 |                                                 |
| \\      /  F ield         | OpenFOAM: The Open Source CFD Toolbox           |
|  \\    /   O peration     | Version:  2512                                  |
|   \\  /    A nd           | Website:  www.openfoam.com                      |
|    \\/     M anipulation  |                                                 |
\*---------------------------------------------------------------------------*/
FoamFile
{
    version     2.0;
    format      ascii;
    arch        "LSB;label=32;scalar=64";
    class       surfaceScalarField;
    location    "65.25";
    object      phi;
}
// * * * * * * * * * * * * * * * * * * * * * * * * * * * * * * * * * * * * * //

dimensions      [0 3 -1 0 0 0 0];

oriented        oriented;

internalField   nonuniform List<scalar> 
26232
(
6.37682e-05
0.00089115
-0.000954918
0.000381569
0.00158011
-0.00189791
0.00109016
0.00135073
-0.00205932
0.00233225
0.000276752
-0.00151885
0.00425592
-0.00159878
-0.00032489
0.00701013
-0.00425083
0.00149662
0.0107365
-0.00766194
0.00393559
0.0155572
-0.0118094
0.00698871
0.0215605
-0.0166527
0.0106494
0.0287859
-0.0221237
0.0148982
0.0372124
-0.0281226
0.0196961
0.046752
-0.0345196
0.02498
0.0572511
-0.0411623
0.0306631
0.0684997
-0.0478868
0.0366382
0.080247
-0.0545316
0.0427843
0.0922221
-0.06095
0.0489749
0.104156
-0.0670213
0.0550874
0.115804
-0.0726595
0.0610117
0.126963
-0.0778145
0.0666557
0.137487
-0.0824828
0.0719584
0.147283
-0.086669
0.0768731
0.156339
-0.0904817
0.0814255
0.164609
-0.0938432
0.0855738
-0.0971607
0.0898118
0.171957
0.000117907
0.000773243
0.000625512
0.00107251
0.00168416
0.000292084
0.00345793
-0.00149702
0.00611099
-0.00425185
0.00979794
-0.00793777
0.0146477
-0.0125117
0.0207444
-0.017906
0.0281074
-0.0240157
0.0366778
-0.0306941
0.0463133
-0.0377581
0.0567948
-0.0450011
0.0678443
-0.0522118
0.0791516
-0.0591941
0.0904042
-0.0657842
0.101318
-0.0718637
0.111662
-0.0773657
0.121279
-0.0822758
0.13009
-0.0866262
0.138096
-0.0904882
0.145375
-0.0939481
0.152038
-0.0971447
0.158266
-0.100071
-0.103158
0.164263
0.000181797
0.000591446
0.000909319
0.000344985
0.00236943
-0.00116802
0.00474437
-0.00387195
0.00820405
-0.00771153
0.0128871
-0.0126208
0.0188756
-0.0185003
0.0261708
-0.0252012
0.0346759
-0.0325207
0.0441933
-0.0402115
0.0544395
-0.0480043
0.0650744
-0.0556359
0.07574
-0.0628774
0.0861019
-0.0695561
0.0958854
-0.0755677
0.104901
-0.0808792
0.113057
-0.0855216
0.120357
-0.0895764
0.126888
-0.0931572
0.132792
-0.0963925
0.138247
-0.0994032
0.143416
-0.102313
0.148491
-0.105146
-0.108196
0.153529
0.000260946
0.000330501
0.00124715
-0.000641215
0.00316543
-0.00308631
0.00620498
-0.0069115
0.0105193
-0.0120259
0.0161958
-0.0182973
0.0232245
-0.0255289
0.0314767
-0.0334535
0.0407051
-0.0417492
0.0505671
-0.0500735
0.0606679
-0.0581052
0.0706142
-0.0655822
0.0800649
-0.0723281
0.0887704
-0.0782616
0.0965943
-0.0833915
0.103514
-0.087799
0.109605
-0.0916129
0.115013
-0.0949836
0.119915
-0.0980598
0.124495
-0.100972
0.128912
-0.103821
0.13329
-0.10669
0.137731
-0.109587
-0.112709
0.142244
0.000358678
-2.81774e-05
0.00164489
-0.00192742
0.00407208
-0.0055135
0.00781457
-0.010654
0.012975
-0.0171863
0.0195447
-0.024867
0.0273755
-0.0333598
0.0361799
-0.0422578
0.045563
-0.0511322
0.0550815
-0.0595921
0.0643124
-0.0673361
0.0729135
-0.0741833
0.0806636
-0.0800781
0.0874758
-0.0850738
0.0933852
-0.0893009
0.0985177
-0.0929314
0.103049
-0.0961448
0.107169
-0.0991029
0.111046
-0.101937
0.114815
-0.104741
0.118573
-0.10758
0.122378
-0.110495
0.126276
-0.113486
-0.11668
0.130247
0.000475276
-0.000503453
0.00209749
-0.00354964
0.00506434
-0.00848035
0.00950273
-0.0150924
0.015421
-0.0231046
0.0226697
-0.0321156
0.0309353
-0.0416254
0.0397794
-0.051102
0.0487131
-0.0600659
0.0572822
-0.0681611
0.0651391
-0.075193
0.0720832
-0.0811274
0.0780651
-0.0860601
0.0831605
-0.0901691
0.0875261
-0.0936666
0.0913528
-0.0967581
0.0948256
-0.0996176
0.0980994
-0.102377
0.101289
-0.105126
0.104473
-0.107924
0.107697
-0.110804
0.110987
-0.113785
0.114369
-0.116867
-0.12012
0.117809
0.000608162
-0.00111162
0.0025884
-0.00552988
0.00609223
-0.0119842
0.0111585
-0.0201587
0.0176576
-0.0296037
0.0252708
-0.0397288
0.0335276
-0.0498822
0.0418938
-0.0594682
0.0498765
-0.0680487
0.05711
-0.0753945
0.0633981
-0.0814811
0.0687118
-0.0864412
0.0731509
-0.0904992
0.0768898
-0.093908
0.080125
-0.0969018
0.0830366
-0.0996697
0.0857678
-0.102349
0.0884208
-0.10503
0.0910619
-0.107768
0.0937313
-0.110594
0.0964516
-0.113524
0.0992335
-0.116567
0.102087
-0.119721
-0.123018
0.104985
0.000751651
-0.00186327
0.00309094
-0.00786917
0.00708631
-0.0159795
0.0126466
-0.025719
0.0194727
-0.0364298
0.0270796
-0.0473356
0.0348899
-0.0576925
0.0423602
-0.0669385
0.0490865
-0.0747749
0.0548557
-0.0811638
0.05964
-0.0862654
0.0635485
-0.0903497
0.0667648
-0.0937154
0.0694887
-0.0966319
0.0718979
-0.099311
0.0741296
-0.101901
0.0762786
-0.104498
0.0784051
-0.107156
0.0805447
-0.109907
0.0827175
-0.112766
0.0849335
-0.11574
0.0871971
-0.118831
0.0895119
-0.122036
-0.125362
0.0918563
0.000897815
-0.00276108
0.00357127
-0.0105426
0.00796708
-0.0203754
0.0138298
-0.0315817
0.0206846
-0.0432846
0.0279196
-0.0545706
0.0349293
-0.0647022
0.0412478
-0.073257
0.0466188
-0.0801458
0.0509932
-0.0855383
0.054476
-0.0897481
0.0572534
-0.0931271
0.0595292
-0.0959912
0.0614826
-0.0985853
0.0632496
-0.101078
0.0649226
-0.103574
0.0665588
-0.106134
0.0681914
-0.108789
0.0698389
-0.111555
0.071511
-0.114439
0.0732125
-0.117442
0.0749452
-0.120563
0.0767089
-0.123799
-0.127143
0.0784896
0.00103689
-0.00379797
0.00399215
-0.0134979
0.00865647
-0.0250397
0.0145935
-0.0375187
0.021177
-0.0498681
0.0277354
-0.061129
0.0337167
-0.0706835
0.0387904
-0.0783307
0.0428604
-0.0842159
0.0460104
-0.0886882
0.0484227
-0.0921605
0.0503055
-0.0950099
0.0518433
-0.097529
0.0531761
-0.0999181
0.054398
-0.1023
0.0555662
-0.104743
0.0567136
-0.107281
0.0578578
-0.109933
0.0590088
-0.112706
0.0601717
-0.115601
0.0613486
-0.118619
0.06254
-0.121755
0.0637438
-0.125003
-0.128351
0.0649524
0.00115867
-0.00495664
0.00431856
-0.0166578
0.00909047
-0.0298116
0.0148642
-0.0432925
0.0209135
-0.0559174
0.0265829
-0.0667984
0.0314347
-0.0755353
0.0352929
-0.0821889
0.0381973
-0.0871203
0.040316
-0.0908068
0.0418592
-0.0937037
0.0430206
-0.0961713
0.0439488
-0.0984573
0.044744
-0.100713
0.0454666
-0.103023
0.0461506
-0.105427
0.0468141
-0.107945
0.0474672
-0.110586
0.0481154
-0.113354
0.0487618
-0.116248
0.0494073
-0.119264
0.0500513
-0.122399
0.0506903
-0.125642
-0.128982
0.0513206
0.00125635
-0.00621299
0.00452533
-0.0199267
0.00922972
-0.034516
0.0146183
-0.0486811
0.0199325
-0.0612316
0.0245979
-0.0714638
0.0283198
-0.0792573
0.0310626
-0.0849316
0.032961
-0.0890187
0.0342216
-0.0920674
0.0350481
-0.0945303
0.0356025
-0.0967257
0.0359957
-0.0988504
0.0362947
-0.101012
0.036537
-0.103265
0.0367419
-0.105632
0.0369198
-0.108123
0.0370766
-0.110743
0.0372159
-0.113493
0.0373399
-0.116372
0.0374494
-0.119374
0.0375435
-0.122493
0.0376186
-0.125717
0.0376742
-0.129037
-0.000215277
-0.000928214
0.00114349
-0.000756378
-0.00239239
0.00293349
-0.00155788
-0.00356484
0.00436634
-0.00256849
-0.00448113
0.00549174
-0.00374651
-0.00518464
0.00636265
-0.00505832
-0.00572507
0.00703688
-0.00647733
-0.00615195
0.00757096
-0.00798299
-0.00650848
0.00801414
-0.00955965
-0.0068276
0.00840426
-0.0111954
-0.0071302
0.00876593
-0.0128807
-0.00742522
0.00911053
-0.0146073
-0.00771125
0.00943781
-0.0163668
-0.00797849
0.00973799
-0.01815
-0.00821074
0.00999396
-0.0199461
-0.00838695
0.0101831
-0.0217422
-0.00848216
0.0102783
-0.0235236
-0.00846793
0.0102493
-0.0252741
-0.00831247
0.0100629
-0.0269775
-0.00798051
0.00968396
-0.0286206
-0.00743324
0.00907633
-0.0301954
-0.00662979
0.00820458
-0.0317038
-0.00552512
0.00703351
-0.0331668
-0.0040595
0.00552257
-0.00215609
-0.0346379
0.00362715
-0.000249346
-0.000678868
-0.000865297
-0.00177644
-0.00176453
-0.0026656
-0.00288324
-0.00336242
-0.00417154
-0.00389634
-0.00559092
-0.00430569
-0.00711227
-0.0046306
-0.00871387
-0.00490688
-0.0103795
-0.00516197
-0.0120966
-0.00541309
-0.0138545
-0.00566728
-0.0156431
-0.00592268
-0.0174513
-0.00617033
-0.0192662
-0.00639583
-0.0210726
-0.00658055
-0.0228524
-0.00670231
-0.0245849
-0.00673542
-0.0262472
-0.00665024
-0.0278154
-0.00641225
-0.029268
-0.00598068
-0.0305895
-0.00530824
-0.0317733
-0.00434131
-0.0328252
-0.00300763
-0.00121696
-0.0337644
-0.000268972
-0.000409896
-0.00092586
-0.00111955
-0.00187444
-0.00171702
-0.00304126
-0.00219561
-0.00436956
-0.00256803
-0.00581616
-0.00285909
-0.00734867
-0.00309809
-0.00894287
-0.00331268
-0.0105802
-0.00352462
-0.0122455
-0.00374779
-0.0139249
-0.00398789
-0.0156042
-0.00424342
-0.0172674
-0.00450706
-0.0188962
-0.00476705
-0.0204686
-0.00500814
-0.0219589
-0.00521205
-0.023337
-0.00535733
-0.0245685
-0.00541876
-0.0256149
-0.00536579
-0.0264358
-0.00515977
-0.0269936
-0.00475049
-0.027259
-0.0040759
-0.0272053
-0.00306127
-0.00156929
-0.026853
-0.000273453
-0.000136443
-0.000936506
-0.000456499
-0.00188564
-0.000767887
-0.00304088
-0.00104037
-0.00434015
-0.00126876
-0.00573576
-0.00146348
-0.00719143
-0.00164243
-0.00867919
-0.00182491
-0.0101766
-0.00202723
-0.0116641
-0.00226032
-0.0131228
-0.00252917
-0.014533
-0.00283325
-0.0158725
-0.00316754
-0.0171161
-0.00352349
-0.0182344
-0.00388981
-0.0191936
-0.00425283
-0.0199545
-0.00459648
-0.0204714
-0.00490181
-0.0206914
-0.00514584
-0.0205526
-0.00529853
-0.0199869
-0.00531624
-0.0189311
-0.00513168
-0.0173286
-0.00466374
-0.00380689
-0.015091
-0.000263587
0.000127144
-0.000899591
0.000179505
-0.00180261
0.00013513
-0.00288893
4.59446e-05
-0.00409283
-6.48581e-05
-0.00536199
-0.000194321
-0.00665544
-0.000348974
-0.00794011
-0.000540242
-0.00918782
-0.000779514
-0.0103728
-0.00107539
-0.0114692
-0.00143275
-0.0124498
-0.00185266
-0.0132845
-0.00233285
-0.0139397
-0.00286828
-0.0143778
-0.00345169
-0.0145567
-0.00407387
-0.0144294
-0.00472379
-0.0139428
-0.00538843
-0.0130364
-0.00605225
-0.0116395
-0.00669541
-0.00966634
-0.00728942
-0.00701072
-0.0077873
-0.00358836
-0.0080861
-0.00785374
0.000458487
-0.000241069
0.000368213
-0.00081997
0.000758406
-0.00163358
0.000948736
-0.00259753
0.0010099
-0.00364186
0.000979474
-0.00471005
0.00087387
-0.00575509
0.00069607
-0.00673683
0.00044149
-0.00761884
0.000102494
-0.00836633
-0.000327891
-0.00894377
-0.000855309
-0.00931312
-0.0014833
-0.00943323
-0.00221274
-0.0092592
-0.0030423
-0.00874235
-0.00396854
-0.00783028
-0.00498595
-0.00646706
-0.00608701
-0.00459321
-0.00726228
-0.00214488
-0.00850058
0.000948939
-0.00978922
0.00477266
-0.0111131
0.00942878
-0.0124434
0.0150357
-0.013693
-0.0148382
0.0220201
-0.000208323
0.000576535
-0.000704352
0.00125443
-0.00138981
0.00163419
-0.00217999
0.00180008
-0.00300195
0.00180144
-0.003793
0.00166492
-0.00449812
0.00140118
-0.00506721
0.00101059
-0.00545264
0.000487919
-0.00560596
-0.000174574
-0.00547828
-0.000982987
-0.00501641
-0.00194517
-0.00416402
-0.00306513
-0.00286125
-0.00434508
-0.00104527
-0.00578452
0.00134869
-0.00737991
0.00438616
-0.00912447
0.00813211
-0.0110082
0.0126498
-0.0130183
0.0180001
-0.0151395
0.0242409
-0.0173539
0.0314593
-0.0196619
0.0396607
-0.0218944
-0.0246145
0.049437
-0.000168055
0.00074459
-0.000560063
0.00164644
-0.00108285
0.00215698
-0.00165116
0.00236839
-0.00218756
0.00233784
-0.00262131
0.00209867
-0.00288642
0.0016663
-0.00291937
0.00104354
-0.00265665
0.000225196
-0.00203395
-0.000797272
-0.000982635
-0.0020343
0.000567703
-0.00349551
0.00269059
-0.00518801
0.00546091
-0.00711541
0.00895317
-0.00927678
0.0132392
-0.0116659
0.0183858
-0.0142711
0.0244524
-0.0170748
0.0314886
-0.0200545
0.0395339
-0.0231848
0.0486033
-0.0264233
0.0587569
-0.0298155
0.0698205
-0.032958
-0.0372401
0.0824462
-0.000123135
0.000867725
-0.000394723
0.00191803
-0.000724658
0.00248691
-0.00102524
0.00266898
-0.00121213
0.00252472
-0.00120374
0.00209027
-0.000919831
0.0013824
-0.000279815
0.000403519
0.000798265
-0.000852883
0.00239907
-0.00239808
0.00460912
-0.00424435
0.00751532
-0.00640172
0.0112028
-0.00887552
0.0157518
-0.0116643
0.0212335
-0.0147586
0.0277073
-0.0181397
0.0352168
-0.0217805
0.0437875
-0.0256455
0.0534254
-0.0296924
0.0641183
-0.0338777
0.075824
-0.0381291
0.0885342
-0.0425256
0.10203
-0.046454
-0.0519457
0.116736
-7.62064e-05
0.000943932
-0.000215203
0.00205703
-0.000325745
0.00259745
-0.000314403
0.00265763
-8.67489e-05
0.00229707
0.000452795
0.00155073
0.00140162
0.000433576
0.00285921
-0.00105408
0.00492699
-0.00292066
0.00770649
-0.00517758
0.0112963
-0.00783418
0.0157879
-0.0108933
0.0212604
-0.014348
0.027775
-0.0181789
0.0353703
-0.0223539
0.0440584
-0.0268278
0.0538224
-0.0315446
0.064617
-0.0364401
0.07637
-0.0414454
0.0889848
-0.0464925
0.102352
-0.0514967
0.116335
-0.0565082
0.130826
-0.0609455
-0.066767
0.145648
-2.90936e-05
0.000973025
-2.5759e-05
0.00205369
0.000107758
0.00246393
0.000475103
0.00229029
0.00118439
0.00158779
0.00234777
0.000387342
0.00408088
-0.00129953
0.00650081
-0.00347401
0.00972259
-0.00614243
0.0138537
-0.00930872
0.0189873
-0.0129678
0.0251942
-0.0171002
0.0325157
-0.0216694
0.0409572
-0.0266204
0.0504847
-0.0318815
0.0610245
-0.0373675
0.0724653
-0.0429854
0.0846651
-0.0486398
0.0974588
-0.0542392
0.110669
-0.0597026
0.12413
-0.0649574
0.137623
-0.0700014
0.151202
-0.0745242
-0.0796825
0.164117
1.81071e-05
0.000173886
0.000578502
0.00134994
0.00261284
0.0044968
0.00713286
0.0106476
0.0151545
0.020744
0.0274723
0.0353521
0.0443458
0.0543636
0.0652664
0.0768738
0.0889758
0.101348
0.113764
0.12602
0.137936
0.14936
0.160409
0.170539
-0.0347779
-0.00112714
0.00126718
-0.0347595
0.00396785
-0.00398624
-0.0344512
0.0102822
-0.0105905
-0.0337903
0.0178059
-0.0184668
-0.0327229
0.0264983
-0.0275657
-0.0312013
0.0362293
-0.0377509
-0.0291753
0.0467426
-0.0487686
-0.0265815
0.0576423
-0.060236
-0.023353
0.0684118
-0.0716403
-0.0193684
0.0783367
-0.0823213
-0.014431
0.0865258
-0.0914632
-0.00832436
0.0919685
-0.0980751
-0.000843723
0.0934872
-0.100968
0.00816066
0.0898324
-0.0988367
0.018509
0.079968
-0.0903163
0.0299152
0.0632452
-0.0746515
0.0418534
0.0395795
-0.0515177
0.0538666
0.00943478
-0.0214479
0.0657194
-0.0256711
0.0138183
0.0771709
-0.0638376
0.0523861
0.0877109
-0.100857
0.0903167
0.0964844
-0.13187
0.123096
0.102719
-0.153615
0.147381
0.10593
-0.165632
0.162421
0.105377
-0.170349
0.170902
0.100262
-0.173342
0.178457
0.0916781
-0.179858
0.188442
0.0837701
-0.186678
0.194586
0.081388
-0.179275
0.181657
0.0862208
-0.142715
0.137882
0.0966112
-0.0761802
0.0657897
0.10955
0.00612199
-0.019061
0.121908
0.085789
-0.0981464
0.131498
0.149208
-0.158798
0.137941
0.190303
-0.196745
0.140893
0.210693
-0.213645
0.13866
0.223622
-0.221389
0.131005
0.243483
-0.235828
0.121764
0.260794
-0.251554
0.116571
0.242277
-0.237083
0.117988
0.164475
-0.165892
0.124271
0.0429051
-0.0491879
0.132188
-0.0828031
0.0748866
0.139657
-0.178179
0.170709
0.143993
-0.229445
0.225109
0.141982
-0.256066
0.258077
0.13396
-0.278553
0.286575
0.12438
-0.290178
0.299758
0.11854
-0.247135
0.252974
0.119174
-0.143385
0.142751
0.124974
-0.00158381
-0.00421575
0.131696
0.12048
-0.127201
0.134531
0.207044
-0.20988
0.130449
0.274008
-0.269926
0.123797
0.291659
-0.285007
0.120107
0.284192
-0.280503
0.120897
0.155521
-0.156311
0.126588
0.0540349
-0.0597253
0.133234
-0.0858605
0.0792141
-0.14613
0.143412
-0.0335284
-0.00136307
-0.0330479
0.00348732
-0.0322044
0.00943872
-0.0308969
0.0164984
-0.0290284
0.0246299
-0.0265259
0.0337267
-0.02332
0.0435366
-0.0192859
0.0536082
-0.0143786
0.0635045
-0.00851241
0.0724705
-0.00155145
0.0795649
0.00653562
0.0838814
0.0157849
0.0842379
0.0260745
0.0795427
0.037139
0.0689036
0.0485469
0.0518373
0.0598266
0.0282998
0.070583
-0.00132158
0.0808373
-0.0359255
0.0903949
-0.0733952
0.098804
-0.109266
0.105284
-0.13835
0.109205
-0.157537
0.110453
-0.16688
0.108783
-0.168679
0.103175
-0.167733
0.0935203
-0.170203
0.0830802
-0.176238
0.0774858
-0.17368
0.080145
-0.145374
0.0899727
-0.0860078
0.103608
-0.00751292
0.117352
0.0720451
0.128811
0.137748
0.137145
0.181968
0.141379
0.206459
0.139865
0.225136
0.133018
0.25033
0.124924
0.268888
0.120666
0.246535
0.122243
0.162898
0.127903
0.0372451
0.134479
-0.0893798
0.140459
-0.184158
0.143913
-0.2329
0.14157
-0.253722
0.133354
-0.270337
0.123621
-0.280445
0.117778
-0.241292
0.118654
-0.144261
0.124878
-0.00780803
0.13173
0.113628
0.134184
0.204591
0.129807
0.278384
0.123102
0.298364
0.119932
0.287362
0.121382
0.154071
0.127232
0.0481844
0.134285
-0.092913
-0.149227
-0.0261363
-0.00207984
-0.0250361
0.00238716
-0.0235376
0.00794027
-0.0215016
0.0144624
-0.0187829
0.0219112
-0.0152955
0.0302393
-0.0110589
0.0393001
-0.00585072
0.0483999
0.000446691
0.0572071
0.00785784
0.0650594
0.016198
0.0712247
0.0255034
0.074576
0.0356471
0.0740943
0.0463838
0.068806
0.0573486
0.0579388
0.0681046
0.0410813
0.0782324
0.018172
0.0875074
-0.0105966
0.09597
-0.0443881
0.103488
-0.0809137
0.109633
-0.11541
0.11375
-0.142467
0.115378
-0.159165
0.114656
-0.166157
0.111863
-0.165886
0.106146
-0.162017
0.0963541
-0.160411
0.0842834
-0.164167
0.0755886
-0.164986
0.0754652
-0.14525
0.0841112
-0.0946538
0.0979337
-0.0213355
0.112871
0.0571082
0.126124
0.124495
0.136275
0.171817
0.14179
0.200944
0.141199
0.225726
0.135439
0.25609
0.128597
0.27573
0.125118
0.250015
0.126637
0.161379
0.131554
0.0323277
0.136833
-0.0946584
0.141278
-0.188603
0.143821
-0.235442
0.141253
-0.251154
0.132963
-0.262048
0.123154
-0.270636
0.1174
-0.235537
0.118529
-0.14539
0.125046
-0.0143252
0.131879
0.106794
0.133916
0.202554
0.129312
0.282988
0.122605
0.305072
0.11998
0.289988
0.122179
0.151872
0.128235
0.042128
0.13553
-0.100207
-0.152606
-0.0140081
-0.00316274
-0.012333
0.000712081
-0.0102227
0.00582995
-0.00752992
0.0117696
-0.00416896
0.0185502
0.000104461
0.0259659
0.00563353
0.033771
0.0120228
0.0420107
0.0193008
0.0499291
0.0274484
0.0569119
0.0364919
0.0621811
0.0462878
0.0647801
0.0566119
0.0637702
0.0671392
0.0582786
0.0774719
0.0476061
0.0872168
0.0313364
0.0960148
0.009374
0.103768
-0.01835
0.110467
-0.0510865
0.115971
-0.0864179
0.119832
-0.119271
0.121564
-0.144199
0.120971
-0.158573
0.118384
-0.16357
0.114437
-0.161939
0.108767
-0.156346
0.0996555
-0.1513
0.0871417
-0.151653
0.0759044
-0.153748
0.0725063
-0.141852
0.0791682
-0.101316
0.0926669
-0.0348342
0.108525
0.0412498
0.123425
0.109595
0.135267
0.159975
0.142078
0.194133
0.142629
0.225175
0.138214
0.260505
0.132676
0.281268
0.129816
0.252875
0.131022
0.160173
0.13515
0.0281999
0.13919
-0.0986986
0.142113
-0.191526
0.14369
-0.237019
0.140975
-0.248438
0.13273
-0.253804
0.122904
-0.260809
0.117306
-0.22994
0.118702
-0.146785
0.125405
-0.0210279
0.132113
0.100086
0.133732
0.200935
0.128972
0.287748
0.122329
0.311715
0.120252
0.292064
0.123239
0.148885
0.129576
0.0357915
0.136984
-0.107616
-0.156171
0.00193125
-0.00463551
0.00388908
-0.00124575
0.00651842
0.00320062
0.00985358
0.00843442
0.0139974
0.0144064
0.0190049
0.0209584
0.0247969
0.027979
0.0315583
0.0352493
0.0392386
0.0422488
0.0477686
0.0483818
0.0570435
0.0529062
0.0668554
0.0549683
0.0769181
0.0537075
0.0868788
0.0483179
0.0963544
0.0381306
0.104999
0.0226917
0.112511
0.00186208
0.118866
-0.0247047
0.123925
-0.0561458
0.127471
-0.0899635
0.129037
-0.120837
0.128365
-0.143527
0.125674
-0.155882
0.121471
-0.159368
0.116466
-0.156934
0.110796
-0.150676
0.102828
-0.143332
0.091062
-0.139887
0.0783292
-0.141016
0.0715818
-0.135105
0.0754289
-0.105163
0.0879561
-0.0473615
0.104365
0.024841
0.120654
0.0933062
0.134016
0.146614
0.142153
0.185996
0.144064
0.223265
0.141221
0.263347
0.137032
0.285457
0.134632
0.255274
0.135357
0.159448
0.138589
0.0249686
0.141483
-0.101593
0.142935
-0.192979
0.143489
-0.237572
0.140688
-0.245638
0.132616
-0.245731
0.122803
-0.250997
0.117378
-0.224515
0.11905
-0.148457
0.125868
-0.027846
0.132396
0.0935577
0.133632
0.199699
0.128789
0.292591
0.122285
0.318219
0.120742
0.293607
0.124513
0.145114
0.131204
0.0291008
0.138647
-0.11506
-0.159837
0.0228142
-0.00542957
0.0241163
-0.00254783
0.0263963
0.000920635
0.0294215
0.0054092
0.0333622
0.0104657
0.0382613
0.0160594
0.0440971
0.0221432
0.0508888
0.0284575
0.0585768
0.0345609
0.0670572
0.0399014
0.0761652
0.0437982
0.0856533
0.0454801
0.0952037
0.0441571
0.10445
0.0390712
0.11303
0.029551
0.120582
0.0151392
0.127219
-0.00477461
0.132316
-0.0298013
0.135904
-0.0597346
0.137546
-0.0916056
0.136842
-0.120133
0.133869
-0.140553
0.129262
-0.151274
0.123737
-0.153843
0.117897
-0.151094
0.112137
-0.144917
0.105377
-0.136572
0.0952903
-0.1298
0.0824341
-0.128159
0.0728383
-0.125509
0.0731896
-0.105514
0.0839091
-0.058081
0.100345
0.008405
0.117667
0.0759841
0.132353
0.131928
0.141864
0.176486
0.145354
0.219775
0.144283
0.264418
0.141496
0.288244
0.139475
0.257296
0.139595
0.159328
0.141799
0.0227641
0.143637
-0.103431
0.143712
-0.193054
0.143189
-0.23705
0.140332
-0.242781
0.132565
-0.237964
0.122791
-0.241222
0.117491
-0.219215
0.119429
-0.150395
0.126339
-0.0347558
0.132688
0.0872089
0.133607
0.19878
0.128761
0.297436
0.122479
0.324501
0.121443
0.294644
0.125945
0.140612
0.133075
0.0219705
0.140505
-0.122489
-0.163537
0.0487804
-0.00477296
0.0487384
-0.00250582
0.0497729
-0.000113859
0.0516321
0.00354999
0.0545337
0.007564
0.0585249
0.0120682
0.0636071
0.017061
0.0697529
0.0223117
0.0768659
0.0274479
0.0847961
0.0319711
0.0933324
0.0352619
0.102197
0.0366153
0.111055
0.035299
0.119536
0.0305902
0.127315
0.0217724
0.134029
0.00842486
0.139676
-0.010421
0.14376
-0.0338852
0.145963
-0.0619376
0.145757
-0.0914001
0.142904
-0.11728
0.137853
-0.135503
0.131596
-0.145018
0.125045
-0.147291
0.118664
-0.144713
0.112789
-0.139042
0.106994
-0.130777
0.0990172
-0.121823
0.0874407
-0.116583
0.0761533
-0.114222
0.0727425
-0.102103
0.0806352
-0.0659737
0.0963287
-0.00728848
0.114245
0.0580675
0.13006
0.116113
0.140998
0.165547
0.146288
0.214485
0.147195
0.26351
0.145897
0.289543
0.144209
0.258983
0.143628
0.159909
0.14477
0.0216228
0.145578
-0.104239
0.144399
-0.191874
0.142768
-0.235418
0.139846
-0.23986
0.132521
-0.230639
0.122819
-0.23152
0.117543
-0.213939
0.119691
-0.152544
0.126721
-0.0417859
0.13294
0.0809899
0.133647
0.198073
0.128882
0.302201
0.122906
0.330477
0.122351
0.295199
0.127519
0.135444
0.135135
0.0143539
0.142538
-0.129892
-0.167219
0.0800282
-0.00235496
0.0784575
-0.000935131
0.0775172
0.00082641
0.0776991
0.00336808
0.0788751
0.00638804
0.0811834
0.00975991
0.0846975
0.0135469
0.0893993
0.0176099
0.0951991
0.0216481
0.101937
0.0252331
0.109381
0.0278182
0.117235
0.0287616
0.125146
0.0273879
0.132726
0.0230099
0.139655
0.0148435
0.145566
0.0025141
0.150233
-0.0150882
0.153204
-0.0368569
0.153921
-0.0626545
0.151845
-0.0893237
0.146989
-0.112424
0.140173
-0.128687
0.132623
-0.137468
0.12534
-0.140008
0.118697
-0.138069
0.112794
-0.133139
0.107618
-0.125601
0.101633
-0.115838
0.0923501
-0.1073
0.0809697
-0.102841
0.0742768
-0.0954103
0.0783838
-0.0700808
0.0922409
-0.0211456
0.110162
0.0401462
0.126912
0.0993629
0.139343
0.153116
0.146596
0.207232
0.149638
0.260468
0.149953
0.289229
0.148703
0.260232
0.147403
0.161209
0.147411
0.0216146
0.147228
-0.104057
0.144933
-0.189579
0.142195
-0.23268
0.139169
-0.236834
0.132413
-0.223883
0.12285
-0.221957
0.117463
-0.208552
0.119727
-0.154808
0.126908
-0.0489667
0.133105
0.0747931
0.133734
0.197444
0.129139
0.306797
0.12355
0.336065
0.12347
0.295279
0.129222
0.129692
0.137355
0.00622073
0.144719
-0.137255
-0.170846
0.113129
0.00125187
0.11004
0.00215422
0.107732
0.00313378
0.106339
0.00476082
0.105841
0.00688669
0.106348
0.00925275
0.107996
0.0118988
0.110807
0.0147988
0.114757
0.0176983
0.119737
0.0202528
0.125545
0.02201
0.131903
0.0224041
0.138464
0.0208268
0.144817
0.0166572
0.150478
0.00918237
0.155575
-0.00258306
0.158924
-0.0184373
0.160486
-0.038419
0.159507
-0.0616755
0.155544
-0.0853604
0.148913
-0.105793
0.14073
-0.120503
0.132302
-0.12904
0.124575
-0.132281
0.117877
-0.131371
0.112098
-0.12736
0.107293
-0.120796
0.102817
-0.111363
0.0961969
-0.10068
0.0863003
-0.0929447
0.0776335
-0.0867436
0.077564
-0.0700113
0.0883118
-0.0318934
0.105342
0.0231164
0.122719
0.0819859
0.136682
0.139153
0.146093
0.197821
0.15146
0.255101
0.153477
0.287212
0.152742
0.260967
0.150827
0.163124
0.149674
0.0227681
0.148501
-0.102884
0.145223
-0.186301
0.141422
-0.228879
0.138233
-0.233644
0.132156
-0.217806
0.122849
-0.212649
0.117217
-0.202921
0.119448
-0.157039
0.126815
-0.0563335
0.133129
0.068479
0.133847
0.196726
0.129515
0.311129
0.124393
0.341187
0.124802
0.29487
0.131083
0.123411
0.139697
-0.00239405
0.147022
-0.14458
-0.174395
0.141666
0.00523325
0.138249
0.00557173
0.135337
0.00604581
0.133087
0.007011
0.1316
0.00837337
0.130912
0.0099408
0.13114
0.0116706
0.132341
0.0135979
0.134536
0.0155036
0.137678
0.0171103
0.141634
0.018054
0.146188
0.0178507
0.151031
0.0159837
0.155819
0.0118694
0.160099
0.00490221
0.163537
-0.00602133
0.165366
-0.0202663
0.165192
-0.0382446
0.162343
-0.0588269
0.156581
-0.0795987
0.148515
-0.097727
0.139405
-0.111393
0.130497
-0.120132
0.122584
-0.124368
0.11596
-0.124748
0.110448
-0.121848
0.105951
-0.116299
0.102445
-0.107857
0.0982505
-0.0964848
0.0909223
-0.0856165
0.0820854
-0.0779067
0.0784479
-0.0663738
0.0851058
-0.0385512
0.100045
0.00817751
0.117461
0.0645699
0.132846
0.123768
0.14444
0.186227
0.152165
0.247375
0.15603
0.283348
0.156028
0.260969
0.153757
0.165395
0.151572
0.0249525
0.149351
-0.100663
0.1452
-0.18215
0.140426
-0.224105
0.137001
-0.23022
0.131679
-0.212484
0.122791
-0.203762
0.116816
-0.196945
0.118803
-0.159026
0.126384
-0.063915
0.132968
0.0618951
0.133961
0.195734
0.129988
0.315102
0.12541
0.345765
0.126356
0.293925
0.133096
0.116672
0.142168
-0.0114666
0.149423
-0.151835
-0.177853
0.160745
0.00860561
0.157713
0.00860295
0.154924
0.00883519
0.152641
0.00929417
0.150994
0.0100199
0.149955
0.0109804
0.14957
0.0120554
0.149946
0.0132221
0.151082
0.0143671
0.152944
0.0152482
0.155435
0.015563
0.158395
0.0148912
0.161591
0.0127875
0.164693
0.00876801
0.167122
0.00247275
0.168832
-0.00773097
0.168989
-0.0204232
0.166998
-0.0362537
0.162375
-0.0542043
0.155175
-0.072399
0.146212
-0.0887638
0.136708
-0.101889
0.127725
-0.11115
0.119863
-0.116505
0.113366
-0.11825
0.108126
-0.116608
0.103902
-0.112075
0.100875
-0.10483
0.0984012
-0.0940114
0.0939199
-0.0811352
0.0865522
-0.0705391
0.0808537
-0.0606753
0.0832307
-0.0409282
0.0948604
-0.00345216
0.111359
0.0480712
0.1279
0.107227
0.141842
0.172285
0.152159
0.237059
0.157842
0.277664
0.158475
0.260337
0.156214
0.167656
0.153137
0.0280295
0.149919
-0.0974451
0.144978
-0.17721
0.139353
-0.218479
0.135587
-0.226454
0.130995
-0.207892
0.122688
-0.195454
0.116327
-0.190585
0.117832
-0.160531
0.125555
-0.0716379
0.132565
0.0548848
0.13404
0.19426
0.130537
0.318605
0.126573
0.349729
0.128119
0.292378
0.135296
0.109494
0.144743
-0.0209127
0.151899
-0.158992
-0.181212
0.168586
0.0105578
0.166422
0.0107671
0.164407
0.010851
0.162705
0.010996
0.16141
0.0113143
0.160584
0.0118069
0.160237
0.0124026
0.160392
0.0130667
0.161074
0.0136857
0.162256
0.0140654
0.163858
0.0139608
0.165721
0.0130285
0.167641
0.0108672
0.169358
0.00705135
0.170759
0.00107161
0.170613
-0.00758507
0.169052
-0.0188616
0.165482
-0.0326844
0.159647
-0.0483691
0.151829
-0.064581
0.142848
-0.0797826
0.133693
-0.0927333
0.125155
-0.102612
0.117654
-0.109005
0.111379
-0.111976
0.106348
-0.111577
0.102308
-0.108035
0.0993677
-0.10189
0.0976877
-0.0923315
0.0954764
-0.0789238
0.0903899
-0.0654526
0.084295
-0.0545803
0.0831671
-0.0398003
0.0905808
-0.0108659
0.104879
0.033773
0.121442
0.0906639
0.137139
0.156589
0.150017
0.224181
0.157743
0.269937
0.159608
0.258472
0.157868
0.169396
0.154499
0.0313989
0.150183
-0.0931296
0.144624
-0.17165
0.138343
-0.212198
0.134143
-0.222254
0.130159
-0.203907
0.122537
-0.187832
0.115809
-0.183857
0.116668
-0.16139
0.124389
-0.0793592
0.131911
0.0473632
0.134065
0.192106
0.131143
0.321527
0.127851
0.35302
0.130097
0.290132
0.137698
0.101894
0.14741
-0.0306245
0.154434
-0.166016
-0.18446
0.188464
0.0124112
-0.190317
0.187033
0.0121979
0.185648
0.0122354
0.184333
0.0123117
0.183183
0.0124642
0.18227
0.0127197
0.181642
0.0130304
0.181382
0.0133267
0.18158
0.0134881
0.182312
0.013333
0.183635
0.0126382
0.185559
0.0111039
0.188045
0.00838187
0.190934
0.004162
0.193981
-0.00197489
0.196733
-0.0103377
0.198766
-0.0208941
0.199474
-0.033393
0.198356
-0.0472507
0.195225
-0.0614504
0.190253
-0.07481
0.183826
-0.0863063
0.176414
-0.0952002
0.168454
-0.101044
0.160314
-0.103836
0.152326
-0.103589
0.14457
-0.100279
0.137082
-0.0944019
0.130311
-0.0855605
0.123841
-0.0724533
0.115613
-0.0572245
0.105
-0.0439678
0.0954142
-0.0302141
0.0915515
-0.00700325
0.0934729
0.0318516
0.0989152
0.0852216
0.105456
0.150048
0.112757
0.21688
0.121925
0.26077
0.135076
0.245321
0.150769
0.153703
0.162579
0.0195883
0.168087
-0.0986374
0.166472
-0.170035
0.159803
-0.205529
0.152239
-0.21469
0.144727
-0.196395
0.134735
-0.17784
0.124764
-0.173886
0.119845
-0.156471
0.120254
-0.0797684
0.120783
0.0468343
0.11809
0.194798
0.114145
0.325472
0.113535
0.35363
0.119934
0.283734
0.129692
0.0921351
0.139023
-0.0399551
0.143884
-0.170877
-0.185136
0.201021
0.0131564
-0.201766
0.200344
0.0128748
0.199763
0.0128163
0.199243
0.0128318
0.198833
0.0128747
0.198605
0.0129472
0.19862
0.0130156
0.198936
0.013011
0.199606
0.0128178
0.20067
0.0122693
0.202145
0.011163
0.204001
0.00924809
0.206138
0.00624435
0.208402
0.00189785
0.210565
-0.00413762
0.21223
-0.0120023
0.212995
-0.0216593
0.212451
-0.0328496
0.210272
-0.0450711
0.206353
-0.0575313
0.200833
-0.0692902
0.194029
-0.0795026
0.186365
-0.0875362
0.178273
-0.0929523
0.170095
-0.0956574
0.162119
-0.0956131
0.154481
-0.0926415
0.147117
-0.0870381
0.140328
-0.0787713
0.134265
-0.0663902
0.127354
-0.0503135
0.117858
-0.0344719
0.107487
-0.0198429
0.100665
-0.000181626
0.100243
0.032274
0.104934
0.0805304
0.112442
0.14254
0.121556
0.207765
0.133187
0.249139
0.149006
0.229502
0.166099
0.136611
0.178169
0.00751789
0.182459
-0.102927
0.179473
-0.167049