/*--------------------------------*- C++ -*----------------------------------*\
| =========                 |                                                 |
| \\      /  F ield         | OpenFOAM: The Open Source CFD Toolbox           |
|  \\    /   O peration     | Version:  2512                                  |
|   \\  /    A nd           | Website:  www.openfoam.com                      |
|    \\/     M anipulation  |                                                 |
\*---------------------------------------------------------------------------*/
FoamFile
{
    version     2.0;
    format      ascii;
    arch        "LSB;label=32;scalar=64";
    class       surfaceScalarField;
    location    "170.5";
    object      phi;
}
// * * * * * * * * * * * * * * * * * * * * * * * * * * * * * * * * * * * * * //

dimensions      [0 3 -1 0 0 0 0];

oriented        oriented;

internalField   nonuniform List<scalar> 
26232
(
-5.98217e-05
0.000977032
-0.00091721
3.70505e-05
0.00184191
-0.00193878
0.000522324
0.00181118
-0.00229645
0.00160951
0.000941146
-0.00202833
0.00349984
-0.00075487
-0.00113546
0.00638711
-0.00328364
0.000396375
0.0104512
-0.00665675
0.0025927
0.0158442
-0.010875
0.00548195
0.0226748
-0.0159135
0.00908294
0.0309883
-0.0217109
0.0133974
0.0407513
-0.0281656
0.0184026
0.0518418
-0.0351386
0.0240481
0.0640492
-0.0424621
0.0302547
0.0770843
-0.0499529
0.0369179
0.0905983
-0.0574273
0.0439132
0.104209
-0.0647156
0.0511045
0.117534
-0.0716755
0.0583511
0.130216
-0.0782018
0.0655199
0.141963
-0.0842305
0.0724831
0.152556
-0.0897564
0.0791633
0.161895
-0.0947706
0.0854321
0.169902
-0.0994578
0.0914508
0.176534
-0.103485
0.0968532
-0.10798
0.102883
0.181631
2.32936e-05
0.000953738
0.000362169
0.00150303
0.00126399
0.000909362
0.00296164
-0.000756503
0.0056757
-0.00346894
0.00960602
-0.00721396
0.0149146
-0.0119653
0.0217026
-0.017663
0.029987
-0.0241979
0.0396836
-0.0314074
0.0506009
-0.039083
0.0624497
-0.0469875
0.0748664
-0.0548788
0.087447
-0.0625335
0.0997875
-0.0697677
0.111524
-0.0764518
0.122366
-0.0825182
0.132126
-0.0879616
0.140728
-0.092832
0.148194
-0.0972224
0.154664
-0.101241
0.160246
-0.10504
0.165337
-0.108577
-0.112467
0.169824
0.00012278
0.000830958
0.000754508
0.000871307
0.00215368
-0.000489808
0.004565
-0.00316783
0.00820935
-0.00711328
0.0132617
-0.0122663
0.0198215
-0.0185251
0.0278834
-0.0257249
0.0373178
-0.0336323
0.04787
-0.0419596
0.0591806
-0.0503936
0.0708253
-0.0586322
0.0823654
-0.0664189
0.0934
-0.0735681
0.103611
-0.0799791
0.112796
-0.0856361
0.120875
-0.0905977
0.127891
-0.0949772
0.133975
-0.0989163
0.139317
-0.102564
0.144116
-0.106041
0.148552
-0.109475
0.15279
-0.112815
-0.116498
0.156821
0.000234499
0.000596458
0.00119707
-9.12613e-05
0.00315211
-0.00244485
0.00634067
-0.00635639
0.0109552
-0.0117278
0.0171026
-0.0184136
0.024766
-0.0261886
0.0337817
-0.0347407
0.0438418
-0.0436924
0.0545273
-0.0526451
0.0653654
-0.0612317
0.0758969
-0.0691637
0.0857386
-0.0762606
0.0946285
-0.082458
0.102446
-0.0877965
0.109205
-0.0923955
0.115028
-0.09642
0.120097
-0.100047
0.124617
-0.103436
0.128767
-0.106715
0.132697
-0.109971
0.136489
-0.113266
0.140247
-0.116573
-0.120162
0.143911
0.000357373
0.000239086
0.00168065
-0.00141454
0.00422879
-0.00499298
0.0082148
-0.0103424
0.013763
-0.0172761
0.0208606
-0.0255112
0.0293252
-0.0346532
0.0388084
-0.0442239
0.0488406
-0.0537246
0.0589064
-0.0627109
0.06853
-0.0708553
0.077346
-0.0779797
0.085141
-0.0840556
0.0918605
-0.0891775
0.0975834
-0.0935194
0.102477
-0.0972889
0.106744
-0.100687
0.11058
-0.103883
0.114145
-0.107001
0.117552
-0.110122
0.120873
-0.113293
0.124148
-0.116541
0.127424
-0.119849
-0.123371
0.130632
0.000492319
-0.000253233
0.00219906
-0.00312128
0.00535304
-0.00814696
0.0101044
-0.0150938
0.0164614
-0.023633
0.0242436
-0.0332934
0.0330785
-0.0434881
0.0424542
-0.0535997
0.0518138
-0.0630841
0.0606586
-0.0715557
0.0686296
-0.0788263
0.0755456
-0.0848956
0.0813963
-0.0899063
0.0863013
-0.0940825
0.0904525
-0.0976706
0.0940583
-0.100895
0.0973039
-0.103933
0.100331
-0.10691
0.103236
-0.109905
0.106077
-0.112963
0.10889
-0.116106
0.111691
-0.119342
0.114504
-0.122662
-0.126145
0.117279
0.000639085
-0.000892318
0.00274052
-0.00522272
0.00648005
-0.0118865
0.0119015
-0.0205153
0.0188505
-0.030582
0.0269528
-0.0413957
0.0356655
-0.0522008
0.044387
-0.0623211
0.0525829
-0.07128
0.0598806
-0.0788534
0.0661082
-0.0850539
0.0712777
-0.0900652
0.0755309
-0.0941594
0.0790724
-0.097624
0.0821121
-0.10071
0.0848279
-0.103611
0.0873512
-0.106456
0.0897685
-0.109327
0.0921314
-0.112268
0.0944688
-0.115301
0.0967958
-0.118433
0.0991189
-0.121665
0.101449
-0.124992
-0.128444
0.103747
0.000794208
-0.00168653
0.00328278
-0.00771129
0.00754532
-0.016149
0.0134748
-0.0264448
0.0207237
-0.0378309
0.0287359
-0.0494079
0.0368647
-0.0603296
0.0445223
-0.0699787
0.0512966
-0.0780543
0.0569985
-0.0845553
0.0616401
-0.0896955
0.0653708
-0.0937959
0.0684022
-0.0971909
0.0709465
-0.100168
0.0731795
-0.102943
0.0752282
-0.105659
0.0771746
-0.108403
0.0790666
-0.111219
0.0809304
-0.114132
0.0827795
-0.11715
0.0846208
-0.120274
0.0864578
-0.123502
0.0882954
-0.126829
-0.130259
0.0901101
0.000950513
-0.00263704
0.00379342
-0.0105542
0.00847057
-0.0208262
0.0146893
-0.0326635
0.0219086
-0.0450502
0.0294438
-0.0569432
0.036638
-0.0675237
0.0430103
-0.076351
0.0483236
-0.0833676
0.0525664
-0.0887981
0.0558824
-0.0930115
0.0584858
-0.0963993
0.0605932
-0.0992983
0.0623835
-0.101959
0.0639847
-0.104544
0.0654784
-0.107153
0.0669115
-0.109836
0.0683094
-0.112617
0.069685
-0.115508
0.0710453
-0.11851
0.0723937
-0.121622
0.0737326
-0.124841
0.0750633
-0.12816
-0.131568
0.0763732
0.00109798
-0.00373502
0.0042344
-0.0136906
0.00917705
-0.0257688
0.0154337
-0.0389201
0.0223044
-0.0519209
0.0290563
-0.0636951
0.0351109
-0.0735784
0.0401481
-0.0813882
0.0441047
-0.0873241
0.0471018
-0.0917952
0.0493506
-0.0952604
0.0510739
-0.0981226
0.0524584
-0.100683
0.053638
-0.103138
0.0546979
-0.105604
0.0556867
-0.108142
0.0566305
-0.110779
0.0575423
-0.113529
0.0584294
-0.116395
0.0592955
-0.119376
0.0601429
-0.12247
0.0609731
-0.125671
0.061786
-0.128973
-0.13236
0.0625773
0.0012258
-0.00496082
0.00456956
-0.0170344
0.00960115
-0.0308004
0.0156419
-0.0449609
0.0218956
-0.0581746
0.0276651
-0.0694646
0.0325096
-0.0784229
0.0362785
-0.0851572
0.0390472
-0.0900928
0.0410136
-0.0937616
0.0424055
-0.0966523
0.0434213
-0.0991384
0.0442061
-0.101468
0.0448528
-0.103785
0.0454144
-0.106166
0.0459191
-0.108647
0.0463809
-0.111241
0.0468074
-0.113956
0.047203
-0.11679
0.0475703
-0.119743
0.0479108
-0.12281
0.0482252
-0.125985
0.0485119
-0.12926
-0.132618
0.0487706
0.00132677
-0.00628758
0.00477348
-0.0204811
0.00970651
-0.0357334
0.0153018
-0.0505561
0.020743
-0.0636158
0.0254353
-0.0741569
0.0290977
-0.0820853
0.0317255
-0.087785
0.0334845
-0.0918517
0.0346017
-0.0948788
0.0352892
-0.0973398
0.035708
-0.0995572
0.0359633
-0.101723
0.036116
-0.103938
0.0361981
-0.106248
0.0362255
-0.108674
0.0362062
-0.111222
0.036145
-0.113894
0.0360451
-0.11669
0.035909
-0.119607
0.0357381
-0.122639
0.035533
-0.12578
0.0352915
-0.129018
0.0350162
-0.132343
-0.000316222
-0.000677988
0.00099421
-0.00107188
-0.0010045
0.00176015
-0.00215754
-0.000614312
0.00169998
-0.00350086
0.000260214
0.0010831
-0.00505164
0.00143504
0.000115739
-0.00677348
0.00278589
-0.00106405
-0.00863612
0.00424657
-0.00238393
-0.0106114
0.00579856
-0.00382331
-0.0126704
0.00745591
-0.00539687
-0.0147823
0.00924911
-0.00713721
-0.0169131
0.0112113
-0.00908048
-0.0190248
0.0133689
-0.0112572
-0.0210738
0.0157365
-0.0136876
-0.0230095
0.0183145
-0.0163788
-0.0247729
0.0210872
-0.0193237
-0.026296
0.0240222
-0.0224991
-0.0275013
0.0270682
-0.0258629
-0.0283029
0.0301538
-0.0293522
-0.0286086
0.0331865
-0.0328807
-0.0283234
0.0360546
-0.0363398
-0.0273533
0.0386309
-0.039601
-0.025613
0.0407785
-0.0425189
-0.0230429
0.0423656
-0.0449357
0.0433161
-0.0196416
-0.0467174
-0.000278654
-0.000399334
-0.00093754
-0.000345612
-0.00187285
0.000321002
-0.00301529
0.00140265
-0.0043173
0.00273706
-0.00574325
0.00421184
-0.00726142
0.00576475
-0.00883879
0.00737592
-0.0104381
0.00905523
-0.0120169
0.0108279
-0.0135273
0.0127217
-0.0149158
0.0147575
-0.0161231
0.0169438
-0.0170828
0.0192742
-0.0177213
0.0217256
-0.0179572
0.0242581
-0.0177024
0.0268134
-0.016863
0.0293144
-0.0153419
0.0316655
-0.0130433
0.0337559
-0.00987424
0.0354619
-0.00575128
0.0366556
-0.000603955
0.0372183
0.037135
0.00557717
-0.000225317
-0.000174017
-0.000752078
0.000181149
-0.0014857
0.00105463
-0.00236068
0.00227763
-0.00333072
0.00370709
-0.00435962
0.00524074
-0.00541326
0.00681839
-0.00645384
0.00841649
-0.00743663
0.010038
-0.0083091
0.0117004
-0.00901119
0.0134238
-0.00947629
0.0152226
-0.00963178
0.0170993
-0.00939916
0.0190416
-0.00869456
0.021021
-0.00743014
0.0229937
-0.00551444
0.0248977
-0.00285558
0.0266555
0.000635335
0.0281745
0.0050438
0.0293475
0.0104467
0.030059
0.0169084
0.0301939
0.0244799
0.0296467
0.0283295
0.0332854
-0.000169118
-4.89871e-06
-0.00055564
0.000567671
-0.00107354
0.00157253
-0.00165865
0.00286273
-0.00226346
0.0043119
-0.00284939
0.00582667
-0.00337922
0.00734823
-0.00381121
0.00884848
-0.00409555
0.0103224
-0.00417319
0.011778
-0.00397602
0.0132266
-0.00342913
0.0146757
-0.00245152
0.0161217
-0.000958405
0.0175484
0.00113746
0.0189252
0.00392586
0.0202053
0.00749441
0.0213291
0.0119271
0.0222228
0.0173011
0.0228005
0.0236826
0.0229661
0.031125
0.0226166
0.0396765
0.0216423
0.0493369
0.0199864
0.0173215
0.0603449
-0.000121998
0.000117099
-0.00038686
0.000832533
-0.000711838
0.00189751
-0.00103017
0.00318107
-0.00128999
0.00457172
-0.00144809
0.00598477
-0.0014633
0.00736344
-0.00129075
0.00867593
-0.000878029
0.00990964
-0.000163656
0.0110636
0.000921896
0.012141
0.00245671
0.0131409
0.00452314
0.0140552
0.00720664
0.0148649
0.0105934
0.0155384
0.0147671
0.0160316
0.0198078
0.0162885
0.0257885
0.0162421
0.0327732
0.0158157
0.0408146
0.0149247
0.049947
0.0134842
0.0602272
0.0113621
0.0715705
0.00864315
0.00448619
0.0844058
-9.29889e-05
0.000210088
-0.000275083
0.00101463
-0.000459065
0.00208149
-0.000571155
0.00329316
-0.000552004
0.00455257
-0.000351979
0.00578474
7.49836e-05
0.00693648
0.000776749
0.00797416
0.00180663
0.00887976
0.00322538
0.00964488
0.00510171
0.0102647
0.00751011
0.0107325
0.0105298
0.0110355
0.0142422
0.0111526
0.0187282
0.0110524
0.0240664
0.0106934
0.0303306
0.0100242
0.0375885
0.00898423
0.0459022
0.00750209
0.0553264
0.00550048
0.0658883
0.00292231
0.0776957
-0.000445294
0.0905615
-0.00422271
-0.0101264
0.105174
-8.61972e-05
0.000296285
-0.000233374
0.0011618
-0.000341893
0.00219001
-0.000327055
0.00327832
-0.000119894
0.00434541
0.000337521
0.00532733
0.00109755
0.00617645
0.00221185
0.00685986
0.00373543
0.00735617
0.00572894
0.00765137
0.00825944
0.00773422
0.0113998
0.00759207
0.0152278
0.00720757
0.019824
0.00655632
0.0252709
0.00560548
0.0316509
0.00431342
0.0390452
0.00262995
0.0475276
0.000501848
0.0571817
-0.00215204
0.0680775
-0.00539532
0.0802565
-0.00925666
0.0938625
-0.0140513
0.108614
-0.0189738
-0.0267849
0.125272
-9.91182e-05
0.000395403
-0.000253443
0.00131613
-0.000344306
0.00228087
-0.000273141
0.00320715
4.08189e-05
0.00403144
0.000665765
0.00470238
0.00166294
0.00517928
0.00309183
0.00543097
0.00501424
0.00543376
0.00749715
0.00516846
0.0106142
0.00461713
0.0144462
0.00376007
0.0190805
0.00257329
0.0246097
0.00102708
0.0311307
-0.000915491
0.038742
-0.00329781
0.0475398
-0.00616794
0.0576207
-0.00957897
0.0690544
-0.0135858
0.0819101
-0.0182511
0.0962013
-0.0235479
0.11198
-0.0298297
0.128977
-0.0359712
-0.0453384
0.147531
-0.000122481
0.000517884
-0.000304847
0.00149849
-0.000405233
0.00238126
-0.000308564
0.00311049
8.06383e-05
0.00364224
0.000845059
0.00393796
0.00206109
0.00396324
0.00380434
0.00368773
0.00615399
0.00308411
0.00919568
0.00212676
0.0130231
0.000789743
0.0177375
-0.000954371
0.0234463
-0.00313544
0.0302591
-0.00578581
0.0382831
-0.0089395
0.0476158
-0.0126305
0.058338
-0.0168901
0.0705036
-0.0217445
0.0841263
-0.0272084
0.0991698
-0.0332946
0.115547
-0.039925
0.133047
-0.0473293
0.15153
-0.0544544
-0.0642509
0.170442
-0.000142023
0.000659907
-0.000341006
0.00169748
-0.000430556
0.00247081
-0.000276031
0.00295596
0.000237746
0.00312847
0.00121509
0.00296062
0.00275681
0.00242152
0.00496535
0.00147919
0.00794843
0.00010103
0.0118193
-0.00174413
0.0166962
-0.00408716
0.0226973
-0.00695549
0.0299342
-0.0103723
0.038503
-0.0143545
0.0484737
-0.0189102
0.05988
-0.0240368
0.0727084
-0.0297185
0.0868894
-0.0359255
0.102289
-0.0426081
0.118705
-0.0497106
0.135885
-0.057105
0.153392
-0.0648363
0.171153
-0.072215
-0.0809938
0.187895
-0.000142785
0.000802692
-0.000312939
0.00186763
-0.000321041
0.00247891
-8.58016e-06
0.0026435
0.000763744
0.00235614
0.00213021
0.00159415
0.00422317
0.000328559
0.00717682
-0.00147445
0.0111263
-0.00384841
0.0162037
-0.00682161
0.0225296
-0.010413
0.030202
-0.0146279
0.0392846
-0.019455
0.0497942
-0.0248642
0.0616902
-0.0308063
0.0748672
-0.0372137
0.089151
-0.0440023
0.104302
-0.0510763
0.120017
-0.0583231
0.135956
-0.0656502
0.151748
-0.0728963
0.166999
-0.0800872
0.181545
-0.0867615
-0.0936876
0.194239
-0.000114518
-0.000185669
-3.21217e-06
0.000611954
0.00183264
0.00382317
0.00674443
0.0107519
0.0159865
0.0225622
0.0305518
0.0399721
0.0507718
0.0628255
0.0759325
0.0898232
0.104172
0.118616
0.132776
0.146289
0.158824
0.170188
0.18028
0.189475
-0.0132544
0.0581686
-0.0645558
-0.00571921
0.0561815
-0.0637166
0.00286409
0.051223
-0.0598063
0.0123394
0.0430006
-0.0524759
0.0224477
0.0312909
-0.0413993
0.0328117
0.0159526
-0.0263165
0.0432226
-0.00284539
-0.00756556
0.0535415
-0.0248467
0.0145278
0.0635894
-0.0494368
0.0393889
0.0732559
-0.0752563
0.0655898
0.0822606
-0.100124
0.0911196
0.0900737
-0.121419
0.113606
0.0961067
-0.13703
0.130997
0.0999311
-0.146181
0.142357
0.101154
-0.149608
0.148385
0.0992201
-0.149673
0.151606
0.0940744
-0.149942
0.155088
0.0873765
-0.152267
0.158965
0.0825535
-0.152837
0.15766
0.082871
-0.142345
0.142028
0.0892016
-0.112241
0.10591
0.100098
-0.0618957
0.0509989
0.113152
0.000607581
-0.0136612
0.126095
0.0631132
-0.0760565
0.136986
0.114518
-0.125409
0.14463
0.149846
-0.15749
0.149061
0.170086
-0.174516
0.150935
0.178948
-0.180822
0.150141
0.183211
-0.182418
0.145948
0.191918
-0.187725
0.139007
0.206589
-0.199648
0.132297
0.212906
-0.206197
0.129251
0.186731
-0.183684
0.131297
0.118755
-0.120801
0.137344
0.0218821
-0.0279284
0.144829
-0.0729883
0.0655029
0.151626
-0.14591
0.139113
0.156459
-0.187353
0.18252
0.157967
-0.206873
0.205364
0.15472
-0.219801
0.223048
0.147094
-0.232077
0.239703
0.13857
-0.23671
0.245234
0.13359
-0.198205
0.203186
0.134668
-0.122581
0.121502
0.140618
-0.00715822
0.00120832
0.148183
0.0888078
-0.0963721
0.152623
0.169172
-0.173612
0.151097
0.226731
-0.225205
0.145091
0.261313
-0.255307
0.139627
0.281984
-0.276519
0.138868
0.198274
-0.197515
0.143162
0.117253
-0.121547
0.147374
-0.0361339
0.0319225
0.147846
-0.135455
0.134983
0.145264
-0.224026
0.226607
0.143044
-0.327482
0.329702
0.142495
-0.226092
0.226641
0.142338
-0.225036
0.225193
0.140892
0.018916
-0.0174694
0.189217
-0.18726
0.0131776
0.0505682
0.0214967
0.0478623
0.0303907
0.042329
0.0396545
0.0337368
0.0490239
0.0219215
0.0582364
0.00674013
0.0671167
-0.0117257
0.0755866
-0.0333166
0.0835735
-0.0574236
0.0909553
-0.0826382
0.0974285
-0.106598
0.102511
-0.126501
0.10573
-0.140249
0.10688
-0.147331
0.105972
-0.148699
0.102699
-0.146399
0.0964935
-0.143737
0.0879386
-0.143712
0.0799274
-0.144826
0.0765485
-0.138966
0.0802336
-0.115926
0.090293
-0.0719551
0.104211
-0.0133101
0.118967
0.0483571
0.132078
0.101407
0.142002
0.139922
0.148564
0.163524
0.152171
0.175341
0.152644
0.182738
0.149565
0.194997
0.143917
0.212237
0.138437
0.218386
0.135933
0.189235
0.137454
0.117234
0.142264
0.0170721
0.148064
-0.0787884
0.153054
-0.1509
0.156276
-0.190575
0.156681
-0.207278
0.152848
-0.215968
0.144787
-0.224017
0.135851
-0.227774
0.130749
-0.193103
0.132352
-0.124184
0.139319
-0.0141254
0.147827
0.0803001
0.15294
0.164059
0.151815
0.227856
0.14615
0.266979
0.140704
0.287429
0.139687
0.199291
0.143816
0.113125
0.147973
-0.0402917
0.148419
-0.135901
0.145548
-0.221154
0.14319
-0.325125
0.142489
-0.22539
0.142098
-0.224646
0.140521
0.0204937
0.191215
0.0412803
0.0425732
0.049726
0.0394167
0.0583697
0.0336853
0.0669727
0.0251338
0.075271
0.0136232
0.0831682
-0.00115706
0.0904565
-0.019014
0.0971062
-0.0399663
0.103053
-0.0633707
0.108134
-0.0877186
0.112026
-0.11049
0.11434
-0.128815
0.114788
-0.140698
0.113371
-0.145914
0.110403
-0.145731
0.105961
-0.141957
0.0993349
-0.137111
0.0900639
-0.134441
0.0799112
-0.134673
0.0730651
-0.13212
0.0734541
-0.116315
0.0818007
-0.0803018
0.0957516
-0.0272609
0.111819
0.0322898
0.126877
0.0863487
0.139022
0.127776
0.147762
0.154785
0.153198
0.169904
0.155144
0.180793
0.153494
0.196647
0.149379
0.216352
0.145168
0.222598
0.143024
0.191378
0.143797
0.11646
0.147132
0.0137378
0.151147
-0.0828034
0.154322
-0.154075
0.155961
-0.192213
0.155347
-0.206664
0.151114
-0.211735
0.142854
-0.215757
0.133627
-0.218547
0.128358
-0.187834
0.130317
-0.126143
0.138118
-0.0219259
0.147471
0.0709471
0.153293
0.158237
0.152681
0.228467
0.147454
0.272206
0.142054
0.292828
0.140715
0.20063
0.144598
0.109242
0.148688
-0.0443819
0.149115
-0.136328
0.145925
-0.217964
0.143386
-0.322586
0.142568
-0.224572
0.142002
-0.224079
0.140322
0.0221731
0.193241
0.0682872
0.034631
0.076433
0.0312709
0.0845289
0.0255894
0.0923186
0.017344
0.0995428
0.00639907
0.106247
-0.00786164
0.11216
-0.0249272
0.117238
-0.0450443
0.121345
-0.0674776
0.124236
-0.0906089
0.125569
-0.111823
0.125092
-0.128338
0.12282
-0.138426
0.119027
-0.142122
0.114185
-0.140889
0.108688
-0.13646
0.102074
-0.130497
0.0931814
-0.125549
0.0822842
-0.123776
0.0727453
-0.122581
0.0694744
-0.113044
0.0750506
-0.0858781
0.0880051
-0.0402153
0.104714
0.0155807
0.121351
0.0697121
0.135596
0.113531
0.146513
0.143868
0.153867
0.162551
0.157487
0.177172
0.157536
0.196598
0.155143
0.218745
0.152205
0.225536
0.150311
0.193272
0.150179
0.116592
0.151794
0.0121234
0.154019
-0.0850289
0.155424
-0.15548
0.155527
-0.192316
0.153944
-0.20508
0.14945
-0.207241
0.141218
-0.207524
0.13186
-0.20919
0.126385
-0.182359
0.128509
-0.128268
0.136948
-0.0303649
0.147068
0.0608271
0.153651
0.151654
0.153681
0.228437
0.149006
0.276881
0.143692
0.298142
0.14197
0.202352
0.145516
0.105696
0.149501
-0.0483665
0.149921
-0.136749
0.146391
-0.214433
0.143623
-0.319819
0.142723
-0.223673
0.142035
-0.223391
0.140287
0.0239214
0.195281
0.0921629
0.0268738
0.099866
0.0235678
0.107347
0.0181085
0.114368
0.0103229
0.120908
-0.000140508
0.126647
-0.0136007
0.13152
-0.0298002
0.135321
-0.0488459
0.137781
-0.0699372
0.13855
-0.0913781
0.137341
-0.110614
0.134148
-0.125144
0.12934
-0.133618
0.123489
-0.136271
0.11714
-0.13454
0.110754
-0.130075
0.104243
-0.123986
0.0963982
-0.117704
0.0861844
-0.113562
0.0753382
-0.111735
0.0686772
-0.106383
0.0706034
-0.0878043
0.0813489
-0.0509608
0.0978132
-0.000883683
0.115501
0.0520243
0.1316
0.0974323
0.144603
0.130865
0.153913
0.15324
0.159379
0.171707
0.161348
0.194629
0.160851
0.219242
0.159224
0.227163
0.157475
0.195021
0.156325
0.117742
0.156223
0.0122251
0.156612
-0.0854181
0.156312
-0.15518
0.154949
-0.190953
0.152447
-0.202579
0.147804
-0.202598
0.139804
-0.199524
0.130485
-0.199871
0.124786
-0.17666
0.126873
-0.130354
0.135754
-0.0392459
0.14656
0.0500209
0.153966
0.144249
0.15478
0.227622
0.150785
0.280877
0.145614
0.303312
0.143463
0.204504
0.146564
0.102595
0.150392
-0.0521947
0.150819
-0.137176
0.146938
-0.210552
0.143891
-0.316771
0.142941
-0.222723
0.142184
-0.222634
0.140403
0.0257027
0.197315
0.112621
0.019427
0.119901
0.016288
0.126917
0.0110923
0.133328
0.00391183
0.139412
-0.00622409
0.144386
-0.018575
0.148349
-0.0337637
0.150928
-0.0514243
0.151726
-0.0707357
0.150367
-0.0900183
0.14671
-0.106958
0.141047
-0.119481
0.134058
-0.126629
0.126554
-0.128767
0.11914
-0.127125
0.112172
-0.123107
0.105744
-0.117558
0.0990576
-0.111018
0.0905209
-0.105026
0.0800314
-0.101246
0.0710671
-0.0974186
0.0689844
-0.0857216
0.0763813
-0.0583577
0.0913526
-0.0158549
0.10939
0.0339872
0.126918
0.0799037
0.141796
0.115987
0.153035
0.142001
0.160457
0.164285
0.164508
0.190578
0.166036
0.217715
0.165793
0.227407
0.164226
0.196587
0.162047
0.119921
0.160242
0.01403
0.158839
-0.0840145
0.156928
-0.15327
0.154194
-0.188219
0.150821
-0.199206
0.146102
-0.197879
0.138508
-0.19193
0.129404
-0.190767
0.123494
-0.170749
0.125348
-0.132209
0.134463
-0.0483607
0.145873
0.0386101
0.154172
0.13595
0.155921
0.225873
0.152747
0.284051
0.14779
0.308268
0.14519
0.207104
0.147729
0.100057
0.151339
-0.0558046
0.151788
-0.137625
0.147558
-0.206323
0.144184
-0.313397
0.14321
-0.221749
0.142433
-0.221857
0.140658
0.0274776
0.199321
0.131926
0.012773
0.138525
0.00968949
0.144789
0.00482818
0.150864
-0.0021637
0.155951
-0.0113107
0.160062
-0.022686
0.162854
-0.0365556
0.163902
-0.0524724
0.162779
-0.0696125
0.159191
-0.0864303
0.153227
-0.100994
0.145463
-0.111716
0.136796
-0.117962
0.128136
-0.120107
0.120094
-0.119083
0.112894
-0.115906
0.106582
-0.111246
0.100808
-0.105244
0.0942265
-0.0984436
0.0855007
-0.0925198
0.0759989
-0.0879168
0.070525
-0.0802477
0.0737154
-0.0615482
0.0857678
-0.0279073
0.103159
0.0165962
0.121488
0.0615749
0.13791
0.0995645
0.150965
0.128946
0.160372
0.154877
0.166599
0.184351
0.170241
0.214073
0.17145
0.226197
0.170205
0.197833
0.16717
0.122957
0.163681
0.0175183
0.16061
-0.0809433
0.157204
-0.149863
0.153222
-0.184237
0.149028
-0.195012
0.144276
-0.193126
0.137216
-0.184871
0.128498
-0.182049
0.122418
-0.164669
0.123867
-0.133657
0.133004
-0.0574971
0.14493
0.0266835
0.154188
0.126693
0.157025
0.223036
0.154822
0.286254
0.15017
0.31292
0.147121
0.210154
0.148999
0.0981784
0.152314
-0.0591195
0.152803
-0.138114
0.148238
-0.201758
0.144493
-0.309653
0.143518
-0.220774
0.142765
-0.221105
0.141038
0.0292046
0.201269
0.15256
0.0077434
0.157792
0.00445772
0.162817
-0.000197185
0.167481
-0.00682745
0.171078
-0.0149079
0.173628
-0.0252355
0.174622
-0.0375499
0.173636
-0.0514864
0.170306
-0.0662828
0.164514
-0.0806376
0.15658
-0.0930612
0.147271
-0.102407
0.137557
-0.108248
0.128299
-0.11085
0.120036
-0.11082
0.112903
-0.108774
0.106823
-0.105165
0.101652
-0.100073
0.0966672
-0.0934589
0.0903277
-0.0861803
0.0821062
-0.0796953
0.0748724
-0.0730139
0.0738141
-0.0604899
0.0817553
-0.0358484
0.0971101
0.00124132
0.115329
0.0433558
0.132815
0.0820788
0.147488
0.114273
0.15884
0.143526
0.167242
0.175949
0.173012
0.208304
0.175744
0.223464
0.174945
0.198632
0.171289
0.126613
0.166462
0.0223455
0.16183
-0.0763113
0.157067
-0.1451
0.151982
-0.179152
0.147024
-0.190054
0.142252
-0.188354
0.135818
-0.178438
0.127635
-0.173866
0.121451
-0.158485
0.122361
-0.134568
0.131311
-0.0664466
0.143652
0.0143423
0.153925
0.11642
0.157997
0.218964
0.156919
0.287332
0.152671
0.317168
0.149215
0.213609
0.150349
0.0970453
0.153289
-0.0620594
0.153834
-0.138659
0.148959
-0.196883
0.144812
-0.305506
0.143853
-0.219815
0.143163
-0.220414
0.141527
0.0308401
0.203122
0.173306
0.00488005
0.176439
0.00132466
0.179618
-0.00337613
0.181845
-0.00905494
0.183316
-0.0163786
0.183635
-0.0255551
0.182341
-0.0362558
0.179073
-0.0482185
0.1736
-0.0608096
0.165987
-0.0730247
0.15671
-0.0837841
0.146577
-0.0922739
0.136484
-0.0981549
0.127155
-0.101521
0.119005
-0.10267
0.112127
-0.101896
0.10639
-0.0994281
0.101661
-0.0953439
0.0976941
-0.0894923
0.0934934
-0.0819795
0.0876771
-0.0738791
0.0807987
-0.0661355
0.0767706
-0.0564617
0.0801067
-0.0391846
0.091865
-0.010517
0.108674
0.0265466
0.126468
0.0642851
0.142424
0.0983168
0.155604
0.130345
0.166194
0.165359
0.174172
0.200327
0.178487
0.219148
0.178234
0.198885
0.17421
0.130637
0.16835
0.0282054
0.162385
-0.0703463
0.156413
-0.139128
0.150385
-0.173124
0.144738
-0.184407
0.139942
-0.183558
0.134198
-0.172694
0.126683
-0.16635
0.120471
-0.152274
0.120752
-0.134849
0.129328
-0.0750222
0.141966
0.00170375
0.153286
0.105099
0.158735
0.213515
0.15893
0.287137
0.155203
0.320896
0.151407
0.217405
0.151749
0.0967035
0.15423
-0.0645414
0.154847
-0.139276
0.149703
-0.191739
0.145132
-0.300935
0.144208
-0.218892
0.143611
-0.219817
0.142113
0.0323381
0.204842
0.188846
0.00392976
0.190028
0.000142522
0.19065
-0.0039986
0.190584
-0.00898883
0.18984
-0.0156345
0.187922
-0.0236372
0.184495
-0.0328286
0.179316
-0.0430395
0.172292
-0.0537858
0.163615
-0.0643469
0.153796
-0.0739655
0.143563
-0.0820415
0.133655
-0.0882464
0.124633
-0.0924991
0.116806
-0.0948431
0.110258
-0.0953476
0.104898
-0.0940679
0.100583
-0.0910295
0.0972365
-0.0861455
0.0944949
-0.0792379
0.0911909
-0.0705751
0.0863693
-0.0613139
0.0816372
-0.0517296
0.0812336
-0.038781
0.0883594
-0.0176428
0.10219
0.0127157
0.119099
0.0473759
0.135732
0.0816839
0.150502
0.115575
0.163142
0.152719
0.173234
0.190235
0.179244
0.213138
0.179807
0.198322
0.175751
0.134693
0.169345
0.034612
0.162247
-0.0632485
0.155179
-0.13206
0.148364
-0.166309
0.142126
-0.178169
0.137281
-0.178714
0.132263
-0.167676
0.125544
-0.159631
0.119382
-0.146112
0.118963
-0.134429
0.126999
-0.0830582
0.139815
-0.0111123
0.152185
0.092729
0.159112
0.206588
0.160719
0.28553
0.157654
0.32396
0.153637
0.221423
0.153155
0.0971852
0.155113
-0.0664995
0.155806
-0.139969
0.150453
-0.186386
0.145454
-0.295936
0.144581
-0.218018
0.144093
-0.219329
0.142781
0.0336493
0.206383
0.194383
0.0037857
0.193971
0.000554903
0.192923
-0.00295103
0.191373
-0.00743918
0.18905
-0.0133115
0.185628
-0.0202145
0.180899
-0.0281003
0.174722
-0.0368622
0.1671
-0.0461635
0.158272
-0.0555187
0.148701
-0.0643944
0.138975
-0.0723156
0.12966
-0.0789316
0.121182
-0.0840208
0.113784
-0.087445
0.107555
-0.0891193
0.102484
-0.0889963
0.0984882
-0.087034
0.0955083
-0.0831657
0.0935152
-0.0772448
0.0919993
-0.0690591
0.0897416
-0.0590562
0.0863896
-0.0483777
0.0843128
-0.0367042
0.087354
-0.0206839
0.0969905
0.00307919
0.111473
0.0328937
0.127712
0.0654442
0.143626
0.0996616
0.158337
0.138008
0.170801
0.177772
0.178589
0.20535
0.179887
0.197024
0.176188
0.138392
0.169502
0.0412973
0.161637
-0.0553834
0.153572
-0.123995
0.146101
-0.158838
0.139375
-0.171443
0.134402
-0.17374
0.13005
-0.163324
0.124222
-0.153804
0.118175
-0.140064
0.116985
-0.133239
0.124296
-0.0903697
0.137132
-0.0239477
0.150532
0.0793284
0.159066
0.198054
0.162213
0.282383
0.159923
0.32625
0.15583
0.225516
0.154553
0.0984621
0.155928
-0.0678745
0.156691
-0.140732
0.151198
-0.180893
0.145789
-0.290526
0.14497
-0.217199
0.144597
-0.218956
0.143522
0.0347242
0.207698
0.189196
0.00406465
0.18819
0.00156088
0.186671
-0.00143238
0.184641
-0.00540916
0.181747
-0.0104175
0.17789
-0.016357
0.172961
-0.0231714
0.166873
-0.0307744
0.159678
-0.0389684
0.151599
-0.0474404
0.143008
-0.0558032
0.134346
-0.0636537
0.126031
-0.0706158
0.118382
-0.0763724
0.111606
-0.0806692
0.105802
-0.0833152
0.101
-0.0841946
0.0971917
-0.0832252
0.0943366
-0.0803105
0.092487
-0.0753953
0.0916503
-0.0682224
0.0911402
-0.0585461
0.089849
-0.0470865
0.088135
-0.0349902
0.0886255
-0.0211744
0.0940171
-0.00231241
0.104865
0.0220455
0.119046
0.0512636
0.134634
0.0840732
0.150454
0.122188
0.164942
0.163284
0.17471
0.195582
0.177605
0.194129
0.175162
0.140834
0.169216
0.0472438
0.160595
-0.0467625
0.151685
-0.115085
0.143776
-0.150929
0.136711
-0.164377
0.13151
-0.16854
0.127662
-0.159477
0.12276
-0.148901
0.116875
-0.134179
0.114899
-0.131263
0.121428
-0.0968984
0.134013
-0.0365324
0.148248
0.0650927
0.158356
0.187946
0.16317
0.27757
0.161866
0.327554
0.157903
0.229479
0.155898
0.100467
0.156645
-0.0686221
0.157477
-0.141563
0.151923
-0.175339
0.146131
-0.284734
0.145354
-0.216422
0.14512
-0.218722
0.144326
0.0355191
0.208739
0.208688
0.0040379
-0.208661
0.209002
0.00124653
0.209495
-0.00192485
0.209805
-0.00571926
0.209792
-0.0104046
0.209311
-0.0158764
0.208205
-0.0220652
0.206311
-0.0288802
0.203508
-0.0361656
0.199757
-0.0436898
0.195105
-0.051151
0.189665
-0.0582131
0.183586
-0.0645375
0.177033
-0.0698196
0.17017
-0.073806
0.163152
-0.0762968
0.156117
-0.0771598
0.149192
-0.0762998
0.142453
-0.0735722
0.135968
-0.0689096
0.129908
-0.0621626
0.124247
-0.0528849
0.118275
-0.0411149
0.111346
-0.0280612
0.104499
-0.0143277
0.100241
0.00194603
0.0999833
0.0223031
0.103774
0.0474727
0.110157
0.0776902
0.117936
0.114409
0.126547
0.154673
0.136292
0.185837
0.149305
0.181117
0.165008
0.12513
0.177145
0.0351068
0.182248
-0.0518653
0.180401
-0.113238
0.174295
-0.144823
0.16598
-0.156062
0.157743
-0.160302
0.150437
-0.152171
0.142467
-0.140931
0.133546
-0.125258
0.126943
-0.124661
0.126438
-0.0963936
0.130506
-0.0406
0.13545
0.060149
0.138736
0.18466
0.140934
0.275372
0.143367
0.325121
0.146717
0.226129
0.150865
0.0963192
0.154646
-0.072404
0.155359
-0.142276
0.149804
-0.169784
0.142082
-0.277012
0.138347
-0.212687
0.134818
-0.215194
0.131692
0.0386453
0.209943
0.218791
0.00401079
-0.218764
0.218997
0.00104071
0.219292
-0.00222051
0.219446
-0.005873
0.219206
-0.0101648
0.218469
-0.015139
0.217125
-0.0207218
0.21506
-0.0268144
0.21218
-0.0332866
0.208447
-0.0399568
0.203881
-0.0465847
0.19856
-0.0528919
0.192608
-0.0585858
0.186181
-0.063392
0.179447
-0.0670727
0.172579
-0.0694283
0.165723
-0.070304
0.159008
-0.0695847
0.152535
-0.0670994
0.146355
-0.062729
0.140566
-0.0563744
0.135326
-0.0476446
0.130363
-0.0361513
0.124863
-0.0225617
0.118607
-0.00807193
0.11317
0.00738294
0.110668
0.0248058
0.112246
0.045894
0.117627
0.0723101
0.125719
0.106316
0.135502
0.14489
0.147461
0.173878
0.163257
0.16532
0.180434
0.107954
0.192763
0.0227784
0.196603
-0.0557054
0.193287
-0.109922
0.185948
-0.137484
0.176763
-0.146877
0.167824
-0.151364
0.160174
-0.144521
0.152324
-0.133081
0.143277
-0.116211
0.136025
-0.117408
0.134844
-0.0952129
0.138692
-0.044448
0.144089
0.0547519
0.148147
0.180601
0.151425
0.272094
0.154999
0.321547
0.158995
0.222133
0.163117
0.0921976
0.166366
-0.075653
0.166782
-0.142692
0.16042
-0.163422
0.151712
-0.268304
0.147469
-0.208443
0.143607
-0.211332
0.140271
0.0419812
0.211127
0.228391
0.00375965
-0.22814
0.228591
0.000841078
0.228723
-0.00235325
0.228675
-0.00582489
0.228272