/*--------------------------------*- C++ -*----------------------------------*\
| =========                 |                                                 |
| \\      /  F ield         | OpenFOAM: The Open Source CFD Toolbox           |
|  \\    /   O peration     | Version:  2512                                  |
|   \\  /    A nd           | Website:  www.openfoam.com                      |
|    \\/     M anipulation  |                                                 |
\*---------------------------------------------------------------------------*/
FoamFile
{
    version     2.0;
    format      ascii;
    arch        "LSB;label=32;scalar=64";
    class       surfaceScalarField;
    location    "152.25";
    object      phi;
}
// * * * * * * * * * * * * * * * * * * * * * * * * * * * * * * * * * * * * * //

dimensions      [0 3 -1 0 0 0 0];

oriented        oriented;

internalField   nonuniform List<scalar> 
26232
(
0.000198943
0.000897311
-0.00109625
0.000915505
0.00140004
-0.0021166
0.00227055
0.00072299
-0.00207804
0.00438935
-0.00108997
-0.00102882
0.00740579
-0.0040028
0.000986357
0.0114541
-0.00798127
0.00393295
0.0166511
-0.012981
0.00778404
0.0230719
-0.0189308
0.0125099
0.0307248
-0.0257167
0.0180638
0.0395308
-0.0331731
0.0243671
0.0493154
-0.0410841
0.0312995
0.0598156
-0.0491971
0.0386969
0.0707028
-0.0572451
0.0463579
0.0816179
-0.0649733
0.0540581
0.0922123
-0.0721643
0.0615699
0.102187
-0.0786583
0.0686836
0.111325
-0.0843646
0.0752267
0.119509
-0.0892626
0.0810789
0.126724
-0.0933931
0.0861773
0.133048
-0.0968481
0.0905248
0.138615
-0.099726
0.0941588
0.143584
-0.102193
0.0972236
0.147935
-0.104148
0.0997974
-0.10614
0.102339
0.151737
0.000224651
0.00067266
0.00107894
0.000545757
0.00273084
-0.000928915
0.00534035
-0.00369948
0.00906012
-0.00772257
0.0140182
-0.0129394
0.0202904
-0.0192531
0.0278696
-0.02651
0.0366431
-0.0344903
0.0463858
-0.0429158
0.0567744
-0.0514728
0.0674225
-0.0598452
0.0779276
-0.0677502
0.0879225
-0.0749682
0.0971193
-0.0813611
0.10534
-0.0868785
0.112525
-0.09155
0.118729
-0.0954668
0.124095
-0.098759
0.128818
-0.101571
0.133127
-0.104035
0.137222
-0.106288
0.141418
-0.108345
-0.110598
0.145876
0.000277309
0.000395351
0.00133032
-0.000507257
0.00336438
-0.00296297
0.00656215
-0.00689724
0.0110728
-0.0122332
0.0169815
-0.0188482
0.0242741
-0.0265456
0.0328093
-0.0350452
0.0423149
-0.0439959
0.0524107
-0.0530115
0.0626571
-0.0617191
0.0726173
-0.0698054
0.081918
-0.077051
0.090296
-0.0833462
0.097622
-0.0886871
0.1039
-0.0931563
0.109243
-0.0968931
0.113838
-0.100062
0.117905
-0.102826
0.121659
-0.105325
0.125292
-0.107668
0.128949
-0.109945
0.132763
-0.112158
-0.114551
0.136715
0.00036039
3.49608e-05
0.001678
-0.00182487
0.00417729
-0.00546226
0.00803898
-0.0107589
0.0133714
-0.0175656
0.0201682
-0.0256449
0.0282745
-0.034652
0.037382
-0.0441527
0.0470611
-0.0536749
0.0568247
-0.0627752
0.0662066
-0.071101
0.0748312
-0.07843
0.0824612
-0.084681
0.0890123
-0.0898972
0.0945378
-0.0942126
0.0991916
-0.0978102
0.103182
-0.100883
0.106726
-0.103606
0.110021
-0.106121
0.113227
-0.10853
0.116462
-0.110903
0.119809
-0.113292
0.123345
-0.115694
-0.118283
0.127076
0.000471097
-0.000436136
0.00210958
-0.00346335
0.00513282
-0.0084855
0.00968368
-0.0153098
0.0157823
-0.0236643
0.0232811
-0.0331438
0.0318531
-0.0432239
0.0410291
-0.0533288
0.0502775
-0.0629233
0.0590994
-0.0715971
0.0671112
-0.0791127
0.0740915
-0.0854104
0.0799878
-0.0905773
0.0848873
-0.0947967
0.0889678
-0.0982931
0.0924447
-0.101287
0.0955278
-0.103966
0.0983947
-0.106473
0.101181
-0.108907
0.103983
-0.111333
0.106868
-0.113788
0.109874
-0.116298
0.113042
-0.118862
-0.121583
0.116342
0.0006034
-0.00103954
0.00259949
-0.00545944
0.00616575
-0.0120518
0.0113632
-0.0205073
0.0180753
-0.0303764
0.0259796
-0.041048
0.0345814
-0.0518258
0.0433058
-0.0620532
0.0516135
-0.071231
0.0590983
-0.0790818
0.0655384
-0.0855529
0.0708965
-0.0907685
0.0752788
-0.0949596
0.0788763
-0.0983942
0.0819067
-0.101324
0.0845719
-0.103952
0.0870358
-0.10643
0.0894187
-0.108856
0.0918032
-0.111292
0.0942437
-0.113773
0.0967758
-0.11632
0.0994212
-0.118943
0.102203
-0.121644
-0.124478
0.105099
0.000749544
-0.00178908
0.003115
-0.00782489
0.00719566
-0.0161324
0.0129249
-0.0262365
0.0200124
-0.0374639
0.0279586
-0.0489942
0.0361495
-0.0600166
0.0439937
-0.0698974
0.0510422
-0.0782795
0.057051
-0.0850906
0.0619782
-0.0904802
0.0659358
-0.0947261
0.0691207
-0.0981445
0.0717517
-0.101025
0.0740266
-0.103598
0.0761012
-0.106027
0.0780867
-0.108416
0.0800572
-0.110827
0.0820599
-0.113295
0.0841249
-0.115838
0.0862714
-0.118466
0.0885108
-0.121183
0.0908552
-0.123989
-0.126906
0.0932828
0.000901065
-0.00269015
0.00361991
-0.0105437
0.00813713
-0.0206496
0.0142195
-0.0323188
0.0213906
-0.044635
0.0290095
-0.0566131
0.0364232
-0.0674303
0.043116
-0.0765902
0.048794
-0.0839575
0.0533887
-0.0896853
0.0570033
-0.0940947
0.059835
-0.0975577
0.062105
-0.100414
0.0640115
-0.102932
0.0657083
-0.105295
0.0673026
-0.107621
0.0688643
-0.109977
0.0704364
-0.112399
0.0720461
-0.114904
0.0737104
-0.117503
0.0754407
-0.120197
0.0772447
-0.122987
0.0791292
-0.125873
-0.128858
0.0810809
0.00104866
-0.0037388
0.00407649
-0.0135716
0.00890804
-0.0254812
0.0151212
-0.038532
0.022073
-0.0515868
0.0290481
-0.0635882
0.0354408
-0.073823
0.0408754
-0.0820248
0.0452291
-0.0883112
0.0485786
-0.0930349
0.0511147
-0.0966308
0.0530613
-0.0995044
0.0546218
-0.101975
0.0559534
-0.104263
0.0571645
-0.106506
0.0583239
-0.108781
0.0594732
-0.111126
0.0606375
-0.113563
0.0618326
-0.116099
0.0630691
-0.118739
0.0643542
-0.121482
0.0656934
-0.124326
0.0670899
-0.12727
-0.130304
0.0685363
0.00118207
-0.00492088
0.00444783
-0.0168373
0.00943816
-0.0304715
0.0155438
-0.0446376
0.0220039
-0.058047
0.0281076
-0.0696919
0.0333634
-0.0790788
0.0375593
-0.0862207
0.0407213
-0.0914732
0.0430217
-0.0953353
0.0446858
-0.0982949
0.0459255
-0.100744
0.0469069
-0.102956
0.0477444
-0.105101
0.0485096
-0.107271
0.0492448
-0.109516
0.0499744
-0.111856
0.0507136
-0.114302
0.0514724
-0.116858
0.0522578
-0.119524
0.0530748
-0.122299
0.0539274
-0.125178
0.0548173
-0.12816
-0.13123
0.0557431
0.00129132
-0.0062122
0.00470254
-0.0202485
0.00967827
-0.0354473
0.0154492
-0.0504085
0.0212037
-0.0638015
0.0263052
-0.0747935
0.0304114
-0.083185
0.0334632
-0.0892725
0.0355943
-0.0936044
0.0370242
-0.0967651
0.0379747
-0.0992454
0.0386258
-0.101395
0.0391033
-0.103434
0.0394855
-0.105483
0.0398177
-0.107604
0.0401252
-0.109823
0.0404231
-0.112154
0.0407208
-0.1146
0.0410254
-0.117163
0.0413419
-0.119841
0.0416739
-0.122631
0.0420235
-0.125528
0.0423907
-0.128527
-0.131616
0.0427772
0.00137068
-0.00758288
0.0048215
-0.0236994
0.00960707
-0.0402328
0.0148479
-0.0556494
0.0197523
-0.0687058
0.0238059
-0.0788471
0.026819
-0.0861981
0.028854
-0.0913075
0.0301081
-0.0948585
0.0308102
-0.0974672
0.0311576
-0.0995928
0.0312926
-0.10153
0.0313052
-0.103446
0.0312471
-0.105425
0.0311461
-0.107503
0.0310175
-0.109695
0.0308709
-0.112007
0.0307129
-0.114442
0.0305486
-0.116999
0.0303821
-0.119674
0.0302167
-0.122465
0.0300539
-0.125365
0.0298927
-0.128366
0.029736
-0.13146
-0.000335175
0.000810447
-0.000475272
-0.00114015
0.00128347
-0.000478496
-0.00230122
0.0010112
0.000149873
-0.00374212
0.000263606
0.0011773
-0.005409
-0.000765363
0.00243224
-0.0072617
-0.00195757
0.00381027
-0.00926799
-0.00326075
0.00526704
-0.0113998
-0.00467148
0.0068033
-0.0136312
-0.00621512
0.0084465
-0.0159369
-0.00792797
0.0102337
-0.0182909
-0.0098447
0.0121988
-0.0206652
-0.0119911
0.0143655
-0.0230278
-0.0143813
0.0167439
-0.0253414
-0.0170162
0.0193297
-0.0275616
-0.0198828
0.022103
-0.029637
-0.0229522
0.0250276
-0.0315081
-0.0261774
0.0280485
-0.0331082
-0.0294906
0.0310907
-0.0343652
-0.0328007
0.0340577
-0.0352044
-0.0359938
0.036833
-0.0355522
-0.0389363
0.0392842
-0.0353412
-0.0414771
0.041266
-0.0345277
-0.0434387
0.0426253
-0.0446491
-0.0331226
0.0432439
-0.000340263
0.00115071
-0.00116904
0.00211224
-0.00237455
0.00221671
-0.00387773
0.00176678
-0.00561982
0.000976732
-0.00755682
-2.05756e-05
-0.00965515
-0.00116241
-0.0118885
-0.00243811
-0.0142356
-0.00386808
-0.0166778
-0.0054857
-0.0191976
-0.00732491
-0.0217761
-0.00941265
-0.0243917
-0.0117658
-0.0270184
-0.0143894
-0.0296254
-0.0172758
-0.0321755
-0.0204021
-0.0346252
-0.0237277
-0.0369244
-0.0271913
-0.0390171
-0.030708
-0.0408441
-0.0341668
-0.0423476
-0.0374329
-0.043473
-0.0403517
-0.0441704
-0.0427413
-0.0443902
-0.0444293
-0.000311338
0.00146205
-0.00108827
0.00288918
-0.00223303
0.00336147
-0.00366941
0.00320315
-0.0053361
0.00264342
-0.00718458
0.00182791
-0.0091769
0.000829903
-0.0112854
-0.000329637
-0.0134878
-0.00166561
-0.0157676
-0.0032059
-0.0181091
-0.00498344
-0.0204968
-0.007025
-0.0229137
-0.00934882
-0.0253407
-0.0119624
-0.0277558
-0.0148608
-0.0301336
-0.0180243
-0.0324452
-0.0214161
-0.0346568
-0.0249796
-0.0367293
-0.0286355
-0.0386187
-0.0322774
-0.0402822
-0.0357693
-0.041681
-0.0389528
-0.0427622
-0.0416601
-0.0436457
-0.0435067
-0.000250608
0.00171266
-0.000903043
0.00354161
-0.0018847
0.00434313
-0.00312803
0.00444648
-0.00457129
0.00408668
-0.0061612
0.00341782
-0.00785436
0.00252306
-0.00961518
0.00143119
-0.0114138
0.000132984
-0.0132327
-0.00138698
-0.0150487
-0.00316742
-0.0168425
-0.00523127
-0.018594
-0.00759729
-0.0202828
-0.0102736
-0.0218885
-0.0132551
-0.0233911
-0.0165216
-0.024772
-0.0200352
-0.026013
-0.0237386
-0.027095
-0.0275535
-0.0279944
-0.031378
-0.0286841
-0.0350796
-0.0291442
-0.0384927
-0.0293456
-0.0414587
-0.0438924
-0.029099
-0.000166308
0.00187896
-0.000636181
0.00401149
-0.00136922
0.00507617
-0.00231103
0.00538829
-0.00340186
0.00517751
-0.00458367
0.00459963
-0.0058043
0.00374369
-0.00701864
0.00264553
-0.00819016
0.00130451
-0.00928048
-0.000296661
-0.0102614
-0.00218647
-0.0111017
-0.00439101
-0.0117708
-0.00692813
-0.0122395
-0.00980495
-0.0124805
-0.0130141
-0.0124716
-0.0165306
-0.012197
-0.0203099
-0.0116491
-0.0242864
-0.010829
-0.0283737
-0.00974162
-0.0324654
-0.00838688
-0.0364343
-0.00675393
-0.0401256
-0.00487248
-0.0433402
-0.0458525
-0.00291233
-7.07271e-05
0.00194969
-0.00032328
0.00426404
-0.000750196
0.00550308
-0.0013123
0.00595039
-0.00195361
0.00581882
-0.00261216
0.00525818
-0.00322676
0.00435829
-0.00374028
0.00315906
-0.0041007
0.00166492
-0.00425773
-0.000139634
-0.00416501
-0.00227919
-0.00377699
-0.00477902
-0.00304933
-0.00765579
-0.00194029
-0.010914
-0.000413145
-0.0145412
0.00156079
-0.0185045
0.00399889
-0.022748
0.00690438
-0.0271919
0.0102646
-0.0317339
0.0140523
-0.0362531
0.018233
-0.040615
0.0227856
-0.0446782
0.0276605
-0.0482151
-0.0512284
0.0330364
2.23723e-05
0.00192732
-5.48995e-06
0.0042919
-0.000103349
0.00560094
-0.000245285
0.00609233
-0.000379682
0.00595322
-0.000441575
0.00532007
-0.000361099
0.00427781
-6.84392e-05
0.0028664
0.000504039
0.00109244
0.00142206
-0.00105766
0.00274919
-0.00360631
0.00454555
-0.00657539
0.00686764
-0.00997788
0.00976528
-0.0138116
0.0132781
-0.018054
0.0174315
-0.0226579
0.0222335
-0.02755
0.0276726
-0.0326309
0.0337177
-0.037779
0.0403213
-0.0428567
0.0474218
-0.0477155
0.0549737
-0.0522301
0.0629099
-0.0561514
-0.0598186
0.0715001
0.000100437
0.00182688
0.000277912
0.00411443
0.000498511
0.00538034
0.000779405
0.00581143
0.00116956
0.00556307
0.00173705
0.00475258
0.00256006
0.00345481
0.00372084
0.00170561
0.00530216
-0.000488877
0.00738522
-0.00314072
0.0100475
-0.00626859
0.01336
-0.00988787
0.0173834
-0.0140013
0.0221633
-0.0185915
0.0277247
-0.0236154
0.0340678
-0.029001
0.041165
-0.0346472
0.0489613
-0.0404272
0.0573783
-0.0461961
0.0663214
-0.0517998
0.0756918
-0.0570859
0.0853979
-0.0619362
0.0953641
-0.0661176
-0.070182
0.105728
0.000155377
0.00167151
0.000500464
0.00376934
0.0010028
0.00487801
0.00167975
0.00513448
0.00258193
0.00466088
0.00378255
0.00355196
0.00536888
0.00186847
0.00743545
-0.000360953
0.0100792
-0.0031326
0.0133933
-0.00645486
0.017463
-0.0103383
0.0223584
-0.0147832
0.0281272
-0.0197701
0.0347875
-0.0252518
0.0423214
-0.0311493
0.0506721
-0.0373517
0.0597448
-0.0437199
0.0694128
-0.0500952
0.079528
-0.0563112
0.0899327
-0.0622046
0.100484
-0.0676376
0.111045
-0.0724969
0.121566
-0.0766388
-0.0805431
0.131928
0.000185128
0.00148638
0.000653327
0.00330114
0.00139074
0.0041406
0.00242543
0.00409979
0.00381663
0.00326968
0.00564712
0.00172147
0.00801544
-0.000499841
0.0110288
-0.00337429
0.014793
-0.0068968
0.019405
-0.0110669
0.0249416
-0.0158749
0.0314483
-0.02129
0.0389293
-0.0272511
0.0473393
-0.0336618
0.0565812
-0.0403912
0.0665085
-0.0472791
0.0769362
-0.0541476
0.0876559
-0.0608149
0.0984556
-0.067111
0.109141
-0.0728897
0.119553
-0.0780501
0.129566
-0.0825097
0.139189
-0.0862617
-0.0895194
0.148165
0.000194646
0.00129173
0.000749939
0.00274585
0.00168567
0.00320487
0.0030516
0.00273386
0.004924
0.00139728
0.00740062
-0.000755143
0.0105935
-0.00369268
0.0146166
-0.00739741
0.0195743
-0.0118546
0.0255455
-0.017038
0.0325675
-0.0228969
0.040623
-0.0293454
0.0496306
-0.0362587
0.0594437
-0.043475
0.0698578
-0.0508052
0.0806263
-0.0580476
0.0914831
-0.0650044
0.10217
-0.0715014
0.112459
-0.0774006
0.122186
-0.0826164
0.131248
-0.087112
0.13964
-0.0909016
0.147418
-0.0940398
-0.09651
0.154408
0.000195478
0.00082472
0.00195155
0.00365658
0.00604022
0.00921802
0.0133094
0.0184219
0.0246312
0.0319602
0.0403628
0.0497143
0.0598136
0.0703967
0.0811614
0.0917974
0.10202
0.111597
0.120374
0.128282
0.135329
0.141651
0.147409
0.153237
-0.0284194
-0.0626457
0.0579426
-0.0224156
-0.0606375
0.0546337
-0.0151814
-0.0554139
0.0481797
-0.00681811
-0.0467173
0.038354
0.00253988
-0.0343048
0.0249468
0.0127502
-0.018206
0.00799567
0.0232831
0.00145604
-0.0119889
0.033994
0.0240757
-0.0347867
0.0446208
0.0485694
-0.0591961
0.05506
0.0730629
-0.0835022
0.0648767
0.0958239
-0.105641
0.0734249
0.115122
-0.12367
0.079942
0.129916
-0.136433
0.0836248
0.140488
-0.144171
0.0839887
0.148427
-0.148791
0.0816942
0.155164
-0.152869
0.0790587
0.159397
-0.156761
0.0792414
0.155824
-0.156006
0.0842573
0.137657
-0.142673
0.0937504
0.101277
-0.11077
0.10598
0.0485182
-0.0607479
0.118933
-0.0134051
0.000452478
0.131029
-0.0744269
0.0623303
0.140804
-0.123792
0.114018
0.147278
-0.156035
0.149561
0.150397
-0.172702
0.169583
0.151012
-0.178706
0.178091
0.149675
-0.178677
0.180015
0.145691
-0.178891
0.182875
0.138541
-0.185537
0.192686
0.130075
-0.194618
0.203083
0.124176
-0.187967
0.193867
0.123738
-0.145501
0.145939
0.128803
-0.0683227
0.0632572
0.136934
0.0243315
-0.0324627
0.145552
0.105049
-0.113666
0.152784
0.161465
-0.168698
0.157198
0.192038
-0.196452
0.15714
0.213251
-0.213193
0.152036
0.235821
-0.230716
0.144125
0.251202
-0.243291
0.13767
0.237419
-0.230964
0.135814
0.165986
-0.16413
0.139194
0.0623553
-0.0657357
0.145623
-0.0596431
0.0532143
0.151795
-0.141488
0.135317
0.153494
-0.201703
0.200004
0.149365
-0.237273
0.241402
0.142401
-0.256319
0.263283
0.138101
-0.256143
0.260443
0.139331
-0.159492
0.158261
0.14435
-0.0766783
0.07166
0.147554
0.079368
-0.0825726
0.146682
0.171179
-0.170306
0.143922
0.260438
-0.257678
0.142375
0.328041
-0.326493
0.142601
0.201007
-0.201234
0.142925
0.182498
-0.182822
0.141524
-0.0809441
0.0823444
-0.210212
0.212141
-0.0421631
-0.064912
-0.0383774
-0.0644232
-0.0330134
-0.0607778
-0.0259842
-0.0537466
-0.0173807
-0.0429082
-0.00740442
-0.0281823
0.00397095
-0.00991933
0.0165286
0.0115181
0.0289669
0.0361311
0.0413801
0.0606496
0.0531996
0.0840045
0.0636993
0.104622
0.0720262
0.121589
0.0774772
0.135037
0.0800398
0.145865
0.0809656
0.154238
0.0826448
0.157717
0.0873755
0.151093
0.0958117
0.129221
0.106784
0.090305
0.118579
0.0367225
0.129852
-0.0246774
0.139495
-0.0840704
0.146542
-0.130839
0.150458
-0.159952
0.151398
-0.173641
0.150247
-0.177556
0.147696
-0.176126
0.143039
-0.174234
0.135328
-0.177826
0.126004
-0.185293
0.119154
-0.181118
0.118334
-0.14468
0.123856
-0.0738449
0.133197
0.0149907
0.143423
0.0948222
0.152326
0.152563
0.158113
0.186251
0.159083
0.212281
0.154851
0.240053
0.147766
0.258287
0.14174
0.243445
0.139555
0.168171
0.141847
0.0600634
0.14689
-0.0646857
0.152055
-0.146653
0.153217
-0.202866
0.148867
-0.232923
0.141733
-0.249184
0.137515
-0.251926
0.13891
-0.160886
0.144028
-0.0817967
0.147321
0.076075
0.146522
0.171978
0.143959
0.263001
0.14247
0.32953
0.142954
0.200523
0.143604
0.181848
0.142325
-0.0796645
-0.20831
-0.0441661
-0.0642526
-0.043454
-0.0651353
-0.0410342
-0.0631976
-0.0366444
-0.0581364
-0.0301295
-0.0494231
-0.0215025
-0.0368093
-0.0110663
-0.0203555
0.00101159
-0.000559832
0.0149154
0.0222273
0.0286781
0.0468869
0.042144
0.0705385
0.0544299
0.0923364
0.0646968
0.111322
0.0724749
0.127259
0.0781282
0.140211
0.0830723
0.149294
0.0892559
0.151534
0.097951
0.142398
0.108806
0.118366
0.120254
0.0788566
0.131022
0.0259548
0.140262
-0.0339172
0.147321
-0.0911293
0.151618
-0.135136
0.153052
-0.161387
0.151997
-0.172586
0.149294
-0.174853
0.145706
-0.172538
0.140633
-0.169162
0.132741
-0.169933
0.122844
-0.175397
0.115026
-0.173299
0.113525
-0.14318
0.119144
-0.079464
0.129454
0.00468073
0.141135
0.0831417
0.151652
0.142046
0.158852
0.17905
0.161019
0.210114
0.157884
0.243188
0.151756
0.264415
0.146168
0.249033
0.143566
0.170772
0.144679
0.0589507
0.148232
-0.0682386
0.152328
-0.150749
0.152992
-0.20353
0.148502
-0.228433
0.141236
-0.241918
0.137056
-0.247746
0.138559
-0.16239
0.143782
-0.0870194
0.147207
0.0726504
0.146486
0.172699
0.144081
0.265406
0.142647
0.330965
0.143426
0.199743
0.144452
0.180822
0.143307
-0.0785189
-0.206435
-0.0326688
-0.0606828
-0.0353112
-0.0624928
-0.0364455
-0.0620633
-0.0356496
-0.0589323
-0.0325184
-0.0525544
-0.0268356
-0.042492
-0.018563
-0.0286282
-0.00802973
-0.0110931
0.0046565
0.0095411
0.01865
0.0328934
0.033014
0.0561745
0.0467532
0.0785972
0.0590639
0.0990112
0.0696098
0.116713
0.0788435
0.130978
0.0879354
0.140202
0.0981541
0.141315
0.109875
0.130677
0.122107
0.106134
0.133341
0.0676226
0.142617
0.0166788
0.149782
-0.0410818
0.154327
-0.0956747
0.155988
-0.136797
0.155062
-0.160461
0.152197
-0.169721
0.14815
-0.170806
0.143658
-0.168045
0.138326
-0.16383
0.130612
-0.162219
0.120561
-0.165346
0.111862
-0.1646
0.109373
-0.14069
0.1147
-0.0847912
0.125668
-0.00628729
0.138627
0.0701832
0.150677
0.129996
0.15933
0.170397
0.162864
0.206581
0.161031
0.24502
0.155971
0.269476
0.150803
0.254201
0.147753
0.173822
0.147614
0.0590892
0.149625
-0.0702491
0.152597
-0.153722
0.152786
-0.203718
0.148224
-0.223871
0.140857
-0.234551
0.136657
-0.243546
0.13823
-0.163962
0.143579
-0.0923686
0.147194
0.069035
0.146569
0.173324
0.144294
0.267681
0.142914
0.332345
0.144021
0.198636
0.145468
0.179375
0.144468
-0.077519
-0.204586
-0.00858834
-0.0550068
-0.0141302
-0.056951
-0.0186021
-0.0575914
-0.0215446
-0.0559898
-0.0223746
-0.0517243
-0.0207573
-0.0441093
-0.0161338
-0.0332517
-0.00871115
-0.0185157
0.00145932
-0.000629374
0.0143771
0.0199757
0.0284638
0.0420878
0.0428892
0.0641718
0.0568216
0.0850788
0.0699077
0.103627
0.0824017
0.118484
0.0950001
0.127603
0.108273
0.128042
0.121928
0.117022
0.134692
0.0933702
0.145251
0.0570639
0.153088
0.00884132
0.158209
-0.0462032
0.160349
-0.0978144
0.1595
-0.135947
0.156371
-0.157332
0.151901
-0.16525
0.146754
-0.165659
0.141525
-0.162816
0.136043
-0.158348
0.128774
-0.15495
0.119014
-0.155586
0.109702
-0.155289
0.106024
-0.137012
0.110644
-0.0894108
0.121832
-0.0174756
0.135836
0.0561787
0.149295
0.116537
0.159425
0.160268
0.164486
0.20152
0.164143
0.245363
0.160249
0.27337
0.155495
0.258956
0.15196
0.177357
0.15059
0.0604596
0.151031
-0.07069
0.152835
-0.155526
0.152562
-0.203446
0.14799
-0.219299
0.140548
-0.227108
0.136265
-0.239264
0.137868
-0.165565
0.143378
-0.0978789
0.14726
0.0651528
0.146767
0.173817
0.144603
0.269844
0.143279
0.333669
0.144738
0.197177
0.146649
0.177465
0.145804
-0.0766749
-0.202762
0.025786
-0.0477564
0.0182941
-0.0494591
0.0110015
-0.0502988
0.00440641
-0.0493947
-0.000646687
-0.0466712
-0.00296091
-0.0417951
-0.002602
-0.0336106
0.00110559
-0.0222233
0.00861584
-0.00813962
0.0187337
0.00985777
0.0310976
0.0297238
0.0449383
0.0503312
0.0594281
0.070589
0.0740656
0.0889896
0.0887512
0.103798
0.103636
0.112719
0.118675
0.113003
0.133137
0.10256
0.145719
0.0807877
0.15543
0.0473532
0.161971
0.00230026
0.165274
-0.049506
0.165164
-0.0977046
0.162006
-0.132789
0.156905
-0.152232
0.15105
-0.159395
0.145041
-0.159651
0.139248
-0.157022
0.133671
-0.152772
0.12701
-0.148289
0.11796
-0.146535
0.108451
-0.14578
0.10358
-0.132141
0.107073
-0.0929037
0.117978
-0.0283805
0.132701
0.0414553
0.147385
0.101853
0.158989
0.148663
0.165715
0.194794
0.167032
0.244045
0.164409
0.275993
0.160066
0.263299
0.156061
0.181361
0.153504
0.0630172
0.152403
-0.069589
0.153005
-0.156128
0.152277
-0.202718
0.147758
-0.21478
0.140264
-0.219614
0.13583
-0.23483
0.137421
-0.167156
0.143133
-0.10359
0.147376
0.06091
0.147069
0.174124
0.145014
0.271899
0.143747
0.334936
0.145576
0.195348
0.147988
0.175053
0.147308
-0.0759948
-0.200964
0.0641977
-0.040454
0.056671
-0.0419323
0.0488648
-0.0424927
0.0411758
-0.0417056
0.0340925
-0.039588
0.0281692
-0.0358718
0.0245519
-0.0299933
0.0239872
-0.0216586
0.0265257
-0.0106782
0.0326419
0.00374158
0.0418525
0.0205133
0.0536689
0.0385148
0.0672942
0.0569636
0.0820559
0.0742279
0.097482
0.0883721
0.113212
0.0969892
0.128715
0.0974996
0.143006
0.088269
0.154897
0.0688965
0.16367
0.0385802
0.169056
-0.00308615
0.170734
-0.051184
0.168588
-0.0955586
0.163381
-0.127582
0.156589
-0.145439
0.149588
-0.152394
0.142944
-0.153007
0.136774
-0.150851
0.131133
-0.147131
0.125112
-0.142268
0.117096
-0.13852
0.107892
-0.136576
0.10203
-0.126278
0.104054
-0.0949278
0.114202
-0.0385286
0.129185
0.0264723
0.144837
0.0862008
0.157868
0.135633
0.166363
0.186299
0.169502
0.240905
0.168258
0.277237
0.164369
0.267187
0.159924
0.185807
0.156251
0.0666904
0.153687
-0.0670255
0.153067
-0.155508
0.151885
-0.201535
0.147483
-0.210378
0.139969
-0.212101
0.135313
-0.230174
0.136842
-0.168685
0.142789
-0.109537
0.147503
0.0561963
0.147462
0.174165
0.145529
0.273833
0.144323
0.336142
0.146533
0.193138
0.14948
0.172105
0.148971
-0.0754849
-0.199189
0.0988443
-0.0335708
0.0918902
-0.0349782
0.0847333
-0.0353358
0.0774188
-0.0343911
0.0701182
-0.0322874
0.0632121
-0.0289657
0.0574248
-0.024206
0.0535373
-0.017771
0.0522015
-0.00934242
0.0541818
0.00176123
0.0595455
0.0151496
0.0682159
0.0298444
0.0796323
0.0455471
0.093083
0.0607772
0.107818
0.0736371
0.123068
0.0817394
0.137942
0.0826251
0.151343
0.0748688
0.162245
0.057994
0.170055
0.0307702
0.17436
-0.00739068
0.174506
-0.0513301
0.170501
-0.0915542
0.163531
-0.120611
0.155371
-0.137279
0.147478
-0.144502
0.140398
-0.145927
0.134032
-0.144486
0.128367
-0.141466
0.122912
-0.136814
0.116094
-0.131702
0.107692
-0.128173
0.101234
-0.119821
0.101683
-0.0953767
0.110559
-0.0474052
0.125291
0.0117408
0.141577
0.0699145
0.155925
0.121285
0.166242
0.175983
0.171322
0.235825
0.171574
0.276985
0.168212
0.270549
0.163405
0.190614
0.158743
0.0713527
0.154825
-0.0631071
0.152981
-0.153664
0.151334
-0.199888
0.147117
-0.206161
0.139629
-0.204613
0.134687
-0.225232
0.136089
-0.170087
0.142295
-0.115744
0.147602
0.05089
0.14793
0.173837
0.14615
0.275612
0.14501
0.337282
0.147605
0.190543
0.151118
0.168592
0.150782
-0.0751488
-0.197442
0.125489
-0.0271319
0.119103
-0.0285924
0.112689
-0.028922
0.106333
-0.0280355
0.100123
-0.0260774
0.0941321
-0.0229743
0.0886073
-0.0186812
0.0840113
-0.013175
0.0809886
-0.00631973
0.0800585
0.00269133
0.08194
0.0132682
0.0870739
0.0247105
0.0953682
0.0372528
0.10633
0.049815
0.119157
0.0608109
0.132848
0.0680484
0.14628
0.0691924
0.158311
0.0628381
0.168029
0.0482759
0.174793
0.024006
0.177913
-0.01051
0.176499
-0.0499166
0.170781
-0.0858359
0.162343
-0.112174
0.153158
-0.128094
0.144639
-0.135983
0.137291
-0.138579
0.130893
-0.138088
0.125271
-0.135843
0.120269
-0.131812
0.114642
-0.126075
0.107431
-0.120962
0.100913
-0.113302
0.0999099
-0.0943741
0.107139
-0.0546339
0.12107
-0.00219034
0.137576
0.0534087
0.153045
0.105816
0.165184
0.163844
0.172344
0.228665
0.174217
0.275112
0.171448
0.273318
0.166374
0.195688
0.160883
0.0768438
0.155747
-0.0579711
0.152694
-0.150611
0.150565
-0.197759
0.146606
-0.202201
0.139213
-0.197221
0.133934
-0.219953
0.135133
-0.171286
0.141596
-0.122206
0.147625
0.0448611
0.148447
0.173015
0.146875
0.277184
0.14581
0.338346
0.148791
0.187563
0.152891
0.164493
0.152731
-0.0749886
-0.195723
0.142391
-0.0213576
0.136652
-0.0228536
0.130925
-0.0231953
0.125519
-0.0226297
0.120603
-0.0211611
0.116138
-0.0185095
0.112128
-0.0146705
0.108686
-0.00973359
0.106033
-0.00366625
0.104504
0.00422033
0.104934
0.012838
0.107668
0.0219764
0.113091
0.0318299
0.121112
0.0417943
0.13124
0.0506827
0.14257
0.0567182
0.153943
0.0578198
0.164208
0.0525732
0.172504
0.0399794
0.178048
0.0184619
0.179726
-0.0121879
0.176625
-0.0468154
0.169332
-0.0785435
0.159741
-0.102583
0.14987
-0.118222
0.140977
-0.12709
0.133501
-0.131102
0.1272
-0.131787
0.121723
-0.130366
0.117076
-0.127165
0.112505
-0.121504
0.106709
-0.115165
0.100674
-0.107268
0.0985758
-0.0922761
0.104021
-0.0600789
0.116575
-0.0147445
0.132859
0.0371242
0.149174
0.0895019
0.163027
0.149991
0.172278
0.219413
0.175896
0.271494
0.173883
0.275332
0.168699
0.200872
0.162589
0.0829544
0.156409
-0.0517916
0.152177
-0.146379
0.149536
-0.195119
0.145899
-0.198563
0.138701
-0.190023
0.133065
-0.214317
0.133964
-0.172185
0.14064
-0.128883
0.147523
0.0379785
0.148986
0.171552
0.147696
0.278475
0.146723
0.339319
0.150088
0.184198
0.154787
0.159794
0.154806
-0.0750078
-0.194037
0.149551
-0.0165006
0.144532
-0.0178344
0.139528
-0.0181912
0.135044
-0.0181459
0.131219
-0.017336
0.128069
-0.0153596
0.125621
-0.0122219
0.123924
-0.00803669
0.123178
-0.00292006
0.123167
0.00423124
0.123882
0.0121231
0.12591
0.0199483
0.129807
0.0279327
0.135702
0.0358995
0.143361
0.043023
0.152156
0.0479234
0.161159
0.0488167
0.169377
0.0443552
0.175949
0.0334076
0.179666
0.0147452
0.179763
-0.0122855
0.175011
-0.0420628
0.166457
-0.0699897
0.156126
-0.0922516
0.145927
-0.108024
0.136906
-0.118069
0.129399
-0.123596
0.123238
-0.125626
0.117964
-0.125092
0.11356
-0.122761
0.109777
-0.117722
0.105388
-0.110776
0.100257
-0.102137
0.0975062
-0.0895249
0.10114
-0.0637125
0.11199
-0.0255943
0.127491
0.0216227
0.144274
0.0727191
0.159776
0.134489
0.171279
0.20791
0.176765
0.266008
0.175502
0.276594
0.170349
0.206025
0.163856
0.0894473
0.156874
-0.04481
0.151506
-0.14101
0.148309
-0.191922
0.145007
-0.195261
0.138105
-0.183122
0.132129
-0.208341
0.132621
-0.172677
0.139396
-0.135658
0.147237
0.0301371
0.14951
0.169279
0.148604
0.27938
0.147745
0.340178
0.151491
0.180451
0.156793
0.154492
0.156994
-0.0752082
-0.192392
0.149801
-0.0130642
0.145637
-0.0136704
0.141629
-0.0141833
0.137982
-0.0144991
0.134824
-0.0141773
0.132391
-0.0129268
0.130828
-0.0106588
0.130124
-0.00733304
0.130131
-0.00292687
0.131361
0.00300114
0.133733
0.00975127
0.136944
0.016737
0.141016
0.0238608
0.146189
0.0307268
0.152485
0.0367266
0.159549
0.0408591
0.166657
0.0417094
0.172979
0.0380333
0.177686
0.0287007
0.179911
0.0125197
0.177777
-0.0101514
0.171526
-0.0358116
0.162208
-0.0606722
0.151773
-0.0818167
0.141769
-0.0980197
0.132956
-0.109256
0.125559
-0.116199
0.119532
-0.119599
0.114452
-0.120012
0.110181
-0.11849
0.106841
-0.114381
0.103625
-0.107561
0.0996149
-0.0981265
0.0966701
-0.08658
0.0987189
-0.0657613
0.107514
-0.0343898
0.12179
0.00734654
0.138361
0.0561486
0.154854
0.117996
0.168431
0.194334
0.176085
0.258354
0.17597
0.276708
0.17115
0.210846
0.1646
0.0959973
0.157024
-0.0372346
0.150687
-0.134674
0.146956
-0.188191
0.143968
-0.192273
0.137435
-0.176588
0.131168
-0.202074
0.131181
-0.172691
0.137935
-0.142412
0.146759
0.0213131
0.149983
0.166055
0.149575
0.279789
0.148872
0.340881
0.152999
0.176324
0.158894
0.148597
0.159292
-0.0756063
-0.190775
0.184518
-0.00894934
-0.188633
0.181092
-0.0102435
0.177675
-0.0107665
0.174109
-0.010933
0.170478
-0.0105464
0.16693
-0.00937939
0.163583
-0.00731109
0.160535
-0.0042851
0.157905
-0.000297444
0.156086
0.00482036
0.155118
0.010719
0.154954
0.0169016
0.155784
0.0230304
0.157861
0.0286505
0.161452
0.0331356
0.166714
0.0355963
0.173504
0.0349196
0.181411
0.0301268
0.189705
0.0204067
0.196904
0.00532036
0.201513
-0.0147599
0.202433
-0.0367322
0.199753
-0.0579921
0.194345
-0.0764082
0.187262
-0.0909368
0.179364
-0.101358
0.171242
-0.108077
0.163349
-0.111706
0.15574
-0.112403
0.148316
-0.111065
0.141344
-0.107409
0.134623
-0.10084
0.126993
-0.0904968
0.118738
-0.0783245
0.113055
-0.0600782
0.11296
-0.0342954
0.118181
0.00212555
0.125636
0.0486941
0.132757
0.110875
0.138526
0.188564
0.143454
0.253426
0.148995
0.271168
0.156647
0.203193
0.163589
0.0890552
0.166373
-0.0400182
0.164672
-0.132973
0.160718
-0.184236
0.155237
-0.186793
0.147071
-0.168422
0.138433
-0.193436
0.134141
-0.168398
0.134353
-0.142624
0.136294
0.0193724
0.135565
0.166784
0.133694
0.281659
0.135165
0.339411
0.140982
0.170506
0.147692
0.141888
0.147933
-0.0758478
-0.187363
0.194717
-0.00596607
-0.197701
0.191701
-0.00722738
0.188749
-0.00781462
0.185721
-0.0079043
0.18268
-0.00750616
0.179776
-0.00647518
0.177147
-0.00468206
0.174936
-0.0020735
0.173244
0.00139446
0.172325
0.00573928
0.172305
0.0107392
0.173223
0.0159831
0.175154
0.0210994
0.178188
0.025617
0.182406
0.0289173
0.187791
0.0302115
0.1941
0.0286107
0.200841
0.0233857
0.207263
0.0139847
0.212344
0.000239419
0.214723
-0.0171397
0.213981
-0.0359899
0.210287
-0.0542981
0.204322
-0.070443
0.196941
-0.083556
0.188915
-0.0933318
0.180743
-0.0999055
0.172808
-0.10377
0.165217
-0.104812
0.157789
-0.103637
0.150676
-0.100297
0.144077
-0.0942406
0.13706
-0.0834798
0.129176
-0.0704403
0.122855
-0.0537575
0.121454
-0.0328946
0.125726
-0.00214657
0.133046
0.0413743
0.140784
0.103137
0.147636
0.181712
0.153862
0.2472
0.160764
0.264265
0.169424
0.194533
0.177006
0.0814737
0.179597
-0.0426097
0.17706
-0.130436
0.172021
-0.179197
0.165892
-0.180664
0.157226
-0.159755
0.14798
-0.18419
0.142921
-0.16334
0.142865
-0.142568
0.145204
0.0170337
0.144888
0.1671
0.143287
0.28326
0.145103
0.337595
0.151463
0.164146
0.158839
0.134512
0.158848
-0.0758567
-0.183519
0.205121
-0.00356381
-0.207523
0.202465