/*--------------------------------*- C++ -*----------------------------------*\
| =========                 |                                                 |
| \\      /  F ield         | OpenFOAM: The Open Source CFD Toolbox           |
|  \\    /   O peration     | Version:  2512                                  |
|   \\  /    A nd           | Website:  www.openfoam.com                      |
|    \\/     M anipulation  |                                                 |
\*---------------------------------------------------------------------------*/
FoamFile
{
    version     2.0;
    format      ascii;
    arch        "LSB;label=32;scalar=64";
    class       volScalarField;
    location    "13.25";
    object      p;
}
// * * * * * * * * * * * * * * * * * * * * * * * * * * * * * * * * * * * * * //

dimensions      [0 2 -2 0 0 0 0];

internalField   nonuniform List<scalar> 
13248
(
-0.340508
-0.338739
-0.336231
-0.333201
-0.329931
-0.326709
-0.323774
-0.321296
-0.319367
-0.318007
-0.31716
-0.316703
-0.316456
-0.316205
-0.315713
-0.31475
-0.313108
-0.310621
-0.307167
-0.30271
-0.297115
-0.290574
-0.28214
-0.272693
-0.347639
-0.345301
-0.342219
-0.338632
-0.334814
-0.331059
-0.327585
-0.324528
-0.321935
-0.319773
-0.317934
-0.316254
-0.31453
-0.312551
-0.310118
-0.307061
-0.303259
-0.29864
-0.293176
-0.286873
-0.279723
-0.271769
-0.262777
-0.253568
-0.356589
-0.35342
-0.349618
-0.3454
-0.340997
-0.336675
-0.332611
-0.328875
-0.325449
-0.322239
-0.319096
-0.315845
-0.31231
-0.308339
-0.303819
-0.298684
-0.292918
-0.286539
-0.279584
-0.272105
-0.264103
-0.255664
-0.246636
-0.237615
-0.367442
-0.363198
-0.358531
-0.353597
-0.348536
-0.343557
-0.338759
-0.334129
-0.329574
-0.324956
-0.32013
-0.314965
-0.309368
-0.303292
-0.296736
-0.289736
-0.282348
-0.274633
-0.266642
-0.258413
-0.24996
-0.24134
-0.232454
-0.223884
-0.380194
-0.374675
-0.369019
-0.363282
-0.357455
-0.351652
-0.345873
-0.340013
-0.33393
-0.327497
-0.320632
-0.313312
-0.305566
-0.29746
-0.289086
-0.280532
-0.271876
-0.26317
-0.254447
-0.24572
-0.236992
-0.228283
-0.219538
-0.211146
-0.394774
-0.387833
-0.381102
-0.374472
-0.367719
-0.36083
-0.353696
-0.346153
-0.338075
-0.329423
-0.32025
-0.31067
-0.300832
-0.290885
-0.280956
-0.271136
-0.261482
-0.252015
-0.24274
-0.233644
-0.224714
-0.215944
-0.207297
-0.199036
-0.411015
-0.402568
-0.394706
-0.38707
-0.379154
-0.37079
-0.361801
-0.352044
-0.341506
-0.330318
-0.318699
-0.306896
-0.295131
-0.283577
-0.272347
-0.261498
-0.251045
-0.240977
-0.231268
-0.221886
-0.212802
-0.203989
-0.195428
-0.187243
-0.428593
-0.418629
-0.409596
-0.400789
-0.391357
-0.381006
-0.369578
-0.357077
-0.343706
-0.329807
-0.315755
-0.301874
-0.288399
-0.275472
-0.263158
-0.251462
-0.240358
-0.229803
-0.219747
-0.210142
-0.200946
-0.19212
-0.183647
-0.17554
-0.446986
-0.43556
-0.425311
-0.415085
-0.40367
-0.390732
-0.376287
-0.360615
-0.344201
-0.327588
-0.311246
-0.295505
-0.280555
-0.266472
-0.253258
-0.240867
-0.229235
-0.218293
-0.207971
-0.198207
-0.188946
-0.180144
-0.171773
-0.16376
-0.465426
-0.452658
-0.441114
-0.429123
-0.415171
-0.399052
-0.381125
-0.362049
-0.342587
-0.323417
-0.305022
-0.287673
-0.271479
-0.256438
-0.242486
-0.229536
-0.21749
-0.206256
-0.19575
-0.185894
-0.176623
-0.167886
-0.159631
-0.151738
-0.482914
-0.468956
-0.455982
-0.441788
-0.424728
-0.40493
-0.383249
-0.360747
-0.338403
-0.316936
-0.296768
-0.27807
-0.260853
-0.245037
-0.230505
-0.217129
-0.204788
-0.193369
-0.182771
-0.172906
-0.163699
-0.155086
-0.14698
-0.139264
-0.498307
-0.483352
-0.468778
-0.451907
-0.431192
-0.407326
-0.38176
-0.355933
-0.330946
-0.307476
-0.285823
-0.266035
-0.248022
-0.231631
-0.216695
-0.203053
-0.19056
-0.179086
-0.168517
-0.158754
-0.149716
-0.141325
-0.133463
-0.126069
-0.288704
-0.292614
-0.295164
-0.297133
-0.299179
-0.301495
-0.304166
-0.307239
-0.310722
-0.314599
-0.318836
-0.323386
-0.328188
-0.333169
-0.338244
-0.343311
-0.348258
-0.352961
-0.357291
-0.361104
-0.364239
-0.36656
-0.368065
-0.368825
-0.290996
-0.294566
-0.296944
-0.298839
-0.300853
-0.303169
-0.305868
-0.308992
-0.312551
-0.316527
-0.320887
-0.325583
-0.330556
-0.335733
-0.341025
-0.34633
-0.351529
-0.356492
-0.361082
-0.365153
-0.368529
-0.371017
-0.372591
-0.373625
-0.295029
-0.297954
-0.29999
-0.301712
-0.30362
-0.305876
-0.308551
-0.311685
-0.315283
-0.319327
-0.323786
-0.328613
-0.33375
-0.339124
-0.344647
-0.350214
-0.355704
-0.360978
-0.365888
-0.370282
-0.373986
-0.376727
-0.378308
-0.37953
-0.300218
-0.302292
-0.30385
-0.305298
-0.307005
-0.309104
-0.31166
-0.314704
-0.31824
-0.32225
-0.326702
-0.33155
-0.336739
-0.342197
-0.347838
-0.353555
-0.359225
-0.364705
-0.369833
-0.374443
-0.378372
-0.381373
-0.382952
-0.383273
-0.305877
-0.307028
-0.308024
-0.309099
-0.310488
-0.3123
-0.314593
-0.317395
-0.320708
-0.324513
-0.328781
-0.333467
-0.338517
-0.343862
-0.349417
-0.355079
-0.360725
-0.366211
-0.371372
-0.376026
-0.379991
-0.383036
-0.384762
-0.385047
-0.311389
-0.311674
-0.312083
-0.3127
-0.313647
-0.315019
-0.316877
-0.319249
-0.322142
-0.325539
-0.329414
-0.333725
-0.33842
-0.343434
-0.348683
-0.354067
-0.359465
-0.364738
-0.36972
-0.374215
-0.378037
-0.380921
-0.382862
-0.382321
-0.316321
-0.315911
-0.315762
-0.315858
-0.316252
-0.317038
-0.31829
-0.320048
-0.322328
-0.325126
-0.328419
-0.332172
-0.336337
-0.340849
-0.345629
-0.350579
-0.355561
-0.360447
-0.365068
-0.369228
-0.372751
-0.375128
-0.377119
-0.375157
-0.32051
-0.319629
-0.31899
-0.318536
-0.318297
-0.318385
-0.318898
-0.3199
-0.321427
-0.323491
-0.32608
-0.329168
-0.332708
-0.336638
-0.340866
-0.345294
-0.349807
-0.35423
-0.358386
-0.362029
-0.365102
-0.366708
-0.368536
-0.365474
-0.324062
-0.322927
-0.321879
-0.320874
-0.319966
-0.3193
-0.319009
-0.31919
-0.319907
-0.32119
-0.323044
-0.325445
-0.328349
-0.331687
-0.335367
-0.339258
-0.343211
-0.34704
-0.350555
-0.353452
-0.355771
-0.356369
-0.357349
-0.353195
-0.327316
-0.326079
-0.324684
-0.323147
-0.321577
-0.320165
-0.319082
-0.318463
-0.318397
-0.318936
-0.320094
-0.321849
-0.324144
-0.326885
-0.329947
-0.333168
-0.33636
-0.339313
-0.341825
-0.343612
-0.344731
-0.344239
-0.343817
-0.338728
-0.330776
-0.329479
-0.327758
-0.325707
-0.323512
-0.321407
-0.319602
-0.318259
-0.317489
-0.317355
-0.317868
-0.318988
-0.320628
-0.322656
-0.324901
-0.327159
-0.329202
-0.330803
-0.331754
-0.331882
-0.331203
-0.329429
-0.327655
-0.322764
-0.335008
-0.333567
-0.331485
-0.328932
-0.326157
-0.323433
-0.320997
-0.319025
-0.317635
-0.316879
-0.316746
-0.317162
-0.317996
-0.319067
-0.320161
-0.321038
-0.321455
-0.321194
-0.320056
-0.31796
-0.314812
-0.310858
-0.30654
-0.30151
-0.368466
-0.36454
-0.356983
-0.345011
-0.328217
-0.306327
-0.279397
-0.247656
-0.211696
-0.172608
-0.131771
-0.0909341
-0.0518869
-0.0162809
0.014291
0.0388852
0.0571459
0.0693341
0.0761916
0.0787383
0.0780331
0.0751319
0.0708445
0.0658227
0.060529
0.0552676
0.0502361
0.0455282
0.0411823
0.0372
0.0335786
0.0303032
0.0273279
0.0246348
0.0222008
0.020012
0.0180496
0.0162913
0.0147198
0.0133153
0.0120637
0.0109426
0.00994295
0.0090401
0.00823346
0.00749522
0.0068331
0.00621755
0.00565836
0.00513287
0.00463965
0.00417523
0.00371697
0.00328127
0.00283069
0.00239029
0.00191111
0.00143478
0.000882634
0.000328721
-0.374335
-0.370397
-0.362863
-0.350806
-0.333857
-0.31175
-0.284463
-0.252267
-0.21581
-0.176198
-0.134867
-0.0934058
-0.053824
-0.0178183
0.0129993
0.0377913
0.0562146
0.0685462
0.0755479
0.0782403
0.0776957
0.0748683
0.0706518
0.0656919
0.0604452
0.0552157
0.0502016
0.0455104
0.041202
0.0372453
0.0336388
0.0303845
0.0274072
0.0247094
0.022269
0.0200763
0.01811
0.0163463
0.0147684
0.0133581
0.012101
0.0109759
0.00997176
0.00906635
0.00825588
0.00751613
0.00685076
0.00623396
0.00567271
0.00514521
0.00465164
0.00418422
0.00372665
0.00328784
0.00283818
0.00239428
0.00191724
0.0014355
0.00088703
0.000325073
-0.382615
-0.379359
-0.37243
-0.36094
-0.344411
-0.322644
-0.295552
-0.263377
-0.226749
-0.186785
-0.144802
-0.102302
-0.0619644
-0.0251681
0.00653436
0.0321647
0.0513707
0.0644258
0.0720916
0.0753926
0.0753971
0.0730632
0.069262
0.0646466
0.0596822
0.0546848
0.0498348
0.0452407
0.0409517
0.0370403
0.0334593
0.0302936
0.0273642
0.0246979
0.022271
0.0200925
0.0181365
0.0163769
0.0147991
0.0133877
0.0121285
0.0110017
0.00999494
0.00908828
0.00827492
0.0075344
0.00686632
0.00624872
0.00568575
0.0051565
0.00466283
0.00419259
0.00373589
0.00329411
0.00284552
0.00239822
0.00192341
0.00143637
0.000891524
0.000321556
-0.390571
-0.38669
-0.381109
-0.370783
-0.355074
-0.334338
-0.30814
-0.276686
-0.240536
-0.200696
-0.158595
-0.115951
-0.0748619
-0.0371567
-0.00440168
0.022367
0.0427504
0.0569799
0.0657822
0.0701579
0.0711642
0.0697071
0.0666277
0.0625987
0.0581016
0.0534654
0.0488953
0.044539
0.0404758
0.0367262
0.0332931
0.0300747
0.0271863
0.0245965
0.0222099
0.0200644
0.0181325
0.016386
0.0148144
0.0134061
0.0121478
0.0110218
0.0100139
0.00910712
0.00829169
0.00755099
0.00688065
0.00626255
0.00569812
0.00516736
0.00467371
0.00420087
0.00374507
0.00330054
0.002853
0.00240249
0.0019298
0.0014377
0.000896172
0.000318379
-0.391955
-0.391155
-0.38586
-0.376749
-0.362903
-0.343768
-0.319144
-0.289168
-0.254308
-0.21546
-0.17397
-0.131618
-0.0903917
-0.05218
-0.0185927
0.00927166
0.0309512
0.0466048
0.0568769
0.0627001
0.0650737
0.0648568
0.0628139
0.0596295
0.0558121
0.0517135
0.0475704
0.0435392
0.0397117
0.0361352
0.032833
0.0297715
0.0269999
0.0244026
0.0220792
0.0199915
0.0180981
0.016373
0.0148134
0.0134127
0.0121587
0.0110357
0.0100284
0.00912272
0.00830611
0.00756581
0.00689371
0.00627545
0.00570983
0.00517781
0.00468424
0.00420911
0.00375416
0.00330716
0.00286058
0.00240716
0.00193634
0.00143961
0.000900891
0.000315682
-0.389712
-0.389875
-0.385583
-0.377927
-0.365873
-0.34865
-0.326079
-0.298232
-0.265446
-0.22849
-0.188588
-0.147386
-0.106785
-0.068677
-0.0347007
-0.00600383
0.0168843
0.0340267
0.0459413
0.0534378
0.0574225
0.0587238
0.0579848
0.0558644
0.0529028
0.0494836
0.0458706
0.0422447
0.0387268
0.0353899
0.0322694
0.0293538
0.0266646
0.0242202
0.021869
0.0198711
0.0180345
0.0163384
0.014796
0.0134071
0.0121607
0.011043
0.0100382
0.00913476
0.00831796
0.00757865
0.00690535
0.00628725
0.00572071
0.00518774
0.0046943
0.00421723
0.00376303
0.00331394
0.00286813
0.00241223
0.0019429
0.00144215
0.000905564
0.000313618
-0.381165
-0.382605
-0.379766
-0.373838
-0.363655
-0.348449
-0.328114
-0.302685
-0.272445
-0.238117
-0.200709
-0.16162
-0.12254
-0.0852716
-0.0514628
-0.0223172
0.00155728
0.0201063
0.0336898
0.0429483
0.0486646
0.051604
0.0523506
0.0514589
0.0494845
0.0468507
0.0438548
0.0407082
0.0375586
0.034501
0.0315914
0.0288533
0.0262947
0.0239062
0.0215689
0.0196991
0.0179435
0.0162831
0.0147624
0.0133893
0.0121538
0.0110438
0.0100431
0.00914311
0.00832712
0.00758939
0.00691546
0.00629786
0.00573068
0.00519709
0.00470378
0.00422522
0.00377156
0.00332087
0.00287555
0.00241772
0.00194936
0.00144539
0.000910078
0.000312373
-0.370206
-0.370738
-0.368915
-0.364667
-0.356185
-0.342957
-0.32505
-0.302344
-0.274954
-0.243538
-0.209171
-0.173061
-0.136446
-0.100838
-0.0678229
-0.0386796
-0.0141251
0.00564207
0.0207985
0.0317923
0.0392454
0.0438241
0.0461195
0.0465609
0.0456648
0.0438893
0.0415738
0.0389616
0.0362256
0.0334852
0.0308192
0.0282713
0.0258677
0.0236023
0.0216717
0.0194937
0.0178286
0.0162075
0.0147129
0.0133594
0.0121379
0.0110377
0.0100431
0.00914762
0.00833348
0.00759787
0.00692398
0.00630717
0.00573967
0.00520582
0.00471258
0.00423306
0.00377968
0.00332796
0.00288274
0.00242368
0.0019556
0.00144943
0.000914328
0.000312181
-0.355303
-0.354491
-0.353638
-0.350861
-0.34381
-0.332529
-0.317179
-0.297385
-0.273155
-0.245058
-0.213997
-0.181138
-0.14763
-0.114434
-0.0828632
-0.0542217
-0.0293598
-0.00865013
0.00787681
0.0204675
0.0295669
0.0357267
0.0395022
0.0413122
0.0415572
0.0406873
0.0390857
0.0370381
0.0347464
0.0323527
0.0299551
0.0276164
0.0253784
0.023259
0.0212841
0.0191928
0.017691
0.0161099
0.0146473
0.0133175
0.0121129
0.0110249
0.010038
0.00914825
0.00833709
0.0076041
0.00693093
0.00631521
0.00574767
0.00521396
0.00472068
0.00424078
0.00378734
0.00333522
0.00288966
0.00243014
0.00196154
0.00145436
0.000918233
0.000313332
-0.337039
-0.33474
-0.334971
-0.333265
-0.327367
-0.318113
-0.305447
-0.288681
-0.267795
-0.243271
-0.215803
-0.186337
-0.156002
-0.125607
-0.0960163
-0.0683915
-0.0436552
-0.0223534
-0.00473864
0.00922685
0.0198122
0.0274343
0.0325753
0.0357142
0.0371614
0.037279
0.0364472
0.0349957
0.0331682
0.0311367
0.0290213
0.0269033
0.0248385
0.0228573
0.0209882
0.0193957
0.0175538
0.0159888
0.0145662
0.0132647
0.0120803
0.0110064
0.0100289
0.00914584
0.00833863
0.00760859
0.00693671
0.00632221
0.00575483
0.00522157
0.00472805
0.00424835
0.00379441
0.0033426
0.00289612
0.00243707
0.00196701
0.00146021
0.000921693
0.000316203
-0.318815
-0.314887
-0.31577
-0.314334
-0.309374
-0.302238
-0.292252
-0.278528
-0.261069
-0.240216
-0.216437
-0.190439
-0.163159
-0.135543
-0.10819
-0.081981
-0.0577644
-0.0361821
-0.0176947
-0.0024839
0.00953337
0.018619
0.0251453
0.0295252
0.032159
0.0333744
0.0334552
0.0327185
0.031438
0.0298232
0.0280254
0.0261502
0.024271
0.0224349
0.0206816
0.0190169
0.0173278
0.0158304
0.0144687
0.013203
0.012041
0.0109826
0.0100156
0.00913969
0.00833714
0.00761028
0.00694022
0.0063271
0.00576012
0.00522768
0.00473373
0.00425498
0.0038
0.00334945
0.00290137
0.00244398
0.00197139
0.00146671
0.000924325
0.000321224
-0.298553
-0.297346
-0.297266
-0.294113
-0.28946
-0.284001
-0.27628
-0.265438
-0.251403
-0.234297
-0.214376
-0.192085
-0.168053
-0.143035
-0.117795
-0.0931616
-0.0699109
-0.0485766
-0.0297031
-0.0136395
-0.000478504
0.00988515
0.0176979
0.0232856
0.026978
0.0291033
0.0300196
0.0300114
0.0293313
0.0281976
0.0267794
0.0252009
0.0235515
0.0218924
0.0202661
0.0186892
0.0171173
0.0156236
0.0143257
0.0131058
0.0119725
0.010934
0.009982
0.00911631
0.00832204
0.00760025
0.00693491
0.00632448
0.0057597
0.00522956
0.00473562
0.00425956
0.00380323
0.0033554
0.00290514
0.00245087
0.00197442
0.0014739
0.000925669
0.000328889
-0.279353
-0.288331
-0.286057
-0.279923
-0.274461
-0.269009
-0.26179
-0.251857
-0.238998
-0.223321
-0.205084
-0.18468
-0.162647
-0.139649
-0.116372
-0.0935059
-0.0717321
-0.0516166
-0.0336427
-0.0181344
-0.00521382
0.00516962
0.013195
0.0191252
0.02326
0.0258961
0.0273112
0.027757
0.0274775
0.0266869
0.0255564
0.0242172
0.0227672
0.0212745
0.0197833
0.0183181
0.0168038
0.015509
0.0141773
0.0129877
0.0118854
0.0108693
0.00993792
0.0090841
0.00830349
0.00758688
0.0069305
0.00632289
0.00576241
0.00523588
0.00474194
0.00426998
0.00381208
0.00336695
0.00291438
0.00246288
0.00198102
0.00148461
0.000927901
0.000338882
-0.257639
-0.269142
-0.267751
-0.261471
-0.255362
-0.249706
-0.242907
-0.233797
-0.222054
-0.207827
-0.191408
-0.173144
-0.153462
-0.132884
-0.111978
-0.0913297
-0.0715268
-0.0530785
-0.0364009
-0.0217951
-0.00941038
0.000750536
0.00880069
0.0149365
0.0193951
0.0224148
0.0242319
0.0250808
0.0251867
0.024749
0.0239315
0.0228634
0.0216437
0.0203429
0.0190077
0.0176614
0.0162843
0.015016
0.0138385
0.0127231
0.0116773
0.0107057
0.00980942
0.00898283
0.00822443
0.00752443
0.00688223
0.00628505
0.00573326
0.00521405
0.00472477
0.00425838
0.00380298
0.00336146
0.00291048
0.0024615
0.00197931
0.00148593
0.000926444
0.00034379
-0.236935
-0.249403
-0.249279
-0.243241
-0.236809
-0.23104
-0.224671
-0.216439
-0.205904
-0.193192
-0.178593
-0.162403
-0.144947
-0.126629
-0.107915
-0.0893075
-0.0713127
-0.0543851
-0.0389034
-0.0251564
-0.0133126
-0.00341547
0.00459597
0.0108601
0.0155587
0.0188899
0.021062
0.0222848
0.0227595
0.0226678
0.0221636
0.021372
0.0203912
0.0192937
0.0181295
0.0169271
0.0157038
0.0145451
0.0134475
0.0124003
0.0114139
0.0104914
0.00963556
0.00884178
0.00811015
0.00743177
0.00680716
0.00622431
0.00568393
0.00517453
0.00469249
0.00423303
0.00378235
0.00334552
0.00289791
0.00245225
0.00197184
0.00148196
0.000922359
0.000345981
-0.217975
-0.229888
-0.230567
-0.225213
-0.218993
-0.213381
-0.207491
-0.200128
-0.190775
-0.179493
-0.166549
-0.152209
-0.136738
-0.120452
-0.103735
-0.0870128
-0.0707154
-0.0552442
-0.0409424
-0.0280789
-0.0168284
-0.00726318
0.00063513
0.00695514
0.0118327
0.0154295
0.0179218
0.0194905
0.0203125
0.020552
0.0203524
0.0198335
0.0190916
0.0182007
0.0172139
0.0161675
0.0150919
0.0140401
0.0130255
0.0120526
0.0111291
0.0102586
0.00944561
0.00868673
0.00798399
0.00732886
0.00672346
0.00615628
0.00562842
0.00512994
0.00465588
0.00420418
0.00375878
0.0033273
0.00288334
0.00244169
0.00196318
0.00147735
0.000918043
0.000347372
-0.199535
-0.210777
-0.212062
-0.207577
-0.201892
-0.196629
-0.191233
-0.184676
-0.176421
-0.166464
-0.155031
-0.142367
-0.128697
-0.114275
-0.0994077
-0.0844461
-0.0697551
-0.0556842
-0.04254
-0.0305707
-0.0199509
-0.0107733
-0.0030534
0.00325741
0.00825526
0.0120662
0.0148339
0.0167112
0.0178522
0.0184032
0.018496
0.0182434
0.0177389
0.0170562
0.0162509
0.0153634
0.0144284
0.0134889
0.0125686
0.0116759
0.0108196
0.0100047
0.00923798
0.0085168
0.00784539
0.00721558
0.00663119
0.00608119
0.00556712
0.00508071
0.00461547
0.00417244
0.00373284
0.0033074
0.00286742
0.00243035
0.00195391
0.00147251
0.000913785
0.000348088
-0.181871
-0.192552
-0.194278
-0.190561
-0.185506
-0.180706
-0.175831
-0.170032
-0.162796
-0.154068
-0.14403
-0.1329
-0.120874
-0.108155
-0.094988
-0.0816582
-0.0684726
-0.0557326
-0.0437101
-0.0326321
-0.0226688
-0.0139254
-0.00644215
-0.000202561
0.00485505
0.00882364
0.011817
0.0139618
0.0153896
0.0162289
0.0165985
0.0166031
0.0163315
0.0158562
0.0152335
0.0145064
0.0137137
0.0128943
0.0120742
0.0112656
0.0104805
0.00972513
0.00900811
0.00832787
0.00769057
0.00708861
0.00652734
0.00599641
0.0054977
0.00502475
0.00456947
0.00413614
0.00370315
0.00328457
0.00284913
0.00241723
0.00194336
0.00146668
0.000909196
0.000347925
-0.165471
-0.175336
-0.177287
-0.174258
-0.169856
-0.165585
-0.161263
-0.156187
-0.149894
-0.142299
-0.133543
-0.123812
-0.113278
-0.102106
-0.0904911
-0.0786645
-0.0668817
-0.0554001
-0.0444585
-0.0342624
-0.0249738
-0.0167034
-0.00950917
-0.00339948
0.00165825
0.00572809
0.00889673
0.0112661
0.012946
0.0140471
0.0146745
0.0149236
0.0148777
0.0146064
0.0141657
0.0136012
0.012953
0.012257
0.0115407
0.0108202
0.0101102
0.00941807
0.00875427
0.0081182
0.00751788
0.00694639
0.00641044
0.00590063
0.00541894
0.00496096
0.00451692
0.0040944
0.00366897
0.00325809
0.00282791
0.00240179
0.00193115
0.00145948
0.000904108
0.000346923
-0.150107
-0.159073
-0.161163
-0.15876
-0.155002
-0.151282
-0.147516
-0.143126
-0.137699
-0.131138
-0.123548
-0.115087
-0.105903
-0.0961318
-0.0859299
-0.0754837
-0.0650036
-0.054707
-0.0448015
-0.0354708
-0.0268662
-0.0190991
-0.0122386
-0.00631213
-0.00131037
0.00280605
0.00609957
0.00864918
0.010544
0.0118772
0.0127402
0.0132182
0.0133877
0.0133147
0.0130542
0.0126519
0.012148
0.0115771
0.0109682
0.0103395
0.00970821
0.00908289
0.00847564
0.00788692
0.00732641
0.00678804
0.00627967
0.00579307
0.00533015
0.00488875
0.00445728
0.00404675
0.00362991
0.00322762
0.0028035
0.00238379
0.00191718
0.00145076
0.000898509
0.000345228
-0.135646
-0.143834
-0.146018
-0.144158
-0.140993
-0.137802
-0.134572
-0.130822
-0.126185
-0.120559
-0.114024
-0.106711
-0.0987462
-0.0902419
-0.0813236
-0.0721406
-0.0628648
-0.0536783
-0.0447594
-0.0362708
-0.028351
-0.0211087
-0.0146191
-0.00892276
-0.00402865
8.20606e-05
0.00345059
0.00613523
0.00820601
0.00973927
0.0108126
0.0115008
0.0118729
0.01199
0.0119048
0.011662
0.0113013
0.0108567
0.0103578
0.0098237
0.00927427
0.00871897
0.00817143
0.00763311
0.00711521
0.00661261
0.00613414
0.0056729
0.00523058
0.00480742
0.00438996
0.00399268
0.00358554
0.00319278
0.00277564
0.00236298
0.00190129
0.00144041
0.000892352
0.000342962
-0.122258
-0.129689
-0.131879
-0.13047
-0.127836
-0.12514
-0.122412
-0.119249
-0.115326
-0.110543
-0.104957
-0.0986782
-0.0918108
-0.0844488
-0.0766922
-0.0686605
-0.0604931
-0.0523409
-0.0443557
-0.0366797
-0.0294381
-0.0227339
-0.0166442
-0.0112182
-0.00647832
-0.00242237
0.000972891
0.00374755
0.00595423
0.00765357
0.00890979
0.00978684
0.0103457
0.0106418
0.0107246
0.0106368
0.0104172
0.0100986
0.00971093
0.00927349
0.00880849
0.00832603
0.00784103
0.007356
0.00688341
0.00641919
0.00597293
0.00553925
0.00511942
0.00471623
0.00431429
0.00393159
0.00353537
0.00315312
0.002744
0.00233905
0.00188329
0.00142829
0.000885525
0.000340212
-0.10994
-0.116585
-0.118719
-0.117681
-0.115519
-0.113282
-0.111018
-0.108388
-0.105106
-0.101076
-0.0963391
-0.0909853
-0.0851019
-0.0787659
-0.072057
-0.0650703
-0.057918
-0.0507245
-0.0436174
-0.0367195
-0.0301425
-0.0239816
-0.0183129
-0.0131902
-0.00864537
-0.00468903
-0.00131269
0.00150811
0.00381054
0.00564082
0.00705039
0.00809251
0.00881971
0.00928132
0.00952246
0.00958337
0.00950086
0.00930643
0.00902826
0.0086903
0.00831163
0.00790424
0.00748425
0.0070551
0.00663035
0.006207
0.00579523
0.00539129
0.00499587
0.00461444
0.00422961
0.00386286
0.00347889
0.00310816
0.0027082
0.00231166
0.00186294
0.00141426
0.000877881
0.000337046
-0.0985507
-0.104469
-0.106523
-0.105802
-0.104061
-0.102228
-0.100377
-0.0982223
-0.0955096
-0.0921472
-0.0881638
-0.083633
-0.078627
-0.0732084
-0.0674404
-0.061398
-0.0551711
-0.0488611
-0.0425744
-0.0364159
-0.0304835
-0.0248638
-0.0196293
-0.0148356
-0.0105203
-0.0067034
-0.00338814
-0.000563043
0.00179567
0.00372129
0.00525339
0.0064349
0.00730985
0.00792103
0.00830877
0.00850987
0.00855866
0.00848514
0.00831683
0.00807678
0.00778516
0.00745438
0.00710133
0.00673028
0.00635563
0.0059755
0.00560039
0.00522833
0.00485924
0.00450136
0.00413528
0.00378588
0.00341557
0.00305743
0.00266788
0.0022805
0.00183999
0.00139816
0.000869262
0.000333511
-0.0880669
-0.0933341
-0.0952895
-0.094826
-0.0934455
-0.0919687
-0.0904778
-0.0887365
-0.0865222
-0.0837464
-0.080427
-0.0766235
-0.0723953
-0.0677928
-0.0628657
-0.0576727
-0.052285
-0.0467846
-0.0412594
-0.0357978
-0.0304845
-0.0253971
-0.0206028
-0.0161562
-0.0120982
-0.00845512
-0.00523886
-0.00244846
-7.14052e-05
0.0019143
0.0035375
0.00483139
0.00583167
0.00657441
0.00709475
0.00742554
0.00759817
0.00764068
0.00757944
0.007436
0.00723127
0.00697781
0.00669301
0.00638181
0.00605918
0.00572435
0.00538794
0.00504978
0.00470892
0.00437635
0.00403071
0.00370009
0.00334492
0.00300046
0.00262265
0.00224526
0.00181416
0.00137988
0.000859507
0.000329631
-0.0784949
-0.0831481
-0.0849786
-0.084718
-0.0836479
-0.082475
-0.0812966
-0.079913
-0.0781299
-0.0758643
-0.0731252
-0.0699601
-0.0664172
-0.0625367
-0.0583572
-0.0539239
-0.049293
-0.04453
-0.0397066
-0.0348967
-0.0301726
-0.0256024
-0.0212472
-0.0171589
-0.0133793
-0.00993837
-0.0068542
-0.00413386
-0.00177408
0.000237603
0.00192059
0.00329913
0.00440101
0.00525561
0.00589266
0.00634076
0.00662801
0.00677985
0.00682121
0.00677201
0.00665291
0.00647658
0.00626062
0.00601045
0.00574133
0.00545355
0.00515765
0.00485525
0.00454442
0.00423887
0.00391535
0.00360496
0.00326645
0.00293681
0.00257211
0.00220563
0.00178517
0.00135929
0.000848464
0.000325407
-0.0697626
-0.073844
-0.0755383
-0.0754382
-0.0746234
-0.0737126
-0.0728021
-0.0717276
-0.0703166
-0.0684913
-0.0662553
-0.0636462
-0.0607029
-0.0574572
-0.0539384
-0.050181
-0.0462284
-0.0421327
-0.0379518
-0.0337464
-0.0295777
-0.0255045
-0.021581
-0.0178555
-0.0143686
-0.011152
-0.0082277
-0.00560861
-0.00329863
-0.00129317
0.000419126
0.00185453
0.00303351
0.00397905
0.00471544
0.00526678
0.00565761
0.00591056
0.0060485
0.00608962
0.00605379
0.00595345
0.0058061
0.00561745
0.00540281
0.00516343
0.00490955
0.00464456
0.00436544
0.00408853
0.00378877
0.00350002
0.00317971
0.00286609
0.00251589
0.00216134
0.00175273
0.00133625
0.000835992
0.000320821
-0.0617985
-0.065369
-0.0669265
-0.0669489
-0.0663491
-0.0656606
-0.0649788
-0.0641623
-0.063065
-0.0616159
-0.0598127
-0.0576842
-0.055262
-0.0525705
-0.049632
-0.046472
-0.0431238
-0.039628
-0.0360309
-0.032382
-0.028732
-0.025131
-0.0216264
-0.018262
-0.0150758
-0.0120995
-0.00935734
-0.00686599
-0.00463471
-0.00266507
-0.000952377
0.000512765
0.0017442
0.00275902
0.00357624
0.00421539
0.00469726
0.00504151
0.00526852
0.00539459
0.00543846
0.00541191
0.00533205
0.00520467
0.00504487
0.00485473
0.00464402
0.00441781
0.00417187
0.00392508
0.00365064
0.0033849
0.00308433
0.00278793
0.00245363
0.00211214
0.00171658
0.00131064
0.000821974
0.00031584
-0.0545635
-0.0576768
-0.0590985
-0.0592156
-0.058797
-0.0583003
-0.0577977
-0.0571936
-0.056359
-0.0552271
-0.053792
-0.0520755
-0.0501023
-0.0478915
-0.0454592
-0.0428239
-0.0400106
-0.0370504
-0.03398
-0.030839
-0.0276691
-0.0245122
-0.0214091
-0.0183983
-0.0155148
-0.012789
-0.0102455
-0.00790344
-0.00577562
-0.00386825
-0.00218188
-0.000712836
0.000546963
0.00160922
0.00248808
0.00319862
0.00375776
0.00418202
0.00448922
0.00469358
0.00481231
0.00485623
0.00484175
0.00477454
0.00466926
0.00452866
0.00436181
0.00417538
0.00396385
0.00374848
0.00350079
0.00325938
0.00297998
0.00270206
0.00238502
0.00205779
0.0016765
0.00128232
0.000806312
0.000310428
-0.0480092
-0.0507099
-0.0519969
-0.0521812
-0.0519056
-0.0515594
-0.0512147
-0.0507885
-0.0501722
-0.0493074
-0.0481844
-0.0468187
-0.0452301
-0.0434331
-0.0414392
-0.0392617
-0.0369185
-0.0344333
-0.0318343
-0.0291533
-0.0264237
-0.0236801
-0.020957
-0.0182877
-0.0157035
-0.0132326
-0.010899
-0.00872259
-0.00671854
-0.00489621
-0.00326011
-0.00181117
-0.000546091
0.000542177
0.00146333
0.00222824
0.00285005
0.003342
0.00371923
0.0039939
0.00418142
0.00429136
0.00433916
0.00433015
0.00427832
0.00418689
0.00406411
0.00391807
0.00374183
0.00355893
0.00333922
0.00312335
0.00286649
0.00260827
0.00230981
0.00199812
0.00163228
0.00125118
0.000788934
0.000304551
-0.0420774
-0.0444116
-0.0455707
-0.0458033
-0.0456452
-0.0454265
-0.0452126
-0.0449269
-0.0444882
-0.0438436
-0.0429809
-0.0419111
-0.040649
-0.0392056
-0.0375889
-0.0358078
-0.0338749
-0.0318077
-0.0296278
-0.0273598
-0.0250304
-0.0226676
-0.0203001
-0.0179561
-0.0156631
-0.0134465
-0.0113286
-0.00932921
-0.00746464
-0.00574614
-0.00418095
-0.00277356
-0.00152462
-0.000430974
0.00051323
0.00131522
0.00198464
0.0025314
0.00296767
0.0033035
0.00355254
0.00372293
0.00382888
0.00387519
0.00387493
0.00383166
0.00375254
0.00364701
0.00350657
0.00335692
0.00316617
0.00297692
0.0027438
0.00250649
0.00222786
0.00193298
0.00158379
0.00121712
0.000769793
0.000298181
-0.0367185
-0.0387303
-0.0397697
-0.0400349
-0.0399695
-0.0398513
-0.0397384
-0.0395724
-0.0392782
-0.0388137
-0.0381676
-0.0373464
-0.0363602
-0.035217
-0.0339224
-0.0324822
-0.0309049
-0.0292028
-0.0273923
-0.0254921
-0.0235231
-0.0215078
-0.0194694
-0.0174314
-0.0154174
-0.0134498
-0.0115487
-0.00973299
-0.00801909
-0.00641916
-0.00494207
-0.00359477
-0.00238089
-0.00130057
-0.000351426
0.000470421
0.00117163
0.0017594
0.00224321
0.00263051
0.0029328
0.00315705
0.00331608
0.00341393
0.00346256
0.00346569
0.00342922
0.00336383
0.00325923
0.00314326
0.00298217
0.00282041
0.00261207
0.00239677
0.00213913
0.00186233
0.00153096
0.00118006
0.000748864
0.000291303
-0.0318887
-0.0336171
-0.0345455
-0.0348308
-0.0348389
-0.0348024
-0.0347716
-0.0346964
-0.0345163
-0.0341987
-0.0337321
-0.0331182
-0.0323633
-0.0314731
-0.0304515
-0.0293021
-0.0280305
-0.0266451
-0.0251575
-0.0235822
-0.0219349
-0.0202334
-0.0184962
-0.0167426
-0.0149922
-0.0132644
-0.0115768
-0.00994691
-0.00839047
-0.0069198
-0.00554454
-0.00427321
-0.00311148
-0.00206154
-0.00112342
-0.000296536
0.000422224
0.00103697
0.00155495
0.00198278
0.00232934
0.00260008
0.00280628
0.00295108
0.00304513
0.00309221
0.00309673
0.00307054
0.00300134
0.00291911
0.00278801
0.00265438
0.00247163
0.00227931
0.00204373
0.00178619
0.00147381
0.00114001
0.000726151
0.000283911
-0.0275437
-0.029024
-0.0298506
-0.0301466
-0.0302117
-0.0302388
-0.0302718
-0.0302714
-0.0301864
-0.0299851
-0.0296617
-0.029217
-0.0286542
-0.027976
-0.0271842
-0.0262812
-0.0252703
-0.0241574
-0.0229504
-0.0216595
-0.0202969
-0.018876
-0.0174116
-0.015919
-0.0144144
-0.012914
-0.0114329
-0.00998677
-0.00859023
-0.00725513
-0.00599124
-0.00480801
-0.00371286
-0.00270978
-0.00180004
-0.000984218
-0.000260989
0.000370699
0.000914238
0.00136944
0.00175021
0.00205924
0.00230576
0.00249201
0.00262719
0.00271503
0.00275817
0.00276965
0.00273487
0.00268602
0.00258485
0.00247971
0.0023231
0.00215452
0.00194193
0.00170472
0.00141243
0.001097
0.000701687
0.00027601
-0.0236439
-0.0249089
-0.0256435
-0.0259434
-0.0260525
-0.0261299
-0.0262129
-0.0262702
-0.0262591
-0.0261528
-0.0259436
-0.025635
-0.0252296
-0.0247276
-0.0241281
-0.023432
-0.0226417
-0.0217611
-0.0207955
-0.0197518
-0.0186387
-0.0174665
-0.0162465
-0.0149907
-0.0137124
-0.0124245
-0.0111398
-0.0098718
-0.00863382
-0.00743659
-0.00628935
-0.00520171
-0.00418177
-0.00323504
-0.00236556
-0.00157708
-0.000869181
-0.000240248
0.00030894
0.000791048
0.00119891
0.00153851
0.00181884
0.0020411
0.00221289
0.0023379
0.00241684
0.00246401
0.00246215
0.0024459
0.00237418
0.00229754
0.00216735
0.00202303
0.00183419
0.0016182
0.00134702
0.00105116
0.000675536
0.000267616
-0.0201433
-0.0212211
-0.0218726
-0.0221712
-0.0223136
-0.0224295
-0.0225504
-0.0226513
-0.0226971
-0.0226654
-0.0225498
-0.0223526
-0.022076
-0.0217185
-0.0212787
-0.0207565
-0.0201527
-0.0194693
-0.0187096
-0.0178787
-0.0169826
-0.0160289
-0.0150261
-0.0139834
-0.0129111
-0.0118198
-0.0107197
-0.00962229
-0.00853933
-0.0074803
-0.00645337
-0.00546773
-0.00453138
-0.00364961
-0.00282586
-0.00206418
-0.00137031
-0.000750212
-0.000199904
0.000273399
0.0006931
0.00105246
0.00135702
0.00160741
0.00180939
0.00196657
0.00207733
0.00215733
0.00218616
0.00220115
0.0021579
0.00210939
0.00200557
0.00188569
0.00172118
0.00152706
0.00127791
0.00100272
0.000647798
0.000258735
-0.017038
-0.0179554
-0.0185321
-0.0188246
-0.0189902
-0.0191341
-0.0192833
-0.0194188
-0.0195131
-0.0195472
-0.0195125
-0.0194054
-0.0192256
-0.0189778
-0.0186652
-0.0182861
-0.0178375
-0.0173188
-0.0167323
-0.0160819
-0.0153721
-0.014608
-0.0137956
-0.0129417
-0.0120542
-0.0111415
-0.0102117
-0.00927429
-0.00833962
-0.00741592
-0.00651053
-0.00563236
-0.00478963
-0.00398817
-0.00323274
-0.00252714
-0.0018667
-0.00124853