/*--------------------------------*- C++ -*----------------------------------*\
| =========                 |                                                 |
| \\      /  F ield         | OpenFOAM: The Open Source CFD Toolbox           |
|  \\    /   O peration     | Version:  2512                                  |
|   \\  /    A nd           | Website:  www.openfoam.com                      |
|    \\/     M anipulation  |                                                 |
\*---------------------------------------------------------------------------*/
FoamFile
{
    version     2.0;
    format      ascii;
    arch        "LSB;label=32;scalar=64";
    class       volVectorField;
    location    "13.25";
    object      U;
}
// * * * * * * * * * * * * * * * * * * * * * * * * * * * * * * * * * * * * * //

dimensions      [0 1 -1 0 0 0 0];

internalField   nonuniform List<vector> 
13248
(
(-0.0132236 0.0120579 7.2231e-20)
(-0.025709 0.0263539 0)
(-0.0243984 0.0347326 -1.36542e-19)
(-0.00979887 0.0390453 1.28624e-19)
(0.0177076 0.0407701 1.2024e-19)
(0.0578283 0.0410748 0)
(0.110268 0.0408619 0)
(0.174609 0.0408236 2.90192e-19)
(0.250149 0.0414676 -9.34603e-22)
(0.335748 0.043119 -2.54408e-19)
(0.429716 0.0459148 2.37804e-19)
(0.529798 0.0498023 -1.48821e-19)
(0.633235 0.0545508 0)
(0.736932 0.059779 -2.61682e-19)
(0.837669 0.0649997 4.90836e-19)
(0.932348 0.0696739 -1.16655e-19)
(1.01823 0.0732768 -2.13763e-19)
(1.09315 0.0753276 2.00672e-19)
(1.15564 0.0755515 0)
(1.20503 0.0734492 0)
(1.24157 0.0698639 0)
(1.2657 0.0618663 0)
(1.27967 0.057362 6.38962e-20)
(1.28376 0.0356798 2.35746e-19)
(-0.0132445 0.0107025 -2.18039e-19)
(-0.0217206 0.0214073 1.48641e-19)
(-0.0128326 0.0265872 -1.35641e-21)
(0.0124552 0.0284844 -1.96329e-19)
(0.0535192 0.0288217 -1.20111e-19)
(0.109802 0.0289195 -1.13535e-19)
(0.180546 0.0297327 -2.08611e-19)
(0.264559 0.0319105 1.97289e-19)
(0.360012 0.0358181 0)
(0.464326 0.0415378 5.70044e-22)
(0.574213 0.0488738 1.12088e-21)
(0.685858 0.0573818 1.48673e-19)
(0.795228 0.0664259 0)
(0.898423 0.0752617 0)
(0.992034 0.0831308 1.80041e-19)
(1.07342 0.0893549 -3.3831e-19)
(1.14091 0.0934136 2.06012e-19)
(1.19389 0.0949952 -1.93411e-19)
(1.23273 0.0940127 -8.63801e-20)
(1.25874 0.090584 -1.60485e-19)
(1.27373 0.0850572 -6.82734e-20)
(1.28018 0.0775303 -1.29224e-19)
(1.27975 0.0701833 1.86719e-19)
(1.27601 0.0581455 5.41584e-20)
(-0.0123236 0.00901605 0)
(-0.0142994 0.0160407 0)
(0.00531031 0.0185995 6.94338e-20)
(0.0448497 0.0190933 6.39337e-20)
(0.103163 0.0193762 -1.5755e-21)
(0.179007 0.0208436 -1.17253e-19)
(0.270575 0.0243964 0)
(0.37521 0.0304816 -9.8147e-20)
(0.489285 0.0391167 9.24763e-20)
(0.608314 0.0499157 6.87587e-22)
(0.727305 0.0621515 -1.59054e-19)
(0.841249 0.0748665 -1.47081e-19)
(0.945652 0.0870145 1.64823e-21)
(1.03699 0.0976114 -1.24669e-19)
(1.113 0.105866 2.96939e-19)
(1.1728 0.111267 0)
(1.21685 0.113627 -1.98152e-19)
(1.24668 0.113047 9.59799e-20)
(1.26461 0.109906 8.63079e-20)
(1.27326 0.104618 0)
(1.27532 0.0980381 7.2229e-20)
(1.27296 0.0898993 -2.50614e-19)
(1.26783 0.0831252 2.35265e-19)
(1.26234 0.0717213 1.51005e-19)
(-0.00999255 0.0068913 -7.70095e-20)
(-0.00235126 0.0101582 -7.96516e-20)
(0.0314537 0.0108526 7.20426e-20)
(0.0888133 0.011237 0)
(0.167607 0.0131099 0)
(0.265282 0.0177707 -2.54198e-21)
(0.378234 0.0258424 0)
(0.501638 0.0372961 -3.004e-19)
(0.629644 0.0515213 2.79526e-19)
(0.755927 0.0674467 -3.45751e-19)
(0.874429 0.0837287 7.95853e-20)
(0.980097 0.0989809 0)
(1.06943 0.111995 1.3462e-19)
(1.14073 0.121907 -2.50254e-19)
(1.19408 0.12828 5.95319e-20)
(1.23105 0.131106 1.56351e-19)
(1.25421 0.13072 -5.15832e-21)
(1.26665 0.127691 -1.74998e-19)
(1.27139 0.122669 0)
(1.27107 0.116297 0)
(1.26769 0.109157 -6.4644e-20)
(1.26257 0.101412 5.85267e-20)
(1.25653 0.0946091 2.13634e-19)
(1.25045 0.0846455 -2.00545e-19)
(-0.00580503 0.004374 -8.11873e-20)
(0.0151256 0.00400569 -8.09067e-20)
(0.0667572 0.00386501 2.27559e-19)
(0.145186 0.00573751 -1.38078e-19)
(0.246722 0.0110932 1.29968e-19)
(0.366719 0.0208415 2.3626e-19)
(0.499027 0.0349772 -1.67084e-19)
(0.636237 0.052647 -2.03975e-19)
(0.770467 0.0723661 3.52615e-21)
(0.894433 0.0923254 2.61637e-19)
(1.00244 0.11074 0)
(1.09101 0.126159 7.29315e-20)
(1.15907 0.137667 0)
(1.20769 0.144941 -1.21002e-19)
(1.23948 0.148183 1.70373e-19)
(1.25789 0.147969 1.69162e-21)
(1.26653 0.145056 -4.55488e-20)
(1.26861 0.140214 8.62516e-20)
(1.26665 0.134118 7.48668e-20)
(1.26239 0.127276 -6.77699e-20)
(1.25692 0.120088 6.46302e-20)
(1.25082 0.112628 -5.85136e-20)
(1.24437 0.105845 0)
(1.23821 0.0968087 -4.50052e-20)
(0.00064043 0.00165578 8.11757e-20)
(0.0389541 -0.00181386 8.5271e-20)
(0.111964 -0.00137284 -7.626e-20)
(0.214 0.00389076 1.42147e-19)
(0.339045 0.0147279 -1.33791e-19)
(0.47956 0.0312252 1.21176e-19)
(0.626404 0.0523186 -5.81823e-20)
(0.76984 0.076036 1.53113e-19)
(0.901027 0.0999856 -9.64204e-20)
(1.01336 0.121881 1.7207e-19)
(1.10325 0.13997 -3.98156e-19)
(1.17016 0.153267 1.46755e-19)
(1.21606 0.161574 -1.29957e-19)
(1.24453 0.165321 1.22068e-19)
(1.25978 0.165323 1.06973e-19)
(1.26584 0.162519 9.50711e-20)
(1.26604 0.157787 -2.64724e-19)
(1.26283 0.151833 1.64783e-19)
(1.25782 0.145164 -7.48712e-20)
(1.25195 0.138118 1.97435e-19)
(1.24571 0.13091 -6.36556e-20)
(1.23935 0.123638 -1.57842e-19)
(1.23297 0.116784 1.46157e-19)
(1.22681 0.108443 4.49914e-20)
(0.00968309 -0.000951679 0)
(0.0696783 -0.00640532 7.61887e-22)
(0.167206 -0.00352255 1.59676e-19)
(0.294229 0.00724581 -1.49712e-19)
(0.441597 0.0254028 -1.35171e-19)
(0.598355 0.0496886 2.51383e-19)
(0.752604 0.0776142 -1.16818e-19)
(0.893455 0.106051 1.56296e-19)
(1.01291 0.132032 -3.05845e-21)
(1.1069 0.153365 -8.89712e-20)
(1.17519 0.168924 1.95725e-19)
(1.22054 0.178609 -2.89616e-19)
(1.24742 0.183081 0)
(1.26075 0.183403 -5.76574e-20)
(1.26503 0.180713 -1.55347e-19)
(1.26379 0.176014 4.87205e-20)
(1.2595 0.170071 1.66081e-21)
(1.25372 0.163411 -1.10391e-19)
(1.24733 0.156368 5.75401e-21)
(1.24078 0.149151 1.28232e-19)
(1.23427 0.141886 -5.80884e-20)
(1.22784 0.13466 -2.25863e-20)
(1.22149 0.127655 6.85624e-20)
(1.21533 0.119823 0)
(0.0215665 -0.00304339 0)
(0.107444 -0.00868169 4.33034e-20)
(0.231817 -0.00110007 -2.08437e-19)
(0.383623 0.0172843 7.58582e-20)
(0.549979 0.0440951 -7.13939e-20)
(0.716619 0.0762528 -6.54144e-20)
(0.870043 0.109755 -1.15893e-19)
(1.00014 0.140684 5.76622e-20)
(1.10169 0.166157 5.03191e-20)
(1.1744 0.184739 0)
(1.22159 0.196357 1.16372e-19)
(1.2486 0.20189 -1.74102e-19)
(1.26115 0.202677 1.29749e-19)
(1.26431 0.200102 5.76881e-20)
(1.26194 0.195337 -4.79045e-20)
(1.25667 0.189249 -4.06612e-20)
(1.25011 0.182417 -3.82997e-20)
(1.24312 0.175196 1.13298e-19)
(1.23613 0.167798 0)
(1.22932 0.160348 5.81986e-20)
(1.22273 0.152926 4.98456e-20)
(1.21633 0.145594 -1.2278e-19)
(1.21007 0.138378 -8.55188e-20)
(1.20396 0.130884 7.89165e-20)
(0.0363895 -0.00414823 -4.68387e-20)
(0.151885 -0.00748054 -1.83643e-21)
(0.304227 0.007299 4.24539e-20)
(0.478791 0.0351127 1.18854e-19)
(0.658883 0.0710927 3.4708e-20)
(0.827926 0.11013 -6.70099e-20)
(0.972771 0.147056 6.11898e-20)
(1.08615 0.177899 -5.38105e-20)
(1.16697 0.200611 9.68949e-20)
(1.21886 0.214983 4.15662e-20)
(1.24797 0.222084 -1.17966e-19)
(1.26095 0.223571 3.49494e-20)
(1.26363 0.221144 6.01711e-20)
(1.26042 0.21622 -2.9524e-20)
(1.25425 0.209827 0)
(1.24685 0.202635 4.48506e-20)
(1.23916 0.195043 7.66121e-20)
(1.23161 0.187278 1.36329e-20)
(1.22436 0.17947 -6.43328e-20)
(1.21746 0.171696 2.71974e-20)
(1.21087 0.164012 0)
(1.20453 0.156448 -2.17175e-20)
(1.19837 0.148976 -2.08193e-20)
(1.19232 0.141642 0)
(0.0540491 -0.00376148 0)
(0.202039 -0.00168818 2.45655e-20)
(0.381979 0.0227945 4.54836e-20)
(0.575518 0.0612538 -1.21364e-19)
(0.762873 0.105936 3.92434e-20)
(0.926994 0.149941 0)
(1.0573 0.187709 5.93348e-20)
(1.15089 0.21608 -8.2911e-20)
(1.21111 0.234411 -4.84472e-20)
(1.24481 0.243856 2.1937e-20)
(1.25973 0.246435 -3.5517e-20)
(1.26276 0.244263 8.60303e-20)
(1.25906 0.239107 4.34863e-20)
(1.25207 0.232241 -3.0028e-20)
(1.24381 0.224477 -2.6145e-21)
(1.23533 0.216292 -8.38623e-20)
(1.22711 0.207946 3.83052e-20)
(1.21932 0.19958 -1.00218e-21)
(1.21199 0.191273 0)
(1.2051 0.183077 -2.7226e-20)
(1.19859 0.175027 0)
(1.19236 0.167123 6.26812e-20)
(1.18634 0.159366 -7.49677e-20)
(1.18041 0.152019 3.43076e-20)
(0.074196 -0.00138451 -1.28646e-20)
(0.256333 0.00964276 -6.2025e-20)
(0.461909 0.0460714 7.06423e-20)
(0.66928 0.0955735 4.15587e-20)
(0.857156 0.14755 -1.9806e-20)
(1.01029 0.19405 3.34819e-20)
(1.1225 0.230124 -1.62197e-20)
(1.19584 0.254163 2.71432e-20)
(1.23755 0.26717 0)
(1.25655 0.271523 6.20255e-20)
(1.26107 0.269868 -2.42725e-21)
(1.25741 0.264471 -5.03149e-20)
(1.24979 0.256969 2.16713e-20)
(1.24067 0.248407 -2.46275e-20)
(1.23133 0.239382 -9.51142e-21)
(1.22234 0.230213 1.08588e-20)
(1.2139 0.221062 -8.47489e-21)
(1.20606 0.212016 -4.63921e-20)
(1.19879 0.203123 2.8453e-20)
(1.19201 0.194419 5.88476e-21)
(1.18564 0.185917 5.22063e-21)
(1.17958 0.177603 4.63494e-21)
(1.17374 0.169544 0)
(1.16795 0.162003 0)
(0.0962895 0.00344126 1.28735e-20)
(0.312794 0.0272043 -1.28749e-20)
(0.54059 0.0772929 -2.3561e-20)
(0.755926 0.137322 0)
(0.938189 0.194471 -9.85519e-21)
(1.0761 0.240853 -8.91546e-21)
(1.16889 0.273092 -1.52931e-20)
(1.22335 0.29156 0)
(1.24953 0.298858 0)
(1.25731 0.298275 0)
(1.25458 0.292763 0)
(1.24668 0.284505 0)
(1.23678 0.274903 -1.36403e-20)
(1.22656 0.264758 6.22022e-21)
(1.21674 0.254485 1.08863e-20)
(1.20759 0.244284 5.10378e-21)
(1.19916 0.234252 1.27168e-20)
(1.19143 0.224439 0)
(1.18433 0.214876 -3.09957e-21)
(1.17777 0.205584 -2.9841e-21)
(1.17165 0.196555 -5.22897e-21)
(1.16586 0.187784 -4.64236e-21)
(1.16028 0.179408 0)
(1.15475 0.171511 3.39744e-21)
(-0.00272366 0.00464917 7.60618e-21)
(-0.0126739 0.0105534 -7.94159e-21)
(-0.0301905 0.0141298 -1.50989e-20)
(-0.0514729 0.0161334 0)
(-0.0745364 0.0170711 -2.03727e-20)
(-0.0984745 0.0173008 6.39699e-21)
(-0.122703 0.0170739 -1.22282e-20)
(-0.146843 0.0165537 0)
(-0.170671 0.0158348 0)
(-0.194057 0.0149634 0)
(-0.216909 0.0139564 0)
(-0.239155 0.0128146 0)
(-0.260716 0.0115329 3.46227e-23)
(-0.281511 0.0101052 -8.59584e-21)
(-0.301442 0.00852765 1.6588e-20)
(-0.320404 0.00679985 2.37459e-20)
(-0.338282 0.0049254 7.62526e-21)
(-0.354961 0.0029124 0)
(-0.370331 0.000774081 6.81897e-21)
(-0.384284 -0.00147198 -1.93465e-20)
(-0.39669 -0.00380758 -1.22608e-20)
(-0.407446 -0.00621093 -1.15846e-20)
(-0.416683 -0.00863123 0)
(-0.424797 -0.011 0)
(-0.00347656 0.0120124 -2.29541e-20)
(-0.0138414 0.0274807 3.9712e-20)
(-0.0307277 0.037247 -1.50512e-20)
(-0.050847 0.0432397 -2.87866e-20)
(-0.0724492 0.0466833 4.06732e-20)
(-0.0947144 0.04842 -2.59166e-20)
(-0.117094 0.0490442 3.66024e-20)
(-0.139214 0.0489521 2.33817e-20)
(-0.160842 0.0483855 0)
(-0.181826 0.0474744 -2.1275e-20)
(-0.202056 0.0462736 -5.66582e-22)
(-0.221436 0.0447928 1.87846e-20)
(-0.239872 0.0430181 2.74654e-20)
(-0.257265 0.0409263 3.5138e-20)
(-0.273504 0.0384938 -1.6049e-20)
(-0.288468 0.0357023 -4.72752e-20)
(-0.30203 0.0325425 1.53997e-20)
(-0.314059 0.0290178 -5.75663e-20)
(-0.324431 0.0251495 0)
(-0.33304 0.020978 1.29256e-20)
(-0.339755 0.0165559 1.22421e-20)
(-0.344394 0.0119494 1.15666e-20)
(-0.347006 0.00731521 0)
(-0.348501 0.00291803 0)
(-0.0047643 0.018119 0)
(-0.0157844 0.0418973 8.07131e-20)
(-0.0313969 0.0573533 -3.04404e-20)
(-0.0492262 0.0672021 2.89513e-20)
(-0.0679444 0.0731829 -8.22655e-20)
(-0.0868912 0.0765128 0)
(-0.105588 0.0780696 -4.96249e-20)
(-0.123681 0.0784564 2.33204e-20)
(-0.140922 0.0780564 -4.48411e-20)
(-0.157132 0.0770889 2.15362e-20)
(-0.172167 0.0756578 1.22273e-19)
(-0.185902 0.0737929 -5.74466e-20)
(-0.198221 0.071481 -9.26321e-20)
(-0.209003 0.0686885 -3.64678e-20)
(-0.218127 0.065376 -1.08046e-21)
(-0.225462 0.0615075 1.2814e-19)
(-0.230874 0.0570589 -6.06356e-20)
(-0.234222 0.0520247 -3.31279e-22)
(-0.235366 0.0464278 0)
(-0.234191 0.0403328 -5.29385e-20)
(-0.230578 0.0338547 0)
(-0.224216 0.0271628 -4.70911e-20)
(-0.214621 0.0205298 1.77852e-19)
(-0.203146 0.0144557 4.26771e-22)
(-0.00632935 0.0223805 0)
(-0.0181693 0.0525295 4.89813e-22)
(-0.0321295 0.0728046 3.11334e-20)
(-0.0469284 0.0861867 -2.96016e-20)
(-0.0617615 0.0946496 2.72209e-20)
(-0.0761818 0.0996285 1.57903e-19)
(-0.0898203 0.102194 -4.96296e-20)
(-0.10237 0.103109 -4.75386e-20)
(-0.11359 0.102884 8.9988e-20)
(-0.123285 0.10183 -1.28925e-19)
(-0.131291 0.100113 4.04391e-20)
(-0.137466 0.0978016 3.90436e-20)
(-0.141682 0.0948992 0)
(-0.143819 0.0913762 3.52989e-20)
(-0.143762 0.087187 0)
(-0.141402 0.0822822 6.4758e-20)
(-0.136629 0.0766177 -1.24212e-19)
(-0.12933 0.0701617 2.75191e-20)
(-0.119387 0.0629036 1.1108e-19)
(-0.106696 0.0548698 5.2866e-20)
(-0.0912016 0.0461553 0)
(-0.0727395 0.0369902 -1.43005e-19)
(-0.0502332 0.0279352 4.46588e-20)
(-0.0222089 0.0201071 0)
(-0.00788376 0.0245679 0)
(-0.0206126 0.0587387 -9.92514e-20)
(-0.0328554 0.0826119 -3.1637e-20)
(-0.0443611 0.0989331 -5.93711e-20)
(-0.0548458 0.109631 5.59052e-20)
(-0.0640987 0.11619 -5.27764e-20)
(-0.071896 0.119768 1.00993e-19)
(-0.0780173 0.121225 4.84256e-20)
(-0.0822637 0.121168 -1.35334e-19)
(-0.0844593 0.119995 8.67866e-20)
(-0.0844495 0.117941 -1.23148e-19)
(-0.0820997 0.115126 2.74606e-19)
(-0.0772934 0.11159 -1.48104e-19)
(-0.0699301 0.107327 7.11517e-20)
(-0.0599229 0.102302 2.04832e-19)
(-0.0471962 0.0964672 -6.26283e-20)
(-0.0316812 0.0897723 -5.98219e-20)
(-0.0133152 0.0821706 -5.81537e-20)
(0.00796775 0.0736199 0)
(0.032238 0.0640857 -1.07198e-19)
(0.0595215 0.0535666 -1.02488e-19)
(0.0898768 0.0421822 1.42905e-19)
(0.123939 0.030629 1.80512e-19)
(0.166217 0.0203577 -1.69832e-19)
(-0.0091931 0.0248202 0)
(-0.0227853 0.0605846 -1.35015e-19)
(-0.0335238 0.0865616 -5.77791e-22)
(-0.0419262 0.104912 1.1971e-19)
(-0.048134 0.117312 0)
(-0.052161 0.125158 0)
(-0.0539483 0.12959 0)
(-0.0533974 0.131502 -4.83331e-20)
(-0.0503937 0.131554 -8.86992e-22)
(-0.0448202 0.130208 8.59993e-20)
(-0.0365657 0.127766 -1.24466e-19)
(-0.0255306 0.124401 -8.21632e-22)
(-0.0116291 0.120202 0)
(0.0052107 0.115195 -7.11038e-20)
(0.0250475 0.109373 6.87031e-20)
(0.0479293 0.102702 -1.92475e-19)
(0.0739071 0.0951345 2.46955e-19)
(0.103021 0.0866305 6.09678e-20)
(0.135304 0.0771441 2.86454e-21)
(0.170814 0.0666324 -2.10782e-19)
(0.209518 0.0550497 -9.98412e-20)
(0.251847 0.0423767 3.32674e-19)
(0.295502 0.0287711 -2.22974e-19)
(0.35537 0.0162877 0)
(-0.0101395 0.0235741 6.67076e-20)
(-0.0244975 0.0587461 6.77134e-20)
(-0.0341173 0.0852008 -6.45507e-20)
(-0.0399178 0.104393 -1.21107e-19)
(-0.0423174 0.117654 1.1403e-19)
(-0.041513 0.126209 -1.07863e-19)
(-0.0376082 0.131113 1.52367e-19)
(-0.0306433 0.13323 -4.83763e-20)
(-0.0206139 0.133232 9.07236e-20)
(-0.00748745 0.131616 0)
(0.00878442 0.128727 8.27385e-20)
(0.0282573 0.12479 -1.5431e-19)
(0.0509891 0.119936 1.49105e-19)
(0.0770394 0.114231 -1.4004e-19)
(0.106468 0.107694 0)
(0.139323 0.100317 1.27703e-19)
(0.175674 0.0920816 2.44315e-19)
(0.215592 0.082956 -2.30126e-19)
(0.259114 0.0728974 -1.09146e-19)
(0.306333 0.0618821 -1.06564e-19)
(0.356728 0.0498005 2.96983e-19)
(0.412504 0.0369449 9.33422e-20)
(0.464447 0.0223781 -8.71385e-20)
(0.543985 0.00911511 8.13005e-20)
(-0.0107513 0.0214252 -6.67167e-20)
(-0.02574 0.0543082 2.07176e-19)
(-0.0346363 0.0796747 -6.53511e-20)
(-0.0384098 0.0983762 1.22034e-19)
(-0.0375988 0.11143 -1.149e-19)
(-0.0325257 0.119878 7.03651e-23)
(-0.0234275 0.124657 5.09073e-20)
(-0.0104687 0.126569 1.9256e-19)
(0.00625398 0.126263 1.01092e-21)
(0.0266996 0.124241 -8.56403e-20)
(0.0508715 0.120873 0)
(0.0788089 0.116417 -7.76233e-20)
(0.110577 0.111041 1.45727e-19)
(0.146257 0.104847 1.40092e-19)
(0.18595 0.0978928 -6.58902e-20)
(0.229759 0.0902022 -1.0321e-21)
(0.277755 0.0817734 -6.0372e-20)
(0.329954 0.0725805 1.12686e-19)
(0.386266 0.0625887 1.09117e-19)
(0.446847 0.0518833 -1.0352e-19)
(0.509922 0.0400809 9.57755e-20)
(0.580594 0.0284058 -9.01581e-20)
(0.640214 0.0141118 0)
(0.738754 0.0025874 -8.12153e-20)
(-0.0111705 0.0189736 6.79182e-20)
(-0.0266314 0.0484823 -6.93658e-20)
(-0.035022 0.0714444 6.57866e-20)
(-0.0371204 0.0883788 0)
(-0.033462 0.100113 0)
(-0.0244302 0.107551 1.08726e-19)
(-0.0103407 0.111528 -1.02002e-19)
(0.00857194 0.112776 9.60405e-20)
(0.0321637 0.111906 -4.51926e-19)
(0.0603752 0.10941 -3.54715e-22)
(0.0932185 0.105664 8.02559e-20)
(0.130761 0.10095 0)
(0.173107 0.0954661 -1.4535e-19)
(0.220363 0.0893438 2.7446e-19)
(0.272604 0.0826621 -1.9521e-19)
(0.329835 0.0754579 -3.1128e-19)
(0.391951 0.0677362 -2.66518e-21)
(0.458692 0.0595048 2.19409e-19)
(0.52947 0.050705 0)
(0.604152 0.0415872 0)
(0.679428 0.0313197 -9.57686e-20)
(0.762073 0.0222536 9.01506e-20)
(0.827139 0.0093234 -3.32584e-19)
(0.934343 0.00184208 3.11702e-19)
(-0.0115807 0.0166872 0)
(-0.0272896 0.0423204 0)
(-0.0350157 0.0619523 -1.97735e-19)
(-0.0352623 0.0761105 6.28212e-20)
(-0.028491 0.0856019 5.39313e-22)
(-0.015083 0.0912784 1.09431e-19)
(0.00464318 0.0939182 0)
(0.0304645 0.0942036 -9.57386e-20)
(0.0622662 0.0927144 9.02316e-20)
(0.100028 0.0899284 -1.69291e-19)
(0.143794 0.0862248 -3.85834e-22)
(0.193627 0.0818918 1.5152e-19)
(0.249555 0.0771358 1.10753e-21)
(0.311503 0.0720917 1.3709e-19)
(0.379238 0.0668322 -1.91582e-19)
(0.452302 0.061382 0)
(0.529974 0.0557231 2.31364e-19)
(0.611269 0.0498203 -3.27484e-19)
(0.694796 0.0435555 1.01611e-19)
(0.779526 0.0371291 0)
(0.861721 0.0296063 8.98144e-20)
(0.946158 0.0234919 3.43213e-19)
(1.011 0.0127246 -3.22099e-19)
(1.10674 0.00929156 -3.69457e-19)
(-0.012107 0.0148085 2.07466e-19)
(-0.0276599 0.0365001 -2.84829e-19)
(-0.0340071 0.0523275 7.67048e-22)
(-0.0314487 0.0631331 6.31661e-20)
(-0.0203573 0.0698648 -1.1741e-19)
(-0.00105913 0.0734166 -1.0912e-19)
(0.0261925 0.0745678 2.04131e-19)
(0.0612433 0.073987 -7.24422e-22)
(0.104026 0.0722399 -1.79871e-19)
(0.154511 0.0697906 3.37825e-19)
(0.212627 0.0670022 8.22542e-22)
(0.278178 0.0641396 -1.49471e-19)
(0.35075 0.0613731 0)
(0.429639 0.0587824 0)
(0.513804 0.0563618 -6.36418e-20)
(0.60185 0.0540304 -1.18282e-19)
(0.692068 0.0516496 -2.26103e-19)
(0.782489 0.0490195 2.12233e-19)
(0.870985 0.0459665 -1.01655e-19)
(0.955527 0.04225 1.87854e-19)
(1.03345 0.0376046 -9.0507e-20)
(1.10562 0.0327887 1.631e-19)
(1.16098 0.0242996 -3.82087e-19)
(1.22751 0.021793 7.28124e-20)
(-0.0127224 0.0133295 6.98842e-20)
(-0.0273705 0.0312366 0)
(-0.0309488 0.0432121 1.34703e-19)
(-0.0237398 0.0505959 -1.26894e-19)
(-0.00606547 0.0545853 1.17521e-19)
(0.0218134 0.0561914 0)
(0.0597059 0.0562434 0)
(0.107467 0.0554226 -9.58002e-20)
(0.16492 0.054281 6.11626e-22)
(0.231743 0.0532453 8.44717e-20)
(0.307349 0.0526154 -7.91623e-20)
(0.390782 0.0525604 1.48894e-19)
(0.480649 0.0531178 0)
(0.575123 0.0541991 2.64829e-19)
(0.671989 0.0556035 -4.98075e-19)
(0.768757 0.0570391 3.52524e-19)
(0.862815 0.0581647 2.20326e-19)
(0.951582 0.0585722 -2.06819e-19)
(1.03275 0.0580237 0)
(1.10426 0.0558456 0)
(1.1649 0.0527057 0)
(1.21388 0.0465678 0)
(1.25002 0.0402261 7.43575e-20)
(1.28209 0.0321475 -2.65198e-19)
(-0.43279 -0.0138399 -7.17385e-21)
(-0.440858 -0.0184562 7.19209e-21)
(-0.442153 -0.0222407 -2.1466e-22)
(-0.438251 -0.0258504 0)
(-0.427491 -0.0288549 -5.72912e-21)
(-0.409672 -0.0312743 1.07134e-20)
(-0.384161 -0.0327867 -4.99888e-22)
(-0.350545 -0.0331754 -4.37488e-21)
(-0.308504 -0.0322949 0)
(-0.258011 -0.0301039 0)
(-0.199377 -0.0266117 -1.26926e-22)
(-0.133385 -0.0217201 -8.52848e-23)
(-0.0611002 -0.0161756 -5.41776e-22)
(0.0159069 -0.00998816 4.80317e-22)
(0.0956693 -0.003693 0)
(0.176207 0.00227137 0)
(0.255522 0.00756008 -8.10271e-22)
(0.331767 0.0119382 -1.19235e-22)
(0.403509 0.0152972 8.23524e-22)
(0.469811 0.0176662 5.77558e-23)
(0.530152 0.0192079 0)
(0.584414 0.0201516 0)
(0.632826 0.0206272 0)
(0.675804 0.0207789 0)
(0.713892 0.020737 0)
(0.747693 0.020599 0)
(0.777769 0.0204691 -1.70337e-22)
(0.804661 0.020355 2.77572e-22)
(0.828882 0.020278 0)
(0.850801 0.0202951 0)
(0.870684 0.0204066 1.37342e-22)
(0.888715 0.0206182 -1.33482e-22)
(0.904961 0.0209592 -5.55364e-23)
(0.919402 0.0213983 0)
(0.932014 0.0218922 0)
(0.942812 0.0224115 -7.09795e-23)
(0.951906 0.0229438 6.89959e-23)
(0.959462 0.0235312 0)
(0.965718 0.0241775 -4.8025e-23)
(0.970875 0.0249925 6.88835e-23)
(0.975168 0.0258514 -1.95485e-23)
(0.978719 0.0270202 0)
(0.981726 0.0280091 2.90566e-23)
(0.984226 0.0296285 -2.82545e-23)
(0.986392 0.030511 0)
(0.988215 0.0327984 0)
(0.989825 0.0332877 8.93341e-24)
(0.991218 0.0365448 -2.5258e-23)
(0.992453 0.0364927 0)
(0.993554 0.0408064 0)
(0.994547 0.0404614 5.40344e-24)
(0.99542 0.0455612 -1.01534e-27)
(0.99625 0.0453359 5.18605e-25)
(0.996992 0.0512099 -3.46133e-24)
(0.997623 0.0509298 0)
(0.998384 0.0581614 0)
(0.998793 0.057612 0)
(0.999614 0.0662137 0)
(0.999854 0.0658956 0)
(1.0008 0.0758178 0)
(-0.350087 -0.00240325 -7.14049e-22)
(-0.358394 -0.0139677 -2.88615e-20)
(-0.358618 -0.0244364 9.62535e-22)
(-0.354338 -0.0352653 2.61583e-20)
(-0.343926 -0.0456991 3.83632e-22)
(-0.327112 -0.0556422 0)
(-0.303294 -0.0647064 -1.80716e-20)
(-0.272071 -0.0725111 3.34578e-20)
(-0.233164 -0.0786742 -1.53764e-20)
(-0.186612 -0.0828746 9.79609e-21)
(-0.132453 -0.0850855 -9.39397e-21)
(-0.0715448 -0.0844399 4.29266e-21)
(-0.00480713 -0.0812697 -4.21753e-21)
(0.0664391 -0.0758861 -3.76895e-23)
(0.140127 -0.0686899 1.37379e-21)
(0.214571 -0.0601648 -1.33498e-21)
(0.288024 -0.0509354 3.20529e-21)
(0.358831 -0.0416404 -3.01075e-21)
(0.425675 -0.0328289 3.79284e-21)
(0.487687 -0.0249043 -7.36885e-21)
(0.544428 -0.018039 3.57723e-21)
(0.595714 -0.0121772 2.06079e-22)
(0.641645 -0.00728971 2.95474e-21)
(0.682594 -0.00327841 -5.5276e-21)
(0.719041 -1.25451e-05 2.58132e-21)
(0.751527 0.00264913 -1.36505e-22)
(0.780552 0.00481058 -1.91036e-21)
(0.8066 0.00671421 1.1561e-22)
(0.830156 0.00842142 3.01426e-21)
(0.851572 0.0099433 -2.64854e-21)
(0.871082 0.0113568 1.22177e-21)
(0.88887 0.0127045 -1.26954e-22)
(0.90499 0.014091 5.56492e-23)
(0.919383 0.0155316 -9.7641e-23)
(0.932004 0.0169835 0)
(0.942844 0.0183837 0)
(0.951991 0.01969 2.50292e-22)
(0.9596 0.020928 -1.85573e-22)
(0.965901 0.0221013 -1.42353e-22)
(0.971098 0.0233344 -4.43047e-24)
(0.975425 0.0245193 1.8472e-22)
(0.979009 0.0259458 -3.46241e-23)
(0.982045 0.0271318 0)
(0.984575 0.0289131 0)
(0.986771 0.0299116 0)
(0.988618 0.0323047 0)
(0.990261 0.0328602 -3.75731e-23)
(0.991676 0.0361885 1.65855e-23)
(0.992947 0.0361776 0)
(0.994073 0.0405361 0)
(0.995097 0.0402245 0)
(0.996012 0.0453497 8.916e-24)
(0.99686 0.0451493 -1.05606e-24)
(0.99766 0.0510451 7.41728e-24)
(0.998309 0.0507754 0)
(0.999135 0.0580261 0)
(0.999562 0.0574858 -3.49694e-24)
(1.00046 0.0660955 -8.23473e-24)
(1.00071 0.0657836 0)
(1.00176 0.0757145 0)
(-0.194792 0.00824045 5.11841e-22)
(-0.200347 -0.00965194 -6.03798e-20)
(-0.197697 -0.025942 5.74365e-20)
(-0.190945 -0.0430775 -5.36992e-20)
(-0.179155 -0.0600443 -3.86164e-22)
(-0.161958 -0.0766474 0)
(-0.138876 -0.0924942 -3.88447e-20)
(-0.109546 -0.10705 3.80229e-20)
(-0.073781 -0.11973 2.25057e-22)
(-0.0319378 -0.129921 3.83095e-22)
(0.0163928 -0.13677 2.91552e-22)
(0.0709767 -0.139938 1.82756e-22)
(0.12988 -0.139168 -5.09191e-21)
(0.191965 -0.134774 4.98608e-21)
(0.255768 -0.126945 0)
(0.319754 -0.116227 -9.07094e-23)
(0.382452 -0.103517 5.9852e-21)
(0.442568 -0.0898281 -5.92014e-21)
(0.499098 -0.0761108 0)
(0.55141 -0.0631342 0)
(0.599248 -0.0514358 7.06428e-21)
(0.642549 -0.0412034 -1.34504e-20)
(0.681421 -0.0324121 1.20406e-20)
(0.716178 -0.0249776 -5.73636e-22)
(0.747234 -0.0187668 -9.67287e-21)
(0.775019 -0.0136037 8.89119e-21)
(0.800009 -0.00932962 -7.5168e-21)
(0.822627 -0.00569358 5.47076e-22)
(0.843163 -0.00255617 3.16253e-21)
(0.861922 0.000130819 0)
(0.87914 0.00258867 0)
(0.894991 0.00507168 -7.16035e-22)
(0.909534 0.00747759 9.43112e-22)
(0.922684 0.00985008 2.24924e-25)
(0.934356 0.012192 -6.544e-22)
(0.9445 0.0144243 6.35966e-22)
(0.953157 0.0164725 0)
(0.960438 0.0183402 -5.79562e-23)
(0.966526 0.0200269 -4.39351e-22)
(0.971594 0.0216693 8.09014e-22)
(0.975846 0.0231741 -3.32222e-22)
(0.979397 0.024855 -3.4889e-23)
(0.982421 0.0262359 2.96276e-22)
(0.984956 0.0281783 -2.28239e-22)
(0.987166 0.0292926 -4.81243e-23)
(0.989031 0.0317913 -4.26058e-23)
(0.990703 0.032413 3.76687e-23)
(0.992135 0.035813 0)
(0.993442 0.0358428 0)
(0.994592 0.0402473 1.0177e-22)
(0.995646 0.0399675 -4.82681e-23)
(0.996602 0.0451204 4.01007e-23)
(0.99747 0.044943 -5.21063e-23)
(0.998327 0.0508628 -5.75996e-23)
(0.998993 0.0506027 1.35151e-23)
(0.999884 0.0578747 -2.04957e-23)
(1.00033 0.0573424 1.60221e-23)
(1.00131 0.0659636 -6.83066e-24)
(1.00157 0.0656571 0)
(1.00272 0.0756005 0)
(-0.00586972 0.0108264 -1.27643e-19)
(-0.00684148 -0.00818044 2.48478e-21)
(0.000618553 -0.0292114 1.18698e-19)
(0.0105407 -0.0512277 -8.65994e-22)
(0.0246591 -0.0731756 0)
(0.0429469 -0.0950637 0)
(0.0657748 -0.116435 -8.2156e-20)
(0.0935405 -0.136554 8.56688e-21)
(0.126389 -0.154646 9.7658e-20)
(0.16412 -0.169869 -5.62177e-21)
(0.206362 -0.180665 -2.26501e-20)
(0.252912 -0.187004 -1.10875e-20)
(0.302565 -0.188457 1.12282e-20)
(0.354106 -0.184761 0)
(0.406219 -0.176174 9.72564e-22)
(0.457652 -0.163414 -8.00344e-22)
(0.507309 -0.147614 0)
(0.554327 -0.130114 0)
(0.598109 -0.11221 -6.70534e-21)
(0.638304 -0.0949457 -2.60474e-22)
(0.674893 -0.0791417 6.36891e-21)
(0.708023 -0.0651789 6.37377e-21)
(0.737833 -0.0530793 -6.35172e-21)
(0.764566 -0.042762 5.32825e-21)
(0.788547 -0.0340801 -5.31643e-22)
(0.810117 -0.026835 -4.50055e-21)
(0.829619 -0.0207804 -4.77779e-22)
(0.847369 -0.0157675 -4.05399e-24)
(0.863597 -0.011574 0)
(0.878568 -0.00797221 -2.51651e-21)
(0.892542 -0.00472517 2.58908e-21)
(0.905535 -0.00162 -1.27899e-22)
(0.917539 0.00153104 0)
(0.928601 0.0047244 9.85852e-23)
(0.938629 0.00781522 -1.31532e-21)
(0.947522 0.0107491 2.28148e-21)
(0.955266 0.0134389 2.48791e-23)
(0.961908 0.0158639 -9.47103e-23)
(0.967565 0.0180136 -7.6268e-22)
(0.972355 0.0200316 -9.01948e-23)
(0.976434 0.0218346 6.06781e-22)
(0.979886 0.0237565 -5.1966e-22)
(0.982858 0.0253246 1.03489e-25)
(0.985372 0.0274241 -2.09111e-22)
(0.987582 0.0286521 2.51586e-22)
(0.989453 0.0312561 2.924e-22)
(0.991149 0.0319435 -8.33127e-23)
(0.992596 0.0354158 -1.28312e-22)
(0.993937 0.0354856 2.38049e-22)
(0.99511 0.0399378 -1.6246e-22)
(0.996194 0.0396883 4.13956e-23)
(0.997191 0.0448715 -4.90886e-23)
(0.998077 0.0447156 -3.92252e-23)
(0.998993 0.0506617 8.76682e-23)
(0.999675 0.0504104 -2.03258e-24)
(1.00063 0.057706 2.05965e-23)
(1.00109 0.057181 0)
(1.00216 0.0658172 6.90034e-24)
(1.00243 0.0655157 -9.55055e-24)
(1.00368 0.0754756 0)
(0.186603 0.00745643 1.30267e-19)
(0.194611 -0.0115355 -2.53636e-19)
(0.204801 -0.0351349 1.21897e-19)
(0.218664 -0.0598313 1.13729e-19)
(0.235317 -0.0850624 -2.17077e-19)
(0.254742 -0.110804 7.13141e-21)
(0.277456 -0.136321 9.43638e-20)
(0.303737 -0.160684 7.46721e-20)
(0.333583 -0.182896 -7.30884e-20)
(0.366735 -0.20189 0)
(0.402749 -0.216361 -3.8579e-20)
(0.441124 -0.225377 6.48004e-20)
(0.480829 -0.228296 -2.64805e-20)
(0.520807 -0.224908 0)
(0.56009 -0.215505 0)
(0.597858 -0.200924 -5.37501e-23)
(0.633503 -0.182515 8.19348e-21)
(0.666667 -0.16189 -7.95964e-21)
(0.697208 -0.140627 0)
(0.725078 -0.119976 -1.27613e-20)
(0.75041 -0.100858 2.43152e-20)
(0.773495 -0.0838974 -2.36156e-20)
(0.794503 -0.0691878 2.26365e-20)
(0.813548 -0.0566249 -6.04721e-22)
(0.830811 -0.0460353 -1.90257e-20)
(0.846488 -0.0371931 9.03661e-21)
(0.860786 -0.0298352 2.38894e-22)
(0.873904 -0.0237197 2.99466e-21)
(0.885998 -0.018588 -2.76943e-22)
(0.897234 -0.0141836 -2.75611e-21)
(0.907762 -0.0103151 -1.4576e-22)
(0.917726 -0.00681905 1.94629e-21)
(0.927148 -0.00333824 -3.60215e-21)
(0.935917 0.000353061 1.85904e-21)
(0.944011 0.00403332 0)
(0.951399 0.00750506 1.31505e-21)
(0.958015 0.0106994 -1.26322e-21)
(0.963842 0.0135781 7.80332e-22)
(0.968932 0.0161165 -9.75795e-22)
(0.973342 0.018459 9.10193e-23)
(0.977174 0.0205257 0)
(0.980475 0.0226669 7.07111e-23)
(0.983358 0.0244084 -1.87227e-22)
(0.985827 0.0266574 0)
(0.988021 0.0279946 -4.70782e-22)
(0.989889 0.0307017 1.89853e-22)
(0.991603 0.0314537 -7.63695e-23)
(0.99306 0.0349983 -6.76764e-23)
(0.994433 0.0351074 0)
(0.995627 0.0396087 0)
(0.99674 0.039388 1.34241e-22)
(0.997778 0.0446036 -2.02549e-22)
(0.998681 0.0444678 1.09505e-22)
(0.999656 0.050442 -3.40337e-23)
(1.00035 0.0501991 -5.44561e-23)
(1.00138 0.0575204 -2.06162e-23)
(1.00186 0.0570021 3.23272e-23)
(1.00301 0.0656565 0)
(1.00328 0.0653596 1.53595e-23)
(1.00464 0.0753396 3.60327e-24)
(0.374791 0.00279852 1.31973e-19)
(0.387944 -0.0183779 -1.31196e-19)
(0.401729 -0.0428271 9.71113e-22)
(0.418499 -0.0685959 -9.20012e-22)
(0.437175 -0.0955754 8.67128e-22)
(0.457574 -0.123621 -8.00851e-22)
(0.480102 -0.151878 1.47076e-21)
(0.504835 -0.179246 0)
(0.531572 -0.204508 -1.1422e-21)
(0.55991 -0.2263 9.62864e-22)
(0.589236 -0.243154 7.80633e-22)
(0.618814 -0.253882 -5.43657e-22)
(0.647741 -0.257693 0)
(0.675226 -0.254351 0)
(0.700765 -0.244221 1.54202e-22)
(0.724125 -0.228263 0)
(0.745323 -0.20799 3.07528e-23)
(0.764577 -0.185202 0)
(0.782221 -0.161635 9.84301e-21)
(0.798515 -0.138692 -2.03912e-20)
(0.813634 -0.117293 2.14513e-20)
(0.827858 -0.0981607 -1.08187e-20)
(0.841361 -0.0815411 -1.03032e-20)
(0.854086 -0.0673227 1.00054e-20)
(0.865986 -0.0553024 9.02956e-21)
(0.877067 -0.0452389 -8.74878e-21)
(0.887368 -0.0368489 0)
(0.896948 -0.0298597 -2.02465e-22)
(0.90585 -0.0240091 0)
(0.914154 -0.019047 0)
(0.921973 -0.0147305 -4.12483e-21)
(0.92939 -0.0107787 4.28227e-21)
(0.93652 -0.00702993 -2.23163e-22)
(0.943318 -0.00323309 -1.9895e-22)
(0.949656 0.000838355 1.7257e-22)
(0.95557 0.00471526 1.17068e-21)
(0.961051 0.00828627 -1.1367e-21)
(0.966033 0.0115132 1.02554e-21)
(0.970513 0.0143618 -8.80262e-22)
(0.974499 0.0169725 -1.83851e-22)
(0.978042 0.0192639 6.18519e-22)
(0.981156 0.0215983 1.64921e-23)
(0.983923 0.0234962 -4.03838e-22)
(0.986324 0.0258845 0)
(0.988489 0.0273245 1.96964e-22)
(0.990342 0.0301315 -2.4624e-22)
(0.992067 0.0309459 3.23666e-22)
(0.99353 0.0345624 6.81073e-23)
(0.994932 0.0347096 0)
(0.996145 0.039261 -4.80304e-23)
(0.997285 0.0390676 9.8211e-23)
(0.998364 0.0443176 -7.77153e-26)