/*--------------------------------*- C++ -*----------------------------------*\
| =========                 |                                                 |
| \\      /  F ield         | OpenFOAM: The Open Source CFD Toolbox           |
|  \\    /   O peration     | Version:  2512                                  |
|   \\  /    A nd           | Website:  www.openfoam.com                      |
|    \\/     M anipulation  |                                                 |
\*---------------------------------------------------------------------------*/
FoamFile
{
    version     2.0;
    format      ascii;
    arch        "LSB;label=32;scalar=64";
    class       surfaceScalarField;
    location    "61.25";
    object      phi;
}
// * * * * * * * * * * * * * * * * * * * * * * * * * * * * * * * * * * * * * //

dimensions      [0 3 -1 0 0 0 0];

oriented        oriented;

internalField   nonuniform List<scalar> 
26232
(
-2.46822e-06
0.000934648
-0.00093218
0.000195532
0.00181376
-0.00201176
0.000770372
0.00186357
-0.00243841
0.00188401
0.00113827
-0.00225191
0.00369419
-0.000337296
-0.00147288
0.00635627
-0.00255499
-0.000107089
0.0100203
-0.00551346
0.00184939
0.0148217
-0.00920784
0.00440651
0.0208686
-0.0136184
0.00757154
0.0282274
-0.0187021
0.0113433
0.0369083
-0.024387
0.0157061
0.0468555
-0.0305727
0.0206256
0.0579424
-0.0371339
0.026047
0.0699755
-0.0439289
0.0318958
0.0827043
-0.0508098
0.038081
0.0958374
-0.057633
0.0444999
0.109063
-0.0642698
0.051044
0.122072
-0.0706157
0.0576071
0.134579
-0.0765923
0.0640851
0.146342
-0.0821689
0.0704058
0.157179
-0.0873032
0.0764663
0.166947
-0.0921211
0.0823533
0.175531
-0.0963624
0.087778
-0.100812
0.0938586
0.182484
5.18233e-05
0.000882825
0.000429105
0.00143647
0.00133123
0.000961446
0.0029458
-0.000476296
0.00545368
-0.00284518
0.0090243
-0.00612561
0.0138039
-0.0102931
0.0198983
-0.0153022
0.0273534
-0.0210736
0.0361395
-0.0274881
0.0461413
-0.0343889
0.0571602
-0.0415916
0.0689256
-0.0488993
0.0811173
-0.0561206
0.0933929
-0.0630854
0.105419
-0.069659
0.1169
-0.0757507
0.127602
-0.0813177
0.137373
-0.0863636
0.14614
-0.0909357
0.153935
-0.0950985
0.160802
-0.0989877
0.166986
-0.102547
-0.106345
0.17252
0.000125227
0.000757598
0.000733585
0.000828115
0.00204538
-0.000350345
0.00426784
-0.00269876
0.00759217
-0.0061695
0.0121784
-0.0107119
0.018133
-0.0162477
0.0254844
-0.0226536
0.0341639
-0.0297531
0.0439985
-0.0373227
0.0547197
-0.0451101
0.0659878
-0.0528597
0.0774277
-0.0603392
0.0886693
-0.0673621
0.0993865
-0.0738026
0.10933
-0.0796021
0.118345
-0.0847661
0.126382
-0.0893548
0.133485
-0.0934669
0.139774
-0.0972239
0.145416
-0.100741
0.15058
-0.104152
0.155474
-0.107441
-0.111021
0.16015
0.000216394
0.000541205
0.00110397
-5.94583e-05
0.00289745
-0.00214383
0.005811
-0.00561231
0.0100228
-0.0103813
0.0156468
-0.0163359
0.0227018
-0.0233027
0.0310878
-0.0310396
0.0405806
-0.0392459
0.0508496
-0.0475917
0.0614961
-0.0557566
0.0721047
-0.0634683
0.0822961
-0.0705306
0.0917717
-0.0768377
0.100342
-0.0823734
0.107938
-0.0871979
0.114598
-0.091426
0.120445
-0.0952016
0.125651
-0.0986726
0.130399
-0.101972
0.13486
-0.105202
0.139158
-0.108449
0.143419
-0.111702
-0.115221
0.147618
0.00032435
0.000216855
0.00153286
-0.00126796
0.00386289
-0.00447387
0.00751393
-0.00926335
0.0126162
-0.0154836
0.0191912
-0.0229108
0.0271203
-0.0312319
0.0361394
-0.0400586
0.0458643
-0.0489708
0.0558455
-0.0575729
0.0656358
-0.0655469
0.0748548
-0.0726874
0.0832363
-0.0789121
0.0906492
-0.0842507
0.0970933
-0.0888174
0.102671
-0.0927759
0.10755
-0.0963045
0.111917
-0.0995687
0.115948
-0.102703
0.119783
-0.105807
0.123523
-0.108943
0.127226
-0.112152
0.130948
-0.115424
-0.118917
0.134644
0.000448113
-0.000231259
0.00201041
-0.00283026
0.00490738
-0.00737084
0.00929237
-0.0136483
0.0152037
-0.0213949
0.0225223
-0.0302294
0.0309591
-0.0396687
0.040087
-0.0491865
0.0494099
-0.0582938
0.0584497
-0.0666126
0.0668221
-0.0739193
0.0742858
-0.0801511
0.080755
-0.0853812
0.0862789
-0.0897746
0.0910006
-0.0935391
0.0951072
-0.0968825
0.098787
-0.0999843
0.1022
-0.102982
0.105465
-0.105969
0.108662
-0.109004
0.11184
-0.11212
0.115022
-0.115334
0.118238
-0.11864
-0.122123
0.121444
0.000585723
-0.000816982
0.00252136
-0.0047659
0.00598238
-0.0108319
0.011036
-0.018702
0.0175829
-0.0279418
0.0253299
-0.0379764
0.0338195
-0.0481583
0.0425121
-0.057879
0.0508917
-0.0666734
0.0585582
-0.0742791
0.0652789
-0.08064
0.0709942
-0.0858664
0.0757838
-0.0901708
0.0798135
-0.0938044
0.0832797
-0.0970053
0.0863668
-0.0999696
0.0892228
-0.10284
0.0919534
-0.105712
0.0946262
-0.108642
0.0972816
-0.111659
0.0999417
-0.11478
0.102617
-0.11801
0.10532
-0.121343
-0.124818
0.108015
0.000733147
-0.00155013
0.00304263
-0.00707538
0.0070233
-0.0148125
0.0126133
-0.0242919
0.0195403
-0.0348689
0.027335
-0.0457711
0.0354175
-0.0562408
0.0432238
-0.0656853
0.050318
-0.0737677
0.0564538
-0.0804149
0.0615764
-0.0857625
0.0657787
-0.0900687
0.0692384
-0.0936306
0.0721573
-0.0967232
0.0747175
-0.0995655
0.077061
-0.102313
0.0792858
-0.105065
0.0814535
-0.10788
0.0835994
-0.110787
0.085743
-0.113803
0.087894
-0.116931
0.0900564
-0.120172
0.0922352
-0.123522
-0.126988
0.0944057
0.000883623
-0.00243375
0.00354311
-0.00973487
0.00795357
-0.019223
0.0138873
-0.0302257
0.0208886
-0.0418701
0.0283475
-0.05323
0.0356419
-0.0635352
0.0422767
-0.0723202
0.0479645
-0.0794554
0.0526312
-0.0850816
0.0563671
-0.0894985
0.0593542
-0.0930557
0.0617984
-0.0960748
0.0638839
-0.0988087
0.0657516
-0.101433
0.067497
-0.104059
0.0691789
-0.106747
0.0708304
-0.109531
0.0724692
-0.112426
0.0741045
-0.115438
0.0757407
-0.118568
0.0773798
-0.121811
0.0790226
-0.125165
-0.12862
0.0806542
0.00102791
-0.00346166
0.00398639
-0.0126933
0.00869469
-0.0239313
0.0147393
-0.0362702
0.0215018
-0.0486327
0.0282995
-0.0600277
0.0345547
-0.0697904
0.0399071
-0.0776726
0.0442361
-0.0837844
0.0476107
-0.0884563
0.050209
-0.0920968
0.0522412
-0.0950879
0.0538971
-0.0977307
0.0553216
-0.100233
0.0566123
-0.102724
0.0578281
-0.105274
0.059002
-0.107921
0.0601514
-0.110681
0.0612852
-0.11356
0.0624082
-0.116561
0.0635226
-0.119682
0.0646292
-0.122918
0.0657266
-0.126262
-0.1297
0.0668071
0.0011558
-0.00461747
0.00433683
-0.0158744
0.0091799
-0.0287744
0.0150895
-0.0421798
0.0213354
-0.0548786
0.0272412
-0.0659335
0.0323409
-0.0748901
0.0364334
-0.0817651
0.0395428
-0.0868938
0.0418315
-0.0907449
0.0435115
-0.0937767
0.044781
-0.0963575
0.0457943
-0.0987439
0.046655
-0.101094
0.0474258
-0.103495
0.0481411
-0.10599
0.048819
-0.108599
0.0494687
-0.11133
0.0500955
-0.114187
0.050702
-0.117168
0.0512896
-0.12027
0.0518579
-0.123486
0.0524042
-0.126808
-0.130221
0.0529251
0.00126019
-0.00587766
0.00456784
-0.019182
0.00936635
-0.0335729
0.0149092
-0.0477226
0.0204234
-0.0603928
0.0253092
-0.0708192
0.0292459
-0.0788268
0.0321799
-0.0846992
0.0342384
-0.0889523
0.0356278
-0.0921344
0.0365564
-0.0947053
0.0371913
-0.0969924
0.0376476
-0.0992001
0.0379949
-0.101441
0.0382716
-0.103771
0.0384973
-0.106215
0.0386817
-0.108783
0.0388303
-0.111479
0.0389466
-0.114303
0.0390325
-0.117254
0.0390894
-0.120326
0.0391168
-0.123513
0.0391119
-0.126804
0.0390749
-0.130184
-0.000209744
9.64754e-05
0.000113268
-0.000727802
0.000486793
3.12649e-05
-0.00148557
0.00102186
-0.000264097
-0.00243192
0.00164436
-0.000698004
-0.0035275
0.00230877
-0.00121319
-0.00474164
0.00298698
-0.00177283
-0.00605
0.0036674
-0.00235904
-0.00743259
0.00435183
-0.00296923
-0.00887235
0.00505122
-0.00361147
-0.0103538
0.00578127
-0.00429979
-0.0118624
0.00655852
-0.00504999
-0.0133832
0.00739755
-0.0058767
-0.0149009
0.00830928
-0.00679161
-0.0163985
0.00930024
-0.00780263
-0.0178574
0.0103723
-0.00891338
-0.0192571
0.0115226
-0.0101229
-0.0205756
0.0127437
-0.0114251
-0.0217906
0.0140233
-0.0128084
-0.0228808
0.0153451
-0.0142549
-0.0238291
0.0166887
-0.0157405
-0.0246248
0.0180312
-0.0172354
-0.0252679
0.0193478
-0.0187047
-0.0257777
0.0206164
-0.0201066
0.0218353
-0.0262109
-0.0214021
-0.000181788
0.000278263
-0.000631895
0.0009369
-0.00128916
0.00167913
-0.00210659
0.00246179
-0.00304721
0.00324938
-0.00408121
0.00402098
-0.0051837
0.00476989
-0.00633282
0.00550095
-0.00750842
0.00622682
-0.00869106
0.00696392
-0.00986139
0.00772885
-0.0109996
0.00853572
-0.0120848
0.00939455
-0.0130951
0.0103105
-0.0140065
0.0112837
-0.0147933
0.0123094
-0.0154279
0.0133783
-0.0158812
0.0144766
-0.016123
0.0155869
-0.016124
0.0166896
-0.0158572
0.0177645
-0.0153036
0.0187942
-0.0144607
0.0197734
0.0207221
-0.0133475
-0.000147004
0.000425266
-0.000512183
0.00130208
-0.001043
0.00220994
-0.00169689
0.00311568
-0.00243899
0.00399148
-0.00323992
0.00482191
-0.00407372
0.00560369
-0.00491618
0.00634341
-0.00574362
0.00705426
-0.0065321
0.00775239
-0.00725695
0.0084537
-0.00789249
0.00917127
-0.0084118
0.00991386
-0.00878644
0.0106851
-0.00898619
0.0114834
-0.00897869
0.0123019
-0.00872916
0.0131287
-0.00819977
0.0139472
-0.00734971
0.0147369
-0.00613432
0.0154742
-0.00450522
0.0161354
-0.00241115
0.0167001
0.000196018
0.0171663
0.0176321
0.00328605
-0.000110985
0.000536251
-0.000386271
0.00157737
-0.000780695
0.00260437
-0.00125498
0.00358997
-0.00177543
0.00451193
-0.00231228
0.00535876
-0.00283798
0.00612938
-0.00332558
0.00683102
-0.00374766
0.00747634
-0.00407556
0.00808029
-0.00427903
0.00865717
-0.00432613
0.00921837
-0.00418311
0.00977083
-0.00381442
0.0103164
-0.00318251
0.0108515
-0.00224758
0.011367
-0.000967196
0.0118484
0.000703828
0.0122762
0.0028153
0.0126254
0.00542245
0.0128671
0.00858807
0.0129697
0.0123824
0.0129058
0.0168857
0.012663
0.0123098
0.022208
-7.90598e-05
0.000615311
-0.000271251
0.00176956
-0.000535373
0.00286849
-0.000833112
0.00388771
-0.00113026
0.00480908
-0.00139557
0.00562407
-0.00159917
0.00633299
-0.00171104
0.00694289
-0.0016998
0.0074651
-0.00153207
0.00791255
-0.00117196
0.00829707
-0.000581096
0.0086275
0.000281364
0.00890837
0.00145884
0.00913896
0.00299719
0.00931318
0.00494476
0.00941942
0.0073526
0.00944052
0.010275
0.00935378
0.0137695
0.0091309
0.0178986
0.00873798
0.0227324
0.00813592
0.0283547
0.00728349
0.0348521
0.00616559
0.00468276
0.0424792
-5.55333e-05
0.000670844
-0.000180971
0.001895
-0.000334119
0.00302164
-0.000474487
0.00402808
-0.000565249
0.00489984
-0.000572145
0.00563097
-0.000462058
0.0062229
-0.000201175
0.00668201
0.000246169
0.00701776
0.000918531
0.00724019
0.00185773
0.00735787
0.00310911
0.00737612
0.00472159
0.00729589
0.00674755
0.007113
0.0092428
0.00681793
0.0122666
0.00639565
0.0158814
0.00582568
0.0201533
0.00508188
0.0251517
0.00413248
0.0309492
0.00294048
0.0376194
0.00146576
0.0452613
-0.000358412
0.0538945
-0.00246766
-0.00543934
0.0640166
-4.277e-05
0.000713614
-0.000122956
0.00197518
-0.000191687
0.00309037
-0.000202755
0.00403915
-0.000114097
0.00481118
0.000113031
0.00540384
0.000516976
0.00581895
0.00113681
0.00606218
0.00201413
0.00614044
0.00319422
0.00606009
0.00472684
0.00582525
0.00666655
0.00543641
0.00907293
0.00488951
0.0120105
0.00417547
0.0155486
0.0032798
0.0197611
0.00218314
0.0247256
0.000861221
0.030523
-0.000715561
0.0372369
-0.00258146
0.0449516
-0.0047742
0.0537372
-0.00731986
0.0637231
-0.0103443
0.0747728
-0.0135174
-0.0182977
0.0876311
-4.04255e-05
0.000754039
-9.57945e-05
0.00203055
-0.000104934
0.00309951
-1.21809e-05
0.00394639
0.000232039
0.00456696
0.000674832
0.00496105
0.00136206
0.00513173
0.00234134
0.0050829
0.00366392
0.00481785
0.00538614
0.00433787
0.00757035
0.00364104
0.0102854
0.00272137
0.0136065
0.00156836
0.0176146
0.000167403
0.0223966
-0.00150216
0.0280419
-0.00346217
0.034642
-0.00573894
0.0422869
-0.00836044
0.0510599
-0.0113545
0.0610408
-0.0147551
0.0722674
-0.0185465
0.0848656
-0.0229425
0.0985532
-0.0272049
-0.033822
0.114078
-4.50757e-05
0.000799115
-8.7845e-05
0.00207332
-4.99589e-05
0.00306162
0.000136976
0.00375946
0.000534999
0.00416894
0.0012025
0.00429354
0.00219817
0.00413606
0.00358378
0.00369729
0.00542644
0.00297519
0.00780003
0.00196428
0.0107857
0.000655359
0.0144716
-0.000964483
0.0189512
-0.00291124
0.0243217
-0.00520313
0.0306791
-0.00785957
0.0381161
-0.0108992
0.046716
-0.0143388
0.0565473
-0.0181917
0.0676565
-0.0224637
0.0800674
-0.027166
0.0937492
-0.0322283
0.10871
-0.0379035
0.124668
-0.0431631
-0.0510758
0.141922
-5.05253e-05
0.00084964
-7.8329e-05
0.00210112
1.57952e-05
0.0029675
0.000317201
0.00345805
0.00090434
0.0035818
0.00185319
0.00334469
0.00324157
0.00274767
0.00515226
0.0017866
0.00767461
0.000452834
0.0109048
-0.00126589
0.0149442
-0.0033841
0.0198966
-0.00591682
0.0258629
-0.0088776
0.0329361
-0.0122763
0.0411937
-0.0161171
0.0506914
-0.0203969
0.0614564
-0.0251039
0.0734818
-0.030217
0.0867218
-0.0357037
0.101088
-0.0415322
0.116454
-0.0475948
0.132616
-0.0540648
0.149441
-0.0599882
-0.0680839
0.166449
-4.90687e-05
0.000898709
-4.1288e-05
0.00209334
0.00014542
0.00278079
0.000617679
0.00298579
0.00147543
0.00272405
0.00281814
0.00200199
0.00474853
0.00081728
0.00737453
-0.000839402
0.0108085
-0.00298112
0.0151638
-0.00562121
0.0205493
-0.00876955
0.0270613
-0.0124289
0.0347753
-0.0165916
0.0437365
-0.0212375
0.0539522
-0.0263328
0.0653855
-0.0318303
0.0779522
-0.0376706
0.0915206
-0.0437854
0.105914
-0.0500972
0.12092
-0.0565376
0.136316
-0.0629908
0.151781
-0.0695296
0.16732
-0.0755278
-0.0826208
0.181857
-3.34711e-05
4.81163e-05
0.000390496
0.00112438
0.00237555
0.00427045
0.00693712
0.0105042
0.0150946
0.0208167
0.0277533
0.03595
0.0454053
0.0560636
0.0678118
0.0804814
0.0938549
0.107677
0.121664
0.135533
0.149008
0.161832
0.174082
0.18532
-0.0255395
0.0299594
-0.0306308
-0.0246457
0.0311419
-0.0320357
-0.0234913
0.0314962
-0.0326506
-0.0220474
0.0307962
-0.0322401
-0.0202792
0.0287363
-0.0305045
-0.0181537
0.024997
-0.0271224
-0.0155774
0.019178
-0.0217543
-0.012542
0.0110921
-0.0141276
-0.0091451
0.000569907
-0.00396678
-0.0052604
-0.0123104
0.00842569
-0.0010641
-0.0275595
0.0233632
0.00325394
-0.0446306
0.0403125
0.00738087
-0.0627435
0.0586166
0.0110404
-0.0810021
0.0773425
0.0138297
-0.098362
0.0955728
0.015473
-0.114011
0.112367
0.0160832
-0.127448
0.126837
0.0163372
-0.138198
0.137944
0.0175044
-0.145005
0.143838
0.0211464
-0.145363
0.141721
0.0282143
-0.135734
0.128666
0.0384501
-0.113145
0.102909
0.050698
-0.0771815
0.0649336
0.0639476
-0.0302475
0.0169979
0.0774474
0.0232119
-0.0367118
0.0903252
0.0768627
-0.0897405
0.101286
0.123433
-0.134394
0.109383
0.157976
-0.166073
0.11408
0.179471
-0.184167
0.114241
0.192495
-0.192656
0.10898
0.205981
-0.20072
0.10049
0.222447
-0.213957
0.0941336
0.227609
-0.221253
0.0941855
0.198871
-0.198923
0.100799
0.127396
-0.134009
0.111536
0.0273884
-0.0381257
0.122677
-0.0739718
0.0628314
0.13136
-0.15598
0.147297
0.137022
-0.209355
0.203693
0.139432
-0.232822
0.230412
0.136234
-0.240377
0.243575
0.126939
-0.252577
0.261872
0.116143
-0.264564
0.27536
0.109944
-0.240075
0.246274
0.110892
-0.156631
0.155683
0.117044
-0.0314586
0.0253064
0.125142
0.0916645
-0.0997624
0.132378
0.17954
-0.186775
0.134681
0.2301
-0.232403
0.12953
0.261993
-0.256842
0.120679
0.284863
-0.276012
0.115495
0.256803
-0.25162
0.117482
0.175225
-0.177213
0.124173
0.0465341
-0.0532244
0.131873
-0.0605223
0.0528223
0.138097
-0.133359
0.127135
0.141403
-0.171632
0.168326
0.139757
-0.155003
0.15665
0.135271
-0.177295
0.181781
-0.0976338
0.0980325
-0.0118588
0.0284708
-0.0101731
0.0294561
-0.00824009
0.0295632
-0.00602422
0.0285803
-0.00350663
0.0262187
-0.000664947
0.0221553
0.0023628
0.0161502
0.00561941
0.00783553
0.00912039
-0.00293107
0.0128658
-0.0160558
0.016691
-0.0313847
0.0204423
-0.0483819
0.023891
-0.0661922
0.026653
-0.0837641
0.0282771
-0.0999861
0.0283157
-0.114049
0.0265318
-0.125664
0.0232835
-0.13495
0.0199256
-0.141647
0.0185676
-0.144005
0.0212052
-0.138371
0.0286043
-0.120544
0.0399186
-0.0884957
0.053607
-0.0439359
0.0683304
0.00848855
0.0827979
0.0623952
0.0956612
0.11057
0.105733
0.147904
0.111946
0.173257
0.112991
0.19145
0.108758
0.210214
0.102286
0.228918
0.0985208
0.231374
0.100375
0.197017
0.107289
0.120482
0.117264
0.0174133
0.127094
-0.0838022
0.134177
-0.163062
0.138033
-0.213211
0.139261
-0.234051
0.135812
-0.236928
0.126365
-0.24313
0.115002
-0.253201
0.108127
-0.233201
0.108781
-0.157285
0.115285
-0.0379624
0.124281
0.0826689
0.132106
0.171714
0.134198
0.228007
0.128676
0.267516
0.120117
0.293422
0.115682
0.261239
0.118508
0.172399
0.125669
0.0393725
0.13336
-0.0682131
0.139565
-0.139565
0.143041
-0.175107
0.142287
-0.15425
0.137757
-0.172766
-0.0963275
0.00570396
0.0260528
0.00816911
0.026991
0.0108157
0.0269166
0.0136723
0.0257237
0.0167152
0.0231758
0.0199142
0.0189563
0.0232966
0.0127678
0.0267385
0.00439368
0.0302909
-0.00648347
0.0338116
-0.0195765
0.0372054
-0.0347785
0.0403405
-0.051517
0.0430296
-0.0688814
0.0449746
-0.085709
0.0457604
-0.100772
0.0448164
-0.113105
0.0415727
-0.12242
0.0359381
-0.129316
0.0288321
-0.134541
0.0224305
-0.137604
0.0196079
-0.135549
0.0225273
-0.123464
0.0313503
-0.0973187
0.0444532
-0.0570389
0.0599481
-0.00700633
0.0757755
0.0465678
0.090371
0.0959742
0.102195
0.13608
0.109764
0.165688
0.111904
0.189311
0.109277
0.212841
0.105295
0.232899
0.10412
0.232549
0.107454
0.193683
0.114342
0.113594
0.12309
0.00866481
0.131421
-0.0921328
0.136917
-0.168558
0.139027
-0.215321
0.13903
-0.234053
0.135441
-0.233339
0.126107
-0.233796
0.11434
-0.241434
0.106813
-0.225673
0.107149
-0.157621
0.113965
-0.044779
0.12371
0.0729243
0.131914
0.16351
0.133748
0.226174
0.127988
0.273276
0.119839
0.30157
0.116157
0.264921
0.119772
0.168784
0.127377
0.0317675
0.135056
-0.0758921
0.141111
-0.145619
0.144542
-0.178537
0.144636
-0.154344
0.140352
-0.168481
-0.094342
0.0252825
0.0229784
0.0284759
0.0237975
0.0317949
0.0235976
0.0352548
0.0222637
0.0388076
0.0196231
0.0423965
0.0153674
0.045991
0.00917327
0.0494909
0.000893818
0.0529352
-0.0099278
0.0561138
-0.022755
0.0589687
-0.0376335
0.0613991
-0.0539475
0.0632657
-0.0707479
0.0643408
-0.0867842
0.0642662
-0.100697
0.0625707
-0.11141
0.0586984
-0.118548
0.052132
-0.122749
0.0429828
-0.125392
0.0327623
-0.127383
0.0245054
-0.127292
0.0216711
-0.120629
0.0261504
-0.101798
0.0372035
-0.068092
0.0523608
-0.0221637
0.0691301
0.0297985
0.0851731
0.0799312
0.0985264
0.122727
0.107437
0.156777
0.11103
0.185718
0.110552
0.213319
0.109365
0.234087
0.110644
0.23127
0.115121
0.189207
0.121693
0.107021
0.128943
0.0014151
0.135588
-0.0987771
0.139511
-0.172482
0.139987
-0.215798
0.138713
-0.232779
0.135013
-0.229638
0.126053
-0.224837
0.114097
-0.229478
0.105979
-0.217555
0.105998
-0.15764
0.113072
-0.0518527
0.123383
0.0626125
0.131775
0.155119
0.133354
0.224594
0.127499
0.279131
0.119855
0.309215
0.116909
0.267867
0.121226
0.164467
0.129225
0.0237684
0.136912
-0.0835787
0.142743
-0.151451
0.145951
-0.181745
0.146772
-0.155165
0.142957
-0.164665
-0.0919274
0.045999
0.0194586
0.049674
0.0201225
0.0534886
0.019783
0.0574044
0.0183479
0.0613323
0.0156951
0.0651824
0.0115174
0.0688344
0.00552123
0.072549
-0.00282079
0.0757517
-0.0131305
0.0785659
-0.0255692
0.0808678
-0.0399353
0.0825386
-0.0556182
0.0834346
-0.0716439
0.083384
-0.0867336
0.0821969
-0.0995102
0.0796512
-0.108864
0.0754052
-0.114302
0.0688956
-0.11624
0.05957
-0.116066
0.0477671
-0.11558
0.0356609
-0.115186
0.0270882
-0.112057
0.0257044
-0.100414
0.032659
-0.0750467
0.0460467
-0.0355513
0.0627973
0.0130479
0.0797802
0.0629483
0.0944205
0.108087
0.104784
0.146414
0.11028
0.180223
0.112427
0.211172
0.11419
0.232324
0.117714
0.227745
0.122999
0.183923
0.129013
0.101007
0.134734
-0.00430592
0.139518
-0.103561
0.141854
-0.174819
0.140844
-0.214787
0.138292
-0.230228
0.134459
-0.225804
0.126111
-0.216489
0.114206
-0.217574
0.105561
-0.208909
0.105265
-0.157345
0.112535
-0.059122
0.123224
0.0519237
0.131653
0.146689
0.133032
0.223216
0.127233
0.28493
0.120158
0.316289
0.117916
0.270109
0.122843
0.159539
0.131147
0.0154643
0.138869
-0.0913004
0.144448
-0.15703
0.147309
-0.184606
0.148684
-0.15654
0.145488
-0.161469
-0.089338
0.0675955
0.0158798
0.0713846
0.0163334
0.0753942
0.0157734
0.0795129
0.0142291
0.0836061
0.011602
0.0875974
0.00752607
0.0913049
0.0018137
0.0948648
-0.00638069
0.0978361
-0.0161018
0.100206
-0.0279391
0.101833
-0.0415624
0.102592
-0.0563769
0.102367
-0.0714194
0.101064
-0.0854303
0.098624
-0.0970703
0.0950256
-0.105266
0.0902233
-0.109499
0.0839551
-0.109971
0.0755639
-0.107675
0.0644064
-0.104423
0.0511008
-0.10188
0.038542
-0.0994978
0.0311461
-0.0930182
0.0322613
-0.0761619
0.0418789
-0.0451688
0.0571178
-0.00219107
0.0741814
0.0458847
0.0897728
0.0924951
0.101703
0.134484
0.109477
0.172448
0.11458
0.206069
0.119349
0.227554
0.12492
0.222175
0.130742
0.1781
0.136025
0.0957248
0.140246
-0.00852701
0.143123
-0.106438
0.14385
-0.175545
0.141518
-0.212455
0.137744
-0.226455
0.133702
-0.221762
0.126153
-0.208941
0.114579
-0.205999
0.105458
-0.199789
0.104803
-0.15669
0.112201
-0.0665193
0.123115
0.041009
0.131508
0.138297
0.132784
0.221939
0.127195
0.290519
0.120734
0.322751
0.119158
0.271685
0.124592
0.154105
0.133129
0.00692662
0.140876
-0.0990475
0.1462
-0.162354
0.148653
-0.187059
0.150381
-0.158268
0.147876
-0.158964
-0.086815
0.0907311
0.0127798
0.0941309
0.0129336
0.0978255
0.0120787
0.101661
0.0103935
0.105483
0.00778026
0.109134
0.00387482
0.112841
-0.00189272
0.115872
-0.00941227
0.11835
-0.0185793
0.120074
-0.0296636
0.12087
-0.0423584
0.120591
-0.0560977
0.119139
-0.069967
0.11649
-0.0827815
0.112713
-0.0932936
0.107959
-0.100511
0.102409
-0.103949
0.0961354
-0.103698
0.0888129
-0.100353
0.0795488
-0.0951587
0.0676127
-0.0899441
0.0540255
-0.0859106
0.0423829
-0.0813757
0.0373046
-0.0710836
0.0413079
-0.0491722
0.0531138
-0.013997
0.0689539
0.0300447
0.0849137
0.0765353
0.0983432
0.121054
0.108555
0.162237
0.116704
0.19792
0.124374
0.219885
0.131791
0.214757
0.137987
0.171904
0.14249
0.0912218
0.1453
-0.0113373
0.146319
-0.107457
0.14541
-0.174636
0.141923
-0.208967
0.137049
-0.221581
0.132693
-0.217405
0.12605
-0.202298
0.115111
-0.19506
0.105579
-0.190257
0.104426
-0.155537
0.111866
-0.0739594
0.122917
0.0299583
0.131285
0.129929
0.132603
0.22062
0.127378
0.295745
0.121557
0.328572
0.120619
0.272623
0.126494
0.14823
0.135135
-0.00171454
0.142891
-0.106804
0.147962
-0.167425
0.150006
-0.189103
0.151889
-0.160151
0.150074
-0.157149
-0.0845705
0.116053
0.0108045
0.118483
0.0105032
0.121272
0.0092901
0.124234
0.00743165
0.127287
0.00472717
0.130193
0.000968592
0.133068
-0.00476751
0.135287
-0.0116311
0.136893
-0.0201859
0.137633
-0.0304038
0.13731
-0.0420354
0.135769
-0.054556
0.132935
-0.0671336
0.128857
-0.0787029
0.123719
-0.0881563
0.117826
-0.0946181
0.111519
-0.0976422
0.105066
-0.0972455
0.09848
-0.0937662
0.0911851
-0.0878638
0.082004
-0.080763
0.0702473
-0.0741538
0.0574829
-0.0686113
0.0478501
-0.0614507
0.0456834
-0.0470055
0.0523375
-0.0206511
0.0653168
0.0170653
0.0806445
0.0612076
0.0951235
0.106575
0.107575
0.149785
0.118576
0.186919
0.128875
0.209586
0.137869
0.205762
0.144343
0.16543
0.148194
0.0873714
0.149748
-0.0128919
0.149005
-0.106713
0.146458
-0.17209
0.141961
-0.20447
0.136169
-0.215789
0.131397
-0.212634
0.125667
-0.196568
0.115677
-0.18507
0.105849
-0.180429
0.103997
-0.153685
0.11131
-0.0812724
0.122477
0.0187919
0.13092
0.121485
0.132464
0.219076
0.127754
0.300455
0.122599
0.333727
0.12228
0.272942
0.12851
0.142
0.137201
-0.0104051
0.144883
-0.114486
0.149693
-0.172236
0.151374
-0.190784
0.15324
-0.162017
0.152054
-0.155964
-0.0827756
0.142432
0.0102942
0.143514
0.00942146
0.144919
0.00788567
0.146485
0.00586554
0.148159
0.00305256
0.150016
-0.000888469
0.151413
-0.00616383
0.152355
-0.0125732
0.152641
-0.0204716
0.152024
-0.0297868
0.150293
-0.0403051
0.147303
-0.0515659
0.143016
-0.0628461
0.137543
-0.0732297
0.131163
-0.0817771
0.124289
-0.0877443
0.117369
-0.0907218
0.110762
-0.0906387
0.104642
-0.0876457
0.0988064
-0.0820284
0.0923769
-0.0743335
0.0839806
-0.0657575
0.0731785
-0.0578093
0.0621395
-0.0504117
0.0552358
-0.0401018
0.0560847
-0.0215
0.0646892
0.00846081
0.0780278
0.047869
0.0926512
0.0919517
0.106731
0.135705
0.120089
0.173562
0.132587
0.197088
0.14284
0.195509
0.149484
0.158786
0.152837
0.0840186
0.153368
-0.0134223
0.151031
-0.104376
0.146889
-0.167948
0.1415
-0.199081
0.135017
-0.209306
0.129772
-0.207389
0.124873
-0.191669
0.116125
-0.176322
0.106211
-0.170516
0.103431
-0.150904
0.110378
-0.0882195
0.121653
0.00751699
0.130342
0.112796
0.132334
0.217084
0.128291
0.304498
0.123821
0.338196
0.124105
0.272659
0.130653
0.135452
0.139302
-0.0190547
0.146825
-0.122009
0.151357
-0.176768
0.15275
-0.192177
0.154468
-0.163734
0.153811
-0.155307
-0.0815535
0.165774
0.0109688
0.165593
0.00960243
0.165551
0.00792828
0.165654
0.00576192
0.165922
0.00278532
0.16613
-0.00109724
0.165962
-0.00599499
0.165378
-0.0119899
0.164132
-0.0192253
0.161996
-0.0276509
0.158776
-0.0370851
0.154356
-0.0471457
0.148741
-0.057231
0.142101
-0.0665896
0.134778
-0.0744543
0.127236
-0.0802024
0.119958
-0.083444
0.113333
-0.0840139
0.107589
-0.0819009
0.102731
-0.0771706
0.0983408
-0.0699435
0.0932863
-0.0607031
0.0861723
-0.0506953
0.0769706
-0.04121
0.0683538
-0.031485
0.0645565
-0.0177027
0.0680832
0.00493409
0.0780569
0.0378953
0.0915756
0.078433
0.106308
0.120973
0.121258
0.158611
0.13541
0.182936
0.146629
0.18429
0.153414
0.152001
0.156389
0.0810438
0.15608
-0.0131135
0.152308
-0.100605
0.146633
-0.162273
0.140436
-0.192883
0.133515
-0.202386
0.127806
-0.201679
0.123576
-0.18744
0.116296
-0.169042
0.106615
-0.160835
0.102744
-0.147032
0.108977
-0.0944532
0.120342
-0.00384775
0.12948
0.103658
0.132152
0.214412
0.128926
0.307724
0.125175
0.341947
0.126071
0.271763
0.132895
0.128628
0.141427
-0.0275866
0.148697
-0.129278
0.152923
-0.180994
0.154112
-0.193365
0.155601
-0.165224
0.155356
-0.155062
-0.0809775
0.180826
0.0119997
0.179905
0.0105231
0.178913
0.00892031
0.178004
0.00667145
0.17713
0.0036591
0.175939
9.41074e-05
0.174576
-0.00463288
0.172674
-0.0100871
0.170095
-0.0166466
0.166648
-0.0242042
0.162192
-0.0326284
0.156655
-0.0416091
0.150092
-0.0506685
0.14272
-0.0592167
0.134906
-0.0666405
0.127109
-0.072406
0.119782
-0.0761163
0.113288
-0.0775197
0.107871
-0.0764839
0.103621
-0.0729212
0.100403
-0.0667256
0.0976691
-0.0579689
0.0942363
-0.0472625
0.0888146
-0.0357884
0.0818092
-0.0244795
0.0762367
-0.0121302
0.0755227
0.00564814
0.0813735
0.0320444
0.0924341
0.0673725
0.106563
0.106843
0.122151
0.143024
0.137239
0.167848
0.148979
0.17255
0.156017
0.144964
0.159012
0.0780489
0.158074
-0.0121754
0.153037
-0.0955677
0.145952
-0.155189
0.139009
-0.18594
0.131862
-0.195239
0.125724
-0.195541
0.121887
-0.183603
0.116135
-0.16329
0.107049
-0.151749
0.102046
-0.142029
0.107112
-0.0995193
0.118493
-0.0152284
0.128255
0.0938964
0.131876
0.210791
0.129635
0.309965
0.126619
0.344963
0.128133
0.270249
0.135228
0.121533
0.143565
-0.0359238
0.15049
-0.136203
0.15438
-0.184884
0.155438
-0.194424
0.156665
-0.166451
0.156717
-0.155114
-0.081074
0.184663
0.0126567
0.183556
0.01163
0.182432
0.010044
0.181185
0.00791838
0.179736
0.00510819
0.178241
0.00158898
0.176153
-0.00254418
0.173551
-0.00748517
0.170235
-0.0133308
0.166089
-0.0200579
0.161026
-0.0275656
0.15504
-0.0356232
0.148245
-0.0438736
0.14089
-0.0518616
0.133334
-0.0590845
0.125981
-0.0650529
0.119201
-0.0693365
0.113272
-0.0715904
0.108355
-0.0715669
0.104529
-0.0690953
0.101827
-0.0640235
0.100117
-0.0562596
0.0987938
-0.0459389
0.0966469
-0.0336415
0.0927566
-0.0205892
0.0880077
-0.00738129
0.0856564
0.00799943
0.0881439
0.0295568
0.0960087
0.0595077
0.108106
0.0947462
0.122881
0.128249
0.137908
0.152821
0.1501
0.160357
0.157958
0.137106
0.161237
0.0747696
0.159463
-0.0104011
0.153184
-0.0892889
0.145031
-0.147036
0.137531
-0.17844
0.130323
-0.188031
0.123817
-0.189034
0.120041
-0.179826
0.115672
-0.158921
0.107483
-0.143561
0.101481
-0.136027
0.10512
-0.103159
0.116104
-0.0262119
0.126595
0.0834057
0.131417
0.205969
0.130307
0.311075
0.128074
0.347195
0.130283
0.26804
0.137644
0.114172
0.145702
-0.0439814
0.152199
-0.1427
0.155725
-0.18841
0.156701
-0.1954
0.157672
-0.167422
0.157928
-0.15537
-0.0818249
0.200762
0.0131825
-0.201288
0.200845
0.0115465
0.200957
0.00993213
0.201177
0.00769843
0.201437
0.00484861
0.20154
0.00148555
0.201619
-0.00262363
0.201473
-0.00733835
0.200942
-0.0128
0.199867
-0.0189831
0.198075
-0.0257732
0.195422
-0.0329703
0.19183
-0.0402823
0.187306
-0.0473369
0.181937
-0.0537162
0.175881
-0.0589967
0.169332
-0.062787
0.162495
-0.0647541
0.155564
-0.0646356
0.148707
-0.0622384
0.142068
-0.0573848
0.135757
-0.0499482
0.129719
-0.0399005
0.123414
-0.0273366
0.115915
-0.0130903
0.106962
0.00157202
0.0978747
0.0170863
0.0910891
0.0363424
0.0886823
0.0619144
0.0918552
0.0915734
0.100637
0.119467
0.113697
0.139761
0.12997
0.144084
0.148661
0.118415
0.165943
0.0574883
0.177135
-0.0215934
0.180444
-0.0925976
0.177003
-0.143595
0.169916
-0.171353
0.160889
-0.179004
0.150969
-0.179115
0.14265
-0.171507
0.134809
-0.15108
0.124128
-0.13288
0.113458
-0.125356
0.109083
-0.0987839
0.110863
-0.0279925
0.112564
0.0817051
0.111133
0.2074
0.108366
0.313842
0.110336
0.345225
0.119936
0.258439
0.133234
0.100874
0.143687
-0.0544345
0.149472
-0.148485
0.150769
-0.189707
0.149165
-0.193796
0.147446
-0.165703
0.1455
-0.153424
-0.0811361
0.212792
0.0130492
-0.212659
0.213043
0.0112952
0.21352
0.00945518
0.213965
0.00725361
0.214251
0.0045629
0.214413
0.00132318
0.21432
-0.00253072
0.213916
-0.00693355
0.213053
-0.0119373
0.211601
-0.017531
0.209438
-0.0236104
0.206469
-0.0300019
0.20265
-0.0364627
0.197996
-0.042683
0.19259
-0.0483104
0.186571
-0.0529778
0.180119
-0.0563349
0.173434
-0.0580691
0.166712
-0.0579135
0.160135
-0.0556608
0.153857
-0.0511075
0.147996
-0.0440874
0.14263
-0.034534
0.137579
-0.0222852
0.132082
-0.00759336
0.125323
0.00833047
0.117756
0.024653
0.11123
0.0428688
0.108305
0.0648398
0.110933
0.0889447
0.11942
0.11098
0.132671
0.126509
0.149747
0.127009
0.168659
0.0995026
0.184917
0.0412302
0.194262
-0.0309378
0.195626
-0.0939616
0.190318
-0.138287
0.181662
-0.162698
0.171735
-0.169076
0.161156
-0.168536
0.152149
-0.1625
0.144341
-0.143272
0.133993
-0.122532
0.122618
-0.113981
0.116805
-0.0929705
0.117569
-0.0287567
0.119203
0.0800706
0.118052
0.208551
0.116148
0.315745
0.119822
0.341551
0.131263