/*--------------------------------*- C++ -*----------------------------------*\
| =========                 |                                                 |
| \\      /  F ield         | OpenFOAM: The Open Source CFD Toolbox           |
|  \\    /   O peration     | Version:  2512                                  |
|   \\  /    A nd           | Website:  www.openfoam.com                      |
|    \\/     M anipulation  |                                                 |
\*---------------------------------------------------------------------------*/
FoamFile
{
    version     2.0;
    format      ascii;
    arch        "LSB;label=32;scalar=64";
    class       volVectorField;
    location    "114.75";
    object      U;
}
// * * * * * * * * * * * * * * * * * * * * * * * * * * * * * * * * * * * * * //

dimensions      [0 1 -1 0 0 0 0];

internalField   nonuniform List<vector> 
13248
(
(-0.0113647 0.0113594 8.54856e-20)
(-0.0164241 0.0211725 0)
(-0.00524339 0.0232536 -1.62344e-19)
(0.0202552 0.019902 1.52927e-19)
(0.0589567 0.0131327 1.43899e-19)
(0.11014 0.00459826 0)
(0.173108 -0.00445691 0)
(0.246924 -0.0131113 3.50456e-19)
(0.330186 -0.0206862 -2.32318e-21)
(0.420896 -0.0267009 -3.04898e-19)
(0.516452 -0.0308526 2.78408e-19)
(0.613783 -0.0330079 -1.73894e-19)
(0.709589 -0.0331919 0)
(0.800643 -0.031569 -2.79613e-19)
(0.884087 -0.0284112 5.13854e-19)
(0.95768 -0.0240577 -1.22011e-19)
(1.01996 -0.0188701 -1.99116e-19)
(1.07028 -0.0132012 1.86933e-19)
(1.10882 -0.00732459 0)
(1.13638 -0.00158012 0)
(1.15444 0.00420333 0)
(1.16411 0.00881298 0)
(1.16871 0.0148477 4.57242e-20)
(1.16585 0.0149455 1.51052e-19)
(-0.00978571 0.00889555 -2.58118e-19)
(-0.00910522 0.0149763 1.76099e-19)
(0.010988 0.0150411 -1.15054e-21)
(0.0483919 0.0110416 -2.3324e-19)
(0.101727 0.00480669 -1.43742e-19)
(0.16982 -0.00208931 -1.3588e-19)
(0.251229 -0.0084613 -2.51023e-19)
(0.343942 -0.0134723 2.36577e-19)
(0.445201 -0.0165918 0)
(0.551503 -0.0175766 1.93838e-21)
(0.6588 -0.0164496 3.65114e-21)
(0.762869 -0.0134609 1.72361e-19)
(0.859748 -0.00902692 0)
(0.94614 -0.00365438 0)
(1.01971 0.00213917 1.83685e-19)
(1.07925 0.00789508 -3.4475e-19)
(1.12465 0.0132632 1.94599e-19)
(1.15679 0.0180249 -1.82704e-19)
(1.17729 0.0220983 -7.72179e-20)
(1.18821 0.0254849 -1.32607e-19)
(1.19179 0.0283911 -5.10119e-20)
(1.19026 0.0305401 -9.34175e-20)
(1.18541 0.0335642 1.44212e-19)
(1.17788 0.0325661 3.97453e-20)
(-0.00717589 0.00619467 0)
(0.00182976 0.00805077 0)
(0.0336916 0.00594986 8.25443e-20)
(0.0859509 0.0015743 7.6454e-20)
(0.156719 -0.00341561 -1.41474e-21)
(0.243976 -0.00756718 -1.3883e-19)
(0.344994 -0.00987592 0)
(0.456093 -0.00978603 -1.17596e-19)
(0.572669 -0.00716354 1.09152e-19)
(0.689502 -0.00225687 -3.02688e-22)
(0.801299 0.0043832 -1.84214e-19)
(0.903306 0.0120237 -1.65166e-19)
(0.991849 0.0198875 5.7907e-21)
(1.06467 0.0272809 -1.28325e-19)
(1.12101 0.033687 3.14447e-19)
(1.16152 0.0388126 0)
(1.18792 0.0425878 -1.89823e-19)
(1.20265 0.0451258 9.29164e-20)
(1.20842 0.0466718 7.71509e-20)
(1.20785 0.0474955 0)
(1.2033 0.0479809 5.9486e-20)
(1.19651 0.0480455 -2.00051e-19)
(1.18881 0.0488564 1.87792e-19)
(1.18092 0.0467781 1.12382e-19)
(-0.00324052 0.00336793 -9.05046e-20)
(0.0172019 0.000954146 -9.33382e-20)
(0.0641394 -0.00287866 8.49962e-20)
(0.134425 -0.00676633 0)
(0.225204 -0.00928768 0)
(0.332992 -0.00924846 -1.92508e-21)
(0.453103 -0.00605359 0)
(0.579665 0.000280083 -3.53465e-19)
(0.706083 0.00920554 3.27145e-19)
(0.82581 0.0197883 -4.02753e-19)
(0.933204 0.0309089 9.16711e-20)
(1.02421 0.0414821 0)
(1.09674 0.0506409 1.46347e-19)
(1.15063 0.0578461 -2.68628e-19)
(1.18735 0.062913 6.39094e-20)
(1.2095 0.0659644 1.55544e-19)
(1.22023 0.0673369 -1.08688e-20)
(1.22271 0.0674733 -1.71147e-19)
(1.21976 0.0668246 0)
(1.21365 0.065772 0)
(1.20599 0.0646509 -5.69946e-20)
(1.1978 0.0634212 5.01629e-20)
(1.18981 0.0629928 1.72581e-19)
(1.18186 0.0600815 -1.6204e-19)
(0.00240855 0.000507489 -9.44252e-20)
(0.0378796 -0.00577191 -9.43972e-20)
(0.103392 -0.0103223 2.65831e-19)
(0.194632 -0.0122981 -1.62013e-19)
(0.307111 -0.0107193 1.52496e-19)
(0.435128 -0.00491788 2.7805e-19)
(0.571446 0.00495544 -1.95771e-19)
(0.707875 0.0179917 -2.36161e-19)
(0.836358 0.0327736 6.01511e-21)
(0.950151 0.0476989 3.02035e-19)
(1.04472 0.0613091 0)
(1.11809 0.0725396 8.08507e-20)
(1.17075 0.0808395 0)
(1.20499 0.0861579 -1.27935e-19)
(1.22423 0.0888295 1.79419e-19)
(1.23226 0.0894139 1.49689e-21)
(1.23258 0.0885385 -4.5453e-20)
(1.22811 0.086778 8.29298e-20)
(1.221 0.0845872 7.11484e-20)
(1.2127 0.0822806 -6.28219e-20)
(1.20411 0.0800564 5.69799e-20)
(1.19569 0.0779113 -5.01495e-20)
(1.18769 0.076329 0)
(1.18013 0.0728923 -3.78174e-20)
(0.0101828 -0.00224081 9.44117e-20)
(0.0646159 -0.0114906 9.85266e-20)
(0.152044 -0.0152058 -8.89248e-20)
(0.266387 -0.013415 1.65506e-19)
(0.400727 -0.00594179 -1.55777e-19)
(0.546467 0.00695343 1.40876e-19)
(0.693648 0.0239987 -6.73956e-20)
(0.832365 0.0431876 1.77454e-19)
(0.954406 0.0622969 -1.1097e-19)
(1.05447 0.0793799 1.94032e-19)
(1.13056 0.0931064 -4.4556e-19)
(1.1837 0.10289 1.62587e-19)
(1.21699 0.108815 -1.39832e-19)
(1.23466 0.111437 1.31347e-19)
(1.24105 0.11154 1.10705e-19)
(1.24001 0.109931 9.51838e-20)
(1.23454 0.107302 -2.6476e-19)
(1.22676 0.104172 1.63365e-19)
(1.21802 0.100887 -7.11497e-20)
(1.2091 0.09765 1.82879e-19)
(1.20043 0.0945667 -5.9093e-20)
(1.19219 0.0916431 -1.40583e-19)
(1.18447 0.089124 1.29236e-19)
(1.17718 0.0853238 3.78053e-20)
(0.0204403 -0.0046335 0)
(0.0978786 -0.0154044 5.74925e-22)
(0.210013 -0.0162743 1.83865e-19)
(0.348323 -0.00864643 -1.72706e-19)
(0.50273 0.00634017 -1.55908e-19)
(0.661449 0.0270331 2.89584e-19)
(0.81237 0.0507804 -1.34398e-19)
(0.945278 0.0745582 1.78374e-19)
(1.05359 0.0957381 -4.40891e-21)
(1.13495 0.112585 -1.00352e-19)
(1.19071 0.124401 2.1672e-19)
(1.22475 0.131385 -3.18378e-19)
(1.24206 0.134312 0)
(1.24764 0.134207 -6.12509e-20)
(1.24573 0.132071 -1.61582e-19)
(1.23951 0.128729 5.10836e-20)
(1.23114 0.124782 2.40926e-21)
(1.22195 0.120616 -1.07237e-19)
(1.21268 0.116462 8.27257e-21)
(1.20371 0.11244 1.23271e-19)
(1.19521 0.108602 -5.36279e-20)
(1.18722 0.104968 -2.00735e-20)
(1.17972 0.10159 6.29525e-20)
(1.17263 0.0974619 0)
(0.0334164 -0.00632054 0)
(0.137702 -0.016558 4.97414e-20)
(0.276389 -0.0122411 -2.38297e-19)
(0.437894 0.0032347 8.67301e-20)
(0.608561 0.0268245 -8.16272e-20)
(0.773838 0.055116 -7.4169e-20)
(0.920865 0.0841173 -1.31231e-19)
(1.04102 0.110234 6.55544e-20)
(1.13095 0.131071 5.70954e-20)
(1.19205 0.145669 0)
(1.22881 0.154275 1.27786e-19)
(1.24709 0.157891 -1.88709e-19)
(1.25265 0.157814 1.40399e-19)
(1.25028 0.155281 6.12822e-20)
(1.24347 0.151293 -4.94092e-20)
(1.23455 0.146557 -4.0528e-20)
(1.22488 0.141528 -3.73903e-20)
(1.21522 0.136468 1.13581e-19)
(1.20591 0.13152 0)
(1.19712 0.126751 5.56248e-20)
(1.18887 0.122191 4.58457e-20)
(1.18114 0.11785 -1.14808e-19)
(1.17386 0.113683 -7.7005e-20)
(1.16696 0.109245 7.1397e-20)
(0.0491701 -0.00686778 -5.28085e-20)
(0.183582 -0.0139137 -1.55951e-21)
(0.349399 -0.00191858 4.82838e-20)
(0.531573 0.0230547 1.34278e-19)
(0.713073 0.0555326 3.88499e-20)
(0.877838 0.090265 -7.51189e-20)
(1.01423 0.122361 6.88603e-20)
(1.11698 0.148375 -6.04184e-20)
(1.18691 0.166798 1.07525e-19)
(1.22893 0.177799 4.55972e-20)
(1.24982 0.182597 -1.29084e-19)
(1.25628 0.18281 3.79297e-20)
(1.25387 0.179988 6.41281e-20)
(1.24663 0.175368 -3.16517e-20)
(1.23715 0.169817 0)
(1.22693 0.16388 4.62984e-20)
(1.21678 0.157871 7.75896e-20)
(1.20705 0.151956 1.2713e-20)
(1.19789 0.146221 -6.42013e-20)
(1.18933 0.140701 2.66302e-20)
(1.18134 0.135415 0)
(1.17386 0.130355 -2.06125e-20)
(1.1668 0.125451 -1.91514e-20)
(1.16006 0.120657 0)
(0.0675402 -0.00580116 0)
(0.234432 -0.00647559 2.75696e-20)
(0.426485 0.01561 5.0929e-20)
(0.625238 0.0511013 -1.36136e-19)
(0.811278 0.0918348 4.3743e-20)
(0.968965 0.131075 0)
(1.08986 0.163813 6.57429e-20)
(1.17321 0.187526 -9.1648e-20)
(1.22392 0.202044 -5.35007e-20)
(1.24965 0.208737 2.42394e-20)
(1.2583 0.209611 -3.81133e-20)
(1.2565 0.206627 9.29043e-20)
(1.24905 0.201361 4.61905e-20)
(1.23902 0.194909 -3.23357e-20)
(1.22819 0.187955 -3.25884e-21)
(1.21745 0.180885 -8.69014e-20)
(1.20721 0.173903 3.94612e-20)
(1.19761 0.167111 -9.23522e-22)
(1.1887 0.160555 0)
(1.18042 0.154257 -2.66577e-20)
(1.17271 0.148223 0)
(1.16549 0.142425 5.94543e-20)
(1.15867 0.136831 -7.05469e-20)
(1.15211 0.131608 3.20337e-20)
(0.0881183 -0.00265713 -1.41359e-20)
(0.288593 0.00658293 -6.89383e-20)
(0.5045 0.0408468 7.81532e-20)
(0.714644 0.0870706 4.60132e-20)
(0.898966 0.134584 -2.20691e-20)
(1.0444 0.175955 3.68646e-20)
(1.14718 0.206985 -1.79739e-20)
(1.21132 0.226691 2.98552e-20)
(1.24513 0.236408 0)
(1.25791 0.238559 6.72406e-20)
(1.2577 0.235653 -2.84832e-21)
(1.25045 0.229746 -5.40998e-20)
(1.23999 0.222281 2.30876e-20)
(1.2285 0.214149 -2.59156e-20)
(1.21709 0.205851 -9.752e-21)
(1.20624 0.197646 1.13684e-20)
(1.19613 0.189657 -8.71557e-21)
(1.18679 0.181943 -4.69159e-20)
(1.17817 0.174529 2.8743e-20)
(1.17022 0.167425 5.85163e-21)
(1.16283 0.160621 5.12577e-21)
(1.1559 0.154081 4.49037e-21)
(1.14934 0.147841 0)
(1.14299 0.142086 0)
(0.110319 0.00297907 1.41456e-20)
(0.344071 0.0258275 -1.41834e-20)
(0.580157 0.0737981 -2.59821e-20)
(0.796016 0.130111 0)
(0.973127 0.182318 -1.09105e-20)
(1.10287 0.223371 -9.7418e-21)
(1.18688 0.250726 -1.67239e-20)
(1.23345 0.265275 0)
(1.25331 0.269784 0)
(1.25632 0.267448 0)
(1.25003 0.261005 0)
(1.23941 0.252416 0)
(1.22731 0.242904 -1.44719e-20)
(1.21519 0.233153 6.58427e-21)
(1.20367 0.223505 1.14029e-20)
(1.19298 0.214121 5.31612e-21)
(1.18316 0.20507 1.31039e-20)
(1.17417 0.196381 0)
(1.16595 0.188067 -3.11061e-21)
(1.15839 0.180125 -2.9405e-21)
(1.1514 0.172529 -5.13389e-21)
(1.14485 0.165254 -4.49751e-21)
(1.13862 0.158401 0)
(1.13259 0.152016 3.1936e-21)
(-0.000424597 -0.0291073 8.92586e-21)
(-0.00441693 -0.0767304 -9.26999e-21)
(-0.0135921 -0.115442 -1.75542e-20)
(-0.0258422 -0.145821 0)
(-0.0398592 -0.169005 -2.35036e-20)
(-0.0548262 -0.18658 7.3847e-21)
(-0.0700726 -0.200226 -1.39532e-20)
(-0.0850705 -0.211417 0)
(-0.0994434 -0.221239 0)
(-0.11294 -0.230334 0)
(-0.125398 -0.238946 0)
(-0.136708 -0.246997 0)
(-0.146784 -0.254194 1.11985e-22)
(-0.155539 -0.260096 -9.40512e-21)
(-0.162874 -0.26417 1.7659e-20)
(-0.168666 -0.265828 2.51901e-20)
(-0.172775 -0.264441 7.73542e-21)
(-0.175042 -0.259365 0)
(-0.175312 -0.249967 7.25821e-21)
(-0.173452 -0.235671 -1.99896e-20)
(-0.169322 -0.216006 -1.23929e-20)
(-0.162725 -0.190618 -1.16344e-20)
(-0.153668 -0.159236 0)
(-0.143294 -0.122005 0)
(0.000480295 -0.0240646 -2.67813e-20)
(-0.0028522 -0.0647957 4.62503e-20)
(-0.0128643 -0.0988874 -1.74027e-20)
(-0.0266564 -0.126252 -3.3155e-20)
(-0.0425 -0.14764 4.68675e-20)
(-0.0593798 -0.164372 -2.95633e-20)
(-0.0765156 -0.177904 4.17589e-20)
(-0.0933343 -0.18952 2.63129e-20)
(-0.109463 -0.200149 0)
(-0.124682 -0.210322 -2.35243e-20)
(-0.138873 -0.220208 -1.57934e-22)
(-0.151974 -0.229704 2.08374e-20)
(-0.163944 -0.238516 2.94116e-20)
(-0.174744 -0.24623 3.70293e-20)
(-0.184317 -0.252356 -1.75819e-20)
(-0.192586 -0.256349 -4.93736e-20)
(-0.19945 -0.257628 1.50259e-20)
(-0.204789 -0.25558 -5.69586e-20)
(-0.208488 -0.249582 0)
(-0.210464 -0.239027 1.3163e-20)
(-0.210588 -0.22337 1.23807e-20)
(-0.208525 -0.202105 1.16229e-20)
(-0.204311 -0.174714 0)
(-0.200488 -0.141111 0)
(0.000666584 -0.0177719 0)
(-0.0026161 -0.0502588 9.25321e-20)
(-0.0132872 -0.0791583 -3.49215e-20)
(-0.0279803 -0.103399 3.31468e-20)
(-0.0447205 -0.123127 -9.38732e-20)
(-0.062382 -0.13924 0)
(-0.0801253 -0.152874 -5.58545e-20)
(-0.0973557 -0.165066 2.62463e-20)
(-0.113706 -0.176575 -4.97026e-20)
(-0.128976 -0.187823 2.34014e-20)
(-0.143073 -0.198928 1.31922e-19)
(-0.15596 -0.20977 -6.1902e-20)
(-0.167626 -0.220072 -9.69564e-20)
(-0.178059 -0.229453 -3.58341e-20)
(-0.187237 -0.237463 3.98275e-22)
(-0.195124 -0.243606 1.26586e-19)
(-0.201661 -0.247344 -5.91848e-20)
(-0.206773 -0.248098 1.41283e-21)
(-0.210393 -0.245255 0)
(-0.212502 -0.238181 -4.46987e-20)
(-0.213009 -0.226235 0)
(-0.211434 -0.208768 -3.99704e-20)
(-0.207607 -0.185163 1.41746e-19)
(-0.205473 -0.155405 -1.66255e-21)
(5.3248e-05 -0.0108038 0)
(-0.00380278 -0.0343081 2.39485e-22)
(-0.0148504 -0.0577061 3.53286e-20)
(-0.029665 -0.0787858 -3.34787e-20)
(-0.0462366 -0.0969563 3.11506e-20)
(-0.0634286 -0.112597 1.78469e-19)
(-0.0803953 -0.126456 -5.59703e-20)
(-0.0965414 -0.139296 -5.30888e-20)
(-0.111504 -0.151697 9.96532e-20)
(-0.12509 -0.16398 -1.40334e-19)
(-0.137212 -0.176218 4.4006e-20)
(-0.147841 -0.188286 4.12376e-20)
(-0.156976 -0.199922 0)
(-0.164621 -0.210777 3.60819e-20)
(-0.170778 -0.220439 0)
(-0.175441 -0.228456 6.10382e-20)
(-0.178592 -0.234338 -1.12107e-19)
(-0.180195 -0.237556 2.94501e-20)
(-0.180212 -0.237535 9.61657e-20)
(-0.17865 -0.233641 4.46609e-20)
(-0.175474 -0.225147 0)
(-0.170124 -0.211214 -1.03623e-19)
(-0.161814 -0.191052 3.43238e-20)
(-0.154903 -0.164726 0)
(-0.00131353 -0.00379374 0)
(-0.00629028 -0.0182209 -1.1223e-19)
(-0.0173492 -0.0360452 -3.60105e-20)
(-0.0314261 -0.0539509 -6.72667e-20)
(-0.0466893 -0.0705933 6.33448e-20)
(-0.0620877 -0.0857956 -5.96597e-20)
(-0.0768186 -0.0998923 1.1323e-19)
(-0.0903045 -0.113358 5.32139e-20)
(-0.102185 -0.126592 -1.50249e-19)
(-0.112261 -0.139816 9.41153e-20)
(-0.120439 -0.15306 -1.32166e-19)
(-0.126684 -0.166195 2.88786e-19)
(-0.130996 -0.178975 -1.54427e-19)
(-0.133391 -0.191069 7.13328e-20)
(-0.133896 -0.202096 1.95899e-19)
(-0.132546 -0.211637 -6.4071e-20)
(-0.129377 -0.219247 -5.81856e-20)
(-0.124418 -0.224459 -5.24601e-20)
(-0.117684 -0.226777 0)
(-0.109213 -0.225646 -7.77085e-20)
(-0.0990598 -0.220373 -6.34903e-20)
(-0.0868888 -0.209985 9.84949e-20)
(-0.0712175 -0.193306 1.04855e-19)
(-0.0533942 -0.169858 -9.58483e-20)
(-0.00326359 0.00264657 0)
(-0.00975006 -0.00322649 -1.52348e-19)
(-0.020397 -0.0156298 -1.00202e-21)
(-0.0328465 -0.0303834 1.35671e-19)
(-0.0456318 -0.0454614 0)
(-0.057864 -0.0601552 0)
(-0.068825 -0.0743937 0)
(-0.0779689 -0.0883641 -5.35742e-20)
(-0.0849351 -0.102281 7.44968e-23)
(-0.0895091 -0.116265 9.53523e-20)
(-0.0915774 -0.130299 -1.32286e-19)
(-0.0910942 -0.14424 5.07298e-22)
(-0.0880596 -0.157844 0)
(-0.0825086 -0.170791 -7.12986e-20)
(-0.0745075 -0.182708 6.36065e-20)
(-0.0641517 -0.19319 -1.81106e-19)
(-0.0515627 -0.201819 2.14586e-19)
(-0.0368772 -0.208176 4.06737e-20)
(-0.0202269 -0.21185 -1.0296e-20)
(-0.00172962 -0.212437 -1.57295e-19)
(0.0184684 -0.209484 -6.4616e-20)
(0.0401406 -0.202372 1.91874e-19)
(0.0636085 -0.189872 -1.21555e-19)
(0.0954514 -0.167776 0)
(-0.00552415 0.00800766 7.49323e-20)
(-0.0136679 0.0096056 7.63732e-20)
(-0.0234456 0.0022098 -7.36419e-20)
(-0.0334069 -0.00947443 -1.38367e-19)
(-0.0425463 -0.0229163 1.30295e-19)
(-0.0502107 -0.0369613 -1.23452e-19)
(-0.0557971 -0.0511651 1.74782e-19)
(-0.0588016 -0.0654384 -5.34899e-20)
(-0.0588613 -0.0798113 1.02998e-19)
(-0.0557412 -0.0942916 0)
(-0.0493065 -0.108804 8.99964e-20)
(-0.0395035 -0.123176 -1.69775e-19)
(-0.0263478 -0.137148 1.5422e-19)
(-0.0099194 -0.150389 -1.4485e-19)
(0.0096386 -0.16252 0)
(0.0321214 -0.173132 1.19331e-19)
(0.057268 -0.181807 2.09143e-19)
(0.0847743 -0.188141 -1.96635e-19)
(0.114319 -0.191769 -8.3901e-20)
(0.145587 -0.192386 -6.80975e-20)
(0.178225 -0.189787 1.96914e-19)
(0.212085 -0.183769 4.57953e-20)
(0.246259 -0.173603 -4.86286e-20)
(0.293972 -0.153428 3.52346e-20)
(-0.00779296 0.011946 -7.49423e-20)
(-0.0174767 0.0194756 2.36579e-19)
(-0.0258645 0.0164186 -7.46238e-20)
(-0.0324864 0.00759892 1.40749e-19)
(-0.0368558 -0.00418472 -1.32534e-19)
(-0.0385606 -0.0174337 8.73671e-22)
(-0.0371278 -0.0313921 5.94348e-20)
(-0.0321138 -0.0457217 2.24172e-19)
(-0.0231658 -0.0602709 -4.29682e-22)
(-0.0100424 -0.074925 -9.76508e-20)
(0.00739071 -0.0895343 0)
(0.0291575 -0.103876 -8.4184e-20)
(0.0551724 -0.117656 1.58452e-19)
(0.0852367 -0.130522 1.42437e-19)
(0.119041 -0.142076 -6.77512e-20)
(0.156172 -0.1519 3.85231e-23)
(0.196128 -0.159584 -5.35713e-20)
(0.238344 -0.164744 9.47081e-20)
(0.282225 -0.167055 8.3863e-20)
(0.327215 -0.166267 -7.28694e-20)
(0.372559 -0.162315 6.15025e-20)
(0.419107 -0.154771 -5.18095e-20)
(0.460032 -0.145177 0)
(0.52575 -0.125877 -3.51615e-20)
(-0.00977258 0.0143226 7.74408e-20)
(-0.0205803 0.0259525 -7.93001e-20)
(-0.0270104 0.0263086 7.64146e-20)
(-0.0294673 0.0199477 0)
(-0.0279547 0.00973359 0)
(-0.0223095 -0.00262336 1.29454e-19)
(-0.0122031 -0.0161365 -1.19961e-19)
(0.00273174 -0.0302551 1.13593e-19)
(0.0228048 -0.0446559 -5.30445e-19)
(0.0482114 -0.0591009 5.8755e-22)
(0.0790102 -0.0733464 9.28903e-20)
(0.115102 -0.0871041 0)
(0.156208 -0.100038 -1.56611e-19)
(0.201865 -0.111769 2.90169e-19)
(0.25144 -0.121893 -2.00358e-19)
(0.30415 -0.130008 -2.9274e-19)
(0.359103 -0.135745 1.13843e-20)
(0.415348 -0.13879 1.94233e-19)
(0.471928 -0.138923 0)
(0.528077 -0.135956 0)
(0.58231 -0.130194 -6.14844e-20)
(0.637401 -0.120448 5.17942e-20)
(0.680005 -0.110777 -1.61471e-19)
(0.754036 -0.0904812 1.51549e-19)
(-0.0112317 0.0151964 0)
(-0.0224502 0.0289669 0)
(-0.0262321 0.0315853 -2.30857e-19)
(-0.0236547 0.0270828 7.31618e-20)
(-0.0151283 0.0182074 -1.82177e-22)
(-0.000716175 0.00675584 1.31006e-19)
(0.0197496 -0.00612953 0)
(0.0465164 -0.0197323 -1.14942e-19)
(0.0797769 -0.0335792 1.06654e-19)
(0.119581 -0.047306 -2.00323e-19)
(0.165768 -0.0605707 1.1016e-21)
(0.217933 -0.0730229 1.71184e-19)
(0.275397 -0.0842912 -3.63542e-21)
(0.33722 -0.0939951 1.38922e-19)
(0.402235 -0.101766 -2.03081e-19)
(0.469113 -0.107277 0)
(0.536445 -0.110266 2.06452e-19)
(0.602842 -0.110562 -2.87986e-19)
(0.666994 -0.108117 8.19873e-20)
(0.727971 -0.102864 0)
(0.784031 -0.095446 6.13141e-20)
(0.838296 -0.0844065 1.97965e-19)
(0.877444 -0.0747092 -1.85792e-19)
(0.942846 -0.0550308 -1.77829e-19)
(-0.0120287 0.0147879 2.42108e-19)
(-0.0226499 0.0287993 -3.3369e-19)
(-0.0228775 0.0324105 8.49693e-23)
(-0.0142284 0.0290177 7.46071e-20)
(0.00258497 0.021141 -1.40205e-19)
(0.0273018 0.0105715 -1.30233e-19)
(0.0599053 -0.00146446 2.46033e-19)
(0.100443 -0.0141329 -1.72723e-21)
(0.14886 -0.0268362 -2.1678e-19)
(0.204866 -0.0391014 4.02207e-19)
(0.267849 -0.0505134 -2.76828e-21)
(0.336823 -0.0606875 -1.74678e-19)
(0.410435 -0.069267 0)
(0.487018 -0.0759375 0)
(0.564694 -0.080448 -6.59606e-20)
(0.641506 -0.0826322 -1.17612e-19)
(0.715563 -0.0824218 -2.04906e-19)
(0.785175 -0.0798566 1.92347e-19)
(0.848969 -0.075073 -8.20157e-20)
(0.90599 -0.0682575 1.36675e-19)
(0.955371 -0.0599377 -7.2002e-20)
(0.99857 -0.0494316 9.09454e-20)
(1.02892 -0.0402887 -2.34337e-19)
(1.07151 -0.0238841 3.72474e-20)
(-0.0120902 0.0134043 8.19366e-20)
(-0.0207888 0.0259855 0)
(-0.0162091 0.029359 1.59795e-19)
(-0.000114481 0.0263152 -1.50531e-19)
(0.0265732 0.0191087 1.40325e-19)
(0.0634 0.00946804 0)
(0.110098 -0.00135451 0)
(0.166365 -0.0124541 -1.16063e-19)
(0.231663 -0.0231539 1.76782e-21)
(0.305059 -0.0329248 1.02328e-19)
(0.385138 -0.0413421 -9.20768e-20)
(0.47 -0.0480717 1.74586e-19)
(0.557348 -0.0528734 0)
(0.644646 -0.05561 2.83251e-19)
(0.729318 -0.0562536 -5.21117e-19)
(0.808968 -0.0548841 3.57244e-19)
(0.881567 -0.0516743 2.02556e-19)
(0.945589 -0.0468819 -1.90151e-19)
(1.00012 -0.0407744 0)
(1.04478 -0.0337571 0)
(1.07998 -0.025946 0)
(1.10625 -0.0178088 0)
(1.12415 -0.00993502 4.54094e-20)
(1.14251 0.00167551 -1.53787e-19)
(-0.131695 -0.0734812 -7.73385e-21)
(-0.110184 -0.00620345 7.75761e-21)
(-0.085441 0.0710301 -2.14756e-22)
(-0.0570228 0.154956 0)
(-0.0259196 0.242048 -6.37769e-21)
(0.00683568 0.328043 1.19729e-20)
(0.0398399 0.408228 -4.82644e-22)
(0.070538 0.479972 -4.98628e-21)
(0.0966257 0.537443 0)
(0.117315 0.580869 0)
(0.13306 0.609431 -1.88346e-22)
(0.147822 0.620103 -1.73865e-22)
(0.16911 0.605899 -2.88008e-21)
(0.205248 0.557133 2.63487e-21)
(0.260399 0.467004 0)
(0.331447 0.33668 0)
(0.410694 0.174801 3.14296e-21)
(0.490553 -0.006126 -2.91096e-23)
(0.566609 -0.188358 -2.75225e-21)
(0.633775 -0.346507 -1.61655e-22)
(0.686294 -0.458934 0)
(0.721185 -0.519649 0)
(0.738462 -0.538875 0)
(0.742118 -0.531486 0)
(0.737081 -0.512655 0)
(0.720754 -0.5008 0)
(0.686749 -0.506855 3.33845e-22)
(0.640045 -0.510455 -5.23167e-22)
(0.602691 -0.463847 0)
(0.596779 -0.331795 0)
(0.625229 -0.131284 -6.39789e-22)
(0.674551 0.081995 6.21793e-22)
(0.727969 0.256578 2.50528e-22)
(0.772453 0.36689 0)
(0.80567 0.418713 0)
(0.825472 0.432418 2.58963e-22)
(0.82428 0.448191 -2.51728e-22)
(0.795139 0.469588 0)
(0.749928 0.469379 2.76645e-22)
(0.716772 0.388335 -4.23026e-22)
(0.712242 0.22438 1.72856e-22)
(0.734981 0.020982 0)
(0.773447 -0.163042 -2.6093e-22)
(0.811189 -0.275051 2.5372e-22)
(0.839855 -0.347819 0)
(0.830991 -0.371864 0)
(0.794132 -0.405736 -6.70357e-23)
(0.749453 -0.359971 1.91632e-22)
(0.733008 -0.257249 0)
(0.752156 -0.0926023 0)
(0.794298 0.0881525 -5.80777e-23)
(0.815755 0.18694 4.39239e-24)
(0.814243 0.333441 -5.70133e-24)
(0.785427 0.33049 3.74561e-23)
(0.776979 0.34582 0)
(0.785931 0.216983 0)
(0.805044 0.0224243 0)
(0.798794 -0.0594888 0)
(0.805762 -0.334699 0)
(0.785052 -0.245555 0)
(-0.20061 -0.0966619 -6.28095e-22)
(-0.185463 -0.034418 -2.62578e-20)
(-0.16679 0.0379044 8.36143e-22)
(-0.143482 0.118357 2.38961e-20)
(-0.115874 0.203281 3.12477e-22)
(-0.0847125 0.288788 0)
(-0.049786 0.370629 -1.74218e-20)
(-0.0154988 0.445885 3.29339e-20)
(0.017009 0.508055 -1.55149e-20)
(0.0507382 0.555983 1.24858e-20)
(0.0856959 0.586398 -1.19472e-20)
(0.125729 0.59419 1.10167e-20)
(0.176245 0.572173 -1.06958e-20)
(0.241356 0.513242 -3.643e-22)
(0.320437 0.414825 -1.28935e-20)
(0.407525 0.281016 1.25288e-20)
(0.495062 0.119821 -1.37686e-20)
(0.577928 -0.058418 1.2946e-20)
(0.652837 -0.235559 -1.19734e-20)
(0.713968 -0.385966 2.14582e-20)
(0.7558 -0.487553 -9.56556e-21)
(0.777464 -0.536006 -4.24963e-22)
(0.781587 -0.544412 -4.63631e-21)
(0.773081 -0.529677 8.24985e-21)
(0.758134 -0.505122 -3.63876e-21)
(0.736006 -0.485612 1.83178e-22)
(0.698936 -0.483553 3.19788e-21)
(0.64693 -0.485862 5.27751e-22)
(0.598873 -0.449685 -7.29952e-21)
(0.57972 -0.335347 8.26712e-21)
(0.59798 -0.150377 -4.29431e-21)
(0.642705 0.0549709 5.10185e-22)
(0.696641 0.230351 -2.51051e-22)
(0.746328 0.346187 3.64314e-22)
(0.787478 0.405069 0)
(0.814983 0.427395 0)
(0.818535 0.453388 -9.80506e-22)
(0.793867 0.482913 7.07558e-22)
(0.754499 0.483773 9.2473e-22)
(0.729324 0.396593 3.73219e-22)
(0.730937 0.223168 -1.52346e-21)
(0.756317 0.0122946 3.62984e-22)
(0.792989 -0.175039 0)
(0.825276 -0.285297 0)
(0.850604 -0.350855 0)
(0.838748 -0.365299 0)
(0.801487 -0.394029 2.48207e-22)
(0.752985 -0.35127 -1.2655e-22)
(0.734622 -0.25772 0)
(0.751209 -0.100793 0)
(0.79134 0.079502 0)
(0.812304 0.184216 -8.61644e-23)
(0.808702 0.336703 1.20754e-23)
(0.782361 0.334467 -7.97965e-23)
(0.773035 0.345717 0)
(0.786236 0.214264 0)
(0.809031 0.0205206 6.93129e-23)
(0.803966 -0.0592423 2.10089e-22)
(0.812616 -0.333095 0)
(0.789225 -0.244362 0)
(-0.213241 -0.115843 -9.4971e-22)
(-0.207042 -0.059912 -4.45307e-20)
(-0.195668 0.00649616 4.08996e-20)
(-0.178796 0.0813855 -3.83431e-20)
(-0.156521 0.162221 -3.14672e-22)
(-0.128384 0.245455 0)
(-0.0935772 0.32705 -2.91377e-20)
(-0.0558723 0.401734 2.84495e-20)
(-0.0157968 0.465378 2.10419e-22)
(0.0309108 0.51466 3.23836e-22)
(0.0842125 0.544409 3.14794e-22)
(0.146363 0.548627 3.39718e-22)
(0.219893 0.520926 -2.33124e-20)
(0.305299 0.456758 2.30196e-20)
(0.39911 0.356457 0)
(0.494533 0.225295 8.80516e-22)
(0.585278 0.0697547 -2.91617e-20)
(0.668288 -0.101784 2.87683e-20)
(0.740366 -0.271754 0)
(0.794481 -0.413136 0)
(0.825011 -0.504256 -1.68147e-20)
(0.833249 -0.542528 2.90387e-20)
(0.824761 -0.542748 -2.14985e-20)
(0.805307 -0.523062 1.98764e-21)
(0.781279 -0.495167 1.32722e-20)
(0.753804 -0.469792 -1.18449e-20)
(0.714983 -0.459698 1.06386e-20)
(0.659948 -0.459386 2.47221e-22)
(0.60304 -0.432837 -5.74842e-21)
(0.570781 -0.337242 0)
(0.577497 -0.169844 0)
(0.61594 0.0258692 2.68392e-21)
(0.669167 0.200751 -3.53237e-21)
(0.7232 0.321492 -4.20027e-23)
(0.771537 0.38783 2.1734e-21)
(0.806175 0.419667 -2.11215e-21)
(0.814558 0.456415 0)
(0.795033 0.494197 2.46572e-22)
(0.762103 0.496574 2.8602e-21)
(0.744745 0.404391 -6.22813e-21)
(0.75239 0.223178 2.92089e-21)
(0.780335 0.00647849 4.27405e-22)
(0.815142 -0.184045 -3.11515e-21)
(0.841577 -0.293226 2.35544e-21)
(0.863112 -0.352717 3.97142e-22)
(0.848293 -0.358245 2.96862e-22)
(0.810973 -0.382028 -2.48826e-22)
(0.759039 -0.342597 0)
(0.738841 -0.258414 0)
(0.752537 -0.109424 -7.9049e-22)
(0.79028 0.0706548 3.94408e-22)
(0.810612 0.181216 -3.37099e-22)
(0.804815 0.339717 4.97051e-22)
(0.780676 0.33839 6.58441e-22)
(0.770275 0.345379 -1.54105e-22)
(0.787805 0.211181 3.3405e-22)
(0.814386 0.0182632 -3.15709e-22)
(0.810438 -0.0590224 1.75741e-22)
(0.820475 -0.331252 0)
(0.794242 -0.243037 0)
(-0.164682 -0.129275 -7.52418e-20)
(-0.167766 -0.0804546 4.07265e-21)
(-0.163835 -0.0206469 6.71962e-20)
(-0.154048 0.0469176 -5.38807e-22)
(-0.137315 0.121887 0)
(-0.113425 0.201306 0)
(-0.080837 0.278498 -4.5097e-20)
(-0.0421586 0.348936 1.25987e-21)
(0.00348443 0.411144 6.07772e-20)
(0.0600145 0.459457 -1.68661e-22)
(0.126349 0.487464 -1.91536e-20)
(0.203294 0.489036 -2.06141e-20)
(0.290963 0.458815 2.06135e-20)
(0.387393 0.394228 0)
(0.487671 0.297352 -2.80943e-20)
(0.585211 0.173413 2.55103e-20)
(0.675613 0.0266927 0)
(0.757428 -0.136617 0)
(0.826408 -0.29844 2.55237e-20)
(0.873438 -0.43037 -3.58804e-21)
(0.892762 -0.511479 -2.00271e-20)
(0.887885 -0.541178 -1.30867e-20)
(0.867436 -0.535267 1.29533e-20)
(0.838282 -0.512311 -7.64431e-21)
(0.806156 -0.48306 1.40251e-21)
(0.773486 -0.454093 5.8106e-21)
(0.73375 -0.436421 6.03854e-22)
(0.67827 -0.431381 4.84012e-23)
(0.615263 -0.412208 0)
(0.570542 -0.335729 6.25279e-21)
(0.564404 -0.188419 -6.43881e-21)
(0.594769 -0.00391648 4.41745e-22)
(0.645903 0.168391 0)
(0.70321 0.293183 -3.26416e-22)
(0.757762 0.367176 4.01464e-21)
(0.798882 0.409054 -7.27641e-21)
(0.812181 0.45674 -7.16674e-22)
(0.798305 0.502838 -6.47477e-22)
(0.772141 0.507495 3.77477e-21)
(0.76237 0.411906 7.19518e-22)
(0.775999 0.22468 -6.79725e-21)
(0.806351 0.00301615 5.80887e-21)
(0.839387 -0.190127 -3.96111e-23)
(0.859905 -0.29894 1.94075e-21)
(0.877222 -0.353603 -2.28517e-21)
(0.859374 -0.350963 -1.96375e-21)
(0.822221 -0.369812 5.90294e-22)
(0.76726 -0.333773 7.96779e-22)
(0.745296 -0.259089 -1.52547e-21)
(0.755872 -0.118345 1.11613e-21)
(0.790973 0.0616279 -3.52016e-22)
(0.810634 0.177891 3.39607e-22)
(0.802609 0.342483 3.0036e-22)
(0.780479 0.342323 -9.98152e-22)
(0.76885 0.344848 -7.36186e-24)
(0.790705 0.207768 -3.9351e-22)
(0.821083 0.0156627 0)
(0.818193 -0.0588107 -1.6783e-22)
(0.829308 -0.329148 3.25188e-22)
(0.800064 -0.241562 0)
(-0.0612102 -0.136659 6.17739e-20)
(-0.0730888 -0.0947571 -1.15462e-19)
(-0.0759211 -0.0422975 5.32721e-20)
(-0.0724402 0.0177899 4.36588e-20)
(-0.0599023 0.0853405 -8.19823e-20)
(-0.0417353 0.155752 2.58687e-21)
(-0.0153109 0.22561 3.51377e-20)
(0.0225124 0.291192 3.21927e-20)
(0.0709189 0.350345 -3.15674e-20)
(0.131331 0.395911 0)
(0.203417 0.421783 -3.6067e-20)
(0.286731 0.422129 7.5353e-20)
(0.379734 0.392441 -3.92125e-20)
(0.479085 0.331271 0)
(0.579338 0.241395 0)
(0.674713 0.127205 9.06508e-22)
(0.762874 -0.00934023 -6.05539e-20)
(0.843257 -0.163296 5.88152e-20)
(0.909153 -0.315662 0)
(0.948773 -0.437171 4.42355e-20)
(0.95694 -0.508565 -7.52091e-20)
(0.939697 -0.531561 5.82264e-20)
(0.908385 -0.522098 -4.46916e-20)
(0.871071 -0.49781 4.03326e-21)
(0.83234 -0.468826 2.60925e-20)
(0.79489 -0.43868 -1.14835e-20)
(0.754523 -0.415084 -2.87936e-22)
(0.70066 -0.403911 -3.9041e-21)
(0.634835 -0.388813 -4.578e-22)
(0.579293 -0.330077 4.3888e-21)
(0.559621 -0.204556 3.67353e-22)
(0.579893 -0.0342196 -5.18477e-21)
(0.627016 0.133686 9.63996e-21)
(0.686426 0.26154 -4.94921e-21)
(0.745974 0.343096 0)
(0.792825 0.395182 -4.07915e-21)
(0.811101 0.453781 3.98308e-21)
(0.803237 0.508392 -4.08217e-21)
(0.78401 0.5164 5.06804e-21)
(0.781506 0.419323 -7.78919e-22)
(0.800792 0.227606 0)
(0.833706 0.00200781 -9.06988e-22)
(0.865438 -0.193196 2.28625e-21)
(0.87998 -0.302263 0)
(0.892715 -0.353412 3.71465e-21)
(0.871799 -0.343509 -1.61751e-21)
(0.834931 -0.357471 4.56879e-22)
(0.777282 -0.324786 3.48373e-22)
(0.753572 -0.259621 0)
(0.7609 -0.127439 0)
(0.793222 0.0524088 -8.92135e-22)
(0.812278 0.174164 1.41174e-21)
(0.802089 0.344977 -8.56109e-22)
(0.781872 0.346305 2.79544e-22)
(0.76891 0.344185 6.89324e-22)
(0.794984 0.204007 3.93886e-22)
(0.829084 0.0127569 -7.65181e-22)
(0.82721 -0.0585911 0)
(0.839066 -0.32673 -4.93571e-22)
(0.806643 -0.239909 -6.4674e-23)
(0.0899967 -0.138885 5.24723e-20)
(0.0689926 -0.10323 -5.19831e-20)
(0.0580667 -0.0595362 3.64738e-22)
(0.0541454 -0.00736887 -2.48009e-22)
(0.0590538 0.0506615 2.80515e-22)
(0.0715437 0.111203 -2.51322e-22)
(0.0938006 0.174296 3.39107e-22)
(0.127764 0.234812 0)
(0.173773 0.288743 -3.45088e-22)
(0.23253 0.330395 3.80821e-22)
(0.303726 0.354067 4.3878e-22)
(0.386167 0.35439 -5.67535e-22)
(0.477484 0.327393 0)
(0.573822 0.271997 0)
(0.669823 0.1908 7.95706e-22)
(0.760956 0.0870287 0)
(0.84666 -0.0391836 -9.02534e-22)
(0.925581 -0.182927 0)
(0.987521 -0.324281 -4.92843e-20)
(1.01884 -0.434439 9.05136e-20)
(1.01595 -0.49675 -7.3741e-20)
(0.98759 -0.514952 3.26267e-20)
(0.946967 -0.504313 1.92226e-20)
(0.903025 -0.480444 -1.86685e-20)
(0.859247 -0.452792 -1.15182e-20)
(0.817589 -0.42334 1.11164e-20)
(0.776429 -0.396066 0)
(0.725546 -0.378383 1.99316e-22)
(0.660367 -0.363814 0)
(0.596923 -0.31991 0)
(0.563448 -0.216719 8.01111e-21)
(0.571917 -0.0638337 -8.21011e-21)
(0.613246 0.0974687 4.38461e-22)
(0.672902 0.226952 4.83692e-22)
(0.735943 0.315598 -3.61956e-22)
(0.7877 0.377749 -3.35874e-21)
(0.810954 0.447045 3.26136e-21)
(0.809284 0.510453 -5.08878e-21)
(0.797017 0.523163 4.44715e-21)
(0.801402 0.426729 1.58059e-21)
(0.826124 0.232009 -7.56274e-21)
(0.861733 0.0039479 -7.04959e-22)
(0.892631 -0.193273 5.27306e-21)
(0.901466 -0.303123 0)
(0.909317 -0.352118 -1.69005e-21)
(0.885336 -0.335977 1.46685e-21)
(0.848783 -0.345053 -1.99863e-21)
(0.788726 -0.315557 -3.50577e-22)
(0.763224 -0.259871 0)
(0.767258 -0.136637 2.75072e-22)
(0.796773 0.0429413 -4.91771e-22)