/*--------------------------------*- C++ -*----------------------------------*\
| =========                 |                                                 |
| \\      /  F ield         | OpenFOAM: The Open Source CFD Toolbox           |
|  \\    /   O peration     | Version:  2512                                  |
|   \\  /    A nd           | Website:  www.openfoam.com                      |
|    \\/     M anipulation  |                                                 |
\*---------------------------------------------------------------------------*/
FoamFile
{
    version     2.0;
    format      ascii;
    arch        "LSB;label=32;scalar=64";
    class       surfaceScalarField;
    location    "25.25";
    object      phi;
}
// * * * * * * * * * * * * * * * * * * * * * * * * * * * * * * * * * * * * * //

dimensions      [0 3 -1 0 0 0 0];

oriented        oriented;

internalField   nonuniform List<scalar> 
26232
(
4.8993e-05
0.000979904
-0.0010289
0.000354726
0.00193015
-0.00223588
0.00106041
0.0020212
-0.00272688
0.00230324
0.00130791
-0.00255073
0.00422154
-0.000176592
-0.00174171
0.00695605
-0.00241448
-0.00032003
0.0106451
-0.00539494
0.0017059
0.0154158
-0.00910594
0.00433525
0.0213709
-0.0135232
0.00756807
0.0285741
-0.0186013
0.0113981
0.0370358
-0.0242677
0.015806
0.0467032
-0.0304219
0.0207545
0.0574558
-0.0369383
0.0261857
0.0691091
-0.0436743
0.0320209
0.0814248
-0.0504796
0.0381639
0.0941269
-0.0572078
0.0445057
0.106923
-0.063727
0.0509312
0.119525
-0.0699293
0.0573274
0.131672
-0.0757344
0.0635867
0.143152
-0.0811087
0.0696286
0.153802
-0.0860144
0.0753648
0.163528
-0.0905583
0.0808325
0.172225
-0.0945512
0.0858543
-0.098598
0.0912527
0.17957
8.92011e-05
0.000890703
0.000546474
0.00147288
0.0015453
0.00102237
0.00325117
-0.000397963
0.00582704
-0.00275246
0.00942815
-0.00601559
0.0141909
-0.0101577
0.0202152
-0.0151302
0.0275456
-0.0208537
0.0361551
-0.0272107
0.0459349
-0.0340476
0.0566961
-0.041183
0.0681802
-0.0484224
0.0800806
-0.0555747
0.0920698
-0.0624688
0.103829
-0.0689672
0.115078
-0.0749756
0.125595
-0.0804471
0.135242
-0.0853813
0.143955
-0.0898219
0.151772
-0.0938309
0.158756
-0.097542
0.165115
-0.100911
-0.104462
0.170979
0.000147992
0.000742711
0.000806301
0.000814568
0.00217613
-0.000347454
0.00444677
-0.00266861
0.00779445
-0.00610013
0.0123682
-0.0105893
0.018268
-0.0160575
0.0255213
-0.0223835
0.034063
-0.0293954
0.0437283
-0.036876
0.0542601
-0.0445794
0.0653316
-0.0522545
0.0765804
-0.0596712
0.0876479
-0.0666422
0.0982174
-0.0730383
0.108045
-0.0787952
0.116982
-0.0839121
0.124978
-0.0884426
0.132076
-0.0924797
0.138395
-0.0961405
0.144104
-0.0995401
0.149372
-0.10281
0.154416
-0.105955
-0.109346
0.1593
0.000227417
0.000515294
0.00113898
-9.69998e-05
0.00295624
-0.00216471
0.00587989
-0.00559226
0.0100772
-0.0102974
0.0156554
-0.0161675
0.0226317
-0.0230338
0.03091
-0.0306618
0.0402748
-0.0387602
0.050407
-0.0470082
0.0609203
-0.0550927
0.0714101
-0.0627443
0.0815049
-0.069766
0.0909098
-0.076047
0.0994355
-0.081564
0.107009
-0.0863687
0.113665
-0.0905681
0.119522
-0.0943
0.124751
-0.0977089
0.129538
-0.100928
0.134059
-0.104061
0.138448
-0.107199
0.142835
-0.110341
-0.113728
0.147216
0.000327511
0.000187783
0.00154096
-0.00131045
0.00386875
-0.0044925
0.00750114
-0.00922465
0.0125619
-0.0153582
0.0190705
-0.0226761
0.0269122
-0.0308755
0.035831
-0.0395806
0.0454544
-0.0483836
0.0553444
-0.0568982
0.0650626
-0.0648108
0.0742331
-0.0719149
0.0825894
-0.0781222
0.0899963
-0.0834539
0.0964471
-0.0880148
0.102039
-0.0919605
0.106935
-0.0954638
0.111322
-0.0986877
0.115381
-0.101768
0.119258
-0.104804
0.123061
-0.107864
0.126855
-0.110993
0.1307
-0.114186
-0.117592
0.134563
0.000446628
-0.000258845
0.00200115
-0.00286498
0.00487788
-0.00736923
0.00922467
-0.0135714
0.0150779
-0.0212114
0.0223216
-0.0299198
0.030675
-0.0392289
0.0397221
-0.0486278
0.0489782
-0.0576397
0.0579725
-0.0658925
0.0663232
-0.0731616
0.0737864
-0.0793781
0.0802698
-0.0846056
0.0858154
-0.0889995
0.0905603
-0.0927597
0.0946889
-0.096089
0.0983901
-0.0991651
0.101828
-0.102125
0.105127
-0.105066
0.108372
-0.108049
0.111617
-0.111109
0.114889
-0.114266
0.11822
-0.117516
-0.120942
0.12157
0.000581493
-0.000840338
0.00250104
-0.00478452
0.00592989
-0.0107981
0.0109333
-0.0185748
0.0174144
-0.0276926
0.0250881
-0.0375935
0.0335081
-0.0476488
0.0421457
-0.0572654
0.0504925
-0.0659865
0.05815
-0.0735499
0.0648816
-0.0798933
0.0706206
-0.0851171
0.0754392
-0.0894242
0.0794975
-0.0930578
0.0829895
-0.0962516
0.0861001
-0.0991997
0.0889809
-0.102046
0.0917413
-0.104886
0.0944535
-0.107779
0.0971613
-0.110757
0.0998898
-0.113838
0.102651
-0.117027
0.105459
-0.120324
-0.123764
0.108281
0.000726982
-0.00156732
0.00301466
-0.0070722
0.00695557
-0.014739
0.0124894
-0.0241087
0.019351
-0.0345541
0.0270818
-0.0453244
0.0351139
-0.0556809
0.0428912
-0.0650427
0.0499799
-0.0730753
0.05613
-0.0797
0.0612793
-0.0850426
0.0655135
-0.0893512
0.0690046
-0.0929153
0.0719517
-0.096005
0.0745376
-0.0988375
0.0769064
-0.101569
0.0791593
-0.104299
0.0813612
-0.107088
0.0835502
-0.109968
0.0857478
-0.112955
0.0879655
-0.116055
0.090208
-0.11927
0.0924809
-0.122597
-0.126044
0.0947604
0.00087581
-0.00244313
0.00350943
-0.00970583
0.00787599
-0.0191055
0.013753
-0.0299857
0.0206951
-0.0414962
0.0281046
-0.0527339
0.035369
-0.0629452
0.0419964
-0.0716702
0.0476967
-0.0787756
0.0523893
-0.0843925
0.0561571
-0.0888104
0.0591763
-0.0923705
0.0616502
-0.0953893
0.0637627
-0.0981175
0.0656563
-0.100731
0.067429
-0.103341
0.0691419
-0.106012
0.0708303
-0.108776
0.0725138
-0.111651
0.0742026
-0.114643
0.0759018
-0.117754
0.0776138
-0.120982
0.0793393
-0.124322
-0.127768
0.0810636
0.00101864
-0.00346177
0.00394859
-0.0126358
0.00861189
-0.0237688
0.0146035
-0.0359773
0.0213174
-0.0482101
0.0280819
-0.0594984
0.0343249
-0.0691882
0.0396852
-0.0770305
0.0440364
-0.0831268
0.0474409
-0.087797
0.0500708
-0.0914403
0.052133
-0.0944327
0.0538166
-0.0970728
0.0552674
-0.0995683
0.0565847
-0.102048
0.0578295
-0.104586
0.0590364
-0.107218
0.0602239
-0.109964
0.0614021
-0.112829
0.0625764
-0.115818
0.0637491
-0.118927
0.064921
-0.122154
0.0660907
-0.125492
-0.128928
0.0672501
0.00114535
-0.00460712
0.00429661
-0.015787
0.00909635
-0.0285686
0.01496
-0.041841
0.0211698
-0.0544198
0.0270574
-0.065386
0.0321586
-0.0742893
0.0362682
-0.0811401
0.0394041
-0.0862627
0.0417226
-0.0901156
0.0434321
-0.0931497
0.0447295
-0.0957301
0.045769
-0.0981123
0.0466559
-0.100455
0.0474541
-0.102847
0.0481996
-0.105331
0.0489112
-0.10793
0.0495991
-0.110652
0.0502688
-0.113499
0.0509235
-0.116472
0.0515643
-0.119568
0.052191
-0.12278
0.0528004
-0.126101
-0.129516
0.0533886
0.00124893
-0.00585605
0.00452702
-0.0190651
0.00928618
-0.0333277
0.0147921
-0.0473469
0.0202827
-0.0599104
0.0251627
-0.070266
0.0291101
-0.0782368
0.0320661
-0.0840961
0.0341519
-0.0883485
0.0355697
-0.0915334
0.0365257
-0.0941057
0.0371868
-0.0963912
0.0376687
-0.0985943
0.0380424
-0.100829
0.0383472
-0.103151
0.0386034
-0.105588
0.0388216
-0.108148
0.0390075
-0.110837
0.0391648
-0.113656
0.0392956
-0.116603
0.0394009
-0.119673
0.0394802
-0.12286
0.0395304
-0.126152
0.0395512
-0.129537
-0.000227509
0.000244154
-1.66448e-05
-0.000792302
0.000563327
1.46527e-06
-0.00162257
0.000774591
5.56727e-05
-0.00266495
0.000908512
0.000133874
-0.00387893
0.000987227
0.000226756
-0.00523425
0.00102706
0.000328251
-0.00670889
0.00103933
0.000435313
-0.00828737
0.00103112
0.000547353
-0.00995916
0.00100628
0.000665516
-0.0117174
0.000966364
0.00079191
-0.0135579
0.00091154
0.000928942
-0.015478
0.000841224
0.00107883
-0.0174759
0.000754622
0.00124333
-0.0195506
0.000651096
0.00142355
-0.021701
0.00053047
0.00161996
-0.0239267
0.000393346
0.00183238
-0.0262281
0.000241431
0.00205999
-0.0286069
7.74247e-05
0.00230131
-0.0310695
-9.13541e-05
0.00255399
-0.033627
-0.000257968
0.0028154
-0.0362971
-0.000412275
0.00308244
-0.0391075
-0.000540978
0.00335138
-0.0421026
-0.000622977
0.0036181
-0.000629039
-0.0453527
0.00387911
-0.000215732
0.000459886
-0.000753933
0.00110153
-0.00154664
0.0015673
-0.00254205
0.00190392
-0.00369988
0.00214506
-0.00498927
0.00231646
-0.00638708
0.00243714
-0.00787628
0.00252032
-0.00944458
0.00257457
-0.0110831
0.00260492
-0.0127855
0.00261386
-0.0145464
0.00260218
-0.0163615
0.0025697
-0.0182262
0.0025158
-0.0201357
0.00243996
-0.0220846
0.00234229
-0.0240674
0.00222419
-0.0260791
0.00208918
-0.0281149
0.00194439
-0.0301742
0.00180139
-0.0322636
0.00167714
-0.0343988
0.00159422
-0.0366106
0.00158876
0.00172477
-0.0389644
-0.000190796
0.000650682
-0.000671429
0.00158216
-0.0013817
0.00227757
-0.00227324
0.00279546
-0.00330665
0.00317847
-0.00445022
0.00346003
-0.00567873
0.00366564
-0.00697216
0.00381376
-0.0083146
0.00391701
-0.00969299
0.00398332
-0.0110962
0.00401705
-0.0125139
0.00401992
-0.013936
0.0039918
-0.0153517
0.00393144
-0.0167488
0.00383705
-0.0181134
0.00370696
-0.0194296
0.00354035
-0.0206787
0.00333831
-0.0218397
0.00310533
-0.0228901
0.00285182
-0.0238102
0.00259729
-0.0245883
0.00237228
-0.0252238
0.0022243
0.00225483
-0.0257539
-0.000156474
0.000807156
-0.000556294
0.00198198
-0.00114922
0.0028705
-0.00189136
0.0035376
-0.00274459
0.0040317
-0.00367616
0.0043916
-0.00465811
0.0046476
-0.00566651
0.00482215
-0.00668047
0.00493097
-0.00768127
0.00498412
-0.00865141
0.00498719
-0.00957374
0.00494225
-0.0104307
0.00484874
-0.0112035
0.00470422
-0.0118714
0.004505
-0.0124112
0.00424677
-0.0127961
0.00392519
-0.0129945
0.00353678
-0.0129694
0.00308018
-0.0126762
0.0025586
-0.012064
0.00198515
-0.0110822
0.00139045
-0.0096893
0.000831427
0.000448913
-0.00788339
-0.000117732
0.000924888
-0.000423786
0.00228804
-0.000877766
0.00332448
-0.0014402
0.00410003
-0.00207405
0.00466555
-0.00274529
0.00506284
-0.00342284
0.00532515
-0.00407814
0.00547745
-0.00468452
0.00553735
-0.00521648
0.00551608
-0.0056489
0.00541962
-0.00595631
0.00524966
-0.00611216
0.00500459
-0.00608821
0.00468027
-0.00585392
0.0042707
-0.00537576
0.00376861
-0.00461653
0.00316595
-0.00353424
0.00245449
-0.00208065
0.00162659
-0.000198355
0.000676306
0.00218334
-0.000396547
0.00514873
-0.00157495
0.00879041
-0.00281025
-0.00396173
0.0132011
-7.9744e-05
0.00100463
-0.000289905
0.0024982
-0.000597446
0.00363202
-0.000965884
0.00446847
-0.00135845
0.00505812
-0.00173923
0.00544362
-0.0020734
0.00565932
-0.00232713
0.00573117
-0.00246701
0.00567723
-0.00245952
0.0055086
-0.00227035
0.00523044
-0.00186369
0.004843
-0.00120169
0.00434258
-0.000243881
0.00372246
0.00105317
0.00297365
0.0027362
0.00208559
0.00485542
0.00104673
0.00746494
-0.000155031
0.0106224
-0.00153083
0.0143907
-0.00309201
0.018841
-0.00484685
0.024065
-0.00679901
0.0301348
-0.00888006
-0.011239
0.0374121
-4.68824e-05
0.00105151
-0.000168228
0.00261954
-0.000333803
0.00379759
-0.000507417
0.00464208
-0.000650825
0.00520153
-0.000724809
0.0055176
-0.000689703
0.00562422
-0.000504958
0.00554642
-0.000128771
0.00530104
0.000482511
0.00489732
0.00137503
0.00433793
0.00259797
0.00362006
0.00420394
0.00273661
0.00624956
0.00167684
0.00879494
0.000428274
0.0119037
-0.00102314
0.0156421
-0.00269166
0.0200778
-0.00459081
0.0252793
-0.00673227
0.0313127
-0.00912548
0.0382361
-0.0117702
0.0461428
-0.0147057
0.0549765
-0.0177138
-0.0216002
0.0653378
-2.18381e-05
0.00107335
-6.70309e-05
0.00266473
-0.0001021
0.00383266
-8.73774e-05
0.00462736
1.9778e-05
0.00509437
0.000263998
0.00527338
0.000692547
0.00519567
0.00135528
0.00488369
0.00230545
0.00435087
0.0036003
0.00360247
0.00530152
0.0026367
0.00747563
0.00144596
0.0101928
1.93919e-05
0.0135292
-0.00165947
0.0175615
-0.00360411
0.0223687
-0.00583035
0.0280282
-0.0083511
0.034613
-0.0111756
0.0421884
-0.0143077
0.0508111
-0.0177482
0.060505
-0.021464
0.0713535
-0.0255542
0.0831357
-0.029496
-0.0350127
0.0965482
-5.01941e-06
0.00107837
1.29576e-05
0.00264676
9.69328e-05
0.00374869
0.000295014
0.00442928
0.000658116
0.00473127
0.00124054
0.00469096
0.00210061
0.0043356
0.00330176
0.00368254
0.00491307
0.00273956
0.00700962
0.00150593
0.00967182
-2.55039e-05
0.0129854
-0.00186761
0.017039
-0.00403423
0.0219201
-0.00654058
0.0277148
-0.00939874
0.0345009
-0.0126165
0.042345
-0.0161951
0.0512969
-0.0201276
0.0613855
-0.0243963
0.0726178
-0.0289805
0.0849574
-0.0338036
0.0984081
-0.0390049
0.112699
-0.0437867
-0.0505674
0.128253
5.76711e-06
0.0010726
7.88857e-05
0.00257364
0.000279071
0.0035485
0.000667727
0.00404062
0.00130912
0.00408988
0.00227203
0.00372804
0.00363134
0.00297629
0.00546887
0.00184501
0.00787349
0.000334942
0.01094
-0.00156059
0.014767
-0.00385248
0.0194523
-0.0065529
0.0250894
-0.00967138
0.0317606
-0.0132118
0.0395313
-0.0171694
0.0484437
-0.0215289
0.0585114
-0.0262629
0.0697161
-0.0313323
0.0820056
-0.0366857
0.0952919
-0.0422668
0.10946
-0.0479716
0.124352
-0.0538966
0.139819
-0.0592541
-0.0663901
0.155642
1.49554e-05
0.00105765
0.00014618
0.00244241
0.000475416
0.00321927
0.00108302
0.00343301
0.00205215
0.00312075
0.00347165
0.00230854
0.00543756
0.00101038
0.00805304
-0.000770476
0.0114264
-0.00303838
0.0156663
-0.00580048
0.020876
-0.00906224
0.0271455
-0.0128224
0.0345425
-0.0170684
0.0431048
-0.021774
0.0528324
-0.0268971
0.0636836
-0.0323801
0.0755727
-0.038152
0.088372
-0.0441316
0.101917
-0.0502306
0.116015
-0.0563646
0.130473
-0.0624296
0.145022
-0.0684465
0.159682
-0.0739132
-0.0802971
0.173589
2.87528e-05
0.000235284
0.000727668
0.00160995
0.00298899
0.0049775
0.00769378
0.0112586
0.0157882
0.0213858
0.0281295
0.0360617
0.045179
0.0554259
0.0666927
0.0788183
0.0915975
0.104793
0.11815
0.131414
0.144349
0.156735
0.168676
0.179631
-0.0478357
-0.00313266
0.00561563
-0.050369
-0.00345662
0.00598989
-0.0529182
-0.00373629
0.00628552
-0.0554633
-0.00392426
0.00646942
-0.0579671
-0.00400236
0.00650616
-0.0603815
-0.00394322
0.00635758
-0.0626459
-0.00372038
0.00598483
-0.0646875
-0.00330889
0.00535044
-0.0664186
-0.00268887
0.00442
-0.0677346
-0.00184895
0.00316489
-0.0685001
-0.000800732
0.00156626
-0.0686396
0.000476858
-0.000337326
-0.0680424
0.0018934
-0.00249068
-0.0665677
0.00340442
-0.00487908
-0.064101
0.00492987
-0.0073966
-0.0605305
0.00632963
-0.00990013
-0.0557552
0.00742557
-0.0122008
-0.0496825
0.00801305
-0.0140858
-0.042235
0.00791624
-0.0153637
-0.0335303
0.00712802
-0.0158327
-0.0235763
0.00538933
-0.0153434
-0.0124998
0.00280398
-0.0138804
-0.000428416
-0.000597412
-0.011474
0.0121473
-0.00418225
-0.00839349
0.0250819
-0.00800564
-0.00492894
0.0379964
-0.0115231
-0.00139131
0.0505886
-0.014381
0.00178875
0.0625793
-0.0163448
0.00435403
0.0737954
-0.0173457
0.00612965
0.0841538
-0.0173383
0.00697989
0.0936455
-0.0165029
0.00701121
0.102309
-0.0148697
0.00620655
0.110207
-0.012732
0.00483359
0.117414
-0.0100708
0.00286436
0.123995
-0.00725756
0.000675714
0.130003
-0.00417818
-0.00182895
0.13547
-0.00127695
-0.00419007
0.140434
0.00167605
-0.00664076
0.144912
0.00415159
-0.00862915
0.148931
0.00660723
-0.0106264
0.152521
0.00830733
-0.0118975
0.155712
0.0100877
-0.0132786
0.158547
0.0109235
-0.0137584
0.161067
0.0120938
-0.0146135
0.163312
0.0122349
-0.01448
0.165321
0.0130845
-0.0150934
0.167139
0.0127976
-0.0146153
0.168808
0.0136342
-0.0153039
0.17037
0.0131705
-0.0147322
0.17183
0.014386
-0.0158459
0.173173
0.0140349
-0.0153784
0.174352
0.0158704
-0.0170494
0.175327
0.0156855
-0.0166606
0.176058
0.0181066
-0.0188373
0.176546
0.0180308
-0.0185185
0.176787
0.0211407
-0.0213821
0.17683
0.0212731
-0.021316
0.17668
0.0252568
-0.0251071
0.176417
0.0257432
-0.02548
0.0307273
-0.0303126
-0.041201
-0.000896033
-0.0435322
-0.00112541
-0.0458907
-0.00137777
-0.0482636
-0.0015514
-0.0506178
-0.00164817
-0.0529065
-0.00165455
-0.055067
-0.0015598
-0.0570227
-0.00135326
-0.0586836
-0.00102794
-0.0599406
-0.000591953
-0.0606573
-8.40874e-05
-0.0607588
0.000578359
-0.0600941
0.00122872
-0.0585268
0.0018372
-0.0559438
0.00234686
-0.0522172
0.00260297
-0.047252
0.00246035
-0.0409386
0.00169971
-0.0331438
0.000121419
-0.0241422
-0.00187356
-0.0138803
-0.00487256
-0.00252033
-0.00855601
0.0094773
-0.012595
0.0221338
-0.0168388
0.0349767
-0.0208485
0.0476232
-0.0241696
0.059743
-0.0265008
0.0710733
-0.0276751
0.0814618
-0.0277343
0.0908638
-0.0267403
0.0993168
-0.0249559
0.106908
-0.0224604
0.113747
-0.019571
0.119951
-0.016275
0.125623
-0.0129298
0.130845
-0.00940028
0.135678
-0.00610949
0.14014
-0.00278594
0.144255
3.58342e-05
0.14804
0.0028222
0.151504
0.00484412
0.154649
0.00694249
0.157498
0.00807408
0.160073
0.00951919
0.162396
0.00991211
0.164493
0.0109872
0.166401
0.0108892
0.168161
0.0118746
0.169811
0.0115203
0.171359
0.0128382
0.172789
0.0126045
0.174051
0.0146082
0.175104
0.0146333
0.175902
0.0173087
0.176447
0.0174856
0.176734
0.0208531
0.176816
0.0211913
0.176696
0.0253766
0.17646
0.0259798
0.0311225
-0.0273569
0.000706949
-0.0291047
0.000622396
-0.0308911
0.000408689
-0.0326983
0.000255771
-0.0345039
0.000157402
-0.0362649
0.000106407
-0.0379199
9.52491e-05
-0.0393972
0.000124032
-0.0406126
0.000187455
-0.0414698
0.000265225
-0.041875
0.000321149
-0.0416589
0.000362289
-0.0407208
0.00029057
-0.0388605
-2.3059e-05
-0.0360361
-0.000477603
-0.0321272
-0.00130587
-0.0270548
-0.00261211
-0.0206705
-0.0046846
-0.0131651
-0.00738395
-0.00424243
-0.0107962
0.00567128
-0.0147863
0.016505
-0.0193897
0.0280898
-0.0241799
0.040097
-0.028846
0.052136
-0.0328875
0.0638353
-0.0358689
0.0748762
-0.0375417
0.0850253
-0.0378242
0.0941593
-0.0368683
0.102261
-0.0348419
0.109394
-0.0320893
0.115672
-0.0287381
0.121225
-0.0251242
0.126195
-0.0212445
0.130707
-0.0174421
0.134868
-0.0135616
0.138755
-0.00999597
0.142413
-0.00644452
0.145874
-0.00342473
0.149111
-0.000415173
0.152164
0.00179161
0.155002
0.00410464
0.15763
0.00544606
0.16005
0.00709865
0.162268
0.00769477
0.164294
0.00896097
0.166153
0.00902986
0.167879
0.0101484
0.169508
0.00989124
0.171047
0.0112991
0.172482
0.0111697
0.173762
0.0133289
0.174843
0.0135522
0.175678
0.0164737
0.176267
0.0168962
0.176602
0.0205185
0.176734
0.0210594
0.176663
0.0254468
0.176478
0.026165
0.0314683
-0.0086239
0.00144746
-0.00960176
0.00160025
-0.0106312
0.00143817
-0.0116625
0.00128702
-0.0126916
0.0011865
-0.0136875
0.00110229
-0.0146044
0.0010122
-0.0153808
0.000900388
-0.0159385
0.000745171
-0.0161893
0.000516036
-0.0160276
0.000159484
-0.0153115
-0.000353878
-0.0139785
-0.00104244
-0.0119607
-0.00204079
-0.0090397
-0.00339863
-0.00509815
-0.00524742
-2.78206e-05
-0.00768245
0.00588439
-0.0105968
0.0129196
-0.0144191
0.0210338
-0.0189105
0.0301533
-0.0239058
0.0400823
-0.0293187
0.0505966
-0.0346942
0.0613673
-0.0396166
0.0720485
-0.0435686
0.0823049
-0.0461253
0.0918621
-0.047099
0.100535
-0.0464966
0.108236
-0.0445699
0.114971
-0.0415768
0.120809
-0.0379267
0.125861
-0.0337902
0.130247
-0.029511
0.134101
-0.0250983
0.137546
-0.020887
0.140695
-0.0167102
0.143635
-0.0129359
0.146426
-0.00923555
0.149108
-0.00610704
0.151701
-0.00300819
0.154169
-0.000676549
0.156535
0.00173875
0.158776
0.00320475
0.160884
0.00499131
0.162848
0.00573019
0.164669
0.00713979
0.166359
0.00734
0.167943
0.00856466
0.169452
0.00838242
0.170893
0.00985799
0.172255
0.00980803
0.173488
0.012096
0.17455
0.0124893
0.175392
0.0156316
0.176012
0.0162771
0.176393
0.0201375
0.176585
0.020867
0.176583
0.0254486
0.176473
0.0262746
0.0317356
0.0130988
0.00154971
0.0127981
0.00190098
0.012447
0.00178926
0.0121368
0.00159723
0.0118558
0.00146751
0.011613
0.00134505
0.0114482
0.00117706
0.0114083
0.000940205
0.0115503
0.000603189
0.0119486
0.000117726
0.0126569
-0.000548769
0.0137326
-0.0014296
0.015324
-0.00263383
0.0175191
-0.00423589
0.0204245
-0.00630404
0.0241117
-0.00893463
0.028618
-0.0121888
0.0340981
-0.0160769
0.040438
-0.0207589
0.0476307
-0.0261032
0.0556271
-0.0319022
0.0642335
-0.0379251
0.0732439
-0.0437046
0.0823683
-0.048741
0.0913087
-0.0525091
0.0997917
-0.0546083
0.107612
-0.0549194
0.11465
-0.0535345
0.120866
-0.0507855
0.126283
-0.0469943
0.130967
-0.0426106
0.13501
-0.0378328
0.138499
-0.0330007
0.141533
-0.0281315
0.144204
-0.0235586
0.146608
-0.0191137
0.148823
-0.0151513
0.150916
-0.0113282
0.152932
-0.00812315
0.154899
-0.0049755
0.156829
-0.00260601
0.158677
-0.000109692
0.160483
0.00139895
0.162211
0.00326312
0.163851
0.0040905
0.165394
0.00559627
0.166844
0.00588976
0.168219
0.00719049
0.169543
0.00705781
0.170826
0.00857504
0.17206
0.00857392
0.173201
0.0109554
0.174211
0.0114795
0.175038
0.0148048
0.175677
0.0156378
0.176107
0.0197079
0.176371
0.0206028
0.176456
0.0253629
0.176446
0.0262849
0.0318953
0.0373595
0.00160224
0.0372931
0.00196744
0.0372811
0.00180123
0.0373547
0.00152364
0.0375132
0.00130896
0.0377561
0.00110215
0.038108
0.000825181
0.038594
0.000454201
0.0392793
-8.21413e-05
0.0401221
-0.000725009
0.041196
-0.00162273
0.0425946
-0.00282819
0.0443712
-0.00441038
0.0465912
-0.00645589
0.0493402
-0.00905308
0.0526892
-0.0122836
0.0566939
-0.0161935
0.0614244
-0.0208074
0.0668341
-0.0261687
0.0728881
-0.0321572
0.0795209
-0.038535
0.0865656
-0.0449698
0.093825
-0.050964
0.101058
-0.0559736
0.108031
-0.0594825
0.114556
-0.0611332
0.120515
-0.0608786
0.125864
-0.0588836
0.130612
-0.0555336
0.1348
-0.0511816
0.13848
-0.0462913
0.141717
-0.0410694
0.144561
-0.0358444
0.14706
-0.0306311
0.149268
-0.0257657
0.151239
-0.0210848
0.153029
-0.0169419
0.154692
-0.0129906
0.156271
-0.00970233
0.1578
-0.00650484
0.15929
-0.00409632
0.16076
-0.00157912
0.162166
-7.65995e-06
0.16355
0.00187912
0.164879
0.00276229
0.166145
0.00432963
0.167349
0.00468577
0.168502
0.00603809
0.169626
0.00593357
0.170731
0.0074695
0.171818
0.00748759
0.172848
0.00992564
0.17379
0.010537
0.174594
0.0140008
0.175253
0.0149783
0.175739
0.0192221
0.17609
0.0202525
0.176283
0.0251692
0.176397
0.0261716
0.0319187
0.0647436
0.00219643
0.0643028
0.00240816
0.0640673
0.00203681
0.0639966
0.00159427
0.0640742
0.00123135
0.0643162
0.000860203
0.0647403
0.000401048
0.0653783
-0.000183761
0.066146
-0.000849862
0.0671338
-0.00171276
0.0683507
-0.00283969
0.0698218
-0.00429928
0.0715873
-0.00617587
0.0736878
-0.00855642
0.0761636
-0.0115288
0.0790539
-0.0151739
0.0824074
-0.0195471
0.0862653
-0.0246653
0.0906015
-0.030505
0.0953696
-0.0369252
0.100493
-0.0436587
0.105825
-0.0503016
0.111188
-0.0563272
0.1164
-0.061185
0.121311
-0.0643944
0.125835
-0.0656563
0.129947
-0.0649913
0.133675
-0.0626116
0.137065
-0.0589235
0.14016
-0.054277
0.142996
-0.0491264
0.145597
-0.0436713
0.147982
-0.0382289
0.150152
-0.0328014
0.152119
-0.0277324
0.153899
-0.0228647
0.155515
-0.0185586
0.156998
-0.014473
0.158378
-0.0110826
0.159685
-0.0078115
0.160936
-0.00534753
0.162146
-0.00278903
0.16332
-0.00118199
0.164446
0.000752978
0.165545
0.00166384
0.166596
0.00327819
0.167603
0.00367884
0.168572
0.00506879
0.169526
0.00497975
0.170476
0.0065193
0.171431
0.00653333
0.172361
0.00899567
0.173245
0.0096529
0.174035
0.0132102
0.174726
0.0142872
0.175284
0.0186649
0.175739
0.0197976
0.176063
0.0248452
0.176325
0.0259097
0.0317769
0.0950627
0.00368195
0.0938416
0.00362932
0.0929165
0.00296192
0.0922092
0.00230152
0.0917155
0.00172505
0.0914664
0.00110936
0.0914775
0.000389917
0.0917141
-0.000420414
0.0921792
-0.00131492
0.0928875
-0.00242109
0.093835
-0.00378716
0.0950286
-0.0054929
0.0964802
-0.00762748
0.0982012
-0.0102774
0.100201
-0.0135284
0.102486
-0.0174596
0.105062
-0.0221227
0.107922
-0.0275247
0.111036
-0.0336198
0.11437
-0.0402584
0.117846
-0.047135
0.121343
-0.0537983
0.124726
-0.0597103
0.127886
-0.0643451
0.130773
-0.0672813
0.133399
-0.0682828
0.135827
-0.067419
0.13813
-0.0649148
0.140369
-0.0611621
0.142572
-0.05648
0.144742
-0.0512965
0.146869
-0.045798
0.148936
-0.0402958
0.15091
-0.0347756
0.15277
-0.0295925
0.154502
-0.024597
0.156103
-0.0201594
0.157576
-0.0159461
0.158936
-0.0124429
0.1602
-0.00907506
0.161385
-0.00653305
0.162506
-0.0039095
0.163579
-0.00225483
0.164577
-0.000245229
0.165558
0.000682605
0.166493
0.00234372
0.167387
0.00278473
0.168246
0.00420966
0.169093
0.00413303
0.169941
0.00567059
0.170808
0.0056662
0.171675
0.0081286
0.172531
0.00879686
0.173334
0.0124072
0.17408
0.0135415
0.174731
0.0180138
0.175314
0.0192151
0.175793
0.0243657
0.17623
0.0254731
0.0314411
0.125867
0.00606862
0.123854
0.00564184
0.1221
0.00471638
0.120544
0.00385765
0.11925
0.00301906
0.118244
0.00211494
0.117487
0.00114679
0.117072
-5.39762e-06
0.116873
-0.00111604
0.116934
-0.00248224
0.117258
-0.00411033
0.117834
-0.00606983
0.118655
-0.00844809
0.119706
-0.0113278
0.120968
-0.0147906
0.122421
-0.0189133
0.12404
-0.0237416
0.125786
-0.0292705
0.127599
-0.0354321
0.1294
-0.0420602
0.131128
-0.0488623
0.132728
-0.0553981
0.134139
-0.0611214
0.135345
-0.0655511
0.136393
-0.0683295
0.137378
-0.069268
0.138413
-0.0684541
0.139587
-0.0660882
0.140945
-0.0625202
0.142488
-0.0580232
0.144182
-0.052991
0.145981
-0.0475969
0.147843
-0.0421581
0.149714
-0.0366466
0.151546
-0.0314241
0.153305
-0.0263556
0.154969
-0.0218239
0.156524
-0.0175012
0.157969
-0.0138881
0.159308
-0.0104132
0.160551
-0.00777641
0.161709
-0.00506752
0.16279
-0.00333577
0.163813
-0.00126798
0.164767
-0.000272065
0.165689
0.00142238
0.166565
0.00190811
0.167401
0.00337403
0.16822
0.00331404
0.169039
0.00485191
0.169882
0.00482322
0.17074
0.00727031
0.171613
0.0079234
0.172467
0.0115536
0.1733
0.0127085
0.174074
0.0172396
0.174811
0.0184781
0.175473
0.0237039
0.176111
0.024835
0.0308828
0.152716
0.0089945
0.150224
0.00813421
0.147815
0.00712447
0.145565
0.00610811
0.143593
0.00499107
0.141892
0.00381595
0.140431
0.00260753
0.139175
0.00125058
0.138366
-0.000306524
0.137717
-0.00183392
0.137292
-0.00368479
0.137089
-0.00586744
0.137102
-0.00846022
0.137301
-0.0115271
0.137651
-0.0151408
0.13811
-0.0193722
0.138626
-0.024258
0.139139
-0.0297836
0.139575
-0.0358681
0.139853
-0.0423381
0.139901
-0.0489104
0.139703
-0.0551994
0.139317
-0.0607361
0.138834
-0.0650678
0.138382
-0.0678775
0.138103
-0.0689888
0.13812
-0.0684707
0.138502
-0.0664712
0.139266
-0.0632841
0.140378
-0.0591352
0.141774
-0.0543868
0.143377
-0.0491997
0.145125
-0.0439061
0.146962
-0.0384842
0.148822
-0.0332836
0.150651
-0.028185
0.15242
-0.0235922
0.1541
-0.0191816
0.155682
-0.0154703
0.157158
-0.0118887
0.158533
-0.00915206
0.15981
-0.00634386
0.161
-0.00452568
0.162107
-0.00237528
0.16316
-0.00132459
0.164141
0.000440591
0.165089
0.000960158
0.165986
0.00247734
0.166857
0.00244264
0.167721
0.00398783
0.16861
0.0039351
0.169521
0.00635886
0.170466
0.00697888
0.171416
0.0106036
0.172375
0.0117496
0.173306
0.0163083
0.174228
0.0175563
0.175101
0.0228308
0.175968
0.0239675
0.0300731
0.170956
0.0116267
0.168452
0.0106383
0.165869
0.00970776
0.163417
0.00856001
0.161174
0.00723436
0.159122
0.00586797
0.157272
0.00445731
0.155602
0.00292068
0.1541
0.00119562
0.152954
-0.000688363
0.151925
-0.00265564
0.151059
-0.00500115
0.150342
-0.00774328
0.149736
-0.0109214
0.149199
-0.0146032
0.148676
-0.0188498
0.148106
-0.0236879
0.14742
-0.0290977
0.146548
-0.0349963
0.145428
-0.0412174
0.144024
-0.0475071
0.142349
-0.0535244
0.14054
-0.0589264
0.138789
-0.0633176
0.137275
-0.0663632
0.136147
-0.0678608
0.135512
-0.0678356
0.135409
-0.0663679
0.135819
-0.0636947
0.136684
-0.0599995
0.137919
-0.0556221
0.139432
-0.0507129
0.141144
-0.0456182
0.14299
-0.0403295
0.14491
-0.0352036
0.146838
-0.0301131
0.148734
-0.0254887
0.150564
-0.0210112
0.15231
-0.0172167
0.153957
-0.0135351
0.155506
-0.0107011
0.156952
-0.00778974
0.158305
-0.0058786
0.159571
-0.00364186
0.16077
-0.00252376
0.161902
-0.000690852
0.162974
-0.000112472
0.164004
0.00144759
0.164999
0.00144732
0.165979
0.00300837
0.166979
0.0029351
0.168005
0.0053325
0.169076
0.00590799
0.170171
0.00950868
0.171297
0.0106232
0.172422
0.0151837
0.17356
0.016418
0.174674
0.0217168
0.175799
0.0228426
0.0289839
0.17803
0.0132284
0.176008
0.0126606
0.173979
0.0117361
0.171959
0.0105801
0.169955
0.00923882
0.168017
0.00780569
0.166181
0.00629372
0.164436
0.00466536
0.162779
0.00285237
0.161288
0.000803045
0.15996
-0.00132775
0.158681
-0.00372266
0.157449
-0.0065111
0.156235
-0.00970717
0.155
-0.0133687
0.153695
-0.0175441
0.152262
-0.0222552
0.150648
-0.0274842
0.148811
-0.0331591
0.146728
-0.0391345
0.144418
-0.0451963
0.141939
-0.0510459
0.139389
-0.0563766
0.136922
-0.0608504
0.134741
-0.064182
0.133053
-0.0661727
0.131962
-0.0667449
0.131489
-0.0658948
0.131605
-0.0638103
0.132241
-0.0606356
0.133312
-0.0566936
0.134722
-0.0521225
0.136386
-0.0472826
0.138228
-0.0421713
0.140182
-0.0371575
0.142187
-0.0321179
0.144197
-0.0274992
0.14617
-0.0229838
0.148082
-0.0191289
0.149909
-0.0153618
0.151649
-0.012441
0.15329
-0.00943117
0.154841
-0.00742943
0.156303
-0.00510378
0.157691
-0.00391231
0.159015
-0.00201478
0.160292
-0.00138907
0.161497
0.000242508
0.162674
0.000270548
0.163827
0.00185569
0.164997
0.00176417
0.166195
0.00413483
0.167445
0.00465843
0.168731
0.0082219
0.170067
0.00928799
0.171421
0.0138295
0.172808
0.0150307
0.174193
0.0203321
0.175603
0.0214324
0.0275875
0.195498
0.0145576
-0.196828
0.194644
0.0135152
0.193741
0.0126384
0.192822
0.0114998
0.191904
0.0101562
0.191011
0.00869936
0.190169
0.00713528
0.189399
0.00543487
0.188692
0.00356007
0.187973
0.00152146
0.187349
-0.000703346
0.186895
-0.00326821
0.186502
-0.00611812
0.186161
-0.0093664
0.185841
-0.0130489
0.185489
-0.0171922
0.185039
-0.0218048
0.184413
-0.0268586
0.183532
-0.0322782
0.182321
-0.0379235
0.180727
-0.0436017
0.178733
-0.0490519
0.176362
-0.0540056
0.173684
-0.0581728
0.170812
-0.0613095
0.167871
-0.0632318
0.165003
-0.0638771
0.162332
-0.0632237
0.159954
-0.0614327
0.157932
-0.0586137
0.156296
-0.0550571
0.155042
-0.0508689
0.154148
-0.0463887
0.153582
-0.0416045
0.153304
-0.0368795
0.153269
-0.0320835
0.15343
-0.0276598
0.153736
-0.0232899
0.154143
-0.0195362
0.154611
-0.0158299
0.155109
-0.0129385
0.155607
-0.00992965
0.156087
-0.00790905
0.156532
-0.00554881
0.156937
-0.00431711
0.157297
-0.00237555
0.157606
-0.00169748
0.157862
-1.33601e-05
0.158063
6.96407e-05
0.158212
0.00170642
0.158338
0.00163855
0.15845
0.00402261
0.158577
0.00453117
0.158721
0.00807779
0.158898
0.00911081
0.159092
0.0136358
0.159314
0.0148091
0.159535
0.0201111
0.159774
0.0211926
0.0273598
0.208071
0.0148938
-0.208407
0.207757
0.0138294
0.207539
0.012856
0.207259
0.0117799
0.206892
0.0105239
0.206477