/*--------------------------------*- C++ -*----------------------------------*\
| =========                 |                                                 |
| \\      /  F ield         | OpenFOAM: The Open Source CFD Toolbox           |
|  \\    /   O peration     | Version:  2512                                  |
|   \\  /    A nd           | Website:  www.openfoam.com                      |
|    \\/     M anipulation  |                                                 |
\*---------------------------------------------------------------------------*/
FoamFile
{
    version     2.0;
    format      ascii;
    arch        "LSB;label=32;scalar=64";
    class       volScalarField;
    location    "30.5";
    object      p;
}
// * * * * * * * * * * * * * * * * * * * * * * * * * * * * * * * * * * * * * //

dimensions      [0 2 -2 0 0 0 0];

internalField   nonuniform List<scalar> 
13248
(
-0.284956
-0.283538
-0.281533
-0.279109
-0.276461
-0.273776
-0.271193
-0.268801
-0.266642
-0.264722
-0.263013
-0.261458
-0.259982
-0.2585
-0.256921
-0.25516
-0.253146
-0.250825
-0.248155
-0.245153
-0.241738
-0.238134
-0.233722
-0.229558
-0.291729
-0.289697
-0.287085
-0.284072
-0.280852
-0.277625
-0.27453
-0.271638
-0.26897
-0.2665
-0.264166
-0.261885
-0.259564
-0.257108
-0.254436
-0.251485
-0.248213
-0.244604
-0.240658
-0.236393
-0.231818
-0.226979
-0.221741
-0.21677
-0.29993
-0.297097
-0.293761
-0.29009
-0.286252
-0.282445
-0.27879
-0.275325
-0.272027
-0.268833
-0.26565
-0.262381
-0.258936
-0.255246
-0.251267
-0.246986
-0.242412
-0.237578
-0.232521
-0.227292
-0.221898
-0.216418
-0.21075
-0.205351
-0.309705
-0.305883
-0.301709
-0.297314
-0.292804
-0.288353
-0.284038
-0.279845
-0.2757
-0.271506
-0.267163
-0.262593
-0.257748
-0.252615
-0.247216
-0.241596
-0.235815
-0.229933
-0.224005
-0.218071
-0.212144
-0.206275
-0.200374
-0.194915
-0.32114
-0.316152
-0.311039
-0.305856
-0.300601
-0.295391
-0.29024
-0.285068
-0.279763
-0.274224
-0.268388
-0.262237
-0.255802
-0.249146
-0.242354
-0.235511
-0.228696
-0.221968
-0.215365
-0.208906
-0.202593
-0.196441
-0.190395
-0.184788
-0.334235
-0.327936
-0.321808
-0.315771
-0.309663
-0.303506
-0.297239
-0.290731
-0.283871
-0.276612
-0.268976
-0.261048
-0.252945
-0.244797
-0.236721
-0.228808
-0.221123
-0.2137
-0.20655
-0.199669
-0.193043
-0.186666
-0.180491
-0.174758
-0.348883
-0.341176
-0.333979
-0.32701
-0.319874
-0.31248
-0.304701
-0.29641
-0.287567
-0.278245
-0.268596
-0.25881
-0.249074
-0.239542
-0.230326
-0.221494
-0.213074
-0.20507
-0.197464
-0.190232
-0.183346
-0.176779
-0.170503
-0.164646
-0.364824
-0.355674
-0.347374
-0.339353
-0.330923
-0.32188
-0.312098
-0.301543
-0.290332
-0.278708
-0.266957
-0.255346
-0.244087
-0.233316
-0.223108
-0.213486
-0.204441
-0.195942
-0.18795
-0.180424
-0.173323
-0.166609
-0.160259
-0.154304
-0.381607
-0.37105
-0.361616
-0.352354
-0.342255
-0.33106
-0.318751
-0.305501
-0.291656
-0.277635
-0.263824
-0.250516
-0.237892
-0.22604
-0.214979
-0.204685
-0.19511
-0.186197
-0.177887
-0.170125
-0.162859
-0.156045
-0.149655
-0.143636
-0.398562
-0.386694
-0.376074
-0.365295
-0.353062
-0.339179
-0.323884
-0.307655
-0.291083
-0.274728
-0.259011
-0.24419
-0.230382
-0.217607
-0.205826
-0.194968
-0.184957
-0.17571
-0.167154
-0.15922
-0.151844
-0.144981
-0.13858
-0.132539
-0.414796
-0.401755
-0.389847
-0.377189
-0.362312
-0.345259
-0.326663
-0.307352
-0.28813
-0.269622
-0.252217
-0.236095
-0.221289
-0.207747
-0.195377
-0.184072
-0.173725
-0.164238
-0.15552
-0.147491
-0.140081
-0.133233
-0.126867
-0.120871
-0.429268
-0.41524
-0.401918
-0.386971
-0.368941
-0.348311
-0.32622
-0.303845
-0.282135
-0.261704
-0.242851
-0.225651
-0.210045
-0.195911
-0.183108
-0.171495
-0.160943
-0.151336
-0.142569
-0.134553
-0.127211
-0.120474
-0.114234
-0.108423
-0.247941
-0.249847
-0.251075
-0.251913
-0.252621
-0.253264
-0.253873
-0.254468
-0.255057
-0.255639
-0.25621
-0.256762
-0.257285
-0.257773
-0.258216
-0.258607
-0.258942
-0.259218
-0.259437
-0.259606
-0.25974
-0.259859
-0.260019
-0.260315
-0.249081
-0.25082
-0.251947
-0.252723
-0.253384
-0.253995
-0.254587
-0.255179
-0.255782
-0.256396
-0.257017
-0.257641
-0.25826
-0.258868
-0.25946
-0.260029
-0.260572
-0.261083
-0.261564
-0.26202
-0.262461
-0.262894
-0.263365
-0.264069
-0.250886
-0.252378
-0.253351
-0.254024
-0.254605
-0.255153
-0.255698
-0.256262
-0.256853
-0.257475
-0.258124
-0.258796
-0.259487
-0.260192
-0.260904
-0.261619
-0.262329
-0.263027
-0.263706
-0.264366
-0.265009
-0.265613
-0.266179
-0.267095
-0.253201
-0.254392
-0.255167
-0.255701
-0.256164
-0.256611
-0.257073
-0.25757
-0.258114
-0.258707
-0.259348
-0.260033
-0.260759
-0.261521
-0.262313
-0.263128
-0.263957
-0.264785
-0.265598
-0.266383
-0.267132
-0.267803
-0.26828
-0.268889
-0.255858
-0.256725
-0.257273
-0.257632
-0.257935
-0.258235
-0.258566
-0.258949
-0.259396
-0.259911
-0.260494
-0.261143
-0.261853
-0.262621
-0.26344
-0.264302
-0.265193
-0.266095
-0.266983
-0.267827
-0.268604
-0.269246
-0.269562
-0.269972
-0.258707
-0.259256
-0.25956
-0.259708
-0.259805
-0.259907
-0.260048
-0.260257
-0.260547
-0.260924
-0.26139
-0.261942
-0.262578
-0.263293
-0.264079
-0.264926
-0.265818
-0.266732
-0.267635
-0.268483
-0.269231
-0.269801
-0.269983
-0.269645
-0.261644
-0.261905
-0.261956
-0.261857
-0.2617
-0.261544
-0.261433
-0.261401
-0.261468
-0.261641
-0.261926
-0.26232
-0.26282
-0.263421
-0.264113
-0.264884
-0.265713
-0.266572
-0.267423
-0.268209
-0.268869
-0.26927
-0.269513
-0.268018
-0.264636
-0.26465
-0.264445
-0.264054
-0.263595
-0.263123
-0.262696
-0.262359
-0.262137
-0.262045
-0.262089
-0.262269
-0.262581
-0.263017
-0.263562
-0.264201
-0.264908
-0.265648
-0.266374
-0.267015
-0.267541
-0.267594
-0.268113
-0.265465
-0.267733
-0.267533
-0.267052
-0.266352
-0.265534
-0.264687
-0.263887
-0.263187
-0.262624
-0.262218
-0.261977
-0.261902
-0.261985
-0.262215
-0.262573
-0.263031
-0.263556
-0.264102
-0.264618
-0.265006
-0.265347
-0.264926
-0.265655
-0.262381
-0.271078
-0.27067
-0.269895
-0.268835
-0.267614
-0.266347
-0.265128
-0.264025
-0.263085
-0.262332
-0.261777
-0.261418
-0.26124
-0.261223
-0.261335
-0.261534
-0.261774
-0.262
-0.262163
-0.262152
-0.26215
-0.261329
-0.261882
-0.258695
-0.274886
-0.27424
-0.273124
-0.271655
-0.269985
-0.268258
-0.266588
-0.265056
-0.263712
-0.262588
-0.26169
-0.261008
-0.260514
-0.26017
-0.259925
-0.259721
-0.259492
-0.259176
-0.258722
-0.258067
-0.257359
-0.25617
-0.256076
-0.253493
-0.279425
-0.278456
-0.276932
-0.274998
-0.272837
-0.270619
-0.268474
-0.266492
-0.264733
-0.263215
-0.261935
-0.260867
-0.259961
-0.259156
-0.258378
-0.257549
-0.256589
-0.255434
-0.254022
-0.252351
-0.250413
-0.248326
-0.246662
-0.244704
-0.260851
-0.261353
-0.261922
-0.262523
-0.263117
-0.263625
-0.264018
-0.264193
-0.26404
-0.263428
-0.26221
-0.260223
-0.257289
-0.253217
-0.2478
-0.24082
-0.232049
-0.221242
-0.208156
-0.192573
-0.174294
-0.1535
-0.130484
-0.105681
-0.079897
-0.0547931
-0.0310561
-0.00983509
0.00806004
0.0222339
0.0327238
0.0399082
0.0441939
0.0461909
0.0464311
0.0453843
0.0434379
0.0408986
0.0379958
0.0349252
0.0318127
0.0287635
0.0257836
0.0231253
0.0206167
0.0183211
0.0162486
0.0143583
0.0126606
0.0111252
0.00971055
0.00842073
0.00721975
0.00613204
0.00509977
0.00417052
0.00322795
0.0023757
0.00140821
0.000569933
-0.265423
-0.266419
-0.267469
-0.268523
-0.269505
-0.270329
-0.270871
-0.271032
-0.27066
-0.269593
-0.267652
-0.264655
-0.260416
-0.254751
-0.247484
-0.23847
-0.227587
-0.214737
-0.199849
-0.182894
-0.163898
-0.143071
-0.120705
-0.0971974
-0.0727888
-0.050252
-0.0287406
-0.00943229
0.00696993
0.0201531
0.0301411
0.0372463
0.041683
0.0440318
0.0447064
0.0440879
0.042528
0.0403209
0.0376918
0.0348344
0.0318759
0.0289305
0.0260357
0.0233731
0.0208546
0.0185294
0.0164346
0.0145016
0.0127704
0.0112094
0.00976958
0.00846496
0.00725023
0.00615761
0.00511991
0.00419088
0.00324504
0.00239199
0.00141889
0.00057685
-0.269619
-0.270934
-0.272405
-0.273867
-0.275193
-0.276283
-0.277
-0.277184
-0.276666
-0.275256
-0.272756
-0.268967
-0.2637
-0.256775
-0.248035
-0.237394
-0.224818
-0.210325
-0.193986
-0.175925
-0.156323
-0.135489
-0.113788
-0.0917249
-0.0704151
-0.0483686
-0.0283414
-0.0105636
0.00458701
0.0169704
0.0266662
0.0337734
0.0386409
0.0414665
0.0426413
0.0425036
0.0413659
0.0395162
0.037178
0.0345496
0.0317645
0.0289449
0.0261478
0.0235172
0.0210105
0.0187216
0.0165679
0.0146013
0.0128487
0.0112682
0.0098074
0.0084913
0.00726513
0.00616971
0.00512835
0.0042016
0.00325454
0.00240259
0.00142634
0.000580973
-0.273477
-0.274427
-0.276323
-0.278111
-0.279725
-0.28104
-0.281895
-0.282111
-0.281496
-0.279843
-0.276938
-0.272579
-0.266576
-0.258752
-0.248963
-0.237181
-0.223439
-0.207837
-0.190546
-0.171803
-0.151886
-0.131264
-0.1102
-0.0890457
-0.0685827
-0.0487811
-0.0305135
-0.0140499
0.000398763
0.0125958
0.0224289
0.0298604
0.0351722
0.0385471
0.0402742
0.0406513
0.0399573
0.0384779
0.0364437
0.0340589
0.0314657
0.0287921
0.0261094
0.0235392
0.0210716
0.0187814
0.0166357
0.014645
0.0128912
0.0112991
0.00982325
0.00849962
0.00726503
0.00616869
0.00512553
0.00420264
0.00325641
0.00240723
0.00143039
0.000582104
-0.275191
-0.277248
-0.278998
-0.280955
-0.282815
-0.284323
-0.285296
-0.285547
-0.284881
-0.283077
-0.279913
-0.275177
-0.26868
-0.260262
-0.249833
-0.237383
-0.222986
-0.2068
-0.18906
-0.170073
-0.150194
-0.12983
-0.109374
-0.0892022
-0.0697364
-0.0511381
-0.0339077
-0.0182735
-0.00438018
0.00762224
0.0176058
0.0254776
0.0313329
0.0352999
0.0376026
0.0385081
0.0382752
0.0371827
0.0354703
0.0333481
0.0309678
0.028462
0.0259129
0.0234292
0.0210253
0.0187611
0.016627
0.0146259
0.0128943
0.0112999
0.00981624
0.00848977
0.0072506
0.00615521
0.00511221
0.00419431
0.00325087
0.00240576
0.00143096
0.000580165
-0.27614
-0.278924
-0.280446
-0.28233
-0.284332
-0.285992
-0.287053
-0.287322
-0.286628
-0.284741
-0.281429
-0.276486
-0.269731
-0.261028
-0.250307
-0.237582
-0.222954
-0.206613
-0.188835
-0.169963
-0.15039
-0.130539
-0.11077
-0.0914172
-0.0728142
-0.0551366
-0.0386662
-0.023551
-0.0098982
0.00214512
0.0124119
0.0207644
0.0271845
0.0317456
0.0346259
0.036066
0.0363116
0.0356268
0.0342579
0.0324209
0.0302756
0.0279594
0.0255636
0.02319
0.0208699
0.0186596
0.0165412
0.0145486
0.0128586
0.0112697
0.00978654
0.00846236
0.00722296
0.00613041
0.00508961
0.00417736
0.00323846
0.00239833
0.00142811
0.000575272
-0.275728
-0.2793
-0.280592
-0.28221
-0.28423
-0.28597
-0.287072
-0.287333
-0.286638
-0.284735
-0.281391
-0.276407
-0.269612
-0.260884
-0.250168
-0.237494
-0.22298
-0.206835
-0.189348
-0.170878
-0.151827
-0.132602
-0.113534
-0.0949227
-0.077031
-0.0600256
-0.0440772
-0.0292835
-0.0157297
-0.0035641
0.00701642
0.0158316
0.0227943
0.0279301
0.0313778
0.0333548
0.0340921
0.0338349
0.0328305
0.0312999
0.0294103
0.0273033
0.0250784
0.0228345
0.0206156
0.0184792
0.0164151
0.0144153
0.0127855
0.0112099
0.00973543
0.00841872
0.00718357
0.0060958
0.00505917
0.00415289
0.00322
0.00238536
0.00142206
0.000567745
-0.273761
-0.277908
-0.279035
-0.280457
-0.282442
-0.284155
-0.285191
-0.285441
-0.284801
-0.282967
-0.279707
-0.274837
-0.268201
-0.259685
-0.249238
-0.236898
-0.222789
-0.20712
-0.190176
-0.172315
-0.153927
-0.135402
-0.117039
-0.0990995
-0.081805
-0.0653077
-0.0497274
-0.0351366
-0.0216147
-0.00931212
0.00155819
0.0107891
0.0182508
0.023929
0.0279255
0.0304353
0.0316708
0.0318561
0.031231
0.030022
0.0284031
0.0265206
0.0244803
0.0223815
0.0202778
0.0182311
0.0162554
0.0145749
0.0126804
0.011123
0.00966487
0.00836052
0.00713388
0.00605283
0.00502225
0.0041221
0.00319637
0.00236749
0.00141313
0.000558073
-0.2702
-0.274176
-0.27523
-0.276789
-0.278751
-0.280302
-0.281248
-0.281557
-0.281033
-0.279365
-0.276311
-0.271706
-0.265412
-0.257319
-0.247374
-0.235612
-0.222151
-0.207187
-0.19099
-0.17389
-0.156259
-0.138468
-0.120801
-0.10348
-0.0867019
-0.0706106
-0.055309
-0.040864
-0.0273577
-0.0149419
-0.00383286
0.00575102
0.0136545
0.0198316
0.0243477
0.0273728
0.0291041
0.0297451
0.0295112
0.0286327
0.0272927
0.0256432
0.0237958
0.0218522
0.0198733
0.0179265
0.0160386
0.0143271
0.0125354
0.0110114
0.00957696
0.00828955
0.00707509
0.00600276
0.00497993
0.0040861
0.00316843
0.00234545
0.00140166
0.000546886
-0.264843
-0.267756
-0.269052
-0.270982
-0.272873
-0.27432
-0.275237
-0.27532
-0.274967
-0.273606
-0.27096
-0.266832
-0.261098
-0.253651
-0.244432
-0.233469
-0.220866
-0.206798
-0.191505
-0.17529
-0.158491
-0.141453
-0.124468
-0.107733
-0.0914297
-0.075701
-0.0606492
-0.0463457
-0.0328795
-0.0204012
-0.00911974
0.000747309
0.00903118
0.0156608
0.0206667
0.024187
0.0264028
0.0275124
0.0276922
0.0271612
0.0261105
0.0247014
0.0230525
0.0212701
0.0194216
0.0175795
0.0157759
0.0140876
0.0124348
0.0108764
0.00947323
0.00820778
0.00700854
0.00594694
0.00493332
0.00404608
0.00313707
0.00232013
0.00138812
0.000534968
-0.25721
-0.259048
-0.261009
-0.26309
-0.264887
-0.266637
-0.268177
-0.268905
-0.267983
-0.266744
-0.264537
-0.260962
-0.255905
-0.24924
-0.240887
-0.230868
-0.219268
-0.206228
-0.191956
-0.176715
-0.160807
-0.144548
-0.128228
-0.112056
-0.0962039
-0.0808188
-0.0660081
-0.0518496
-0.0384392
-0.0259238
-0.0144998
-0.00437715
0.0042676
0.0113401
0.0168375
0.020859
0.0235597
0.0251279
0.02574
0.025583
0.0248439
0.023692
0.0222537
0.0206425
0.0189323
0.0172008
0.0154841
0.0138535
0.012237
0.010723
0.00935349
0.00811685
0.00693573
0.0058865
0.00488332
0.00400286
0.00310286
0.00229211
0.00137273
0.000523202
-0.247465
-0.249865
-0.251799
-0.253084
-0.254498
-0.25621
-0.257653
-0.258412
-0.258408
-0.257279
-0.255478
-0.252612
-0.248487
-0.242875
-0.235665
-0.226861
-0.216518
-0.204737
-0.191683
-0.177578
-0.162685
-0.147288
-0.131659
-0.116029
-0.100592
-0.0855113
-0.0709144
-0.0568849
-0.0435258
-0.0309835
-0.0194443
-0.00911233
-0.000166418
0.0072807
0.0132017
0.0176625
0.0207945
0.0227648
0.0237471
0.0239325
0.023494
0.0225985
0.0213752
0.0199423
0.0183784
0.0167663
0.015145
0.0135837
0.0120284
0.0105986
0.00921146
0.0080093
0.00685123
0.00581619
0.00482567
0.00395327
0.00306342
0.00226023
0.00135432
0.000512005
-0.236704
-0.242796
-0.244302
-0.244816
-0.245969
-0.247646
-0.24923
-0.250374
-0.250809
-0.250169
-0.2478
-0.244865
-0.240968
-0.235702
-0.228935
-0.220667
-0.210946
-0.199866
-0.187572
-0.174266
-0.160182
-0.145577
-0.130698
-0.115765
-0.100961
-0.0864378
-0.0723144
-0.0586898
-0.0456719
-0.0334051
-0.0220675
-0.0118565
-0.0029444
0.0045531
0.0106004
0.0152444
0.0185995
0.02082
0.0220637
0.0224988
0.0222892
0.0215966
0.0205496
0.0192665
0.0178276
0.0163191
0.0147815
0.0132815
0.0117908
0.0104067
0.00910747
0.0078798
0.00674635
0.00572953
0.00475487
0.00389482
0.00301804
0.00222511
0.0013334
0.000501223
-0.225003
-0.233517
-0.235474
-0.235353
-0.235922
-0.237322
-0.238775
-0.239656
-0.239618
-0.238552
-0.236995
-0.234424
-0.230753
-0.225819
-0.21952
-0.211842
-0.202826
-0.192551
-0.181142
-0.168769
-0.155635
-0.141963
-0.127971
-0.113861
-0.0998058
-0.0859517
-0.072423
-0.059331
-0.0467917
-0.0349479
-0.0239686
-0.0140364
-0.00531099
0.00209837
0.00815157
0.0128822
0.0163846
0.0187916
0.0202424
0.0208917
0.0208928
0.0203994
0.0195342
0.0184137
0.017117
0.0157313
0.0142976
0.0128811
0.0114696
0.0101404
0.00888143
0.00771291
0.00661256
0.00562191
0.0046692
0.00382436
0.0029642
0.00218199
0.00130836
0.000487115
-0.212916
-0.222671
-0.225185
-0.224848
-0.224978
-0.226093
-0.227409
-0.228204
-0.228193
-0.227416
-0.225937
-0.223504
-0.220027
-0.215421
-0.209601
-0.202534
-0.194244
-0.184793
-0.174281
-0.162851
-0.150675
-0.137942
-0.124847
-0.111574
-0.0982873
-0.0851308
-0.0722327
-0.0597122
-0.0476907
-0.0363077
-0.0257224
-0.0161025
-0.00759622
-0.000307207
0.0057199
0.010506
0.0141256
0.0166924
0.0183307
0.0191831
0.01939
0.0190956
0.0184159
0.0174646
0.0163188
0.0150656
0.0137462
0.0124258
0.0111004
0.00984061
0.00863925
0.0075206
0.0064567
0.00549562
0.00456889
0.00374173
0.00290111
0.00213142
0.0012791
0.000470984
-0.200997
-0.210899
-0.213923
-0.213774
-0.213754
-0.214674
-0.21591
-0.216733
-0.216831
-0.216168
-0.214736
-0.212447
-0.209223
-0.204986
-0.199659
-0.193202
-0.185625
-0.176975
-0.167335
-0.156821
-0.145576
-0.133765
-0.121558
-0.109122
-0.0966117
-0.0841677
-0.0719195
-0.0599895
-0.048502
-0.037593
-0.027413
-0.0181165
-0.00984171
-0.00268756
0.00329743
0.00812249
0.0118446
0.0145602
0.0163791
0.0174301
0.0178405
0.0177447
0.0172517
0.0164719
0.01548
0.0143628
0.0131614
0.0119415
0.0107054
0.00952023
0.00837862
0.00730938
0.00628628
0.00535735
0.00445892
0.00365151
0.00283226
0.0020769
0.00124764
0.000454402
-0.188831
-0.198666
-0.202189
-0.202413
-0.202437
-0.203253
-0.204429
-0.205281
-0.20545
-0.204857
-0.203518
-0.201412
-0.19847
-0.194611
-0.189766
-0.183894
-0.176998
-0.169113
-0.160305
-0.150669
-0.140326
-0.129413
-0.118079
-0.106476
-0.0947458
-0.083025
-0.0714412
-0.0601177
-0.0491794
-0.0387587
-0.0289977
-0.0200395
-0.0120127
-0.00501209
0.000910678
0.00575479
0.00956176
0.0124119
0.0143999
0.0156408
0.0162488
0.0163484
0.0160415
0.0154341
0.0145984
0.0136201
0.0125404
0.0114249
0.0102816
0.00917353
0.00809417
0.00707873
0.00610036
0.00520649
0.00433883
0.00355355
0.00275761
0.00201856
0.00121393
0.000437501
-0.176654
-0.186409
-0.190306
-0.190905
-0.191066
-0.191848
-0.192979
-0.19385
-0.194087
-0.193596
-0.1924
-0.190502
-0.187846
-0.184357
-0.179973
-0.174657
-0.168406
-0.161246
-0.153229
-0.144431
-0.134952
-0.124908
-0.114428
-0.103646
-0.092694
-0.0817013
-0.0707919
-0.0600874
-0.0497113
-0.0397917
-0.0304625
-0.0218563
-0.0140934
-0.00726476
-0.00142448
0.00341797
0.00729038
0.0102578
0.0124002
0.0138194
0.0146167
0.0149068
0.0147836
0.0143485
0.0136707
0.0128339
0.0118794
0.0108726
0.0098254
0.00879793
0.00778557
0.00682759
0.00589729
0.00504155
0.00420736
0.00344684
0.00267638
0.00195586
0.00117757
0.000420272
-0.164908
-0.174328
-0.178423
-0.179355
-0.179695
-0.1805
-0.181612
-0.182508
-0.18283
-0.182472
-0.181448
-0.179766
-0.177391
-0.17426
-0.170318
-0.16553
-0.15989
-0.153415
-0.146146
-0.138144
-0.129489
-0.12028
-0.110629
-0.100652
-0.090471
-0.0802059
-0.0699756
-0.0598982
-0.0500935
-0.0406844
-0.0317971
-0.0235551
-0.0160709
-0.00943174
-0.00369398
0.00112568
0.00504296
0.00810882
0.0103896
0.0119738
0.0129508
0.0134246
0.0134816
0.0132175
0.0126982
0.0120049
0.0111786
0.0102841
0.0093364
0.00839337
0.00745238
0.00655499
0.00567611
0.00486162
0.00406373
0.00333075
0.00258808
0.00188855
0.00113838
0.000402807
-0.153559
-0.162479
-0.166665
-0.167883
-0.168415
-0.169277
-0.170397
-0.171332
-0.171749
-0.171533
-0.170688
-0.169227
-0.16713
-0.164347
-0.160827
-0.156541
-0.151477
-0.145648
-0.139084
-0.131834
-0.123964
-0.115555
-0.106703
-0.0975114
-0.0880883
-0.078545
-0.0689934
-0.0595464
-0.0503186
-0.0414268
-0.03299
-0.0251229
-0.0179314
-0.0114992
-0.00588389
-0.00110842
0.00283246
0.00597702
0.00837869
0.0101134
0.0112588
0.0119083
0.0121403
0.0120446
0.0116832
0.0111345
0.0104387
0.00965964
0.00881451
0.00795946
0.00709369
0.00626009
0.00543602
0.00466599
0.0039073
0.00320478
0.00249234
0.00181647
0.00109626
0.000385136
-0.142552
-0.150972
-0.155176
-0.156618
-0.157326
-0.158257
-0.1594
-0.160379
-0.16089
-0.160815
-0.160149
-0.158909
-0.157086
-0.154637
-0.151521
-0.147708
-0.143188
-0.137965
-0.132065
-0.125525
-0.118398
-0.110753
-0.10267
-0.0942384
-0.0855563
-0.0767243
-0.0678464
-0.0590288
-0.05038
-0.0420101
-0.0340304
-0.0265483
-0.0196627
-0.013454
-0.00798076
-0.00327087
0.000671971
0.00387468
0.00637869
0.00824802
0.00954881
0.0103643
0.0107648
0.0108335
0.0106285
0.0102244
0.00966058
0.00899935
0.00825953
0.00749565
0.0067087
0.00594217
0.00517624
0.00445395
0.00373743
0.00306842
0.00238879
0.0017394
0.00105106
0.000367187
-0.132042
-0.139924
-0.144057
-0.145655
-0.146507
-0.147504
-0.148672
-0.149693
-0.150292
-0.150352
-0.149862
-0.148836
-0.14728
-0.145152
-0.142418
-0.139052
-0.135041
-0.130388
-0.12511
-0.119237
-0.112813
-0.105893
-0.0985459
-0.0908483
-0.0828862
-0.0747507
-0.0665373
-0.0583443
-0.0502733
-0.0424271
-0.0349097
-0.0278207
-0.0212532
-0.0152839
-0.00997161
-0.00534837
-0.00142537
0.00181429
0.0044011
0.00638781
0.00782976
0.00880005
0.00936098
0.00958876
0.00953713
0.00927664
0.00884539
0.00830372
0.00767149
0.00700161
0.00629682
0.00560058
0.00489609
0.00422477
0.0035535
0.00292111
0.00227699
0.00165704
0.00100259
0.000348823
-0.122093
-0.129372
-0.133361
-0.135056
-0.136022
-0.137073
-0.138261
-0.139317
-0.139994
-0.14018
-0.13986
-0.139049
-0.137735
-0.135908
-0.133535
-0.130588
-0.127054
-0.122933
-0.118238
-0.112992
-0.10723
-0.100997
-0.0943505
-0.0873566
-0.0800904
-0.0726329
-0.0650706
-0.0574937
-0.049996
-0.0426727
-0.0356203
-0.0289312
-0.0226924
-0.0169772
-0.011844
-0.00732797
-0.0034465
-0.00019141
0.00245789
0.00454371
0.00611122
0.0072237
0.00793542
0.00831553
0.00841304
0.00829409
0.00799498
0.00757378
0.00705084
0.00647737
0.00585771
0.00523483
0.00459496
0.00397782
0.00335491
0.00276234
0.00215652
0.00156908
0.000950669
0.000329879
-0.112655
-0.11933
-0.123135
-0.124879
-0.125927
-0.127014
-0.128211
-0.129291
-0.130034
-0.130332
-0.130166
-0.129546
-0.128472
-0.12693
-0.124892
-0.122335
-0.119246
-0.115621
-0.11147
-0.10681
-0.101669
-0.096084
-0.0901023
-0.0837802
-0.0771827
-0.0703812
-0.0634531
-0.05648
-0.0495478
-0.0427438
-0.0361568
-0.0298722
-0.0239713
-0.0185235
-0.0135863
-0.00919719
-0.00537853
-0.0021296
0.000561409
0.00272723
0.00440356
0.00564426
0.00649575
0.00702001
0.00726106
0.0072803
0.00711186
0.00681112
0.0063985
0.00592335
0.00539137
0.00484466
0.00427242
0.00371263
0.00314117
0.00259164
0.002027
0.0014752
0.000895097
0.000310176
-0.103736
-0.109832
-0.113423
-0.115171
-0.116266
-0.117369
-0.118563
-0.119655
-0.120448
-0.120841
-0.120813
-0.120371
-0.119517
-0.118238
-0.116512
-0.114316
-0.111637
-0.108472
-0.104826
-0.100712
-0.0961519
-0.0911751
-0.085821
-0.0801369
-0.0741784
-0.0680077
-0.0616934
-0.0553086
-0.0489308
-0.0426394
-0.0365157
-0.0306382
-0.0250823
-0.0199134
-0.0151878
-0.0109442
-0.00720893
-0.00398751
-0.00127579
0.000950316
0.00271777
0.00407154
0.00505041
0.00570921
0.00608684
0.00623966
0.00619928
0.00601802
0.00571598
0.0053404
0.00489815
0.0044301
0.00392826
0.00342887
0.0029119
0.00240863
0.00188807
0.00137511
0.000835705
0.000289543
-0.0953692
-0.100896
-0.104245
-0.10596
-0.107072
-0.108175
-0.109351
-0.110441
-0.111268
-0.111739
-0.11183
-0.111547
-0.110891
-0.109855
-0.108414
-0.106549
-0.104248
-0.101507
-0.0983281
-0.0947202
-0.0907002
-0.086292
-0.0815272
-0.0764455
-0.071094
-0.0655262
-0.0598023
-0.0539868
-0.0481493
-0.0423611
-0.036696
-0.0312256
-0.0260196
-0.0211393
-0.0166391
-0.0125581
-0.00892584
-0.00575272
-0.00304119
-0.000774863
0.00106528
0.00251594
0.00360858
0.00439099
0.00489686
0.00517735
0.00526124
0.00519743
0.00500536
0.00472988
0.00437884
0.00399153
0.00356253
0.00312641
0.00266688
0.00221302
0.00173946
0.00126854
0.000772345
0.00026783
-0.087539
-0.0925132
-0.0956062
-0.0972621
-0.0983692
-0.0994537
-0.100601
-0.101674
-0.10252
-0.103051
-0.103244
-0.103101
-0.102623
-0.1018
-0.100617
-0.0990549
-0.0970997
-0.0947468
-0.0919968
-0.0888557
-0.0853359
-0.081456
-0.0772418
-0.0727256
-0.0679472
-0.0629521
-0.0577924
-0.0525246
-0.0472102
-0.0419128
-0.0366987
-0.0316329
-0.0267794
-0.0221951
-0.0179321
-0.0140294
-0.0105183
-0.00741341
-0.00472258
-0.00243615
-0.000542194
0.00098836
0.00218008
0.00307395
0.00369843
0.00409938
0.00430249
0.00435302
0.00426936
0.00409375
0.00383471
0.00352971
0.00317567
0.00280541
0.00240608
0.00200467
0.00158098
0.00115529
0.000704907
0.000244916
-0.0802188
-0.0846746
-0.0875105
-0.0890873
-0.09017
-0.091223
-0.0923293
-0.093375
-0.0942245
-0.094799
-0.095074
-0.0950501
-0.0947263
-0.0940936
-0.0931409
-0.0918517
-0.0902111
-0.0882117
-0.0858532
-0.0831398
-0.0800803
-0.0766887
-0.0729857
-0.0689973
-0.0647567
-0.0603021
-0.0556781
-0.0509336
-0.0461224
-0.0413006
-0.0365275
-0.0318612
-0.0273602
-0.023077
-0.0190608
-0.0153499
-0.0119767
-0.0089587
-0.00630836
-0.00402167
-0.00209297
-0.000500065
0.000775205
0.00176728
0.00249955
0.00301251
0.0033286
0.00348919
0.00351137
0.00343454
0.00326756
0.0030459
0.00276844
0.00246624
0.0021297
0.00178359
0.00141258
0.00103523
0.000633329
0.000220713
-0.0734013
-0.0773734
-0.0799546
-0.0814383
-0.0824814
-0.0834916
-0.0845483
-0.0855558
-0.0863959
-0.0869974
-0.087336
-0.08741
-0.087219
-0.0867552
-0.0860073
-0.0849602
-0.0836007
-0.0819205
-0.0799172
-0.0775931
-0.0749543
-0.0720113
-0.0687799
-0.0652812
-0.0615419
-0.0575941
-0.0534755
-0.0492277
-0.0448973
-0.0405334
-0.0361884
-0.0319139
-0.0277628
-0.0237831
-0.020021
-0.0165133
-0.0132927
-0.0103789
-0.00778781
-0.00552014
-0.0035756
-0.00193818
-0.000595523
0.00048065
0.0013088
0.00192417
0.00234584
0.00261112
0.00273547
0.00275538
0.00267971
0.00254176
0.00234199
0.0021095
0.00183834
0.00154998
0.00123436
0.000908337
0.000557609
0.000195172
-0.0670713
-0.0705932
-0.0729261
-0.0743081
-0.0753011
-0.0762606
-0.0772609
-0.0782222
-0.0790419
-0.079656
-0.0800414
-0.080195
-0.0801162
-0.0797986
-0.0792304
-0.0783967
-0.077286
-0.0758908
-0.074207
-0.0722348
-0.0699781
-0.0674443
-0.0646453
-0.0615976
-0.0583228
-0.054847
-0.0512017
-0.0474221
-0.0435482
-0.0396222
-0.0356899
-0.0317969
-0.0279905
-0.0243141
-0.0208108
-0.0175153
-0.01446
-0.0116659
-0.00915144
-0.00692112
-0.00497922
-0.00331507
-0.00192154
-0.000776038
0.000135214
0.000842325
0.00136105
0.0017246
0.00194653
0.00206018
0.00207413
0.00201947
0.00189789
0.00173648
0.00153294
0.00130428
0.0010466
0.00077474
0.000477814
0.000168285
-0.0612054
-0.0643131
-0.0664094
-0.0676861
-0.0686219
-0.0695256
-0.0704652
-0.0713745
-0.0721651
-0.0727801
-0.0731976
-0.0734137
-0.0734271
-0.0732335
-0.0728195
-0.0721721
-0.0712805
-0.0701377
-0.0687391
-0.0670827
-0.0651704
-0.0630073
-0.060602
-0.0579669
-0.0551193
-0.0520801
-0.0488753
-0.045534
-0.0420902
-0.0385799
-0.0350427
-0.0315184
-0.0280489
-0.0246732
-0.0214307
-0.0183539
-0.0154743
-0.0128134
-0.0103912
-0.00821536
-0.00629376
-0.00462032
-0.00319249
-0.00199284
-0.00101191
-0.000224513
0.000381708
0.000835913
0.00114977
0.00135337
0.00145457
0.001482
0.00143828
0.00134867
0.00120931
0.00104703
0.000849801
0.000634696
0.000394092
0.000140082
-0.0557823
-0.0585129
-0.0603866
-0.0615578
-0.0624327
-0.0632775
-0.0641541
-0.0650079
-0.0657628
-0.0663688
-0.0668059
-0.0670702
-0.0671589
-0.0670645
-0.0667787
-0.0662933
-0.0655951
-0.0646748
-0.0635282
-0.0621529
-0.0605489
-0.058719
-0.0566694
-0.0544092
-0.0519516
-0.0493134
-0.0465154
-0.0435816
-0.0405402
-0.0374217
-0.03426
-0.0310893
-0.0279465
-0.0248661
-0.0218837
-0.0190295
-0.0163334
-0.0138169
-0.0115008
-0.00939505
-0.00751032
-0.00584434
-0.0043985
-0.00315997
-0.00212326
-0.00126771
-0.000584215
-4.7738e-05
0.000351234
0.000639693
0.000824817
0.000932655
0.00096607
0.000948735
0.000879292
0.000780118
0.000644788
0.00048865
0.000306681
0.000110621
-0.0507823
-0.0531711
-0.0548378
-0.0559059
-0.0567183
-0.0575035
-0.0583167
-0.059113
-0.0598277
-0.060417
-0.0608628
-0.0611603
-0.061307
-0.0612961
-0.0611202
-0.0607713
-0.0602386
-0.0595123
-0.0585868
-0.0574593
-0.0561288
-0.0545963
-0.0528658
-0.0509436
-0.0488397
-0.0465669
-0.0441419
-0.0415839
-0.0389164
-0.0361643
-0.0333567
-0.0305225
-0.0276938
-0.0249007
-0.0221753
-0.0195449
-0.0170377
-0.0146743
-0.012476
-0.0104541
-0.00862138
-0.00697864
-0.00553051
-0.00426815
-0.00318963
-0.00227855
-0.00152882
-0.000919141
-0.000442227
-7.46091e-05
0.000189748
0.000374871
0.000484073
0.000538798
0.000539109
0.000504658
0.000432592
0.000337271
0.000215972
8.00311e-05
-0.0461843
-0.0482651
-0.0497412
-0.0507107
-0.0514613
-0.0521877
-0.0529386
-0.0536773
-0.054349
-0.0549158
-0.0553615
-0.0556813
-0.0558724
-0.0559299
-0.0558455
-0.0556116
-0.0552191
-0.0546591
-0.0539253
-0.0530143
-0.0519243
-0.0506549
-0.0492083
-0.0475885
-0.0458027
-0.0438605
-0.0417749
-0.039561
-0.037238
-0.0348261
-0.0323497
-0.029833
-0.0273038
-0.0247878
-0.0223136
-0.0199056
-0.0175898
-0.0153859
-0.0133147
-0.0113884
-0.0096211
-0.00801604
-0.00658044
-0.00530886
-0.00420238
-0.00324838
-0.00244378
-0.00177098
-0.00122455
-0.000783926
-0.000444596
-0.000185622
-3.75897e-06
0.000121183
0.000190762
0.000222098
0.000214334
0.000181315
0.000122401
4.84963e-05
-0.0419674
-0.0437727
-0.0450751
-0.0459518
-0.0466429
-0.0473125
-0.0480035
-0.0486857
-0.0493133
-0.0498539
-0.050293
-0.0506259
-0.05085
-0.050961
-0.0509514
-0.0508137
-0.0505391
-0.0501203
-0.0495513
-0.0488276
-0.0479471
-0.0469085
-0.0457124
-0.0443609
-0.042859
-0.0412135
-0.0394343
-0.037533
-0.0355249
-0.0334263
-0.0312573
-0.0290378
-0.0267915
-0.0245402
-0.0223091
-0.0201194
-0.0179952
-0.0159543
-0.0140171
-0.0121958
-0.0105055
-0.00895101
-0.00754154
-0.00627445
-0.00515344
-0.00416925
-0.00332114
-0.00259504
-0.00198807
-0.00148265
-0.00107467
-0.000745313
-0.00049251
-0.000298672
-0.000161733
-6.53499e-05
-8.48355e-06
2.17634e-05
2.64729e-05
1.60073e-05
-0.0381122
-0.0396723
-0.0408176
-0.0416085
-0.0422432
-0.0428592
-0.0434934
-0.0441215
-0.0447053
-0.0452174
-0.045645
-0.0459838
-0.0462313
-0.0463834
-0.0464351
-0.0463751
-0.0461982
-0.0458979
-0.0454689
-0.0449063
-0.0442071
-0.0433693
-0.0423923
-0.041277
-0.0400263
-0.0386448
-0.03714
-0.0355203
-0.0337978
-0.0319852
-0.0300989
-0.0281551
-0.0261737
-0.0241729
-0.0221745
-0.0201969
-0.0182616
-0.0163849
-0.0145861
-0.0128769
-0.0112729
-0.00977994
-0.00840867
-0.00715869
-0.00603569
-0.00503341
-0.00415346
-0.00338461
-0.00272543
-0.00216183
-0.00169236
-0.00129992
-0.000981242
-0.000720366
-0.000516206
-0.00035487
-0.000233462
-0.000139617
-7.06514e-05
-1.64944e-05
-0.0346003
-0.0359433
-0.0369479
-0.0376602
-0.0382424
-0.0388084
-0.0393897
-0.0399667
-0.0405079
-0.0409903
-0.041403
-0.0417418
-0.0420046
-0.0421869
-0.0422826
-0.0422858
-0.0421912
-0.0419915
-0.0416809
-0.0412555
-0.0407118
-0.0400471
-0.0392602
-0.0383509
-0.0373208
-0.0361724
-0.0349111
-0.033543
-0.0320772
-0.0305235
-0.028895
-0.0272046
-0.0254688
-0.0237026
-0.0219246
-0.0201504
-0.0183991
-0.0166852
-0.0150265
-0.0134343
-0.0119237
-0.0105013
-0.00917861
-0.00795692
-0.00684354
-0.00583464
-0.0049335
-0.00413209
-0.00343118
-0.00281796
-0.00229118
-0.00183835
-0.00145963