/*--------------------------------*- C++ -*----------------------------------*\
| =========                 |                                                 |
| \\      /  F ield         | OpenFOAM: The Open Source CFD Toolbox           |
|  \\    /   O peration     | Version:  2512                                  |
|   \\  /    A nd           | Website:  www.openfoam.com                      |
|    \\/     M anipulation  |                                                 |
\*---------------------------------------------------------------------------*/
FoamFile
{
    version     2.0;
    format      ascii;
    arch        "LSB;label=32;scalar=64";
    class       volScalarField;
    location    "66.5";
    object      p;
}
// * * * * * * * * * * * * * * * * * * * * * * * * * * * * * * * * * * * * * //

dimensions      [0 2 -2 0 0 0 0];

internalField   nonuniform List<scalar> 
13248
(
-0.349458
-0.347563
-0.345499
-0.343368
-0.341251
-0.339221
-0.337258
-0.335257
-0.333054
-0.33044
-0.327187
-0.323075
-0.317912
-0.311562
-0.303961
-0.295121
-0.285132
-0.274148
-0.262362
-0.250013
-0.237249
-0.224401
-0.211026
-0.19782
-0.357377
-0.354746
-0.351914
-0.348993
-0.346064
-0.343212
-0.340414
-0.337543
-0.334402
-0.330756
-0.326367
-0.321027
-0.314588
-0.306979
-0.298215
-0.288389
-0.277656
-0.266212
-0.254265
-0.24202
-0.229639
-0.217301
-0.20491
-0.193001
-0.366359
-0.362867
-0.359191
-0.355434
-0.35165
-0.347919
-0.344194
-0.34031
-0.336036
-0.33112
-0.325341
-0.31854
-0.310646
-0.301681
-0.291748
-0.281011
-0.269668
-0.257925
-0.245972
-0.233978
-0.222058
-0.210351
-0.198778
-0.187625
-0.376684
-0.372177
-0.36758
-0.362948
-0.358261
-0.353563
-0.348758
-0.343636
-0.337942
-0.331444
-0.32398
-0.315486
-0.306
-0.295644
-0.2846
-0.273071
-0.261262
-0.24935
-0.237483
-0.225774
-0.214299
-0.20315
-0.192254
-0.181922
-0.388521
-0.382842
-0.377249
-0.371693
-0.366021
-0.360204
-0.354084
-0.347414
-0.339955
-0.331547
-0.322144
-0.311813
-0.300709
-0.289036
-0.277014
-0.264845
-0.252697
-0.2407
-0.228946
-0.217496
-0.206392
-0.195675
-0.185296
-0.175475
-0.4019
-0.394911
-0.388254
-0.381705
-0.37491
-0.367733
-0.359963
-0.351356
-0.341754
-0.331141
-0.319626
-0.307415
-0.294756
-0.281891
-0.269033
-0.256342
-0.243932
-0.231874
-0.22021
-0.208964
-0.198145
-0.187762
-0.177782
-0.168361
-0.416677
-0.408287
-0.400511
-0.392864
-0.384722
-0.375838
-0.365986
-0.35501
-0.342918
-0.329887
-0.3162
-0.302169
-0.288085
-0.27418
-0.260615
-0.247491
-0.234862
-0.222748
-0.21115
-0.200061
-0.189467
-0.179353
-0.169699
-0.160577
-0.432524
-0.422707
-0.413762
-0.404852
-0.395038
-0.383994
-0.371575
-0.357819
-0.342977
-0.327442
-0.311634
-0.295922
-0.280577
-0.265777
-0.251615
-0.238125
-0.225306
-0.213136
-0.201586
-0.190624
-0.180218
-0.170341
-0.160973
-0.152109
-0.448901
-0.437702
-0.427532
-0.417119
-0.405209
-0.391491
-0.376037
-0.35919
-0.341483
-0.323496
-0.305724
-0.288519
-0.272093
-0.256539
-0.241877
-0.228082
-0.215106
-0.202895
-0.191394
-0.180554
-0.170327
-0.160677
-0.151577
-0.142952
-0.465048
-0.452573
-0.441095
-0.428854
-0.414358
-0.39747
-0.378628
-0.358551
-0.338037
-0.317781
-0.298274
-0.279797
-0.262467
-0.246294
-0.231228
-0.217192
-0.204105
-0.191884
-0.180455
-0.16975
-0.159712
-0.150294
-0.14145
-0.133064
-0.479991
-0.466382
-0.453464
-0.439
-0.421426
-0.400968
-0.378558
-0.355296
-0.332175
-0.309915
-0.288935
-0.269409
-0.251352
-0.234694
-0.219327
-0.205132
-0.191998
-0.179822
-0.168511
-0.157985
-0.148173
-0.139018
-0.13044
-0.122326
-0.492635
-0.478076
-0.463565
-0.446456
-0.425338
-0.401008
-0.374966
-0.34866
-0.323185
-0.299206
-0.277017
-0.256669
-0.238075
-0.22109
-0.205554
-0.191316
-0.178238
-0.166198
-0.155088
-0.144817
-0.135308
-0.12649
-0.11825
-0.11053
-0.29011
-0.292217
-0.293531
-0.29439
-0.295096
-0.295733
-0.296338
-0.29693
-0.297515
-0.298085
-0.298627
-0.299127
-0.299573
-0.299952
-0.300254
-0.300469
-0.300592
-0.300619
-0.300555
-0.300411
-0.300192
-0.299885
-0.299541
-0.29947
-0.291005
-0.293342
-0.294812
-0.295788
-0.296599
-0.297324
-0.297988
-0.298602
-0.299157
-0.299631
-0.299992
-0.300208
-0.30024
-0.300049
-0.299596
-0.29884
-0.297743
-0.29627
-0.294396
-0.29211
-0.28939
-0.286168
-0.282522
-0.279184
-0.29295
-0.295384
-0.296932
-0.297984
-0.298872
-0.299668
-0.300385
-0.301022
-0.301555
-0.301947
-0.302149
-0.302104
-0.301752
-0.301025
-0.299853
-0.298162
-0.29588
-0.292937
-0.289275
-0.284859
-0.279645
-0.273516
-0.266545
-0.259905
-0.295984
-0.298371
-0.299913
-0.300992
-0.301926
-0.302772
-0.303535
-0.304197
-0.304722
-0.305055
-0.30513
-0.304871
-0.304191
-0.302997
-0.301188
-0.298661
-0.295308
-0.291026
-0.285722
-0.279334
-0.271811
-0.263016
-0.25291
-0.242923
-0.30004
-0.302237
-0.303688
-0.30474
-0.305679
-0.306551
-0.307342
-0.308024
-0.308545
-0.30884
-0.308821
-0.308393
-0.307448
-0.305867
-0.303524
-0.300286
-0.296018
-0.290586
-0.283867
-0.275769
-0.266239
-0.255164
-0.242293
-0.228554
-0.304964
-0.306847
-0.30812
-0.309081
-0.309972
-0.310824
-0.311612
-0.312294
-0.312805
-0.313056
-0.312955
-0.312383
-0.311213
-0.309305
-0.306509
-0.302672
-0.297637
-0.291253
-0.283383
-0.273916
-0.262792
-0.249941
-0.235091
-0.218493
-0.310543
-0.31201
-0.313023
-0.31382
-0.314594
-0.315361
-0.316088
-0.316717
-0.317171
-0.317351
-0.317142
-0.316409
-0.315008
-0.312779
-0.309556
-0.30517
-0.299456
-0.292261
-0.283456
-0.272944
-0.260681
-0.246625
-0.230863
-0.212383
-0.316548
-0.31753
-0.318204
-0.318752
-0.319319
-0.319911
-0.320488
-0.320982
-0.321301
-0.32133
-0.320946
-0.319983
-0.318287
-0.315684
-0.311995
-0.307044
-0.30067
-0.292738
-0.283149
-0.271851
-0.258883
-0.244125
-0.228574
-0.209204
-0.322783
-0.323238
-0.3235
-0.323703
-0.323954
-0.324257
-0.324571
-0.324816
-0.324889
-0.324659
-0.32398
-0.322683
-0.320589
-0.317515
-0.313277
-0.307706
-0.300663
-0.292047
-0.281817
-0.269971
-0.256705
-0.241716
-0.226863
-0.208018
-0.329131
-0.329039
-0.328817
-0.328574
-0.328388
-0.328274
-0.328192
-0.328056
-0.327751
-0.32713
-0.326029
-0.324264
-0.321643
-0.317978
-0.313092
-0.306837
-0.299113
-0.289877
-0.279161
-0.267036
-0.253816
-0.239203
-0.225102
-0.207735
-0.335591
-0.334933
-0.33416
-0.333364
-0.332618
-0.331954
-0.331338
-0.330682
-0.329857
-0.328703
-0.327036
-0.324657
-0.321368
-0.316981
-0.311339
-0.304334
-0.295916
-0.286112
-0.275024
-0.262823
-0.249826
-0.236063
-0.222857
-0.207725
-0.342291
-0.341038
-0.339642
-0.338195
-0.336779
-0.335447
-0.334177
-0.332877
-0.331405
-0.32958
-0.327199
-0.32405
-0.319929
-0.314667
-0.308139
-0.300288
-0.291132
-0.280761
-0.269328
-0.257069
-0.24422
-0.231156
-0.218554
-0.206126
-0.29994
-0.300674
-0.301263
-0.301264
-0.30014
-0.297358
-0.292905
-0.285839
-0.275625
-0.2623
-0.246499
-0.229263
-0.212685
-0.198965
-0.189951
-0.187825
-0.19327
-0.205128
-0.220114
-0.233122
-0.238247
-0.231377
-0.210853
-0.180548
-0.147652
-0.118879
-0.0980676
-0.0859996
-0.0817291
-0.0852675
-0.0979996
-0.117782
-0.135908
-0.141739
-0.131989
-0.111985
-0.0910209
-0.0760402
-0.0684109
-0.0667893
-0.0729766
-0.087984
-0.10407
-0.107816
-0.0985659
-0.0811535
-0.0657799
-0.0550697
-0.0494484
-0.0506741
-0.0551529
-0.0565446
-0.0530418
-0.0461253
-0.0385908
-0.0307904
-0.0238272
-0.020673
-0.0159977
-0.00545403
-0.276299
-0.272944
-0.26964
-0.265989
-0.261626
-0.256259
-0.250737
-0.243891
-0.235224
-0.225001
-0.214152
-0.202996
-0.193538
-0.188257
-0.187489
-0.19373
-0.206686
-0.224429
-0.243186
-0.257855
-0.262912
-0.253558
-0.229185
-0.194167
-0.156517
-0.123383
-0.0986055
-0.0829098
-0.0752906
-0.0752511
-0.0838742
-0.0998811
-0.116131
-0.123123
-0.11671
-0.101034
-0.0844571
-0.073464
-0.0690536
-0.0702491
-0.0794941
-0.0974972
-0.115555
-0.118304
-0.107634
-0.0867184
-0.0677887
-0.054244
-0.046138
-0.0447947
-0.0470788
-0.048013
-0.0460282
-0.0417611
-0.0367109
-0.0313835
-0.0264848
-0.024262
-0.0192049
-0.00670185
-0.254091
-0.246622
-0.239509
-0.232289
-0.224718
-0.215742
-0.209816
-0.203248
-0.195724
-0.187908
-0.182349
-0.176405
-0.17437
-0.175839
-0.182997
-0.196663
-0.215885
-0.238208
-0.259724
-0.275546
-0.280446
-0.269618
-0.242453
-0.203915
-0.162658
-0.126159
-0.0982232
-0.0794091
-0.0686853
-0.0652301
-0.069822
-0.0819941
-0.0961104
-0.103841
-0.100495
-0.0890425
-0.0769236
-0.0699885
-0.0688555
-0.0729667
-0.0852864
-0.106151
-0.126144
-0.13124
-0.116051
-0.0917714
-0.0694343
-0.0532107
-0.0428718
-0.0392532
-0.0395372
-0.0399863
-0.0392923
-0.0374266
-0.0347607
-0.0319686
-0.0292569
-0.0280176
-0.0225201
-0.00800473
-0.235068
-0.223681
-0.213168
-0.202899
-0.193318
-0.185055
-0.174098
-0.16766
-0.160606
-0.153199
-0.154863
-0.152676
-0.155566
-0.163408
-0.176993
-0.196383
-0.220235
-0.245809
-0.269237
-0.285908
-0.290887
-0.279313
-0.250488
-0.209754
-0.166157
-0.127374
-0.0971412
-0.0758429
-0.0624143
-0.0558735
-0.0566441
-0.0649651
-0.0766325
-0.0845156
-0.0838224
-0.0763603
-0.068613
-0.0656471
-0.0677141
-0.0747044
-0.0899935
-0.113589
-0.135347
-0.140182
-0.123453
-0.0962171
-0.0707151
-0.0520022
-0.0396923
-0.034119
-0.0326288
-0.0325578
-0.0328985
-0.0331585
-0.032757
-0.0325504
-0.0321207
-0.0318908
-0.0258864
-0.00933267
-0.220414
-0.205315
-0.191871
-0.17883
-0.166708
-0.15539
-0.141948
-0.140287
-0.132779
-0.128366
-0.128856
-0.131592
-0.138969
-0.151573
-0.169717
-0.192994
-0.21983
-0.247422
-0.272
-0.289249
-0.294464
-0.282787
-0.253454
-0.211933
-0.167357
-0.127403
-0.0956733
-0.0725027
-0.0568247
-0.0476128
-0.0449167
-0.0494298
-0.0583979
-0.0658403
-0.0672245
-0.0633498
-0.0597042
-0.0604379
-0.0654987
-0.0752249
-0.0933396
-0.119571
-0.142985
-0.147636
-0.129726
-0.0999932
-0.0716532
-0.0506653
-0.0366329
-0.029415
-0.0263989
-0.0257834
-0.0268955
-0.0289875
-0.0307123
-0.0331296
-0.0350498
-0.0358303
-0.0292474
-0.0106568
-0.210089
-0.192834
-0.176514
-0.161457
-0.147475
-0.134933
-0.123579
-0.116354
-0.110822
-0.108199
-0.109655
-0.115068
-0.125287
-0.140783
-0.161586
-0.187008
-0.215361
-0.243892
-0.268982
-0.286438
-0.291896
-0.280534
-0.251679
-0.210748
-0.166606
-0.126575
-0.0940989
-0.0696061
-0.0521283
-0.0406532
-0.0349894
-0.0358875
-0.0419889
-0.0484684
-0.0512519
-0.0503871
-0.0503675
-0.0543778
-0.0621396
-0.0743886
-0.0951547
-0.123908
-0.148924
-0.153579
-0.134794
-0.103046
-0.0722618
-0.0492353
-0.0337109
-0.0251327
-0.020848
-0.0196805
-0.0213099
-0.0249347
-0.0286344
-0.0337017
-0.0380162
-0.0397889
-0.0325516
-0.0119544
-0.203853
-0.186223
-0.167689
-0.150896
-0.135562
-0.121906
-0.110422
-0.101487
-0.0962679
-0.0943486
-0.0965201
-0.10312
-0.114653
-0.131392
-0.153176
-0.179198
-0.207799
-0.236383
-0.261526
-0.278725
-0.284147
-0.273406
-0.24588
-0.206769
-0.164307
-0.125185
-0.0926431
-0.0673059
-0.0484372
-0.035082
-0.0269203
-0.0245722
-0.0277543
-0.032894
-0.0364022
-0.0378419
-0.0408099
-0.0475662
-0.0576481
-0.072118
-0.0953211
-0.126484
-0.153087
-0.157929
-0.138611
-0.105326
-0.0725403
-0.0477352
-0.0309347
-0.0212386
-0.0159324
-0.0142312
-0.0161487
-0.0210123
-0.0265275
-0.0342581
-0.0409917
-0.0437286
-0.0357603
-0.0132077
-0.200773
-0.183846
-0.164531
-0.146605
-0.130364
-0.115773
-0.103405
-0.0940372
-0.0884624
-0.0865074
-0.0886515
-0.0953461
-0.106952
-0.123594
-0.145006
-0.170366
-0.19813
-0.225994
-0.251283
-0.267082
-0.272213
-0.262321
-0.236848
-0.200567
-0.160773
-0.123365
-0.0913512
-0.065597
-0.0457123
-0.0308558
-0.0206456
-0.0155022
-0.0158182
-0.0193697
-0.0229816
-0.0259803
-0.0312695
-0.0401511
-0.0520906
-0.0684252
-0.0937578
-0.127206
-0.15541
-0.160622
-0.141162
-0.10681
-0.0724975
-0.0461914
-0.0283182
-0.0177061
-0.0115896
-0.00938855
-0.0114027
-0.0172244
-0.0243926
-0.0347864
-0.0439476
-0.0476184
-0.0388635
-0.0144051
-0.199578
-0.18401
-0.165497
-0.147633
-0.13116
-0.116229
-0.103076
-0.0930063
-0.0866021
-0.0840143
-0.0854153
-0.0912854
-0.101932
-0.1174
-0.137384
-0.161081
-0.187016
-0.213257
-0.23979
-0.252233
-0.256989
-0.24823
-0.225445
-0.192761
-0.156339
-0.121238
-0.0902577
-0.064484
-0.0439194
-0.0279209
-0.0160659
-0.00861421
-0.00622986
-0.00797547
-0.0111945
-0.0149349
-0.0219541
-0.032309
-0.0455507
-0.0632502
-0.0904336
-0.126105
-0.155914
-0.161628
-0.142489
-0.107573
-0.0722454
-0.0447116
-0.0259187
-0.0145427
-0.00778625
-0.00509922
-0.00704379
-0.0135662
-0.0222239
-0.0352702
-0.0468541
-0.0514246
-0.0424118
-0.0155452
-0.198661
-0.184553
-0.168089
-0.151638
-0.135899
-0.120886
-0.107274
-0.0969943
-0.0896104
-0.0859676
-0.0859937
-0.0903147
-0.099206
-0.112676
-0.130422
-0.151653
-0.174882
-0.197637
-0.215154
-0.233732
-0.239414
-0.232389
-0.212915
-0.184415
-0.151862
-0.119502
-0.0899592
-0.0644964
-0.0434831
-0.0265783
-0.0133553
-0.00396526
0.000910953
0.00120732
-0.00116826
-0.00466306
-0.0129857
-0.0241601
-0.0381862
-0.0568476
-0.0854271
-0.123019
-0.154572
-0.161005
-0.142697
-0.107777
-0.0719755
-0.0434774
-0.0238295
-0.0117486
-0.00450212
-0.00135576
-0.00304078
-0.0100182
-0.0200187
-0.0356848
-0.0496699
-0.0550902
-0.0453282
-0.0166089
-0.198082
-0.18446
-0.169509
-0.154527
-0.140114
-0.12644
-0.113527
-0.103212
-0.0955056
-0.0908698
-0.0891651
-0.0913746
-0.0979098
-0.108793
-0.123801
-0.142234
-0.162699
-0.183224
-0.200702
-0.21455
-0.220379
-0.215512
-0.199933
-0.176152
-0.147893
-0.118609
-0.090777
-0.0658556
-0.0445365
-0.0268553
-0.0125041
-0.00147981
0.00571093
0.0083258
0.00709275
0.00482554
-0.00460461
-0.0158542
-0.0299421
-0.0489202
-0.0787191
-0.118572
-0.151663
-0.159395
-0.141586
-0.107146
-0.0713803
-0.0422815
-0.021913
-0.00916165
-0.00154573
0.00190619
0.000536907
-0.00657464
-0.0177337
-0.0359969
-0.0523676
-0.0585739
-0.0480312
-0.0175755
-0.198831
-0.189708
-0.178761
-0.165238
-0.150637
-0.136663
-0.124311
-0.113291
-0.104232
-0.0979007
-0.0947887
-0.0948699
-0.0985888
-0.106205
-0.11757
-0.132102
-0.148802
-0.166579
-0.181634
-0.194024
-0.199068
-0.195923
-0.183947
-0.164553
-0.140376
-0.114223
-0.0884307
-0.0646136
-0.0436291
-0.0257697
-0.010999
0.000840341
0.00969292
0.0145473
0.0144394
0.00862003
0.00293354
-0.00779936
-0.0216334
-0.0404691
-0.0706324
-0.111743
-0.146419
-0.152454
-0.138215
-0.104396
-0.0689835
-0.0399235
-0.0194268
-0.00636399
0.00150377
0.00512823
0.0038585
-0.00323743
-0.0154309
-0.0361639
-0.0548517
-0.0618225
-0.050463
-0.0184042
-0.187779
-0.185297
-0.17496
-0.161959
-0.149154
-0.137129
-0.125936
-0.115826
-0.107437
-0.101337
-0.0978132
-0.0971037
-0.099746
-0.105987
-0.115712
-0.128392
-0.143129
-0.159006
-0.171474
-0.181392
-0.185141
-0.181251
-0.169473
-0.151206
-0.12878
-0.104619
-0.0807075
-0.0584388
-0.0385614
-0.0213446
-0.00683073
0.00506495
0.0143798
0.0204103
0.021892
0.0181828
0.0128085
0.00293494
-0.0100416
-0.0286728
-0.0603374
-0.10538
-0.144435
-0.160857
-0.135442
-0.100272
-0.0649234
-0.0362806
-0.0162557
-0.00343735
0.00456876
0.00859138
0.00853072
0.000642373
-0.0126193
-0.0359583
-0.0572021
-0.0649054
-0.05264
-0.0190627
-0.177486
-0.177146
-0.167845
-0.155785
-0.144457
-0.134271
-0.124877
-0.116328
-0.10907
-0.103582
-0.100263
-0.0994974
-0.101625
-0.106783
-0.114836
-0.125258
-0.137081
-0.148412
-0.159466
-0.166718
-0.16851
-0.163824
-0.152666
-0.136183
-0.116207
-0.0946393
-0.073072
-0.0526884
-0.0341547
-0.0177875
-0.00377864
0.00797957
0.0176784
0.0246316
0.027239
0.0246531
0.0198222
0.0114193
-0.000317788
-0.0184816
-0.0512873
-0.0990977
-0.140149
-0.152763
-0.129209
-0.0943116
-0.0601405
-0.032618
-0.0132366
-0.000658802
0.00733253
0.0114663
0.0114967
0.00380592
-0.0102524
-0.0358838
-0.0594021
-0.0675395
-0.0543379
-0.0195331
-0.16686
-0.167486
-0.159885
-0.149377
-0.139542
-0.130958
-0.123161
-0.116001
-0.109795
-0.105022
-0.102099
-0.101323
-0.102898
-0.106895
-0.11315
-0.121171
-0.130164
-0.138926
-0.146798
-0.15157
-0.151914
-0.14709
-0.137065
-0.122599
-0.105021
-0.0858213
-0.0663192
-0.0475699
-0.0302321
-0.0146387
-0.0010458
0.010544
0.0203729
0.0279294
0.031669
0.0306004
0.0265112
0.0191701
0.00812912
-0.0103573
-0.0444199
-0.0928212
-0.133142
-0.143769
-0.121337
-0.0875778
-0.0550189
-0.0287996
-0.0101581
0.00209057
0.0100643
0.0142999
0.014448
0.00667347
-0.00830581
-0.036055
-0.0614839
-0.0698212
-0.055704
-0.0198886
-0.155429
-0.157356
-0.151666
-0.142853
-0.134434
-0.127212
-0.120772
-0.11484
-0.109614
-0.105502
-0.102861
-0.101929
-0.102852
-0.105659
-0.110191
-0.116065
-0.122682
-0.129097
-0.134418
-0.137303
-0.136695
-0.131932
-0.122897
-0.110107
-0.0945638
-0.0774503
-0.0598517
-0.0426739
-0.0265369
-0.011767
0.00136144
0.0127138
0.0225036
0.0304674
0.0353036
0.0358441
0.0329603
0.0269519
0.0165146
-0.0025949
-0.0374399
-0.0850765
-0.124124
-0.133334
-0.111939
-0.0798854
-0.0493513
-0.024749
-0.00702396
0.00480577
0.0127578
0.0171359
0.0175154
0.00957587
-0.00641263
-0.0361366
-0.0632814
-0.0717205
-0.0566925
-0.0201024
-0.144106
-0.147205
-0.143193
-0.135971
-0.12887
-0.122837
-0.117559
-0.112708
-0.108354
-0.104808
-0.102379
-0.101277
-0.101616
-0.1034
-0.106497
-0.110601
-0.115201
-0.119564
-0.122932
-0.124356
-0.122976
-0.118236
-0.110017
-0.0986748
-0.084937
-0.0697067
-0.0538546
-0.038146
-0.0231602
-0.00922822
0.00338808
0.0144646
0.0241131
0.0322707
0.0379387
0.0399033
0.0386396
0.0343418
0.0249406
0.00567956
-0.0293244
-0.0758665
-0.113271
-0.121091
-0.101024
-0.0713581
-0.0432743
-0.0205347
-0.00386951
0.00746376
0.0153948
0.0199532
0.0206253
0.0126166
-0.00433954
-0.0358984
-0.0646721
-0.0731007
-0.0571722
-0.0201301
-0.133298
-0.137058
-0.134425
-0.128666
-0.122801
-0.117833
-0.113558
-0.109637
-0.106048
-0.103014
-0.100799
-0.0995867
-0.0994663
-0.10043
-0.102358
-0.104992
-0.107927
-0.110618
-0.112446
-0.112683
-0.110671
-0.105974
-0.0984665
-0.0883662
-0.0761832
-0.0625999
-0.0483164
-0.033975
-0.0200975
-0.00701741
0.00502599
0.0157758
0.0252164
0.033378
0.0395843
0.0426834
0.0429909
0.040606
0.0327739
0.0139782
-0.0207525
-0.0656722
-0.100614
-0.107124
-0.0888713
-0.0621992
-0.0369017
-0.0162084
-0.000725327
0.0100408
0.0179437
0.0227284
0.0237458
0.0157931
-0.00204321
-0.0352583
-0.0654888
-0.0737597
-0.0570022
-0.0199308
-0.12275
-0.126929
-0.12547
-0.121029
-0.116296
-0.11228
-0.108871
-0.105748
-0.102832
-0.100272
-0.0982797
-0.0970132
-0.0965425
-0.0968538
-0.0978427
-0.0992976
-0.100914
-0.102276
-0.102885
-0.102194
-0.0997086
-0.0950786
-0.0881714
-0.0791106
-0.0682542
-0.0561146
-0.0432461
-0.0301794
-0.0173683
-0.00514013
0.00627654
0.0166319
0.0258177
0.0338596
0.040262
0.0441533
0.04572
0.045083
0.0390071
0.0211425
-0.0125835
-0.0547818
-0.0863771
-0.0917688
-0.0758574
-0.0526662
-0.0303922
-0.0118486
0.00236994
0.0125137
0.0203718
0.0254307
0.0268405
0.0190696
0.000452813
-0.0341252
-0.0655128
-0.0734879
-0.0560496
-0.0194662
-0.112477
-0.116986
-0.116491
-0.113183
-0.109451
-0.106273
-0.103608
-0.101167
-0.0988374
-0.0967057
-0.094936
-0.0936591
-0.0929336
-0.0927458
-0.0930094
-0.0935612
-0.0941584
-0.0944863
-0.0941622
-0.092776
-0.0899477
-0.0853962
-0.0789977
-0.0708185
-0.0611059
-0.0502372
-0.0386436
-0.02676
-0.0149736
-0.00359225
0.00715684
0.0170453
0.025925
0.0337635
0.0401772
0.0444698
0.046808
0.0473886
0.0428113
0.0263336
-0.00513697
-0.0433065
-0.0708914
-0.075536
-0.0624754
-0.0430709
-0.0239188
-0.00754188
0.00537545
0.0148614
0.0226461
0.0280156
0.0298562
0.022402
0.00315793
-0.0323433
-0.0645081
-0.0720777
-0.0541954
-0.0187038
-0.10271
-0.107354
-0.107591
-0.105227
-0.102359
-0.0999064
-0.0978759
-0.0960138
-0.0941863
-0.0924356
-0.0908834
-0.0896363
-0.0887455
-0.0881996
-0.0879245
-0.0877994
-0.087634
-0.0871884
-0.0861739
-0.0842809
-0.0812195
-0.0767692
-0.0708214
-0.0634047
-0.0546853
-0.044938
-0.0344946
-0.0237082
-0.0129053
-0.002364
0.00769148
0.0170489
0.0255518
0.0331124
0.0394039
0.0438383
0.0465008
0.047619
0.0440441
0.0294677
0.00166787
-0.0313409
-0.0547236
-0.0591989
-0.0493237
-0.0337459
-0.0176544
-0.0033791
0.00824712
0.0170632
0.0247357
0.0304293
0.0327291
0.0257532
0.00612634
-0.0297364
-0.0622409
-0.0693375
-0.0513526
-0.0176244
-0.0934569
-0.0980616
-0.0988394
-0.0972517
-0.0951163
-0.0932796
-0.0917833
-0.0904057
-0.0890056
-0.0875913
-0.0862506
-0.0850687
-0.0840888
-0.0833025
-0.0826521
-0.0820367
-0.0813196
-0.0803168
-0.0788111
-0.076571
-0.0733779
-0.0690605
-0.0635257
-0.0567789
-0.0489303
-0.0401789
-0.0307773
-0.0210086
-0.0111465
-0.00143579
0.007909
0.0166859
0.024739
0.0319479
0.0380124
0.0424182
0.0451323
0.046306
0.0433309
0.0310624
0.00789719
-0.0194237
-0.0389424
-0.0437277
-0.0370117
-0.0250001
-0.0117517
0.000554313
0.0109408
0.0190967
0.0266139
0.0326197
0.0354014
0.0290928
0.00941894
-0.0261557
-0.0584977
-0.0651208
-0.0474936
-0.0162286
-0.0846518
-0.0891417
-0.0903153
-0.0893498
-0.0878184
-0.0864937
-0.0854396
-0.0844636
-0.0834236
-0.0823042
-0.0811653
-0.0800738
-0.0790652
-0.0781336
-0.0772346
-0.0762908
-0.0751966
-0.0738146
-0.0719839
-0.0695328
-0.0662973
-0.0621453
-0.0569991
-0.0508526
-0.0437777
-0.0359176
-0.0274633
-0.0186393
-0.0096736
-0.000779048
0.00784513
0.0160067
0.0235518
0.0303395
0.0360876
0.0403524
0.0429959
0.0440351
0.0414986
0.0316388
0.0132148
-0.00864792
-0.024822
-0.0299947
-0.0260114
-0.0170639
-0.00632657
0.0041852
0.013415
0.0209391
0.0282568
0.03454
0.0378391
0.0323934
0.0130773
-0.0215151
-0.0531329
-0.0593694
-0.0426654
-0.0145423
-0.0763292
-0.0806444
-0.0820825
-0.0815987
-0.0805538
-0.0796458
-0.0789512
-0.0783031
-0.0775629
-0.0766987
-0.0757487
-0.074764
-0.0737735
-0.0727738
-0.0717313
-0.0705857
-0.0692556
-0.06764
-0.0656206
-0.0630708
-0.0598684
-0.0559127
-0.0511414
-0.0455432
-0.0391647
-0.0321086
-0.0245188
-0.0165722
-0.00845752
-0.000358337
0.00754375
0.015068
0.0220642
0.0283773
0.0337445
0.0377927
0.0403147
0.041203
0.0390708
0.0313696
0.0171245
2.74706e-05
-0.0132283
-0.0184922
-0.0165579
-0.0100651
-0.00145318
0.00745828
0.01563
0.0225677
0.0296395
0.0361401
0.0400316
0.0356261
0.0171012
-0.0158443
-0.0461464
-0.0521096
-0.0369958
-0.0126182
-0.0685148
-0.0725888
-0.07418
-0.0740603
-0.0734005
-0.0728251
-0.072417
-0.0720319
-0.0715376
-0.0708914
-0.070115
-0.0692466
-0.0683094
-0.0673016
-0.066197
-0.0649491
-0.063496
-0.0617629
-0.0596637
-0.0571058
-0.0539991
-0.0502681
-0.045864
-0.0407747
-0.0350302
-0.0287044
-0.0219062
-0.0147746
-0.00746463
-0.000134095
0.00705404
0.013933
0.0203556
0.0261609
0.0311104
0.0348907
0.0372612
0.0380367
0.0362795
0.0303256
0.0194811
0.00634306
-0.00428885
-0.00925699
-0.00866981
-0.00404241
0.00282763
0.0103394
0.017549
0.0239559
0.030739
0.0373608
0.0419241
0.0386729
0.021363
-0.00934927
-0.0377058
-0.04332
-0.0307292
-0.0105398
-0.0611833
-0.0649782
-0.0666399
-0.0667881
-0.0664268
-0.0661112
-0.0659262
-0.0657476
-0.0654517
-0.0649893
-0.0643698
-0.0636211
-0.0627612
-0.0617892
-0.0606849
-0.0594117
-0.0579224
-0.0561619
-0.0540681
-0.0515737
-0.0486132
-0.0451306
-0.0410889
-0.036477
-0.0313151
-0.025657
-0.0195858
-0.0132105
-0.00665804
-6.40727e-05
0.00642814
0.0126671
0.0185071
0.0237911
0.0283094
0.0317928
0.0339975
0.0347074
0.0332979
0.028731
0.0205798
0.0106505
0.00231796
-0.00207261
-0.00224541
0.00102685
0.00649854
0.0128113
0.0191451
0.0250677
0.0315332
0.0381466
0.0432796
0.0411756
0.0255015
-0.00240671
-0.0281923
-0.0339656
-0.0242555
-0.00841806
-0.0543198
-0.0578192
-0.0594884
-0.059825
-0.059689
-0.0595713
-0.0595556
-0.0595354
-0.0593967
-0.0590873
-0.0586076
-0.057977
-0.0572089
-0.0563029
-0.0552438
-0.054003
-0.0525432
-0.0508238
-0.0487999
-0.0464237
-0.0436478
-0.0404315
-0.0367474
-0.0325869
-0.0279643
-0.0229195
-0.0175166
-0.0118419
-0.00599916
-0.000104274
0.00571818
0.0113319
0.0165972
0.0213637
0.0254562
0.0286362
0.0306784
0.0313694
0.030299
0.0268527
0.020814
0.0134442
0.00704956
0.00337779
0.00287068
0.00520056
0.00956277
0.0148655
0.0204077
0.0258611
0.0319731
0.0384485
0.0437763
0.0426038
0.0289546
0.00442843
-0.0182987
-0.0245798
-0.0180133
-0.00637828
-0.047919
-0.0511131
-0.0527412
-0.0532028
-0.0532324
-0.0532615
-0.0533705
-0.0534684
-0.0534516
-0.0532676
-0.0529101
-0.0523924
-0.0517241
-0.0509032
-0.049919
-0.048751
-0.0473688
-0.0457402
-0.0438334
-0.0416148
-0.039051
-0.0361127
-0.0327803
-0.0290479
-0.0249265
-0.0204467
-0.0156586
-0.010631
-0.00544895
-0.000211226
0.00497423
0.00998702
0.0146977
0.0189617
0.0226519
0.0255407
0.0274351
0.0281472
0.0274117
0.024887
0.0205005
0.0151319
0.010349
0.00742803
0.00685427
0.00855241
0.0120428
0.0165001
0.0213344
0.0263012
0.0319739
0.0381803
0.0431966
0.0426087
0.031167
0.0104006
-0.00907707
-0.0159664
-0.012415
-0.00453468
-0.0419645
-0.044853
-0.0464062
-0.0469438
-0.0470913
-0.047226
-0.0474234
-0.0476065
-0.0476818
-0.0475987
-0.0473466
-0.0469337
-0.046367
-0.0456428
-0.0447525
-0.0436834
-0.0424105
-0.0409071
-0.0391496
-0.0371151
-0.0347807
-0.0321257
-0.0291367
-0.0258101
-0.0221553
-0.0181965
-0.0139734
-0.00954147
-0.00497074
-0.000344102
0.00424464
0.00868996
0.0128741
0.0166465
0.019981
0.0226011
0.0243671
0.0251279
0.0247141
0.0229511
0.0198562
0.0160382
0.0125655
0.0103572
0.00987141
0.0111644
0.0139759
0.0177226
0.0219218
0.0263711
0.0314786
0.0372773
0.0414758
0.0411605
0.0318673
0.0148495
-0.00146509
-0.0086956
-0.00771775
-0.00295906
-0.0364392
-0.03903
-0.0404859
-0.0410621
-0.04129
-0.0414977
-0.0417549
-0.0419966
-0.0421397
-0.0421363
-0.0419737
-0.0416557
-0.0411873
-0.0405651
-0.0397804
-0.0388261
-0.0376806
-0.0363227
-0.0347343
-0.0328995
-0.0308029
-0.0284306
-0.0257736
-0.0228305
-0.0196096
-0.0161306
-0.0124257
-0.00853994
-0.00453072
-0.00046756
0.00356972
0.00749103
0.0112
0.0145996
0.0175243
0.0198871
0.021542
0.0223649
0.0222469
0.0211112
0.0190216
0.0164008
0.0139693
0.0123954
0.0120746
0.0131195
0.0154084
0.018552
0.0221703
0.026078
0.0304806
0.0349652
0.0388177
0.0385741
0.0311592
0.0175431
0.00412028
-0.00307797
-0.00398663
-0.00167386
-0.0313266
-0.0336323
-0.0349772
-0.0355646
-0.0358443
-0.0360996
-0.0363944
-0.0366739
-0.0368651
-0.0369236
-0.0368358
-0.0366028
-0.0362278
-0.0357084
-0.0350376
-0.0341996
-0.0331886
-0.0319861
-0.0305767
-0.0289483
-0.0270907
-0.0249949
-0.0226556
-0.0200727
-0.0172539
-0.0142156
-0.0109842
-0.00759653
-0.00409997
-0.000552482
0.00297872
0.00641669
0.0096792
0.0126756
0.015294
0.0174371
0.018998
0.0198838
0.0200262
0.0194018
0.0180874
0.0163798
0.0147718
0.0137372
0.0136038
0.0145013
0.0163893
0.019018
0.0221011
0.0254634
0.0291759
0.0328623
0.0357222
0.0353632
0.0294876
0.018756
0.00783293
0.000814057
-0.00115172
-0.000667187
-0.0266079
-0.0286455
-0.0298732
-0.0304524
-0.0307623
-0.0310464
-0.0313619
-0.0316632
-0.0318868
-0.0319924
-0.0319661
-0.0318075
-0.0315181
-0.0310953
-0.0305303
-0.0298137
-0.0289405
-0.027897
-0.0266688
-0.0252463
-0.0236226
-0.0217928
-0.0197537
-0.0175067
-0.0150585
-0.0124232
-0.00962256
-0.00668694
-0.00365513
-0.000575611
0.00249513
0.00549282
0.00834788
0.0109827
0.0133233
0.0152735
0.016752
0.0176922
0.0180528
0.0178341
0.017111
0.0160978
0.0151267
0.0145347
0.0145806
0.0153916
0.0169685
0.019158
0.021751
0.0245807
0.0276224
0.0305065
0.0325054
0.0319741
0.0273166
0.0189234
0.0100978
0.0037086
0.000945135
9.27939e-05
-0.0222654
-0.0240542
-0.0251638
-0.0257218
-0.0260462
-0.026345
-0.0266691
-0.0269803
-0.0272241
-0.0273647
-0.0273885
-0.0272939
-0.0270811
-0.0267474
-0.0262862
-0.0256901
-0.0249488
-0.0240576
-0.0230046
-0.0217812
-0.0203818
-0.0188034
-0.0170449
-0.0151082
-0.0129996
-0.0107309
-0.00832005
-0.00579202
-0.00317892
-0.000520528
0.00213643
0.0047379
0.00722415
0.00953085
0.0116249
0.0134035
0.0148051
0.0157841
0.0163155
0.0164089
0.0161332
0.01564
0.0151513
0.0149083
0.0151103
0.0158669
0.0171993
0.0190147
0.0211635
0.0234888
0.0259032
0.0280611
0.0293708
0.0286866
0.0249666
0.0184089
0.0113012
0.00565421
0.00242524
0.000641362
-0.0182816
-0.0198421
-0.0208364
-0.0213649
-0.0216929
-0.0219966
-0.0223204
-0.0226331
-0.0228879
-0.0230536
-0.0231175
-0.0230773
-0.0229324
-0.0226801
-0.0223145
-0.0218278
-0.021214
-0.0204663
-0.0195789
-0.0185436
-0.0173552
-0.0160112
-0.0145117
-0.0128591
-0.011059
-0.00912151
-0.00706121
-0.00489857
-0.00265955
-0.000376645
0.0019116
0.00415939
0.00631618
0.00832048
0.0102027
0.011823
0.0131467
0.0141434
0.0147984
0.015125
0.0151783
0.015065
0.0149352
0.0149592
0.0152844
0.016
0.0171354
0.0186325
0.0203841
0.0222465
0.024102
0.0256494
0.0264302
0.0256374
0.022628
0.0174796
0.0117484
0.00680531
0.00339635
0.00101321
-0.0146386
-0.0159918
-0.0168766
-0.0173713
-0.0176956
-0.0179973
-0.018315
-0.0186232
-0.0188824
-0.0190656
-0.0191612
-0.0191666
-0.0190808
-0.0189011
-0.0186223
-0.0182374
-0.0177389
-0.0171228
-0.0163879
-0.0155267
-0.0145329
-0.0134043
-0.0121412
-0.0107462
-0.00922411
-0.0075835
-0.0058363
-0.00399879
-0.00209188
-0.000141793
0.00182133
0.00376158
0.00564015
0.00741793
0.00906108
0.0105197
0.0117576
0.012749
0.0134846
0.0139754
0.0142612
0.0144177
0.0145477
0.0147658
0.0151797
0.0158578
0.0168295
0.0180558
0.01946
0.0209122
0.0222961
0.0233469
0.0237321
0.0228774
0.0204024
0.0163207
0.0116712
0.00736956
0.00396352
0.00124207
-0.0113192
-0.0124863
-0.0132692
-0.0137284
-0.0140442
-0.0143396
-0.0146476
-0.0149474
-0.0152062
-0.0154009
-0.0155212
-0.0155644
-0.0155292
-0.015413
-0.0152113
-0.014918
-0.0145271
-0.0140337
-0.0134331
-0.0127267
-0.011908
-0.0109737
-0.00992396
-0.00876039
-0.00748692
-0.00611052
-0.00464095
-0.00309134
-0.00147796
0.000178849
0.00185575
0.00352573
0.00515959
0.00672806
0.00815982
0.00946444
0.0106108
0.0115766
0.0123541
0.01295
0.0133925
0.0137324
0.0140403
0.0143908
0.0148613
0.0155006
0.0163325
0.0173297
0.0184366
0.0195355
0.0205315
0.021195
0.0212904
0.0204106
0.0183385
0.0150539
0.0112435
0.00751763
0.00422178
0.00135923
-0.00830722
-0.00930873
-0.00999831
-0.0104222
-0.0107267
-0.0110132
-0.0113095
-0.0115987
-0.0118538
-0.0120554
-0.0121946
-0.0122686
-0.0122761
-0.0122147
-0.0120802
-0.0118677
-0.0115722
-0.0111888
-0.010713
-0.010141
-0.00947588
-0.00871452
-0.0078547
-0.00689665
-0.00584342
-0.00470069
-0.00347618
-0.00218014
-0.000825173
0.000573077
0.00199713
0.00342708
0.00484286
0.00622954
0.00746347
0.00862329
0.00967587
0.0105993
0.0113859
0.0120391
0.0125775
0.0130334
0.013455
0.0138873
0.0143852
0.0149814
0.015693
0.0164971
0.0173545
0.0181683
0.0188451
0.0192117
0.0190996
0.0182199
0.0164532
0.0137605
0.0105888
0.00730252
0.00424673
0.00139227
-0.00558683