/*--------------------------------*- C++ -*----------------------------------*\
| =========                 |                                                 |
| \\      /  F ield         | OpenFOAM: The Open Source CFD Toolbox           |
|  \\    /   O peration     | Version:  2512                                  |
|   \\  /    A nd           | Website:  www.openfoam.com                      |
|    \\/     M anipulation  |                                                 |
\*---------------------------------------------------------------------------*/
FoamFile
{
    version     2.0;
    format      ascii;
    arch        "LSB;label=32;scalar=64";
    class       volScalarField;
    location    "151";
    object      p;
}
// * * * * * * * * * * * * * * * * * * * * * * * * * * * * * * * * * * * * * //

dimensions      [0 2 -2 0 0 0 0];

internalField   nonuniform List<scalar> 
13248
(
-0.425075
-0.42271
-0.420526
-0.418558
-0.416762
-0.415071
-0.413287
-0.411092
-0.408098
-0.403886
-0.398061
-0.390299
-0.380397
-0.368301
-0.354115
-0.338087
-0.320571
-0.301984
-0.282751
-0.263285
-0.243876
-0.22488
-0.206001
-0.187655
-0.433951
-0.430758
-0.427656
-0.424697
-0.421838
-0.419029
-0.416064
-0.4126
-0.408224
-0.402516
-0.395116
-0.38578
-0.374417
-0.361104
-0.346062
-0.32962
-0.312166
-0.294098
-0.275786
-0.257546
-0.239617
-0.222224
-0.205286
-0.189218
-0.443667
-0.439558
-0.4355
-0.43153
-0.427579
-0.423583
-0.419311
-0.414386
-0.408385
-0.400919
-0.391711
-0.380642
-0.367765
-0.353284
-0.337511
-0.320813
-0.303561
-0.286096
-0.268703
-0.25161
-0.234977
-0.218958
-0.203482
-0.188694
-0.454609
-0.449451
-0.444387
-0.439391
-0.434299
-0.429002
-0.42322
-0.416552
-0.408599
-0.399064
-0.387811
-0.374882
-0.360479
-0.344911
-0.328532
-0.311696
-0.294715
-0.277845
-0.261282
-0.245171
-0.229614
-0.214709
-0.200387
-0.186835
-0.466998
-0.460639
-0.45451
-0.448443
-0.442112
-0.43532
-0.427739
-0.418977
-0.408727
-0.396851
-0.383401
-0.368596
-0.352757
-0.336244
-0.319401
-0.30252
-0.285828
-0.269491
-0.253628
-0.238316
-0.223613
-0.209562
-0.196116
-0.183407
-0.480852
-0.47316
-0.465901
-0.458682
-0.450934
-0.442353
-0.432591
-0.421339
-0.408463
-0.394047
-0.378353
-0.361744
-0.344609
-0.327296
-0.31009
-0.293197
-0.276756
-0.260855
-0.24555
-0.230872
-0.216839
-0.203462
-0.19071
-0.178675
-0.495978
-0.486869
-0.478416
-0.469905
-0.460465
-0.449694
-0.437303
-0.423166
-0.407409
-0.390369
-0.372493
-0.354229
-0.335964
-0.317986
-0.30049
-0.283593
-0.267355
-0.251804
-0.236945
-0.222775
-0.209285
-0.196461
-0.184283
-0.172777
-0.511966
-0.501425
-0.491712
-0.481698
-0.470182
-0.456737
-0.441253
-0.423903
-0.40513
-0.385508
-0.365604
-0.345877
-0.326651
-0.308121
-0.290387
-0.273483
-0.257406
-0.242136
-0.227643
-0.213897
-0.200868
-0.188526
-0.176854
-0.165809
-0.528189
-0.516274
-0.505219
-0.493408
-0.479347
-0.462717
-0.443741
-0.422988
-0.401218
-0.379181
-0.357475
-0.336501
-0.31648
-0.297503
-0.279581
-0.262679
-0.246746
-0.231722
-0.217553
-0.204185
-0.191572
-0.179676
-0.168466
-0.157846
-0.543793
-0.530619
-0.51811
-0.504131
-0.487023
-0.466761
-0.44405
-0.419893
-0.395309
-0.371126
-0.34789
-0.325893
-0.305238
-0.285917
-0.267865
-0.250992
-0.235209
-0.220427
-0.206569
-0.193563
-0.18135
-0.169881
-0.159105
-0.148896
-0.557722
-0.543437
-0.529311
-0.512745
-0.49212
-0.467916
-0.441419
-0.414031
-0.386931
-0.360923
-0.33644
-0.31364
-0.29251
-0.272955
-0.254849
-0.23806
-0.222465
-0.207955
-0.19443
-0.181805
-0.170008
-0.158977
-0.148628
-0.138849
-0.568821
-0.553607
-0.537686
-0.518102
-0.493546
-0.4652
-0.434975
-0.4046
-0.375307
-0.347795
-0.322341
-0.298961
-0.277534
-0.257888
-0.239844
-0.223235
-0.207912
-0.193744
-0.180618
-0.168436
-0.157117
-0.146584
-0.136728
-0.127481
-0.341978
-0.344423
-0.345862
-0.346766
-0.347585
-0.34848
-0.349531
-0.350779
-0.352237
-0.3539
-0.355763
-0.357828
-0.360099
-0.362587
-0.365305
-0.368262
-0.37146
-0.374888
-0.378517
-0.382292
-0.386096
-0.389721
-0.393
-0.396184
-0.342779
-0.345861
-0.34772
-0.348938
-0.350025
-0.351129
-0.352302
-0.353554
-0.354863
-0.356185
-0.357467
-0.358656
-0.359699
-0.360543
-0.361141
-0.361447
-0.361419
-0.361018
-0.360218
-0.359001
-0.357295
-0.354915
-0.351942
-0.349564
-0.34515
-0.348649
-0.350821
-0.352308
-0.353647
-0.354959
-0.356265
-0.357541
-0.358727
-0.359735
-0.360462
-0.360796
-0.360618
-0.35981
-0.358259
-0.355855
-0.352503
-0.348125
-0.342685
-0.336183
-0.328574
-0.319669
-0.309727
-0.301032
-0.349318
-0.352971
-0.35532
-0.35702
-0.358584
-0.360099
-0.361552
-0.362885
-0.363997
-0.364755
-0.365007
-0.364579
-0.363293
-0.360964
-0.357412
-0.35247
-0.345991
-0.33786
-0.328017
-0.316475
-0.303236
-0.28815
-0.271467
-0.25617
-0.355282
-0.358806
-0.361164
-0.363014
-0.36476
-0.36646
-0.368063
-0.369475
-0.370557
-0.371133
-0.370999
-0.369931
-0.367689
-0.36403
-0.358719
-0.351539
-0.342308
-0.330888
-0.317206
-0.301276
-0.283186
-0.262968
-0.240682
-0.218672
-0.362804
-0.365953
-0.368223
-0.370063
-0.371901
-0.37373
-0.375452
-0.376934
-0.377998
-0.378427
-0.377972
-0.376359
-0.373299
-0.368504
-0.361694
-0.352626
-0.341104
-0.326995
-0.310245
-0.290892
-0.269113
-0.245242
-0.219321
-0.190026
-0.371455
-0.373996
-0.375959
-0.377724
-0.379562
-0.381426
-0.383186
-0.384675
-0.385674
-0.385927
-0.385146
-0.383015
-0.379208
-0.373402
-0.365299
-0.354653
-0.341286
-0.32511
-0.306146
-0.284527
-0.260525
-0.234461
-0.206671
-0.176509
-0.380727
-0.382506
-0.384028
-0.385553
-0.387234
-0.388988
-0.390647
-0.392015
-0.392829
-0.3928
-0.391605
-0.388895
-0.38432
-0.377542
-0.368269
-0.35628
-0.341452
-0.323779
-0.303391
-0.280542
-0.255644
-0.228998
-0.201951
-0.172088
-0.390131
-0.391065
-0.392014
-0.393131
-0.39447
-0.395921
-0.397297
-0.398347
-0.398795
-0.398315
-0.396554
-0.393141
-0.387715
-0.379948
-0.36958
-0.356449
-0.340517
-0.321887
-0.300808
-0.277644
-0.252973
-0.226986
-0.201691
-0.173851
-0.399304
-0.399373
-0.39964
-0.400177
-0.40097
-0.401898
-0.402759
-0.403284
-0.40316
-0.402034
-0.39953
-0.395268
-0.388894
-0.380114
-0.368728
-0.354659
-0.337977
-0.3189
-0.297788
-0.275088
-0.251436
-0.227039
-0.203711
-0.17886
-0.408091
-0.40732
-0.406817
-0.406613
-0.406662
-0.406853
-0.40698
-0.40676
-0.405852
-0.40388
-0.400455
-0.3952
-0.387787
-0.377978
-0.365656
-0.350849
-0.333736
-0.314634
-0.293972
-0.272249
-0.250032
-0.227684
-0.206351
-0.184437
-0.416584
-0.415004
-0.413665
-0.412593
-0.41174
-0.411019
-0.41023
-0.409077
-0.407197
-0.404195
-0.399672
-0.393267
-0.384701
-0.373812
-0.360586
-0.34516
-0.327812
-0.308925
-0.288944
-0.26835
-0.24757
-0.227085
-0.207502
-0.18871
-0.39994
-0.402864
-0.401782
-0.395611
-0.383232
-0.363504
-0.337448
-0.306159
-0.272158
-0.238941
-0.209896
-0.187748
-0.174567
-0.17186
-0.180114
-0.197479
-0.218676
-0.235611
-0.23993
-0.226718
-0.198528
-0.1634
-0.130288
-0.104659
-0.0880927
-0.0798784
-0.0785521
-0.083714
-0.0967756
-0.117029
-0.137062
-0.145853
-0.138624
-0.118937
-0.0964254
-0.0789473
-0.0688276
-0.0647795
-0.0675149
-0.078854
-0.094614
-0.10419
-0.099217
-0.0846359
-0.0688559
-0.0567498
-0.0496841
-0.0482188
-0.0512611
-0.0531686
-0.050514
-0.0465482
-0.0415687
-0.0363311
-0.0339996
-0.03279
-0.0308011
-0.0301267
-0.0225395
-0.00532926
-0.348138
-0.346804
-0.343054
-0.336
-0.32469
-0.308344
-0.288365
-0.26434
-0.238161
-0.213215
-0.192244
-0.177893
-0.172423
-0.177352
-0.192624
-0.215421
-0.239741
-0.257412
-0.260334
-0.244399
-0.212478
-0.173433
-0.13678
-0.10808
-0.0886822
-0.077705
-0.0736574
-0.0758313
-0.0852712
-0.10184
-0.119558
-0.12863
-0.123565
-0.107447
-0.0886832
-0.074598
-0.0673626
-0.0658415
-0.0711991
-0.0853437
-0.103412
-0.114103
-0.108197
-0.0913535
-0.0726221
-0.0579062
-0.048705
-0.0450252
-0.0462699
-0.0468648
-0.0448977
-0.0421838
-0.0390218
-0.0359299
-0.0353208
-0.0360909
-0.0343544
-0.0336851
-0.0252074
-0.00592965
-0.294365
-0.287467
-0.280058
-0.270996
-0.259958
-0.246614
-0.230514
-0.214136
-0.195972
-0.179667
-0.167312
-0.161501
-0.16441
-0.177165
-0.198927
-0.226133
-0.252653
-0.270744
-0.273007
-0.255449
-0.221265
-0.179768
-0.140768
-0.10987
-0.0882424
-0.0748784
-0.0682921
-0.0676118
-0.0735052
-0.086301
-0.101508
-0.110577
-0.107669
-0.0950639
-0.0800158
-0.0693242
-0.0650049
-0.0660608
-0.0740201
-0.0908119
-0.111027
-0.12283
-0.116237
-0.0974002
-0.0759217
-0.0587229
-0.0475755
-0.0419225
-0.0415669
-0.0408939
-0.0394378
-0.0377444
-0.0363318
-0.0354207
-0.0366059
-0.0393586
-0.0378229
-0.0370956
-0.0277703
-0.0065168
-0.244649
-0.231224
-0.219451
-0.207818
-0.195638
-0.184002
-0.171403
-0.160168
-0.14992
-0.141924
-0.138136
-0.140915
-0.151969
-0.171784
-0.198842
-0.229282
-0.257266
-0.275617
-0.277929
-0.259841
-0.224818
-0.182367
-0.142314
-0.110173
-0.0870006
-0.0717417
-0.0629441
-0.059636
-0.0622
-0.071276
-0.0837611
-0.0924354
-0.0914795
-0.082181
-0.070679
-0.0632546
-0.0617495
-0.0652897
-0.0756726
-0.0948941
-0.117122
-0.130084
-0.123122
-0.102639
-0.07871
-0.0592126
-0.0463289
-0.0389641
-0.0372243
-0.0353402
-0.0342083
-0.0332917
-0.0335305
-0.0348061
-0.0378401
-0.0425675
-0.0411731
-0.0403193
-0.0301959
-0.0070836
-0.204191
-0.184086
-0.167779
-0.15301
-0.139093
-0.127305
-0.116992
-0.111141
-0.106216
-0.105086
-0.10882
-0.119125
-0.137044
-0.162396
-0.193205
-0.225639
-0.254429
-0.27335
-0.275663
-0.257951
-0.223493
-0.181606
-0.141805
-0.109329
-0.0852273
-0.0685565
-0.0579435
-0.052375
-0.0519184
-0.0574039
-0.0670125
-0.0748895
-0.0755432
-0.0691644
-0.0608997
-0.056486
-0.057568
-0.0633863
-0.0759343
-0.0973456
-0.121411
-0.13559
-0.128636
-0.106956
-0.0809678
-0.0594089
-0.0450037
-0.0361787
-0.0332756
-0.0302649
-0.0292767
-0.0288905
-0.0306499
-0.034086
-0.0390073
-0.0456877
-0.0443652
-0.0433133
-0.032453
-0.00762301
-0.175777
-0.149239
-0.129392
-0.111733
-0.0975811
-0.083844
-0.0755939
-0.0711534
-0.0702753
-0.0740089
-0.0832532
-0.0990117
-0.121682
-0.150549
-0.183383
-0.216559
-0.245383
-0.264322
-0.267159
-0.250559
-0.217872
-0.177952
-0.139597
-0.107637
-0.0831767
-0.0655206
-0.0534742
-0.04604
-0.0430417
-0.0452118
-0.0518624
-0.0585428
-0.0605357
-0.0563464
-0.0509072
-0.0491351
-0.0524916
-0.0603166
-0.0747224
-0.0980114
-0.123702
-0.139173
-0.132639
-0.110266
-0.0826767
-0.0593399
-0.0436263
-0.0335743
-0.029725
-0.0257042
-0.024698
-0.0246059
-0.0277181
-0.0332566
-0.0400877
-0.0486829
-0.0473579
-0.0460401
-0.0345117
-0.00812691
-0.159641
-0.13208
-0.106923
-0.0858334
-0.0683628
-0.0542948
-0.0472102
-0.0439264
-0.045066
-0.051454
-0.0637459
-0.0824129
-0.10739
-0.137634
-0.170841
-0.203641
-0.231863
-0.25044
-0.253728
-0.238758
-0.208836
-0.172021
-0.136094
-0.105378
-0.0810635
-0.0627894
-0.0496394
-0.0406945
-0.0356229
-0.0349379
-0.0386937
-0.04385
-0.0464297
-0.0440202
-0.0409832
-0.0414001
-0.0466563
-0.0561442
-0.072021
-0.0968156
-0.123933
-0.140744
-0.135041
-0.112502
-0.0838129
-0.0590239
-0.0422147
-0.0311456
-0.0265451
-0.0216633
-0.0205091
-0.0205007
-0.024758
-0.0323098
-0.0410583
-0.0515162
-0.0501142
-0.0484656
-0.0363456
-0.00858682
-0.15451
-0.127565
-0.100164
-0.0765664
-0.057151
-0.041935
-0.0333474
-0.0295291
-0.0308171
-0.0377594
-0.050759
-0.0699433
-0.0949798
-0.124692
-0.156813
-0.188263
-0.215645
-0.233119
-0.236617
-0.223638
-0.197245
-0.164371
-0.131589
-0.102688
-0.0789609
-0.0604064
-0.046451
-0.0363227
-0.0296054
-0.0265702
-0.027667
-0.0310937
-0.0334697
-0.032554
-0.031446
-0.0335371
-0.0402443
-0.0509994
-0.0679284
-0.0938015
-0.122146
-0.140305
-0.135787
-0.113621
-0.0843634
-0.0584802
-0.0407857
-0.028891
-0.0237066
-0.0181201
-0.0167259
-0.0166286
-0.021787
-0.0312366
-0.0418941
-0.0541514
-0.0525991
-0.0505584
-0.0379352
-0.00899618
-0.156619
-0.131708
-0.104642
-0.0800827
-0.0596736
-0.0438913
-0.0320052
-0.026358
-0.0262065
-0.0318873
-0.0436514
-0.0614062
-0.0846889
-0.112319
-0.142102
-0.171323
-0.197645
-0.213215
-0.216903
-0.206318
-0.18402
-0.155611
-0.126423
-0.0997469
-0.0769856
-0.0584725
-0.043988
-0.0329675
-0.0249761
-0.0200802
-0.0188462
-0.0204474
-0.0223099
-0.0223098
-0.0225826
-0.0258107
-0.0334931
-0.0450419
-0.0625129
-0.0891094
-0.118459
-0.137945
-0.134899
-0.113655
-0.0843952
-0.0578018
-0.0394065
-0.0268315
-0.0212113
-0.0150711
-0.0133477
-0.013034
-0.0188141
-0.0300259
-0.0425696
-0.0565534
-0.0547794
-0.0522939
-0.0392641
-0.0093524
-0.16247
-0.140332
-0.115624
-0.0919925
-0.0714758
-0.0544644
-0.040152
-0.0319163
-0.0292806
-0.0323558
-0.0414661
-0.0563463
-0.0765192
-0.10086
-0.127335
-0.153201
-0.174783
-0.191214
-0.195869
-0.188224
-0.17041
-0.146735
-0.121385
-0.0972113
-0.0757156
-0.0575084
-0.0426921
-0.0309634
-0.021946
-0.0155558
-0.0123178
-0.0120815
-0.0131527
-0.0134873
-0.0146053
-0.0184355
-0.0266074
-0.0385394
-0.0561787
-0.0829741
-0.11297
-0.133788
-0.132537
-0.112699
-0.0840304
-0.057159
-0.0382076
-0.0250021
-0.019035
-0.012547
-0.010412
-0.0097605
-0.015843
-0.0286752
-0.0430517
-0.0586824
-0.0566243
-0.0536548
-0.0403066
-0.00964962
-0.168333
-0.148641
-0.126834
-0.104586
-0.0824821
-0.0656413
-0.051666
-0.0422551
-0.0371538
-0.0368156
-0.0422857
-0.0533495
-0.0695438
-0.0899881
-0.112796
-0.135538
-0.155531
-0.168826
-0.174336
-0.169903
-0.156812
-0.138043
-0.116716
-0.095255
-0.0752384
-0.0575337
-0.0425258
-0.0301973
-0.0203378
-0.0127468
-0.00779369
-0.00579973
-0.00601546
-0.00673432
-0.00775612
-0.0117116
-0.0198323
-0.0315194
-0.0487291
-0.0756261
-0.10636
-0.128041
-0.128751
-0.110544
-0.082979
-0.0563603
-0.0370757
-0.0233032
-0.0169945
-0.0103871
-0.00795011
-0.00695553
-0.0128517
-0.0271521
-0.0433287
-0.0605061
-0.0580755
-0.0546217
-0.041021
-0.00985876
-0.175004
-0.159243
-0.141514
-0.121496
-0.103274
-0.0845563
-0.068789
-0.056884
-0.0491553
-0.046031
-0.0474682
-0.0538772
-0.0650092
-0.0801106
-0.0978581
-0.116612
-0.132854
-0.145694
-0.151216
-0.149431
-0.140558
-0.126268
-0.108767
-0.09011
-0.0718924
-0.0551747
-0.0405163
-0.0280848
-0.0178984
-0.00970917
-0.00360563
-0.000138326
0.000432209
-0.000405434
-0.00176578
-0.0058352
-0.0136654
-0.0249226
-0.0412976
-0.0674784
-0.0980327
-0.120509
-0.122096
-0.106466
-0.0801736
-0.0542748
-0.0351673
-0.0212718
-0.0147896
-0.00806298
-0.00554691
-0.00444317
-0.00995484
-0.0255181
-0.0433259
-0.0619704
-0.0591137
-0.0551606
-0.0413963
-0.00992875
-0.166975
-0.15927
-0.142999
-0.124463
-0.105527
-0.0891048
-0.0750769
-0.0639271
-0.0561208
-0.0519012
-0.0518238
-0.0563216
-0.0652398
-0.0779249
-0.0931494
-0.109013
-0.123005
-0.133362
-0.137776
-0.135592
-0.127242
-0.114218
-0.098378
-0.0814548
-0.0648009
-0.0493359
-0.035565
-0.0236466
-0.0136679
-0.00543792
0.00105459
0.00541998
0.00700663
0.0066799
0.00547094
0.00143293
-0.00545391
-0.0156863
-0.0314098
-0.0584174
-0.0914299
-0.116599
-0.120523
-0.103026
-0.076504
-0.0509405
-0.0323108
-0.0188528
-0.0126047
-0.00555219
-0.00274056
-0.000997728
-0.00641494
-0.0234065
-0.0430456
-0.0634203
-0.060085
-0.0553689
-0.0415281
-0.0098883
-0.15908
-0.152661
-0.137596
-0.120593
-0.104876
-0.0911636
-0.0792113
-0.0693245
-0.0619929
-0.0577429
-0.0570916
-0.0602671
-0.0671021
-0.0770068
-0.0889075
-0.101152
-0.111823
-0.119429
-0.122215
-0.119673
-0.112224
-0.100974
-0.0873137
-0.0725716
-0.0578304
-0.0438803
-0.0311954
-0.0199703
-0.0103959
-0.00232671
0.00431459
0.00914942
0.0112187
0.0109941
0.009491
0.00630846
0.000467866
-0.00862835
-0.0234155
-0.0505552
-0.0847657
-0.110501
-0.113473
-0.0967211
-0.0713644
-0.047119
-0.029448
-0.0165133
-0.0104576
-0.00341814
-0.000748788
0.00137456
-0.00384226
-0.0216693
-0.0427871
-0.0643661
-0.060561
-0.0549297
-0.0412433
-0.0098293
-0.150444
-0.145434
-0.132726
-0.117873
-0.104256
-0.0924444
-0.0821657
-0.0735109
-0.066924
-0.0628922
-0.0617594
-0.0636527
-0.068405
-0.0755074
-0.0841108
-0.0930059
-0.100773
-0.106032
-0.107666
-0.105246
-0.0989392
-0.0894346
-0.0777251
-0.0648493
-0.0517167
-0.0390372
-0.0272907
-0.0166867
-0.00746081
0.00043151
0.00705451
0.0121457
0.0146576
0.0147623
0.0133642
0.0105151
0.00528067
-0.0032365
-0.0175176
-0.0440532
-0.0771979
-0.102025
-0.104957
-0.0893523
-0.0657274
-0.043072
-0.02647
-0.0141413
-0.00832529
-0.00138001
0.00111417
0.00337696
-0.00189015
-0.0203135
-0.0424896
-0.064775
-0.0605878
-0.0540072
-0.0405919
-0.0097576
-0.140229
-0.137533
-0.127395
-0.114666
-0.10284
-0.0926913
-0.0839212
-0.076444
-0.0705535
-0.0666305
-0.0649547
-0.0656307
-0.068531
-0.0732741
-0.0792089
-0.0854166
-0.0907876
-0.0943124
-0.0951237
-0.0927671
-0.087262
-0.0790652
-0.0689114
-0.0576157
-0.0459239
-0.0344395
-0.0236172
-0.0136658
-0.0048359
0.00282692
0.00932927
0.0145533
0.0175133
0.0181052
0.017048
0.0146826
0.010072
0.00197828
-0.0117299
-0.0368089
-0.0681706
-0.0922926
-0.0954593
-0.081105
-0.0594384
-0.0386738
-0.0233544
-0.0117472
-0.00620403
0.000581934
0.00291434
0.00519166
-0.00010439
-0.0188957
-0.0418031
-0.0646071
-0.0601547
-0.0526238
-0.039526
-0.00964319
-0.130048
-0.129324
-0.121408
-0.11067
-0.10051
-0.091834
-0.084381
-0.077941
-0.0726625
-0.0688514
-0.0667606
-0.06649
-0.0679486
-0.0708403
-0.0746561
-0.0786906
-0.0821594
-0.0842576
-0.0842848
-0.081849
-0.0769153
-0.0697751
-0.0609414
-0.0510225
-0.0406147
-0.0302203
-0.0202645
-0.0109608
-0.00255563
0.00485364
0.0111856
0.0164228
0.0197248
0.0208419
0.0203618
0.0187208
0.01497
0.00759402
-0.00505712
-0.0283506
-0.0581455
-0.0814854
-0.0848718
-0.0720038
-0.052612
-0.0340069
-0.0201475
-0.00935416
-0.00410699
0.00246633
0.00461781
0.0067943
0.00168034
-0.0171615
-0.0405621
-0.0637284
-0.0591361
-0.050723
-0.0380028
-0.00946192
-0.120345
-0.120777
-0.114738
-0.105875
-0.097278
-0.0899162
-0.0836037
-0.0780806
-0.0733933
-0.0697749
-0.0674423
-0.0664877
-0.0668409
-0.0682728
-0.0704153
-0.0727414
-0.0746654
-0.0755651
-0.0749096
-0.0723737
-0.067876
-0.0615769
-0.0538226
-0.0450627
-0.0357741
-0.0263691
-0.0172293
-0.00856686
-0.000618309
0.00650536
0.012643
0.0178058
0.0213348
0.0229646
0.0231861
0.0224603
0.0198338
0.0135408
0.00217974
-0.0193822
-0.0475138
-0.0697274
-0.0733814
-0.0622923
-0.0454171
-0.0291444
-0.0168828
-0.00698307
-0.00205103
0.00426325
0.00622849
0.00817344
0.00345298
-0.0150795
-0.038663
-0.0619199
-0.0573988
-0.04827
-0.0360013
-0.00918907
-0.110597
-0.111929
-0.107559
-0.100412
-0.0932479
-0.0870593
-0.0817473
-0.0770482
-0.0729347
-0.0695666
-0.0671203
-0.065682
-0.0652094
-0.0655354
-0.0663918
-0.0673955
-0.068102
-0.0680528
-0.0668434
-0.0641979
-0.0600118
-0.0543652
-0.0474908
-0.0397136
-0.0314072
-0.0229021
-0.0145288
-0.00649142
0.000980626
0.0077826
0.0137131
0.0187634
0.0224303
0.0245054
0.0253974
0.0256795
0.0243825
0.0194227
0.00934221
-0.010496
-0.0366781
-0.0574093
-0.0613521
-0.0522667
-0.0380551
-0.0241874
-0.0136021
-0.00465592
-5.02474e-05
0.0059695
0.00776623
0.00933889
0.00516239
-0.0126401
-0.0359513
-0.0589678
-0.0548261
-0.0452636
-0.0335236
-0.00880219
-0.100927
-0.103084
-0.100116
-0.0944484
-0.0885526
-0.0834057
-0.0789747
-0.0750094
-0.0714337
-0.0683469
-0.0658895
-0.0641427
-0.0630897
-0.0626162
-0.0625181
-0.0625241
-0.0623074
-0.0615271
-0.0598731
-0.0571211
-0.053167
-0.0480417
-0.0418952
-0.0349551
-0.0275081
-0.0198171
-0.0121614
-0.0047291
0.00225862
0.00870653
0.0144113
0.0193337
0.0230738
0.0254853
0.0269667
0.0281522
0.0282138
0.0247358
0.0159244
-0.00218768
-0.0261406
-0.0449817
-0.0491944
-0.0422658
-0.030757
-0.0192556
-0.010348
-0.00239065
0.00188574
0.00758603
0.00925577
0.0103297
0.00680536
-0.00977529
-0.0322811
-0.0547166
-0.0513307
-0.0417329
-0.0306025
-0.00828468
-0.0917802
-0.0944249
-0.0925322
-0.0881092
-0.0833239
-0.0790955
-0.0754365
-0.0721199
-0.0690422
-0.0662577
-0.0638755
-0.0619693
-0.0605372
-0.0595056
-0.0587308
-0.0580138
-0.0571169
-0.05579
-0.0538007
-0.0509724
-0.0472095
-0.0425122
-0.0369731
-0.0307488
-0.024056
-0.0171015
-0.0101168
-0.00326819
0.00323689
0.00930823
0.0147607
0.0195369
0.0233073
0.0259462
0.0279011
0.0297523
0.0309264
0.0288333
0.0212777
0.00501998
-0.016281
-0.032867
-0.0373518
-0.0326452
-0.0237589
-0.014479
-0.00716628
-0.000201863
0.00375154
0.00911636
0.0107276
0.0112365
0.00844452
-0.00642245
-0.0275926
-0.04911
-0.0468815
-0.0377434
-0.0273076
-0.00762965
-0.0831158
-0.0859683
-0.0849058
-0.0815298
-0.0777042
-0.0742748
-0.0712876
-0.0685426
-0.0659236
-0.063451
-0.0612065
-0.0592551
-0.0576072
-0.0562172
-0.0549844
-0.0537666
-0.0523932
-0.0506835
-0.0484657
-0.0456028
-0.0420117
-0.037677
-0.0326542
-0.0270493
-0.0210228
-0.0147355
-0.00837678
-0.00208896
0.00394004
0.00962171
0.0147953
0.0193975
0.0231592
0.0259767
0.0282411
0.0304584
0.032277
0.0311779
0.0248593
0.010823
-0.00734557
-0.0215555
-0.0263452
-0.0237583
-0.0172734
-0.00998258
-0.00410787
0.00189457
0.00554368
0.01057
0.0122142
0.0121942
0.0101703
-0.00259164
-0.0219571
-0.0422477
-0.0415385
-0.0333994
-0.0237462
-0.00684339
-0.0748068
-0.0777831
-0.0773734
-0.0748559
-0.0718376
-0.0690904
-0.0666817
-0.0644368
-0.0622345
-0.0600715
-0.0580069
-0.056097
-0.0543595
-0.0527674
-0.051252
-0.0497145
-0.0480341
-0.0460813
-0.0437305
-0.0408777
-0.0374553
-0.0334419
-0.028869
-0.0238071
-0.0183739
-0.0126925
-0.00691643
-0.00116566
0.00439625
0.00968311
0.0145552
0.0189474
0.0226521
0.0255761
0.0280202
0.0303499
0.0323276
0.0317762
0.0266717
0.0151511
0.00030292
-0.01166
-0.0166862
-0.0158923
-0.0114576
-0.00586755
-0.00122623
0.00387613
0.0072498
0.0119565
0.0137426
0.0134
0.0120636
0.00161016
-0.0156154
-0.034434
-0.0354778
-0.0288392
-0.0200574
-0.00594768
-0.0669614
-0.0699697
-0.0700367
-0.0682012
-0.0658498
-0.0636773
-0.0617615
-0.0599496
-0.0581213
-0.0562571
-0.0543983
-0.0525916
-0.0508582
-0.0491842
-0.0475248
-0.0458119
-0.0439607
-0.0418799
-0.0394794
-0.0366828
-0.0334368
-0.0297197
-0.0255486
-0.02097
-0.0160695
-0.0109408
-0.00570644
-0.000467538
0.00463785
0.00952888
0.0140817
0.01823
0.0218245
0.0247728
0.0272783
0.029549
0.0313808
0.0310841
0.0270738
0.0179889
0.00623879
-0.0036813
-0.00869536
-0.00919872
-0.0063922
-0.00219926
0.00142928
0.00571713
0.00884235
0.0132571
0.015297
0.0148751
0.0141694
0.00597303
-0.00898809
-0.0261801
-0.0289948
-0.0242248
-0.0163972
-0.00498049
-0.0596368
-0.0625575
-0.0629511
-0.0616539
-0.0598503
-0.0581572
-0.0566564
-0.0552154
-0.0537187
-0.0521362
-0.0504951
-0.0488331
-0.047171
-0.0455049
-0.0438064
-0.0420292
-0.0401146
-0.0379994
-0.0356203
-0.0329224
-0.0298654
-0.0264306
-0.0226267
-0.0184848
-0.0140671
-0.00944468
-0.00471459
3.88937e-05
0.00470083
0.0091965
0.0134172
0.0173001
0.0207304
0.0236188
0.0260817
0.0281954
0.0297635
0.0295677
0.0264437
0.0194465
0.0103518
0.00228755
-0.00240931
-0.00368893
-0.00208832
0.000993057
0.00381725
0.00739587
0.0102898
0.0144146
0.0167908
0.0166579
0.0164536
0.0101931
-0.00261866
-0.0181243
-0.0224666
-0.0197283
-0.0129174
-0.00399298
-0.0527818
-0.0555542
-0.0561696
-0.0552941
-0.0539349
-0.0526363
-0.0514806
-0.0503536
-0.0491467
-0.0478235
-0.0464009
-0.044908
-0.0433634
-0.0417693
-0.0401088
-0.0383509
-0.0364555
-0.0343796
-0.0320795
-0.0295171
-0.026663
-0.0235029
-0.0200413
-0.0162999
-0.0123237
-0.00816709
-0.00390666
0.000388232
0.00462197
0.00872687
0.012609
0.0162088
0.0194288
0.0221868
0.0245289
0.0264409
0.0277361
0.0275737
0.0251447
0.0198398
0.0129214
0.00650784
0.00234588
0.000719762
0.00148859
0.00370848
0.00590779
0.00889086
0.011566
0.0153683
0.0180685
0.0185367
0.0186945
0.0138816
0.00294941
-0.0108563
-0.0162584
-0.0149681
-0.00973836
-0.00304217
-0.0463888
-0.048984
-0.0497384
-0.049185
-0.0481806
-0.0472026
-0.0463306
-0.0454664
-0.0445094
-0.0434201
-0.0422078
-0.040895
-0.039497
-0.0380183
-0.0364501
-0.034772
-0.0329568
-0.0309757
-0.0287992
-0.0264018
-0.0237634
-0.0208738
-0.0177361
-0.014366
-0.0107969
-0.00707059
-0.00324775
0.000614982
0.00443808
0.00816169
0.0117031
0.0150061
0.0179851
0.0205652
0.0227367
0.0244392
0.0255041
0.0253688
0.0235016
0.0195368
0.014351
0.00935495
0.0058329
0.00415606
0.00439477
0.00596402
0.00768646
0.0101761
0.0126434
0.0160825
0.0189606
0.0200767
0.0204689
0.0166139
0.0073122
-0.0047503
-0.0107011
-0.0110995
-0.00699052
-0.0021821
-0.0404653
-0.0428559
-0.0436819
-0.0433701
-0.0426465
-0.0419266
-0.0412852
-0.0406385
-0.0398952
-0.0390144
-0.0379978
-0.0368642
-0.0356277
-0.0342921
-0.0328519
-0.0312947
-0.0296023
-0.0277556
-0.0257353
-0.0235251
-0.0211118
-0.0184894
-0.0156606
-0.0126377
-0.00944631
-0.00611877
-0.00270361
0.000752884
0.00418443
0.00753956
0.0107443
0.0137463
0.0164669
0.01884
0.02082
0.0223303
0.0232252
0.02314
0.0217389
0.0188258
0.0149882
0.011178
0.00831223
0.00676181
0.00669568
0.00778677
0.00915083
0.0112268
0.0134817
0.0165223
0.0193744
0.0209078
0.0213413
0.0181101
0.0103018
5.65937e-05
-0.00596187
-0.00766509
-0.00470607
-0.00145167
-0.0349904
-0.0371634
-0.0380136
-0.0378808
-0.0373777
-0.0368637
-0.0364079
-0.0359388
-0.0353747
-0.0346751
-0.0338389
-0.03288
-0.0318089
-0.0306286
-0.0293368
-0.0279259
-0.0263836
-0.0246975
-0.022855
-0.0208464
-0.0186638
-0.0163044
-0.0137712
-0.0110746
-0.00823487
-0.0052776
-0.00224203
0.000833896
0.003895
0.00689707
0.00977417
0.0124792
0.0149379
0.0170932
0.0188807
0.020227
0.0210086
0.0209981
0.0199889
0.0178939
0.0150996
0.0122563
0.0100059
0.00867114
0.00846021
0.00920975
0.0103056
0.0120268
0.0140494
0.0166659
0.0192901
0.020887
0.0212022
0.0184392
0.0120064
0.00358006
-0.00214197
-0.00473578
-0.00287265
-0.000866583
-0.0299448
-0.0319
-0.0327407
-0.0327374
-0.0324054
-0.032054
-0.0317458
-0.0314204
-0.0310057
-0.0304633
-0.029788
-0.0289912
-0.0280818
-0.027061
-0.025927
-0.0246755
-0.0232985
-0.0217876
-0.020135
-0.0183353
-0.0163843
-0.0142818
-0.0120312
-0.00964167
-0.00712975
-0.00451638
-0.00183355
0.000887749
0.00360083
0.006268
0.00883054
0.0112479
0.0134516
0.0153926
0.0169999
0.0182105
0.018923
0.0190016
0.0183226
0.0168622
0.0148756
0.0128014
0.0110908
0.0100059
0.00975692
0.0102697
0.0111618
0.0125748
0.0143394
0.0165296
0.0187745
0.0201921
0.0203035
0.0179301
0.0126886
0.00593794
0.000734206
-0.00234155
-0.00143885
-0.000417066
-0.0253119
-0.027054
-0.0278615
-0.0279492
-0.027749
-0.0275251
-0.0273334
-0.0271232
-0.0268315
-0.0264224
-0.025889
-0.0252398
-0.0244834
-0.0236186
-0.0226431
-0.0215546
-0.0203481
-0.0190181
-0.0175594
-0.0159695
-0.0142467
-0.0123924
-0.0104106
-0.00830952
-0.00610305
-0.00380844
-0.00145205
0.00094013
0.00332839
0.00568146
0.00794748
0.0100917
0.0120531
0.0137896
0.0152347
0.0163343
0.017008
0.0171802
0.0167743
0.015806
0.0144398
0.0129687
0.0117135
0.0108762
0.0106525
0.0110067
0.0117386
0.0128842
0.0143701
0.0161441
0.0178986
0.0190645
0.018976
0.0169403
0.0126674
0.00733275
0.00274297
-0.000467845
-0.000338924
-7.95338e-05
-0.0210696
-0.0226088
-0.0233684
-0.0235184
-0.023419
-0.0232942
-0.0231937
-0.023075
-0.0228833
-0.0225868
-0.0221765
-0.0216579
-0.0210425
-0.0203255
-0.0195034
-0.0185745
-0.0175362
-0.0163853
-0.0151181
-0.0137335
-0.0122314
-0.0106143
-0.00888621
-0.00705478
-0.00513182
-0.00313173
-0.00107677
0.00101172
0.00310028
0.00516198
0.00715224
0.00904221
0.0107787
0.0123313
0.0136238
0.0146305
0.0152828
0.0155422
0.0153596
0.0147681
0.0138739
0.0128743
0.0119924
0.0113784
0.0112098
0.0114631
0.0120628
0.0129751
0.0141807
0.0155739
0.016863
0.0177255
0.0174717
0.015733
0.0122237
0.00800418
0.00398506
0.0009362
0.000487243
0.000171069
-0.0171968
-0.0185471
-0.0192506
-0.0194413
-0.0194182
-0.01937
-0.0193402
-0.0192935
-0.0191829
-0.0189808
-0.0186785
-0.01828
-0.0177856
-0.0172018
-0.0165227
-0.0157452
-0.0148679
-0.0138887
-0.0128054
-0.0116172
-0.0103249
-0.00893134
-0.00744066
-0.00585967
-0.00419858
-0.00246953
-0.000691083
0.0011189
0.00293232
0.00472687
0.00646464
0.00812011
0.00964709
0.0110206
0.012184
0.0131138
0.0137535
0.014086
0.0140801
0.0137726
0.0132363
0.0126038
0.0120151
0.0115911
0.0114874
0.0116787
0.0121655
0.012878
0.0138192
0.0148745
0.0157726
0.01633
0.0159484
0.0144657
0.0115621
0.00819251
0.00481729
0.00195366
0.00108889
0.000354239
-0.0136735
-0.01485
-0.0154934
-0.0157089
-0.015743
-0.0157535
-0.0157777
-0.0157868
-0.0157408
-0.0156156
-0.015403
-0.0151027
-0.0147191
-0.0142567
-0.0137103
-0.0130747
-0.0123479
-0.0115297
-0.0106187
-0.00961478
-0.00851862
-0.00733304
-0.00606211
-0.00471186
-0.00329095
-0.00180968
-0.00028352
0.00127283
0.00283579
0.00438671
0.00589421
0.00733646
0.00867262
0.00988382
0.0109277
0.0117895
0.0124161
0.0128036
0.0129322
0.0128347
0.0125631
0.0122187
0.011845
0.011579
0.0115379
0.0116925
0.0120818
0.0126256
0.0133293
0.0140921
0.0146747
0.0149732
0.0144961
0.013224
0.0108108
0.00807523
0.00525807
0.00264665
0.00150543
0.000484764
-0.0104782
-0.0114972
-0.0120802
-0.0123092
-0.0123858
-0.012441
-0.0125064
-0.0125584
-0.0125636
-0.0125009
-0.0123631
-0.0121498
-0.0118634
-0.0115048
-0.011076
-0.0105692
-0.00998081
-0.00931048
-0.008558
-0.00772355
-0.00680782
-0.00581324
-0.00474345
-0.0036037
-0.00240134
-0.00114498
0.000152699
0.00147927
0.00281552
0.00414606
0.00544422
0.00669335
0.00786018
0.00892714
0.00986467
0.0106519
0.0112601
0.0116838
0.0119083
0.0119587
0.0118671
0.0116701
0.011523
0.0113947
0.011409
0.011542
0.0118473
0.0122498
0.01275
0.0132696
0.013603
0.0136997
0.0131589
0.0120516
0.0100418
0.00777688
0.00541761
0.00307973
0.00177285
0.000572825
-0.00759074
-0.00846888
-0.00899364
-0.00922821
-0.00933621
-0.00942515
-0.0095216
-0.00960639
-0.00965198
-0.00964028
-0.0095644
-0.00942334
-0.00921616
-0.0089416
-0.00862308
-0.00823348
-0.00777049
-0.00723402
-0.00662472
-0.00594346
-0.00519102
-0.00436933
-0.00348147
-0.00253185
-0.00152659
-0.000472752
0.000619238
0.00173925
0.00287163
0.00400359
0.00511391
0.00618856
0.00720102
0.00813767
0.00896899
0.00968853
0.0102697
0.0107125
0.0110015
0.0111558
0.0111998
0.0111589
0.0111234
0.01109
0.0111447
0.0112631
0.0114969
0.0117836
0.0121155
0.0124378
0.0125804
0.0125271
0.0119525
0.0109694
0.00929081
0.00738031
0.00538512
0.00331497
0.00192489
0.00062561
-0.00499187
-0.00574538
-0.00621542
-0.00645021
-0.00658114
-0.00669552
-0.00681539
-0.00692549
-0.00700338
-0.00703433
-0.00701269
-0.00693827
-0.00681201
-0.00663472
-0.00638338
-0.00608224
-0.00572407
-0.00530409
-0.00482116
-0.00427583
-0.00366877
-0.00300144
-0.00227617
-0.00149646
-0.00066727
0.00020567
0.00111401
0.00204957
0.00299972
0.00395417
0.00489591
0.00581357