/*--------------------------------*- C++ -*----------------------------------*\
| =========                 |                                                 |
| \\      /  F ield         | OpenFOAM: The Open Source CFD Toolbox           |
|  \\    /   O peration     | Version:  2512                                  |
|   \\  /    A nd           | Website:  www.openfoam.com                      |
|    \\/     M anipulation  |                                                 |
\*---------------------------------------------------------------------------*/
FoamFile
{
    version     2.0;
    format      ascii;
    arch        "LSB;label=32;scalar=64";
    class       volVectorField;
    location    "193.25";
    object      U;
}
// * * * * * * * * * * * * * * * * * * * * * * * * * * * * * * * * * * * * * //

dimensions      [0 1 -1 0 0 0 0];

internalField   nonuniform List<vector> 
13248
(
(-0.0139455 0.0119944 7.17376e-20)
(-0.027053 0.0247348 0)
(-0.0261632 0.0307754 -1.35412e-19)
(-0.0111513 0.032924 1.2756e-19)
(0.0181284 0.0330293 1.18973e-19)
(0.0617673 0.0323282 0)
(0.119706 0.0316715 0)
(0.191546 0.0316464 2.81396e-19)
(0.276353 0.032621 -2.14739e-21)
(0.372503 0.0347674 -2.4443e-19)
(0.477614 0.0380578 2.26115e-19)
(0.588588 0.0422654 -1.41134e-19)
(0.701789 0.0469827 0)
(0.813296 0.0516628 -2.46002e-19)
(0.919221 0.0556821 4.61444e-19)
(1.01603 0.0584144 -1.09339e-19)
(1.10084 0.0593123 -2.01648e-19)
(1.17162 0.0579513 1.89305e-19)
(1.22738 0.0541709 0)
(1.26816 0.0476737 0)
(1.29506 0.0395046 0)
(1.30969 0.0267749 0)
(1.3142 0.018433 6.0621e-20)
(1.31131 -0.00948885 2.23797e-19)
(-0.0146047 0.0114409 -2.1679e-19)
(-0.0236548 0.0216345 1.47929e-19)
(-0.0139387 0.0251994 -1.47361e-21)
(0.0137769 0.0252591 -1.95282e-19)
(0.0591085 0.0239599 -1.18841e-19)
(0.121624 0.0227845 -1.12408e-19)
(0.200493 0.0227208 -2.04548e-19)
(0.294191 0.0243654 1.94114e-19)
(0.400265 0.0279758 0)
(0.51528 0.033488 9.67005e-22)
(0.634972 0.0405362 2.62666e-21)
(0.75458 0.0484994 1.42479e-19)
(0.869292 0.0565826 0)
(0.974727 0.0639247 0)
(1.06734 0.0697146 1.70203e-19)
(1.14475 0.0732966 -3.19844e-19)
(1.20585 0.0742469 1.94735e-19)
(1.25086 0.0724102 -1.82832e-19)
(1.2811 0.0678805 -8.16316e-20)
(1.2988 0.0609766 -1.51739e-19)
(1.30651 0.0521381 -6.43805e-20)
(1.30702 0.0417303 -1.21907e-19)
(1.30212 0.0316975 1.76052e-19)
(1.29555 0.0174677 5.07953e-20)
(-0.0139153 0.0100517 0)
(-0.0160153 0.0171074 0)
(0.00584806 0.0186044 6.90982e-20)
(0.0498762 0.0176369 6.34299e-20)
(0.11484 0.0164473 -1.84943e-21)
(0.199278 0.0166223 -1.17072e-19)
(0.300911 0.0191223 0)
(0.416307 0.0243552 -9.62968e-20)
(0.540823 0.0322279 9.09048e-20)
(0.668868 0.0421986 1.32602e-21)
(0.794451 0.0533735 -1.54118e-19)
(0.91187 0.064654 -1.41543e-19)
(1.01636 0.0749119 2.15695e-21)
(1.10459 0.0831613 -1.18544e-19)
(1.17492 0.088691 2.83188e-19)
(1.22737 0.091137 0)
(1.26343 0.0904889 -1.87681e-19)
(1.28559 0.0870227 9.09409e-20)
(1.29688 0.081247 8.15691e-20)
(1.3003 0.0736418 0)
(1.29852 0.0650857 6.81639e-20)
(1.29338 0.0552022 -2.35241e-19)
(1.2862 0.0470921 2.20835e-19)
(1.27858 0.0339446 1.40414e-19)
(-0.0114591 0.00787115 -7.72758e-20)
(-0.00311931 0.0112819 -8.00335e-20)
(0.0344591 0.011244 7.20516e-20)
(0.0982545 0.0104928 0)
(0.185731 0.0111319 0)
(0.293704 0.0146242 -3.07443e-21)
(0.41763 0.021625 0)
(0.551489 0.032032 -2.97431e-19)
(0.688173 0.0450946 2.75985e-19)
(0.820295 0.0595859 -3.39718e-19)
(0.941172 0.0740452 7.74291e-20)
(1.04568 0.0870497 0)
(1.13081 0.0974509 1.29775e-19)
(1.19575 0.104529 -2.40702e-19)
(1.2417 0.108038 5.71528e-20)
(1.27127 0.108157 1.48708e-19)
(1.28788 0.105365 -5.50555e-21)
(1.29504 0.100296 -1.66201e-19)
(1.29586 0.0935904 0)
(1.29274 0.0858354 0)
(1.28728 0.0774952 -6.0701e-20)
(1.28042 0.0687325 5.47643e-20)
(1.2727 0.060951 1.99017e-19)
(1.26493 0.0498781 -1.86843e-19)
(-0.00686688 0.00510737 -8.1988e-20)
(0.0159108 0.00472581 -8.15331e-20)
(0.0728923 0.00401287 2.29099e-19)
(0.159505 0.00502423 -1.38647e-19)
(0.271255 0.00942314 1.30501e-19)
(0.402395 0.0182021 2.36241e-19)
(0.545385 0.0313082 -1.67204e-19)
(0.691368 0.0477497 -2.03206e-19)
(0.831283 0.0658848 4.33293e-21)
(0.957232 0.0838045 2.58417e-19)
(1.06359 0.0997324 0)
(1.1476 0.112343 7.13314e-20)
(1.20926 0.120926 0)
(1.25083 0.125389 -1.16581e-19)
(1.27593 0.126125 1.63911e-19)
(1.28869 0.123815 1.4818e-21)
(1.29295 0.11923 -4.3435e-20)
(1.29181 0.113079 8.17856e-20)
(1.28751 0.105937 7.08046e-20)
(1.28146 0.0982106 -6.38355e-20)
(1.27447 0.0902292 6.06885e-20)
(1.26694 0.0820435 -5.47523e-20)
(1.25909 0.0745476 0)
(1.25136 0.0647521 -4.16512e-20)
(0.000195595 0.00208008 8.19762e-20)
(0.0417722 -0.00165726 8.63485e-20)
(0.121721 -0.00169374 -7.68511e-20)
(0.233407 0.00297273 1.43309e-19)
(0.36956 0.0131457 -1.34881e-19)
(0.521073 0.028866 1.21748e-19)
(0.677126 0.048912 -5.86448e-20)
(0.826611 0.0711275 1.52617e-19)
(0.959993 0.093016 -9.62372e-20)
(1.0708 0.112331 1.70063e-19)
(1.15627 0.127502 -3.92538e-19)
(1.21709 0.137812 1.44468e-19)
(1.25646 0.143329 -1.26286e-19)
(1.27889 0.144676 1.18623e-19)
(1.28914 0.14275 1.02864e-19)
(1.29137 0.13847 9.07093e-20)
(1.28877 0.132624 -2.52637e-19)
(1.2835 0.125805 1.56961e-19)
(1.27689 0.118421 -7.08092e-20)
(1.26966 0.110746 1.85716e-19)
(1.26216 0.102954 -5.99696e-20)
(1.25453 0.0951525 -1.4709e-19)
(1.24683 0.0877657 1.35975e-19)
(1.23921 0.0789012 4.16395e-20)
(0.0100222 -0.000816709 0)
(0.0748851 -0.0067519 8.94404e-22)
(0.180871 -0.00422441 1.61891e-19)
(0.318606 0.00622667 -1.51677e-19)
(0.477217 0.0239819 -1.36613e-19)
(0.64384 0.0475798 2.53789e-19)
(0.804922 0.0742902 -1.17807e-19)
(0.948684 0.100838 1.56532e-19)
(1.0672 0.124297 -3.51951e-21)
(1.15728 0.142701 -8.86643e-20)
(1.21998 0.155245 1.92863e-19)
(1.25931 0.162137 -2.84992e-19)
(1.28066 0.164243 0)
(1.28945 0.1627 -5.60709e-20)
(1.29026 0.158613 -1.49898e-19)
(1.28645 0.152883 4.71361e-20)
(1.28026 0.146159 1.77078e-21)
(1.27299 0.138872 -1.04524e-19)
(1.26532 0.131291 6.10157e-21)
(1.25758 0.123584 1.2113e-19)
(1.24988 0.115865 -5.44651e-20)
(1.24223 0.108222 -2.08124e-20)
(1.23461 0.100797 6.38007e-20)
(1.22706 0.0925964 0)
(0.0228225 -0.00312987 0)
(0.115261 -0.00933554 4.3976e-20)
(0.249417 -0.00191071 -2.11996e-19)
(0.412467 0.0164393 7.70545e-20)
(0.589407 0.0430144 -7.25186e-20)
(0.763987 0.0744016 -6.63496e-20)
(0.921474 0.106364 -1.16827e-19)
(1.05162 0.134982 5.8522e-20)
(1.15005 0.157612 5.05909e-20)
(1.21778 0.173188 0)
(1.25944 0.181989 1.14998e-19)
(1.28132 0.185132 -1.71372e-19)
(1.28964 0.184042 1.2741e-19)
(1.28955 0.180068 5.61015e-20)
(1.28477 0.174282 -4.61764e-20)
(1.27769 0.167434 -3.87014e-20)
(1.2697 0.160004 -3.62256e-20)
(1.26149 0.152281 1.08107e-19)
(1.25336 0.144436 0)
(1.24544 0.136575 5.47019e-20)
(1.23772 0.128773 4.63054e-20)
(1.23016 0.121097 -1.14703e-19)
(1.2227 0.113554 -7.90304e-20)
(1.2153 0.105797 7.29193e-20)
(0.0386572 -0.00435961 -4.78803e-20)
(0.162376 -0.00817593 -2.01567e-21)
(0.325501 0.00672309 4.32593e-20)
(0.511236 0.034744 1.21185e-19)
(0.700566 0.0705037 3.52311e-20)
(0.87521 0.108512 -6.8114e-20)
(1.02151 0.143495 6.20406e-20)
(1.13283 0.171688 -5.41806e-20)
(1.20942 0.191445 9.7149e-20)
(1.25626 0.202967 4.12103e-20)
(1.28055 0.20761 -1.17256e-19)
(1.28949 0.207151 3.44405e-20)
(1.28906 0.203269 5.88486e-20)
(1.28352 0.197284 -2.8937e-20)
(1.27559 0.190109 0)
(1.26681 0.18231 4.32148e-20)
(1.25792 0.174216 7.32586e-20)
(1.24927 0.166013 1.26209e-20)
(1.24096 0.157807 -6.11683e-20)
(1.23299 0.14967 2.56316e-20)
(1.22532 0.141656 0)
(1.21787 0.133797 -2.02158e-20)
(1.21057 0.12606 -1.92791e-20)
(1.20333 0.118522 0)
(0.057374 -0.00398389 0)
(0.215096 -0.0021365 2.51356e-20)
(0.406397 0.0227872 4.65642e-20)
(0.610451 0.0616025 -1.23943e-19)
(0.805251 0.105914 4.01604e-20)
(0.972645 0.148517 0)
(1.10233 0.183965 6.00039e-20)
(1.19263 0.2095 -8.37902e-20)
(1.24835 0.224953 -4.86058e-20)
(1.2775 0.231841 2.18727e-20)
(1.28851 0.232356 -3.50964e-20)
(1.28847 0.228625 8.51613e-20)
(1.28247 0.222329 4.25414e-20)
(1.27375 0.214623 -2.95977e-20)
(1.26412 0.206214 -2.80201e-21)
(1.25447 0.197501 -8.09636e-20)
(1.24519 0.1887 3.68708e-20)
(1.23637 0.179926 -9.50982e-22)
(1.22804 0.171249 0)
(1.22013 0.162717 -2.56585e-20)
(1.21259 0.154367 0)
(1.20531 0.146201 5.82075e-20)
(1.19823 0.138223 -6.92971e-20)
(1.19119 0.130707 3.16081e-20)
(0.0785635 -0.00149649 -1.32164e-20)
(0.271681 0.00971689 -6.36005e-20)
(0.48873 0.0469049 7.2482e-20)
(0.705505 0.096784 4.25186e-20)
(0.898889 0.148102 -2.02798e-20)
(1.0533 0.192801 3.40337e-20)
(1.1635 0.226279 -1.65196e-20)
(1.23305 0.247454 2.7393e-20)
(1.27051 0.257788 0)
(1.28567 0.259916 6.18624e-20)
(1.28711 0.256552 -2.61348e-21)
(1.28113 0.249894 -4.98183e-20)
(1.27177 0.241465 2.12937e-20)
(1.26128 0.232194 -2.40005e-20)
(1.25079 0.222597 -9.11252e-21)
(1.24077 0.212939 1.05499e-20)
(1.23134 0.203354 -8.13361e-21)
(1.22254 0.193915 -4.41693e-20)
(1.2143 0.184668 2.70616e-20)
(1.20655 0.175645 5.53758e-21)
(1.19921 0.16686 4.87852e-21)
(1.19216 0.158304 4.30012e-21)
(1.18532 0.150044 0)
(1.17852 0.142347 0)
(0.101624 0.00355836 1.32255e-20)
(0.330016 0.028034 -1.32226e-20)
(0.568965 0.0791496 -2.4181e-20)
(0.792314 0.139446 0)
(0.978263 0.195575 -1.00878e-20)
(1.11594 0.239806 -9.10168e-21)
(1.20596 0.269301 -1.55134e-20)
(1.25661 0.284998 0)
(1.27904 0.28988 0)
(1.28371 0.287387 0)
(1.27858 0.280448 0)
(1.26888 0.271139 0)
(1.25761 0.260741 -1.33916e-20)
(1.24625 0.24996 6.09877e-21)
(1.23542 0.239149 1.0577e-20)
(1.22532 0.228474 4.94219e-21)
(1.21597 0.218016 1.22174e-20)
(1.20733 0.207818 0)
(1.19932 0.197908 -2.92499e-21)
(1.19185 0.188304 -2.80027e-21)
(1.1848 0.179003 -4.8863e-21)
(1.17809 0.169998 -4.307e-21)
(1.17158 0.161422 0)
(1.16513 0.15338 3.08583e-21)
(-0.00180668 0.0148062 8.8297e-21)
(-0.00792688 0.0458581 -9.1447e-21)
(-0.0182239 0.0764349 -1.7284e-20)
(-0.0307437 0.104701 0)
(-0.0444006 0.129705 -2.31012e-20)
(-0.0585826 0.151406 7.28061e-21)
(-0.0727731 0.170393 -1.36413e-20)
(-0.0865192 0.187533 0)
(-0.0994416 0.203673 0)
(-0.111228 0.219445 0)
(-0.121624 0.235184 0)
(-0.130411 0.250935 0)
(-0.1374 0.266495 9.34336e-23)
(-0.142403 0.281476 -9.14706e-21)
(-0.145235 0.295343 1.73338e-20)
(-0.145702 0.307452 2.47737e-20)
(-0.143607 0.317068 7.90737e-21)
(-0.138759 0.323386 0)
(-0.130992 0.325572 7.17539e-21)
(-0.120183 0.322801 -2.04912e-20)
(-0.106259 0.314333 -1.32159e-20)
(-0.0891615 0.29957 -1.27121e-20)
(-0.0688578 0.27813 0)
(-0.0457434 0.250221 0)
(-0.00257298 0.0179992 -2.64509e-20)
(-0.00922323 0.0534459 4.55884e-20)
(-0.018429 0.0871829 -1.70713e-20)
(-0.0289171 0.117753 -3.24038e-20)
(-0.0399453 0.144362 4.58638e-20)
(-0.0510649 0.167016 -2.87483e-20)
(-0.0618727 0.186314 4.06751e-20)
(-0.0719821 0.203143 2.53201e-20)
(-0.0810303 0.218392 0)
(-0.088683 0.232756 -2.29233e-20)
(-0.0946378 0.246637 -2.21407e-22)
(-0.0986231 0.260135 2.02397e-20)
(-0.100392 0.273085 2.86484e-20)
(-0.0997147 0.285115 3.65142e-20)
(-0.0963756 0.295705 -1.68565e-20)
(-0.0901729 0.304215 -4.90775e-20)
(-0.0809224 0.309928 1.60274e-20)
(-0.0684665 0.312081 -5.98549e-20)
(-0.0526908 0.309892 0)
(-0.0335549 0.302612 1.37316e-20)
(-0.0111065 0.289576 1.31924e-20)
(0.0145789 0.270299 1.26891e-20)
(0.0436027 0.24461 0)
(0.0760981 0.213151 0)
(-0.00351185 0.0195332 0)
(-0.0109383 0.0572937 9.03188e-20)
(-0.0191607 0.0929508 -3.40702e-20)
(-0.0275377 0.125123 3.21818e-20)
(-0.0356468 0.152999 -9.04191e-20)
(-0.0432012 0.176501 0)
(-0.0499279 0.196133 -5.34076e-20)
(-0.0555374 0.212709 2.49389e-20)
(-0.0597208 0.227096 -4.69805e-20)
(-0.0621587 0.240018 2.18038e-20)
(-0.0625348 0.251937 1.26293e-19)
(-0.060549 0.263025 -5.93452e-20)
(-0.0559245 0.27319 -9.48995e-20)
(-0.0484043 0.282123 -3.65005e-20)
(-0.0377667 0.289353 -1.07714e-21)
(-0.0238321 0.294298 1.30617e-19)
(-0.00645572 0.296305 -6.19021e-20)
(0.0144545 0.294688 8.1474e-23)
(0.0389245 0.288761 0)
(0.0668957 0.27787 -5.60577e-20)
(0.0982144 0.261447 0)
(0.132639 0.239062 -5.44413e-20)
(0.170093 0.210586 2.04576e-19)
(0.212356 0.176447 3.2189e-21)
(-0.00441557 0.0195344 0)
(-0.0127418 0.0575385 -1.92299e-22)
(-0.0202563 0.0937106 3.37055e-20)
(-0.0267558 0.126534 -3.15936e-20)
(-0.0320404 0.155072 3.01445e-20)
(-0.0359469 0.17909 1.68039e-19)
(-0.038326 0.198915 -5.27467e-20)
(-0.0390037 0.215217 -4.91854e-20)
(-0.0377624 0.228775 9.31759e-20)
(-0.0343448 0.24029 -1.322e-19)
(-0.0284698 0.25026 4.09171e-20)
(-0.0198533 0.258929 3.87954e-20)
(-0.00822586 0.266294 0)
(0.00665424 0.272142 3.5552e-20)
(0.0249861 0.276093 0)
(0.046915 0.27766 6.38204e-20)
(0.0725287 0.276291 -1.25369e-19)
(0.101846 0.271407 2.65882e-20)
(0.13481 0.262438 1.13618e-19)
(0.171285 0.248849 5.59867e-20)
(0.211046 0.230181 0)
(0.253944 0.206023 -1.60114e-19)
(0.298763 0.17627 4.98777e-20)
(0.35192 0.140628 0)
(-0.00514862 0.018354 0)
(-0.0144026 0.0547973 -1.07176e-19)
(-0.021605 0.0900331 -3.33907e-20)
(-0.0267091 0.122338 -6.29544e-20)
(-0.0295998 0.150638 5.92746e-20)
(-0.0301757 0.174531 -5.5778e-20)
(-0.0283828 0.194147 1.03922e-19)
(-0.0241623 0.209969 4.89901e-20)
(-0.0174125 0.222638 -1.37942e-19)
(-0.00798019 0.232783 8.63721e-20)
(0.00432883 0.240895 -1.22447e-19)
(0.0197295 0.247268 2.6802e-19)
(0.0384346 0.251981 -1.4489e-19)
(0.0606337 0.254926 6.83409e-20)
(0.0864755 0.255837 1.98387e-19)
(0.116055 0.254348 -6.1049e-20)
(0.149408 0.250022 -5.68857e-20)
(0.186505 0.242398 -5.76854e-20)
(0.227253 0.231016 0)
(0.271545 0.215432 -1.11852e-19)
(0.319017 0.19527 -1.12427e-19)
(0.370377 0.170117 1.52825e-19)
(0.421363 0.140084 2.05938e-19)
(0.487345 0.103728 -1.91931e-19)
(-0.00569096 0.0164813 0)
(-0.015867 0.0500243 -1.41823e-19)
(-0.0232003 0.082969 6.22907e-22)
(-0.0275157 0.113466 1.2545e-19)
(-0.028646 0.14038 0)
(-0.0264888 0.1632 0)
(-0.0210472 0.18189 0)
(-0.0123597 0.196753 -4.82856e-20)
(-0.000443597 0.208273 1.94297e-22)
(0.0147295 0.216971 8.46503e-20)
(0.033235 0.223294 -1.20996e-19)
(0.0551822 0.227547 -2.66839e-22)
(0.0806951 0.229869 0)
(0.109892 0.230241 -6.83059e-20)
(0.142872 0.228509 6.476e-20)
(0.179698 0.224421 -1.82687e-19)
(0.220402 0.217656 2.38195e-19)
(0.264991 0.207851 6.13268e-20)
(0.313403 0.194638 6.94675e-21)
(0.365753 0.177669 -2.10662e-19)
(0.421257 0.15656 -1.02364e-19)
(0.482935 0.131097 3.55766e-19)
(0.540766 0.101328 -2.39273e-19)
(0.622897 0.0646544 0)
(-0.00614479 0.0144501 6.87395e-20)
(-0.0172706 0.044332 7.08865e-20)
(-0.0251338 0.0738734 -6.61996e-20)
(-0.0292178 0.101308 -1.23902e-19)
(-0.0292086 0.125585 1.16656e-19)
(-0.024962 0.146187 -1.08196e-19)
(-0.0165022 0.162989 1.52195e-19)
(-0.00393491 0.176159 -4.8109e-20)
(0.0126268 0.186041 8.87931e-20)
(0.0331022 0.193043 0)
(0.0574592 0.197543 7.71584e-20)
(0.0857146 0.199828 -1.44721e-19)
(0.117925 0.200065 1.39205e-19)
(0.154173 0.198295 -1.30735e-19)
(0.194564 0.194444 0)
(0.23921 0.188354 1.19744e-19)
(0.288212 0.179788 2.313e-19)
(0.341704 0.168484 -2.18665e-19)
(0.399724 0.154122 -1.05548e-19)
(0.462738 0.136496 -1.0884e-19)
(0.52898 0.114992 3.00358e-19)
(0.604169 0.0900281 9.89208e-20)
(0.670396 0.0608093 -8.9681e-20)
(0.771411 0.0255407 8.81719e-20)
(-0.00670349 0.0127363 -6.87491e-20)
(-0.0188694 0.0387744 2.1087e-19)
(-0.0274942 0.0641563 -6.62347e-20)
(-0.0316368 0.087491 1.23136e-19)
(-0.0308088 0.10799 -1.15935e-19)
(-0.0248116 0.125251 1.4883e-22)
(-0.0136616 0.139159 5.03469e-20)
(0.00251419 0.149817 1.84911e-19)
(0.023563 0.157476 -1.23203e-21)
(0.04936 0.162452 -8.25088e-20)
(0.0798386 0.165054 0)
(0.115003 0.165536 -7.11025e-20)
(0.154925 0.164064 1.34862e-19)
(0.199732 0.160706 1.28876e-19)
(0.2496 0.155441 -6.07626e-20)
(0.304726 0.148164 -1.47557e-21)
(0.365286 0.1387 -5.66771e-20)
(0.431386 0.126841 1.06265e-19)
(0.502835 0.112268 1.05539e-19)
(0.580044 0.0950263 -1.02152e-19)
(0.659931 0.0741052 9.5536e-20)
(0.749666 0.0512947 -9.18868e-20)
(0.824754 0.0235667 0)
(0.940001 -0.00632133 -8.81549e-20)
(-0.00757893 0.0116594 6.8405e-20)
(-0.0208857 0.0341356 -7.03711e-20)
(-0.0301724 0.055016 6.59287e-20)
(-0.0341471 0.0735939 0)
(-0.0321843 0.0895125 0)
(-0.0240358 0.102605 1.05799e-19)
(-0.00967602 0.112858 -1.00025e-19)
(0.0108142 0.120392 9.09743e-20)
(0.0373336 0.125425 -4.29849e-19)
(0.0698178 0.128219 4.18966e-22)
(0.108269 0.129032 7.45477e-20)
(0.152763 0.128083 0)
(0.203434 0.125522 -1.32987e-19)
(0.260436 0.121422 2.51035e-19)
(0.323888 0.115768 -1.78713e-19)
(0.393791 0.108464 -2.87576e-19)
(0.469972 0.099362 -4.90711e-21)
(0.552014 0.0882951 2.04706e-19)
(0.63896 0.074982 0)
(0.730193 0.0596849 0)
(0.821743 0.041102 -9.55393e-20)
(0.918689 0.0222745 9.189e-20)
(0.997519 -0.00273997 -3.45761e-19)
(1.10818 -0.0244746 3.23762e-19)
(-0.00889902 0.0113079 0)
(-0.0233092 0.0307643 0)
(-0.0326423 0.0472077 -1.97387e-19)
(-0.0354663 0.0608557 6.29408e-20)
(-0.0311013 0.0719103 1.35009e-21)
(-0.0192536 0.0805297 1.07317e-19)
(0.000188122 0.0868846 0)
(0.0272625 0.0911815 -9.18936e-20)
(0.0619998 0.0936599 8.5703e-20)
(0.104453 0.09457 -1.57991e-19)
(0.154696 0.0941437 1.79994e-22)
(0.212784 0.092566 1.39193e-19)
(0.278693 0.0899537 5.67595e-22)
(0.35224 0.0863435 1.25507e-19)
(0.432989 0.0816847 -1.75127e-19)
(0.520168 0.0758589 0)
(0.612611 0.0686967 2.16253e-19)
(0.708737 0.0600044 -3.06718e-19)
(0.806471 0.0495442 9.67519e-20)
(0.903674 0.0374127 0)
(0.996615 0.0226668 8.77547e-20)
(1.08601 0.00799057 3.44499e-19)
(1.15733 -0.0131027 -3.23316e-19)
(1.24052 -0.0273147 -3.76307e-19)
(-0.0106125 0.0115109 2.0595e-19)
(-0.0257404 0.028505 -2.82891e-19)
(-0.0338447 0.0409016 9.92156e-22)
(-0.033647 0.0499391 6.26258e-20)
(-0.0245125 0.05643 -1.15696e-19)
(-0.00611271 0.0609087 -1.06866e-19)
(0.0217642 0.0637797 1.9701e-19)
(0.059278 0.06538 -2.80029e-21)
(0.106538 0.0660104 -1.71829e-19)
(0.163563 0.0659332 3.17281e-19)
(0.230218 0.0653553 -8.85901e-22)
(0.306113 0.0644089 -1.38901e-19)
(0.390519 0.0631344 0)
(0.482282 0.0614728 0)
(0.579788 0.059268 -5.85077e-20)
(0.680968 0.0562815 -1.10021e-19)
(0.783354 0.0522312 -2.11946e-19)
(0.884175 0.0467738 1.98941e-19)
(0.980547 0.0397154 -9.68003e-20)
(1.06958 0.0306489 1.81556e-19)
(1.1486 0.0197108 -8.66975e-20)
(1.21611 0.0071993 1.62087e-19)
(1.26731 -0.00954118 -3.75987e-19)
(1.31264 -0.0207662 7.34872e-20)
(-0.0124419 0.0118888 6.92477e-20)
(-0.0273588 0.0267622 0)
(-0.0322698 0.0356928 1.33438e-19)
(-0.0263458 0.0408389 -1.25704e-19)
(-0.00912023 0.0435859 1.15803e-19)
(0.0197124 0.0448484 0)
(0.060374 0.0452673 0)
(0.11296 0.0453201 -9.17963e-20)
(0.17735 0.0453692 2.07545e-21)
(0.253081 0.0456685 8.10534e-20)
(0.339223 0.0463568 -7.43623e-20)
(0.434299 0.0474448 1.39645e-19)
(0.536246 0.0488071 0)
(0.642467 0.0501876 2.46452e-19)
(0.749943 0.0512211 -4.6394e-19)
(0.855406 0.0514673 3.28415e-19)
(0.955559 0.050476 2.07243e-19)
(1.04729 0.0477728 -1.9454e-19)
(1.12798 0.043162 0)
(1.19554 0.0359695 0)
(1.24899 0.0272881 0)
(1.28799 0.0146208 0)
(1.31343 0.00244221 7.28472e-20)
(1.32887 -0.0126746 -2.57756e-19)
(-0.017331 0.211781 -8.37248e-21)
(0.0177999 0.153405 8.43234e-21)
(0.0557261 0.0809614 -2.73503e-22)
(0.0962085 -0.00356774 0)
(0.138634 -0.0982188 -7.79586e-21)
(0.182372 -0.19877 1.4831e-20)
(0.226292 -0.300876 -4.78753e-22)
(0.269168 -0.397675 -6.38811e-21)
(0.309373 -0.481659 0)
(0.344582 -0.546189 0)
(0.372047 -0.587847 -2.36054e-22)
(0.38864 -0.608288 -1.92363e-22)
(0.390868 -0.614581 -2.56959e-21)
(0.376946 -0.615191 2.34367e-21)
(0.351737 -0.610907 0)
(0.329167 -0.588418 0)
(0.326684 -0.525873 2.18525e-21)
(0.354078 -0.408944 2.22053e-22)
(0.407841 -0.242114 -2.14225e-21)
(0.476939 -0.0460543 -1.39363e-22)
(0.550366 0.150388 0)
(0.619069 0.315902 0)
(0.676201 0.430318 0)
(0.717029 0.492452 0)
(0.741315 0.514262 0)
(0.753246 0.510661 0)
(0.75409 0.501457 2.88964e-22)
(0.738005 0.506506 -4.68351e-22)
(0.703389 0.523758 0)
(0.664976 0.513202 0)
(0.646589 0.425001 -6.00786e-22)
(0.659907 0.248623 5.83889e-22)
(0.698924 0.026239 3.32394e-22)
(0.747018 -0.176935 0)
(0.790839 -0.321818 0)
(0.821579 -0.395329 3.27919e-22)
(0.841819 -0.421773 -3.18752e-22)
(0.843879 -0.428517 0)
(0.820462 -0.445764 2.1345e-22)
(0.773453 -0.448901 -3.0842e-22)
(0.727524 -0.397729 1.12058e-22)
(0.707077 -0.266717 0)
(0.721047 -0.0745239 -2.64998e-22)
(0.755003 0.0995376 2.5768e-22)
(0.801658 0.243343 0)
(0.829569 0.311777 0)
(0.82779 0.378917 -6.88421e-23)
(0.791524 0.395884 1.98947e-22)
(0.7555 0.365159 0)
(0.744088 0.255074 0)
(0.773098 0.0608222 -6.61678e-23)
(0.804155 -0.0599131 -6.91787e-24)
(0.831155 -0.237396 -7.86749e-24)
(0.810449 -0.288766 4.03442e-23)
(0.798721 -0.360616 0)
(0.789105 -0.325781 0)
(0.80193 -0.13577 0)
(0.796685 -0.0720479 0)
(0.806498 0.237623 0)
(0.785882 0.253736 0)
(0.113127 0.172836 -8.54731e-22)
(0.15272 0.112882 -3.70047e-20)
(0.193443 0.0388526 -2.01595e-22)
(0.235824 -0.046861 3.48924e-20)
(0.278756 -0.141573 5.4616e-22)
(0.321314 -0.242188 0)
(0.362628 -0.343658 -2.78223e-20)
(0.401305 -0.438686 5.23028e-20)
(0.435167 -0.518993 -2.44654e-20)
(0.461658 -0.577404 1.74181e-20)
(0.478635 -0.610203 -1.66942e-20)
(0.484635 -0.618714 1.12345e-20)
(0.477795 -0.610196 -1.09513e-20)
(0.455197 -0.596228 -2.55067e-22)
(0.416903 -0.584563 -7.27037e-21)
(0.372225 -0.568216 7.06619e-21)
(0.339349 -0.524618 -7.38915e-21)
(0.33523 -0.43082 6.96975e-21)
(0.364524 -0.282135 -8.38267e-21)
(0.419493 -0.0959213 1.62733e-20)
(0.48816 0.0979142 -7.89179e-21)
(0.559266 0.26827 -3.92809e-22)
(0.623585 0.392998 -5.14544e-21)
(0.674398 0.467556 9.15587e-21)
(0.710026 0.500217 -4.03845e-21)
(0.732811 0.505272 1.93273e-22)
(0.741654 0.504912 3.20544e-21)
(0.731063 0.519157 3.82479e-22)
(0.702791 0.541408 -7.00256e-21)
(0.674422 0.527317 8.19368e-21)
(0.667921 0.4284 -4.38683e-21)
(0.690783 0.239829 7.11106e-22)
(0.735019 0.00900598 -3.33059e-22)
(0.783373 -0.196362 6.409e-22)
(0.82311 -0.337682 0)
(0.845905 -0.405556 0)
(0.857725 -0.425576 -1.06536e-21)
(0.853413 -0.423984 8.03663e-22)
(0.827017 -0.432434 6.04286e-22)
(0.776343 -0.431633 1.44454e-22)
(0.724855 -0.385278 -9.10808e-22)
(0.69821 -0.265173 2.22355e-22)
(0.708662 -0.0834978 0)
(0.744081 0.0848974 0)
(0.792797 0.23045 0)
(0.823975 0.306976 0)
(0.822663 0.383711 2.73487e-22)
(0.789525 0.405631 -1.32123e-22)
(0.755859 0.37173 0)
(0.747068 0.253877 0)
(0.778308 0.0533646 0)
(0.809679 -0.0667804 -1.23634e-22)
(0.839825 -0.238055 1.12006e-23)
(0.816783 -0.28532 -8.82536e-23)
(0.805022 -0.358032 0)
(0.792774 -0.325972 0)
(0.802221 -0.136761 4.66483e-23)
(0.795397 -0.0721936 1.19298e-22)
(0.801789 0.238927 0)
(0.78334 0.25494 0)
(0.252791 0.13526 3.53111e-21)
(0.294951 0.0749776 -7.52896e-20)
(0.337237 0.00157591 7.75705e-20)
(0.380768 -0.0827107 -7.25257e-20)
(0.423957 -0.175843 -5.49774e-22)
(0.465592 -0.274788 0)
(0.504603 -0.374217 -5.97541e-20)
(0.539047 -0.466343 5.84903e-20)
(0.566071 -0.542347 3.62208e-22)
(0.582904 -0.594842 6.13076e-22)
(0.587984 -0.620394 4.92862e-22)
(0.581372 -0.620519 3.91107e-22)
(0.563807 -0.601475 -1.81e-20)
(0.534075 -0.574404 1.78485e-20)
(0.489177 -0.55157 0)
(0.431567 -0.534664 3.43366e-22)
(0.375333 -0.506173 -1.20038e-20)
(0.341067 -0.438148 1.18778e-20)
(0.34234 -0.314448 0)
(0.377961 -0.144772 0)
(0.437311 0.0421055 -1.27641e-20)
(0.507249 0.21464 2.3541e-20)
(0.576007 0.348507 -1.93971e-20)
(0.635145 0.435382 1.5151e-21)
(0.681299 0.479723 1.34061e-20)
(0.714369 0.494987 -1.24725e-20)
(0.73105 0.50476 1.16942e-20)
(0.726689 0.528321 4.01335e-22)
(0.706068 0.55516 -6.60304e-21)
(0.688393 0.538118 0)
(0.6935 0.430714 0)
(0.725502 0.232698 4.54543e-21)
(0.77438 -0.0043697 -5.84194e-21)
(0.822126 -0.21091 3.18821e-23)
(0.857257 -0.348725 3.76253e-21)
(0.872043 -0.411694 -3.65644e-21)
(0.875334 -0.426623 0)
(0.864658 -0.418078 2.32851e-22)
(0.835821 -0.418391 1.68834e-21)
(0.782533 -0.413797 -3.25662e-21)
(0.726312 -0.37243 1.43105e-21)
(0.693588 -0.264069 1.61472e-22)
(0.700137 -0.0938087 -2.04061e-21)
(0.736348 0.068433 1.60115e-21)
(0.786314 0.216064 3.15352e-22)
(0.820316 0.30112 2.8072e-22)
(0.819595 0.387636 -2.74194e-22)
(0.789991 0.414836 0)
(0.75908 0.378173 0)
(0.752901 0.253208 -1.40083e-21)
(0.785903 0.0464275 6.67043e-22)
(0.817044 -0.073399 -6.07976e-22)
(0.850071 -0.238357 7.32786e-22)
(0.8245 -0.281455 7.02649e-22)
(0.812191 -0.354988 -1.62462e-22)
(0.797202 -0.325973 2.16017e-22)
(0.803615 -0.13743 -1.70644e-22)
(0.795324 -0.072103 4.80446e-23)
(0.798198 0.240181 0)
(0.781785 0.256058 0)
(0.392347 0.0999271 -1.56575e-19)
(0.435757 0.0398384 -3.30685e-21)
(0.479605 -0.0316178 1.52309e-19)
(0.52452 -0.113148 -1.1844e-21)
(0.568455 -0.20344 0)
(0.609845 -0.299588 0)
(0.647077 -0.395862 -1.22207e-19)
(0.677371 -0.483934 1.12179e-20)
(0.697195 -0.554643 1.4807e-19)
(0.703835 -0.60067 -7.60958e-21)
(0.69654 -0.619255 -3.57812e-20)
(0.676623 -0.612927 -2.16733e-20)
(0.646895 -0.587539 2.18136e-20)
(0.609337 -0.551602 0)
(0.5616 -0.517176 -1.12612e-20)
(0.500151 -0.49314 1.03036e-20)
(0.430638 -0.471912 0)
(0.371629 -0.427549 0)
(0.343828 -0.33398 1.01964e-20)
(0.355403 -0.188333 4.77366e-22)
(0.400306 -0.0136151 -9.72731e-21)
(0.464758 0.15702 -9.07832e-21)
(0.534615 0.297935 8.94071e-21)
(0.599957 0.396378 -6.55448e-21)
(0.655286 0.452841 6.32793e-22)
(0.697662 0.479464 5.54479e-21)
(0.721884 0.50009 6.97132e-22)
(0.724334 0.532688 1.49344e-23)
(0.712223 0.56387 0)
(0.70549 0.545221 9.9968e-21)
(0.721835 0.432308 -1.03922e-20)
(0.76248 0.228318 7.58276e-22)
(0.815608 -0.0133813 0)
(0.862473 -0.220799 -6.80611e-22)
(0.892799 -0.355551 7.81197e-21)
(0.899763 -0.414231 -1.25402e-20)
(0.894557 -0.425216 7.18032e-22)
(0.877421 -0.411231 8.48495e-22)
(0.846435 -0.404178 2.87616e-21)
(0.791658 -0.395526 3.36609e-22)
(0.731824 -0.358829 -2.76985e-21)
(0.693327 -0.262838 2.30526e-21)
(0.695509 -0.105033 6.02893e-23)
(0.731703 0.0504678 1.28334e-21)
(0.782081 0.20032 -1.56416e-21)
(0.81851 0.294114 -1.87527e-21)
(0.818582 0.390481 5.37247e-22)
(0.792895 0.423319 1.23138e-21)
(0.765193 0.3845 -2.61409e-21)
(0.761613 0.253273 2.09466e-21)
(0.795881 0.0402388 -6.22055e-22)
(0.826192 -0.0796997 7.89858e-22)
(0.861757 -0.238357 6.25863e-22)
(0.833535 -0.277153 -1.08162e-21)
(0.820175 -0.351416 3.81284e-23)
(0.802277 -0.325762 -1.78108e-22)
(0.806022 -0.137818 0)
(0.796401 -0.0717845 -8.20958e-23)
(0.795686 0.241398 1.03737e-22)
(0.781213 0.257105 0)
(0.526868 0.0649107 1.56112e-19)
(0.571578 0.0069531 -3.1081e-19)
(0.618056 -0.0614099 1.52167e-19)
(0.664826 -0.139283 1.51934e-19)
(0.709764 -0.225479 -2.93687e-19)
(0.75088 -0.317147 7.27207e-21)
(0.78585 -0.408152 1.3183e-19)
(0.811009 -0.49002 1.05898e-19)
(0.822433 -0.553915 -1.03681e-19)
(0.817947 -0.593163 0)
(0.798117 -0.605736 -5.74094e-20)
(0.765698 -0.594859 1.00159e-19)
(0.724522 -0.566686 -4.31316e-20)
(0.678473 -0.527602 0)
(0.628219 -0.48591 0)
(0.568864 -0.452316 2.97159e-22)
(0.497317 -0.429415 -1.44331e-20)
(0.423633 -0.400591 1.40231e-20)
(0.369853 -0.337022 0)
(0.35443 -0.221802 1.53915e-20)
(0.3793 -0.0664221 -2.92175e-20)
(0.433104 0.0974158 2.75277e-20)
(0.500588 0.242402 -2.50103e-20)
(0.569451 0.350927 1.03846e-21)
(0.631928 0.419431 1.99353e-20)
(0.682198 0.458124 -9.6983e-21)
(0.713492 0.489955 -3.39083e-22)
(0.723124 0.531262 -6.23539e-21)
(0.720045 0.566942 -1.71084e-21)
(0.724183 0.548618 7.90333e-21)
(0.751189 0.433571 6.88058e-22)
(0.799934 0.226757 -1.30026e-20)
(0.857298 -0.0178153 2.50076e-20)
(0.903492 -0.225793 -1.34655e-20)
(0.92904 -0.35795 0)
(0.928521 -0.413036 -6.70926e-21)
(0.915079 -0.421234 6.31434e-21)
(0.891541 -0.403447 -2.77416e-21)
(0.858603 -0.390132 3.47879e-21)
(0.803352 -0.377356 -2.72772e-22)
(0.741136 -0.344674 0)
(0.697368 -0.26122 -2.76504e-22)
(0.694657 -0.116715 9.00904e-22)
(0.729945 0.0313375 0)
(0.779904 0.183283 2.53966e-21)
(0.818404 0.285776 -1.01333e-21)
(0.819531 0.39198 5.13546e-22)
(0.798117 0.430884 5.70429e-22)
(0.774094 0.390701 0)
(0.773121 0.254188 0)
(0.808189 0.0350746 -2.22753e-21)
(0.83702 -0.0855908 3.33631e-21)
(0.874713 -0.238024 -1.72488e-21)
(0.84381 -0.272344 4.70422e-22)
(0.828929 -0.347229 6.50616e-22)
(0.807895 -0.32534 1.78275e-22)
(0.809341 -0.137982 -2.04168e-22)
(0.798548 -0.0712498 0)
(0.794199 0.24259 -1.66217e-22)
(0.781614 0.25809 -1.98871e-23)
(0.661467 0.0284061 1.53185e-19)
(0.706668 -0.0253332 -1.52692e-19)
(0.754853 -0.0896779 1.21292e-21)
(0.803077 -0.162477 -1.13921e-21)
(0.848013 -0.24289 1.15032e-21)
(0.887158 -0.327961 -1.08326e-21)
(0.917693 -0.411249 1.89711e-21)
(0.935429 -0.484745 0)
(0.936667 -0.54057 -1.4512e-21)
(0.920274 -0.573153 1.2071e-21)
(0.888243 -0.581234 9.72856e-22)
(0.844784 -0.568043 -7.79638e-22)
(0.794475 -0.539527 0)
(0.741324 -0.501257 0)
(0.687895 -0.457943 3.19643e-22)
(0.631787 -0.417191 0)
(0.566023 -0.386951 -1.69362e-22)
(0.489959 -0.362843 0)
(0.418829 -0.322363 -9.26253e-21)
(0.376473 -0.240087 1.85988e-20)
(0.37633 -0.112184 -1.89894e-20)
(0.414182 0.0387827 9.46075e-21)
(0.475016 0.183479 8.29885e-21)
(0.544084 0.299704 -8.05924e-21)
(0.611072 0.379609 -7.99998e-21)
(0.667455 0.430671 7.78251e-21)
(0.705141 0.473774 0)
(0.72207 0.52352 3.18687e-22)
(0.728197 0.564116 0)
(0.742829 0.548311 0)
(0.779615 0.434617 2.28068e-20)
(0.83594 0.227957 -2.34437e-20)
(0.89806 -0.0176722 1.62452e-21)
(0.94425 -0.225905 1.46037e-21)
(0.965312 -0.356091 -1.16032e-21)
(0.957815 -0.408347 -5.93743e-21)
(0.936577 -0.414792 5.7652e-21)
(0.906778 -0.394814 -3.55612e-21)
(0.871951 -0.376494 3.02024e-21)
(0.817087 -0.359629 5.21755e-22)
(0.753741 -0.330054 -2.01455e-21)
(0.70544 -0.258928 -2.97427e-22)
(0.697354 -0.128426 1.44421e-21)
(0.730768 0.0113537 0)
(0.779515 0.164968 -8.98245e-22)
(0.819775 0.275896 1.39786e-21)
(0.822268 0.391857 -1.81444e-21)
(0.805428 0.437325 -5.74085e-22)
(0.785549 0.396701 0)
(0.787212 0.256012 8.3934e-22)
(0.822703 0.0312207 -1.66465e-21)
(0.849411 -0.0909399 3.15386e-23)
(0.888739 -0.237342 -5.73421e-22)
(0.855231 -0.26699 6.71505e-22)
(0.838419 -0.342331 -6.48953e-22)
(0.813951 -0.324684 0)
(0.813462 -0.137984 2.04262e-22)
(0.801675 -0.0705158 0)
(0.793677 0.243759 0)
(0.782973 0.259013 3.01223e-23)
(0.807379 -0.0070931 -1.49129e-19)
(0.849755 -0.0569301 1.47604e-19)
(0.895814 -0.115894 -1.11272e-21)
(0.941882 -0.181547 1.16628e-21)
(0.982779 -0.254216 0)
(1.01586 -0.330443 0)