/*--------------------------------*- C++ -*----------------------------------*\
| =========                 |                                                 |
| \\      /  F ield         | OpenFOAM: The Open Source CFD Toolbox           |
|  \\    /   O peration     | Version:  2512                                  |
|   \\  /    A nd           | Website:  www.openfoam.com                      |
|    \\/     M anipulation  |                                                 |
\*---------------------------------------------------------------------------*/
FoamFile
{
    version     2.0;
    format      ascii;
    arch        "LSB;label=32;scalar=64";
    class       volVectorField;
    location    "88.5";
    object      U;
}
// * * * * * * * * * * * * * * * * * * * * * * * * * * * * * * * * * * * * * //

dimensions      [0 1 -1 0 0 0 0];

internalField   nonuniform List<vector> 
13248
(
(-0.0111564 0.00995706 6.65999e-20)
(-0.0194006 0.0184682 0)
(-0.0153976 0.0200715 -1.26463e-19)
(0.000259067 0.0176693 1.19132e-19)
(0.0273853 0.013273 1.11686e-19)
(0.0659076 0.00831781 0)
(0.115707 0.00383707 0)
(0.176435 0.000555711 2.65876e-19)
(0.247364 -0.00101783 -3.03186e-21)
(0.327265 -0.00055923 -2.29062e-19)
(0.414372 0.00208069 2.07076e-19)
(0.506433 0.00687627 -1.29e-19)
(0.60084 0.0136311 0)
(0.694816 0.0219939 -2.07631e-19)
(0.785628 0.0314887 3.83112e-19)
(0.870794 0.0415568 -9.01008e-20)
(0.948246 0.0516092 -1.53824e-19)
(1.01646 0.061062 1.44402e-19)
(1.0745 0.0694427 0)
(1.12203 0.0761816 0)
(1.1594 0.0814378 0)
(1.18696 0.083616 0)
(1.20692 0.0860631 4.22771e-20)
(1.21858 0.0804053 1.53963e-19)
(-0.0111436 0.00913452 -2.01289e-19)
(-0.0155781 0.0160069 1.37574e-19)
(-0.0037492 0.0168066 -1.04063e-21)
(0.023148 0.0142369 -1.82058e-19)
(0.0644823 0.0103201 -1.11562e-19)
(0.119724 0.00657565 -1.05307e-19)
(0.18813 0.00407903 -1.92455e-19)
(0.268487 0.00355433 1.81927e-19)
(0.358933 0.00542631 0)
(0.45691 0.00983924 1.80602e-21)
(0.559245 0.0166699 4.02135e-21)
(0.662388 0.0255528 1.29449e-19)
(0.762715 0.0359276 0)
(0.856861 0.0471058 0)
(0.942013 0.0583505 1.39876e-19)
(1.01612 0.0689566 -2.62462e-19)
(1.07799 0.0783193 1.52651e-19)
(1.12735 0.0859809 -1.43312e-19)
(1.16468 0.0916639 -6.26737e-20)
(1.19118 0.0952302 -1.11615e-19)
(1.20837 0.0968186 -4.64959e-20)
(1.21844 0.0961929 -8.68472e-20)
(1.22252 0.0949412 1.2792e-19)
(1.2237 0.08945 3.7048e-20)
(-0.00992684 0.007551 0)
(-0.00798871 0.0118175 0)
(0.014393 0.0115263 6.44152e-20)
(0.0553838 0.00909092 5.93873e-20)
(0.113747 0.00645022 -1.50592e-21)
(0.188186 0.00510789 -1.08482e-19)
(0.276864 0.00606511 0)
(0.377134 0.00986562 -9.01554e-20)
(0.485461 0.0166308 8.39233e-20)
(0.597575 0.0260908 5.47462e-22)
(0.708829 0.0376432 -1.40156e-19)
(0.81468 0.0504503 -1.25716e-19)
(0.91117 0.063564 4.06297e-21)
(0.995306 0.0760567 -9.91156e-20)
(1.06529 0.0871363 2.41171e-19)
(1.12057 0.0962264 0)
(1.16171 0.103006 -1.50597e-19)
(1.19022 0.107398 7.29726e-20)
(1.20819 0.109552 6.26178e-20)
(1.21796 0.109701 0)
(1.22192 0.108356 5.06611e-20)
(1.22207 0.10543 -1.76066e-19)
(1.21983 0.102623 1.65278e-19)
(1.21771 0.0965906 1.0524e-19)
(-0.00724628 0.00540141 -7.13312e-20)
(0.00414709 0.00647067 -7.37264e-20)
(0.0402242 0.00519953 6.67319e-20)
(0.0983573 0.00359775 0)
(0.176385 0.00339793 0)
(0.271734 0.0059326 -2.03562e-21)
(0.380848 0.0119036 0)
(0.499054 0.0213941 -2.73837e-19)
(0.620789 0.0339337 2.53061e-19)
(0.740137 0.048609 -3.10494e-19)
(0.851535 0.0642332 7.01583e-20)
(0.950435 0.0795524 0)
(1.03378 0.0934424 1.13264e-19)
(1.1002 0.105058 -2.08426e-19)
(1.14994 0.113913 4.93406e-20)
(1.18455 0.119881 1.23019e-19)
(1.20647 0.123139 -6.97702e-21)
(1.21856 0.124075 -1.37108e-19)
(1.22362 0.12317 0)
(1.22414 0.120903 0)
(1.22204 0.117745 -4.78499e-20)
(1.21861 0.113788 4.28112e-20)
(1.21467 0.110169 1.52634e-19)
(1.21102 0.104078 -1.43282e-19)
(-0.00279559 0.00289979 -7.51505e-20)
(0.0216216 0.000667247 -7.48134e-20)
(0.0748067 -0.000958508 2.10463e-19)
(0.153033 -0.000549532 -1.27586e-19)
(0.252691 0.0032196 1.20095e-19)
(0.369248 0.0112468 2.17622e-19)
(0.496776 0.0235986 -1.5344e-19)
(0.628221 0.0395537 -1.84865e-19)
(0.756173 0.0577985 4.89854e-21)
(0.873859 0.0767041 2.34764e-19)
(0.976055 0.0946426 0)
(1.05965 0.110268 6.33322e-20)
(1.12377 0.122696 0)
(1.16951 0.131566 -1.00574e-19)
(1.19938 0.136983 1.40934e-19)
(1.21666 0.139387 9.11128e-22)
(1.22476 0.139393 -3.63951e-20)
(1.22674 0.137644 6.68117e-20)
(1.22505 0.134708 5.79713e-20)
(1.22141 0.131012 -5.17308e-20)
(1.21692 0.126878 4.78388e-20)
(1.21219 0.122363 -4.28011e-20)
(1.20744 0.118148 0)
(1.20327 0.11207 -3.28268e-20)
(0.00376612 0.000290561 7.51397e-20)
(0.045155 -0.00477187 7.87831e-20)
(0.118861 -0.0055559 -7.04888e-20)
(0.219587 -0.00150586 1.31062e-19)
(0.341578 0.00796798 -1.2336e-19)
(0.477619 0.0229357 1.1107e-19)
(0.619018 0.0424236 -5.33653e-20)
(0.756588 0.064622 1.38982e-19)
(0.882045 0.0873304 -8.72628e-20)
(0.989248 0.108435 1.52538e-19)
(1.0749 0.1263 -3.507e-19)
(1.13856 0.139982 1.28484e-19)
(1.18215 0.149252 -1.1043e-19)
(1.20907 0.154459 1.03726e-19)
(1.22333 0.156304 8.80641e-20)
(1.22881 0.155621 7.62672e-20)
(1.22874 0.153194 -2.12654e-19)
(1.22552 0.149654 1.31451e-19)
(1.22077 0.145451 -5.79736e-20)
(1.21545 0.140872 1.50832e-19)
(1.21006 0.136085 -4.87243e-20)
(1.20482 0.131141 -1.1818e-19)
(1.19984 0.126395 1.09024e-19)
(1.19529 0.12034 3.28165e-20)
(0.012769 -0.00212731 0)
(0.0752606 -0.00890723 6.1842e-22)
(0.172531 -0.00711346 1.47087e-19)
(0.297109 0.00250893 -1.38001e-19)
(0.44034 0.019337 -1.24033e-19)
(0.591852 0.0421331 2.30216e-19)
(0.740411 0.068545 -1.06766e-19)
(0.875781 0.0956374 1.41301e-19)
(0.990466 0.120628 -3.51197e-21)
(1.08065 0.14145 -7.95855e-20)
(1.14615 0.157026 1.71507e-19)
(1.18959 0.167227 -2.52574e-19)
(1.21522 0.172642 0)
(1.22776 0.174239 -4.88256e-20)
(1.23153 0.173073 -1.29014e-19)
(1.22999 0.170077 4.07856e-20)
(1.2256 0.165964 1.74815e-21)
(1.2199 0.161218 -8.69606e-20)
(1.21382 0.156137 6.0349e-21)
(1.2078 0.150891 1.00336e-19)
(1.20205 0.145568 -4.43214e-20)
(1.19662 0.140216 -1.68612e-20)
(1.19148 0.134961 5.20152e-20)
(1.1867 0.128917 0)
(0.024466 -0.00398667 0)
(0.112087 -0.0107002 3.99133e-20)
(0.235177 -0.00416444 -1.92065e-19)
(0.383454 0.0130071 6.96589e-20)
(0.544801 0.0383946 -6.55606e-20)
(0.705788 0.0690192 -5.96941e-20)
(0.853721 0.101072 -1.05046e-19)
(0.979088 0.130839 5.27075e-20)
(1.07699 0.155576 4.55211e-20)
(1.14712 0.1739 0)
(1.19265 0.185711 1.01962e-19)
(1.21864 0.191815 -1.5099e-19)
(1.23059 0.193468 1.12123e-19)
(1.23337 0.191979 4.88507e-20)
(1.23077 0.188466 -3.96073e-20)
(1.22539 0.183758 -3.25614e-20)
(1.21886 0.178401 -3.01787e-20)
(1.21205 0.172727 9.13339e-20)
(1.20542 0.166918 0)
(1.19915 0.161069 4.52357e-20)
(1.19329 0.15523 3.77266e-20)
(1.18779 0.149432 -9.40542e-20)
(1.18259 0.143674 -6.40381e-20)
(1.17766 0.137592 5.91452e-20)
(0.0389684 -0.00485367 -4.32052e-20)
(0.155291 -0.00906168 -1.6334e-21)
(0.305285 0.00462129 3.90739e-20)
(0.475355 0.0310518 1.08945e-19)
(0.649858 0.0654438 3.14944e-20)
(0.813238 0.102887 -6.09865e-20)
(0.953146 0.138448 5.56352e-20)
(1.06274 0.168324 -4.85483e-20)
(1.14098 0.190533 8.66392e-20)
(1.19128 0.204842 3.65425e-20)
(1.21951 0.212238 -1.03867e-19)
(1.23203 0.214294 3.03631e-20)
(1.23448 0.212636 5.13578e-20)
(1.23114 0.208631 -2.53578e-20)
(1.22493 0.203276 0)
(1.21758 0.197219 3.70468e-20)
(1.21004 0.19084 6.21229e-20)
(1.20276 0.184347 1.02262e-20)
(1.19593 0.177847 -5.1479e-20)
(1.18959 0.171393 2.13227e-20)
(1.1837 0.165017 0)
(1.17819 0.158724 -1.65837e-20)
(1.17297 0.152474 -1.57006e-20)
(1.16796 0.146274 0)
(0.0561825 -0.00425348 0)
(0.203945 -0.00294491 2.26459e-20)
(0.380485 0.0202914 4.18027e-20)
(0.568755 0.0571252 -1.11097e-19)
(0.750266 0.10004 3.59155e-20)
(0.909054 0.142421 0)
(1.03519 0.178941 5.34976e-20)
(1.12594 0.206543 -7.46353e-20)
(1.18447 0.224565 -4.32633e-20)
(1.21731 0.234078 1.94733e-20)
(1.23188 0.237001 -3.075e-20)
(1.23479 0.235366 7.48732e-20)
(1.23109 0.230886 3.70176e-20)
(1.22416 0.224803 -2.59902e-20)
(1.21601 0.217914 -2.67885e-21)
(1.2077 0.210682 -6.93325e-20)
(1.19973 0.203352 3.14604e-20)
(1.1923 0.196051 -8.30817e-22)
(1.18545 0.188839 0)
(1.17914 0.181748 -2.13451e-20)
(1.1733 0.174794 0)
(1.16785 0.167959 4.76372e-20)
(1.16267 0.161228 -5.64637e-20)
(1.15765 0.154808 2.56629e-20)
(0.075769 -0.00171143 -1.1823e-20)
(0.256527 0.0085452 -5.69475e-20)
(0.457722 0.0434823 6.47693e-20)
(0.659288 0.0910803 3.79286e-20)
(0.841373 0.141136 -1.81322e-20)
(0.98974 0.186033 3.02832e-20)
(1.0986 0.221004 -1.47337e-20)
(1.16996 0.244456 2.43532e-20)
(1.21068 0.257306 0)
(1.22933 0.26181 5.45369e-20)
(1.23382 0.260514 -2.43953e-21)
(1.23029 0.255614 -4.36573e-20)
(1.22283 0.248711 1.85248e-20)
(1.21391 0.240828 -2.06831e-20)
(1.2048 0.232556 -7.67765e-21)
(1.19609 0.224203 9.08364e-21)
(1.188 0.215922 -6.86816e-21)
(1.18059 0.207783 -3.708e-20)
(1.17383 0.199822 2.26755e-20)
(1.16764 0.192057 4.56931e-21)
(1.16194 0.184486 3.9937e-21)
(1.1566 0.177082 3.49243e-21)
(1.15153 0.16989 0)
(1.14657 0.163128 0)
(0.0972001 0.00321072 1.18311e-20)
(0.311125 0.0260629 -1.18121e-20)
(0.533688 0.0743344 -2.15722e-20)
(0.742931 0.13218 0)
(0.919704 0.187306 -8.99706e-21)
(1.05353 0.232154 -8.08162e-21)
(1.14378 0.263448 -1.37686e-20)
(1.19695 0.28149 0)
(1.22268 0.288743 0)
(1.23047 0.288365 0)
(1.22794 0.283214 0)
(1.22031 0.275418 0)
(1.21071 0.266355 -1.15824e-20)
(1.2008 0.256814 5.25949e-21)
(1.19131 0.247204 9.05856e-21)
(1.18254 0.237719 4.22804e-21)
(1.17454 0.228444 1.03185e-20)
(1.1673 0.21942 0)
(1.16075 0.210664 -2.41377e-21)
(1.15479 0.202183 -2.31041e-21)
(1.14932 0.193959 -4.00007e-21)
(1.14421 0.18597 -3.49802e-21)
(1.13934 0.178331 0)
(1.13456 0.171103 2.44184e-21)
(-0.000216331 -0.0356456 8.51587e-21)
(-0.00425916 -0.0816666 -8.84194e-21)
(-0.0136962 -0.109748 -1.67382e-20)
(-0.0261483 -0.124607 0)
(-0.0401769 -0.130202 -2.24879e-20)
(-0.0549909 -0.129702 7.12764e-21)
(-0.0700459 -0.125428 -1.32647e-20)
(-0.0849763 -0.118889 0)
(-0.0995563 -0.110904 0)
(-0.113647 -0.101765 0)
(-0.127154 -0.0914194 0)
(-0.140002 -0.0796153 0)
(-0.152111 -0.0660236 2.59943e-22)
(-0.163393 -0.0503111 -8.923e-21)
(-0.173726 -0.0321846 1.62666e-20)
(-0.182955 -0.0114134 2.31165e-20)
(-0.190946 0.0121402 6.82117e-21)
(-0.197569 0.038472 0)
(-0.202643 0.0674898 6.44594e-21)
(-0.205994 0.0989614 -1.75095e-20)
(-0.207485 0.132505 -1.06082e-20)
(-0.206993 0.167622 -9.79615e-21)
(-0.204583 0.203796 0)
(-0.200974 0.240464 0)
(0.00138114 -0.0309069 -2.535e-20)
(-0.00116178 -0.070476 4.39008e-20)
(-0.0104615 -0.0943531 -1.61957e-20)
(-0.0234338 -0.106594 -3.11785e-20)
(-0.0382371 -0.110695 4.4263e-20)
(-0.0538643 -0.10948 -2.77141e-20)
(-0.0696497 -0.105012 3.93295e-20)
(-0.085169 -0.0986201 2.41912e-20)
(-0.100177 -0.0910115 0)
(-0.114535 -0.0824254 -2.21223e-20)
(-0.128153 -0.0727896 3.68785e-23)
(-0.140955 -0.061862 1.96195e-20)
(-0.152856 -0.049336 2.67368e-20)
(-0.163749 -0.034914 3.35347e-20)
(-0.173492 -0.0183308 -1.64354e-20)
(-0.181922 0.00058895 -4.46117e-20)
(-0.188867 0.0219281 1.29147e-20)
(-0.194125 0.0456993 -4.97426e-20)
(-0.197478 0.0718175 0)
(-0.198728 0.100086 1.14432e-20)
(-0.197683 0.13021 1.05939e-20)
(-0.194073 0.161822 9.78264e-21)
(-0.187752 0.194577 0)
(-0.180083 0.228186 0)
(0.00237735 -0.0255436 0)
(0.000792401 -0.0581401 8.48349e-20)
(-0.00829388 -0.0777714 -3.20844e-20)
(-0.021344 -0.0876224 3.07134e-20)
(-0.0362428 -0.0905793 -8.54971e-20)
(-0.0518243 -0.0890329 0)
(-0.0673288 -0.0847367 -5.06314e-20)
(-0.0822822 -0.0788231 2.34537e-20)
(-0.0964172 -0.0718935 -4.39848e-20)
(-0.109587 -0.0641453 1.98284e-20)
(-0.121698 -0.0555071 1.16466e-19)
(-0.132671 -0.0457606 -5.46272e-20)
(-0.142419 -0.0346337 -8.53293e-20)
(-0.150809 -0.021857 -3.02076e-20)
(-0.157692 -0.00722055 7.56428e-22)
(-0.162901 0.00941508 1.08956e-19)
(-0.166226 0.0281189 -5.07656e-20)
(-0.167438 0.0488808 1.94241e-21)
(-0.16629 0.0716089 0)
(-0.162552 0.0961399 -3.73634e-20)
(-0.156017 0.122264 0)
(-0.146339 0.149767 -3.35582e-20)
(-0.132976 0.178491 1.19957e-19)
(-0.117191 0.208096 -8.8102e-22)
(0.0027172 -0.0199288 0)
(0.00147332 -0.0454341 -6.44066e-22)
(-0.00740771 -0.060963 3.11854e-20)
(-0.0201842 -0.0687246 -2.93635e-20)
(-0.0346026 -0.0709123 2.83006e-20)
(-0.0494037 -0.0694275 1.57205e-19)
(-0.063767 -0.0656866 -4.94213e-20)
(-0.077181 -0.0606128 -4.57384e-20)
(-0.0893584 -0.0547005 8.66968e-20)
(-0.100142 -0.0481113 -1.21633e-19)
(-0.109432 -0.0407822 3.72818e-20)
(-0.117144 -0.0325259 3.44038e-20)
(-0.123172 -0.0231074 0)
(-0.127402 -0.0123018 3.08627e-20)
(-0.129686 5.76318e-05 0)
(-0.129835 0.0140906 4.9581e-20)
(-0.127644 0.02984 -9.23745e-20)
(-0.122885 0.0472732 2.45993e-20)
(-0.115305 0.066286 7.92369e-20)
(-0.104653 0.0867156 3.73246e-20)
(-0.0907101 0.108381 0)
(-0.0731857 0.131155 -8.92828e-20)
(-0.0517458 0.155064 2.89477e-20)
(-0.0255582 0.18095 0)
(0.00239988 -0.014365 0)
(0.000853006 -0.0329872 -9.8352e-20)
(-0.00790607 -0.0447025 -3.09144e-20)
(-0.020155 -0.0507261 -5.8285e-20)
(-0.0336315 -0.0525301 5.48847e-20)
(-0.0470533 -0.0515035 -5.20489e-20)
(-0.0595776 -0.0487114 9.63577e-20)
(-0.070675 -0.0448602 4.51313e-20)
(-0.0800439 -0.0403325 -1.2739e-19)
(-0.0875171 -0.0352524 7.8071e-20)
(-0.0929916 -0.0295649 -1.09787e-19)
(-0.0963812 -0.0231136 2.34102e-19)
(-0.0975901 -0.0157049 -1.25802e-19)
(-0.096503 -0.00715916 5.63146e-20)
(-0.0929813 0.00267492 1.55474e-19)
(-0.086859 0.0138875 -5.22369e-20)
(-0.0779516 0.0265026 -4.5471e-20)
(-0.0660583 0.0404744 -4.23226e-20)
(-0.0509644 0.0556878 0)
(-0.0324427 0.0719625 -6.43691e-20)
(-0.0103072 0.0890719 -5.61562e-20)
(0.0156583 0.106845 8.34725e-20)
(0.0464573 0.125564 9.82249e-20)
(0.0834333 0.146793 -9.04722e-20)
(0.00146497 -0.0090702 0)
(-0.00100124 -0.0212614 -1.28817e-19)
(-0.00975199 -0.0295576 2.2706e-22)
(-0.0212725 -0.0342194 1.14989e-19)
(-0.03341 -0.0360102 0)
(-0.0449289 -0.0358101 0)
(-0.0550066 -0.0343324 0)
(-0.0631187 -0.0320632 -4.42288e-20)
(-0.0689601 -0.0292682 9.02416e-22)
(-0.072359 -0.026027 7.71932e-20)
(-0.0732093 -0.0222861 -1.06445e-19)
(-0.0714283 -0.0179133 9.67047e-22)
(-0.0669303 -0.0127479 0)
(-0.0596156 -0.00663558 -5.62904e-20)
(-0.0493666 0.000547977 4.78258e-20)
(-0.036049 0.00887889 -1.38376e-19)
(-0.0195157 0.0183754 1.65365e-19)
(0.000390807 0.0289928 3.22842e-20)
(0.0238329 0.0406186 -5.38097e-21)
(0.0509788 0.0530717 -1.25194e-19)
(0.0819828 0.0660979 -5.40092e-20)
(0.11699 0.0794113 1.73044e-19)
(0.15622 0.0930626 -1.13084e-19)
(0.205987 0.108204 0)
(-1.54868e-05 -0.00419539 6.15789e-20)
(-0.00392251 -0.0105814 6.42264e-20)
(-0.0127269 -0.0159171 -6.04236e-20)
(-0.0232776 -0.0195827 -1.13936e-19)
(-0.0336328 -0.0216758 1.07287e-19)
(-0.0426667 -0.0225904 -1.00145e-19)
(-0.0496158 -0.0226995 1.41025e-19)
(-0.0539806 -0.0222707 -4.39168e-20)
(-0.0554604 -0.0214456 8.18537e-20)
(-0.0538777 -0.0202486 0)
(-0.0491193 -0.0186138 6.75154e-20)
(-0.0410995 -0.0164206 -1.28285e-19)
(-0.0297388 -0.0135259 1.15876e-19)
(-0.0149511 -0.00979174 -1.08833e-19)
(0.00335721 -0.00510576 0)
(0.0252855 0.000604561 8.88296e-20)
(0.0509351 0.00736147 1.55695e-19)
(0.0804056 0.0151294 -1.47376e-19)
(0.113792 0.0238078 -6.41222e-20)
(0.151183 0.0332296 -5.6954e-20)
(0.192583 0.0431427 1.61607e-19)
(0.238598 0.0532535 4.49816e-20)
(0.286061 0.0631578 -4.3696e-20)
(0.352712 0.0733213 3.89408e-20)
(-0.00193423 0.000143972 -6.15873e-20)
(-0.00762888 -0.00119246 1.91775e-19)
(-0.0163925 -0.00405568 -6.00793e-20)
(-0.025568 -0.00704604 1.13479e-19)
(-0.0335041 -0.00965932 -1.06855e-19)
(-0.0392313 -0.0118412 3.23933e-22)
(-0.04207 -0.0136451 4.68597e-20)
(-0.0415534 -0.0151244 1.72162e-19)
(-0.037382 -0.0162888 -2.34758e-21)
(-0.0293604 -0.0170992 -7.59911e-20)
(-0.017356 -0.0174578 0)
(-0.00126661 -0.0172332 -6.10084e-20)
(0.0189909 -0.0162813 1.17032e-19)
(0.0434857 -0.0144664 1.03516e-19)
(0.0722732 -0.0116758 -4.96902e-20)
(0.105389 -0.00783365 -7.54503e-22)
(0.142845 -0.00291145 -3.95166e-20)
(0.184619 0.00306295 6.99244e-20)
(0.230653 0.00999754 6.41088e-20)
(0.280913 0.0177517 -5.77021e-20)
(0.334761 0.0259866 5.12745e-20)
(0.394608 0.0348003 -4.64266e-20)
(0.449615 0.0429054 0)
(0.537009 0.0512598 -3.88962e-20)
(-0.00413879 0.00383613 6.1784e-20)
(-0.0117072 0.00667787 -6.39459e-20)
(-0.0200769 0.00578825 6.06431e-20)
(-0.0271861 0.00321859 0)
(-0.0317285 -7.64604e-06 0)
(-0.032915 -0.00343644 9.95843e-20)
(-0.0301558 -0.00682639 -9.35745e-20)
(-0.0230094 -0.0100235 8.53369e-20)
(-0.0111667 -0.0129181 -4.01476e-19)
(0.005587 -0.0153802 1.12914e-21)
(0.0274133 -0.0172576 6.82857e-20)
(0.0544112 -0.0183918 0)
(0.086626 -0.0186253 -1.12739e-19)
(0.124043 -0.0178152 2.08351e-19)
(0.166581 -0.015848 -1.43741e-19)
(0.214081 -0.0126534 -2.10788e-19)
(0.266303 -0.00821499 6.17654e-21)
(0.322929 -0.00257865 1.41749e-19)
(0.383521 0.00412686 0)
(0.447856 0.0118148 0)
(0.513974 0.019822 -5.12675e-20)
(0.587049 0.0290774 4.64196e-20)
(0.646897 0.0366569 -1.67695e-19)
(0.749881 0.0463481 1.57294e-19)
(-0.00642444 0.00675987 0)
(-0.0156111 0.0127862 0)
(-0.0228963 0.0133579 -1.8226e-19)
(-0.0268796 0.011017 5.78409e-20)
(-0.0266257 0.00720891 6.01149e-22)
(-0.0215282 0.00273161 1.01119e-19)
(-0.0110833 -0.00191292 0)
(0.00511136 -0.00639455 -8.70744e-20)
(0.0273671 -0.0104589 8.03976e-20)
(0.0558986 -0.0138724 -1.47133e-19)
(0.0908056 -0.0164337 1.36669e-21)
(0.132072 -0.0179507 1.23487e-19)
(0.179548 -0.018252 -3.39485e-21)
(0.232931 -0.0172016 9.89171e-20)
(0.291763 -0.0147135 -1.44874e-19)
(0.355435 -0.0107649 0)
(0.423195 -0.00540617 1.5147e-19)
(0.494186 0.00123743 -2.11793e-19)
(0.567388 0.00892619 6.31979e-20)
(0.642191 0.0175595 0)
(0.71572 0.0261752 5.1972e-20)
(0.793704 0.0361759 1.86181e-19)
(0.853881 0.0434408 -1.7472e-19)
(0.954092 0.0544556 -1.99893e-19)
(-0.00854065 0.00879765 1.89283e-19)
(-0.0186858 0.0168885 -2.61058e-19)
(-0.0238209 0.0183811 2.62762e-22)
(-0.0232244 0.0161205 5.82104e-20)
(-0.0163382 0.0118686 -1.08732e-19)
(-0.00274182 0.00669684 -1.00669e-19)
(0.0179618 0.00132096 1.86997e-19)
(0.0461095 -0.00375026 -3.02941e-21)
(0.0819198 -0.00812491 -1.63025e-19)
(0.12545 -0.0115014 2.9692e-19)
(0.176551 -0.0136273 -3.53834e-21)
(0.234835 -0.014297 -1.27305e-19)
(0.299652 -0.0133636 0)
(0.370094 -0.0107521 0)
(0.445018 -0.00647282 -4.73057e-20)
(0.523095 -0.00062963 -8.6096e-20)
(0.602873 0.00657925 -1.52494e-19)
(0.682852 0.014864 1.43139e-19)
(0.761518 0.0238572 -6.32176e-20)
(0.837662 0.0332025 1.13301e-19)
(0.909123 0.0421867 -5.51976e-20)
(0.978477 0.0513508 9.20882e-20)
(1.03232 0.0577715 -2.21089e-19)
(1.10824 0.0669556 3.99215e-20)
(-0.0102084 0.00986625 6.38389e-20)
(-0.0202021 0.0187994 0)
(-0.0217284 0.0206398 1.24505e-19)
(-0.0147315 0.0183582 -1.17292e-19)
(0.000992518 0.0139009 1.08827e-19)
(0.0256481 0.00853449 0)
(0.0594562 0.00316346 0)
(0.102549 -0.00155928 -8.70542e-20)
(0.15485 -0.00515897 2.87852e-21)
(0.215981 -0.00728266 7.6864e-20)
(0.2852 -0.00767742 -6.7549e-20)
(0.361372 -0.00619306 1.28119e-19)
(0.442988 -0.00279152 0)
(0.528233 0.00244528 2.06683e-19)
(0.615087 0.00931431 -3.81508e-19)
(0.701452 0.0174995 2.62126e-19)
(0.785287 0.0265948 1.5354e-19)
(0.864714 0.0361107 -1.44126e-19)
(0.938151 0.0455887 0)
(1.00429 0.0543729 0)
(1.06237 0.0623488 0)
(1.11218 0.0684508 0)
(1.15143 0.0732285 4.38725e-20)
(1.19284 0.0766259 -1.61934e-19)
(-0.196496 0.282726 -6.02258e-21)
(-0.188529 0.331592 6.04262e-21)
(-0.175665 0.37716 -1.67569e-22)
(-0.158095 0.416179 0)
(-0.134754 0.445326 -4.99958e-21)
(-0.104577 0.46093 9.69477e-21)
(-0.066583 0.459232 4.74516e-23)
(-0.0201244 0.43685 -4.61461e-21)
(0.0347656 0.391422 0)
(0.0965995 0.321868 0)
(0.163077 0.229972 -3.11181e-22)
(0.231571 0.118784 -3.10862e-22)
(0.299252 -0.00729853 -4.88285e-21)
(0.365125 -0.142559 4.45075e-21)
(0.428677 -0.277843 0)
(0.487458 -0.399348 0)
(0.537446 -0.492224 2.55197e-21)
(0.574542 -0.548163 -4.61591e-22)
(0.597052 -0.568643 -1.84985e-21)
(0.606288 -0.562485 -8.8717e-23)
(0.601857 -0.545328 0)
(0.57893 -0.535549 0)
(0.537558 -0.537111 0)
(0.493091 -0.525047 0)
(0.471076 -0.458184 0)
(0.486907 -0.315248 0)
(0.53496 -0.11632 5.99771e-22)
(0.599308 0.0922467 -9.3731e-22)
(0.664359 0.265638 0)
(0.718404 0.382285 0)
(0.755287 0.443555 -3.71655e-22)
(0.777991 0.461795 3.61205e-22)
(0.787423 0.460571 1.39389e-22)
(0.774942 0.468747 0)
(0.736681 0.490421 0)
(0.691093 0.480195 3.43918e-22)
(0.666164 0.387602 -3.3431e-22)
(0.677635 0.203597 0)
(0.712508 -0.0107541 3.89462e-22)
(0.757457 -0.197407 -5.64147e-22)
(0.796389 -0.312391 1.44795e-22)
(0.827474 -0.368731 0)
(0.835938 -0.393571 -1.63129e-22)
(0.809269 -0.41242 1.58628e-22)
(0.758844 -0.416802 0)
(0.714601 -0.343414 0)
(0.705915 -0.211181 -8.45923e-23)
(0.73481 -0.00994507 2.34836e-22)
(0.78077 0.131129 0)
(0.817764 0.257707 0)
(0.818136 0.327322 -4.69274e-23)
(0.782933 0.368104 8.15082e-25)
(0.753812 0.369834 -4.16288e-25)
(0.751611 0.209195 4.57358e-23)
(0.780842 0.117553 0)
(0.808234 -0.110993 0)
(0.805364 -0.209005 0)
(0.784667 -0.301913 0)
(0.786127 -0.39241 0)
(0.76862 -0.117506 0)
(-0.173155 0.267431 -5.16937e-22)
(-0.159047 0.311721 -2.12515e-20)
(-0.138665 0.352667 3.9355e-22)
(-0.112036 0.386417 1.95811e-20)
(-0.0781614 0.409935 2.95637e-22)
(-0.0364515 0.4198 0)
(0.0132686 0.412518 -1.93009e-20)
(0.0706705 0.385177 3.9055e-20)
(0.134685 0.336039 -1.97588e-20)
(0.203299 0.264851 2.09093e-20)
(0.273917 0.173324 -2.00103e-20)
(0.343871 0.0640944 2.04635e-20)
(0.411259 -0.059497 -1.99276e-20)
(0.47544 -0.192058 -6.11189e-22)
(0.535381 -0.324281 -1.61933e-20)
(0.587666 -0.440686 1.57362e-20)
(0.627499 -0.525161 -1.08783e-20)
(0.651535 -0.570069 1.02716e-20)
(0.659496 -0.579438 -6.71503e-21)
(0.654557 -0.563529 1.17884e-20)
(0.639763 -0.535912 -5.1336e-21)
(0.61175 -0.514144 -2.47654e-22)
(0.565945 -0.507887 -4.04704e-21)
(0.510581 -0.500238 8.29454e-21)
(0.469499 -0.451043 -4.2386e-21)
(0.464878 -0.329831 2.89912e-22)
(0.498647 -0.146997 5.60445e-21)
(0.556867 0.0544726 -8.62587e-23)
(0.622312 0.230169 -9.11751e-21)
(0.681233 0.355087 7.57092e-21)
(0.726511 0.425702 -3.33993e-21)
(0.758955 0.45231 2.99121e-22)
(0.775774 0.46049 -1.39682e-22)
(0.767539 0.479151 2.72323e-22)
(0.733551 0.507302 0)
(0.695896 0.49459 0)
(0.680495 0.392047 -1.75751e-21)
(0.700103 0.197018 1.23156e-21)
(0.739032 -0.0242721 1.23079e-21)
(0.783603 -0.212132 -7.25077e-23)
(0.816871 -0.324516 -1.49834e-21)
(0.841324 -0.375042 2.29826e-22)
(0.845465 -0.390629 0)
(0.816848 -0.40035 0)
(0.764424 -0.402071 0)
(0.714877 -0.335034 0)
(0.703007 -0.214196 2.76838e-22)
(0.729155 -0.0211015 -1.5271e-22)
(0.776596 0.118925 0)
(0.812687 0.252493 0)
(0.813593 0.331068 0)
(0.778788 0.375755 -9.39958e-23)
(0.750258 0.373874 -1.16962e-23)
(0.75119 0.206149 -8.63632e-23)
(0.781925 0.111268 0)
(0.814413 -0.113293 0)
(0.811336 -0.207167 5.25755e-23)
(0.790467 -0.299469 1.33368e-22)
(0.790858 -0.391017 0)
(0.771037 -0.116037 0)
(-0.104909 0.243789 -4.76646e-23)
(-0.0854263 0.283244 -3.89337e-20)
(-0.0590231 0.31878 3.86503e-20)
(-0.0261274 0.347322 -3.61653e-20)
(0.0148896 0.365988 -2.97645e-22)
(0.0638628 0.37139 0)
(0.120186 0.360372 -4.03393e-20)
(0.182983 0.330527 3.95472e-20)
(0.25074 0.280557 3.19727e-22)
(0.321269 0.210533 6.7782e-22)
(0.392088 0.121827 6.92351e-22)
(0.46089 0.0165431 6.70214e-22)
(0.526353 -0.102566 -4.21781e-20)
(0.587944 -0.230992 4.16013e-20)
(0.643714 -0.358697 0)
(0.688749 -0.468902 9.77772e-22)
(0.717481 -0.544977 -2.27069e-20)
(0.727827 -0.580153 2.23664e-20)
(0.721642 -0.580536 0)
(0.703376 -0.558054 0)
(0.678285 -0.5241 -8.79983e-21)
(0.645637 -0.492834 1.61671e-20)
(0.598296 -0.477337 -1.4217e-20)
(0.536891 -0.470382 -2.74787e-22)
(0.480481 -0.436904 1.49254e-20)
(0.455639 -0.339569 -1.69536e-20)
(0.472789 -0.176577 1.71678e-20)
(0.522118 0.0150151 -7.90065e-22)
(0.585621 0.191003 -8.29957e-21)
(0.647847 0.323127 0)
(0.700666 0.402981 0)
(0.742063 0.438957 1.69777e-21)
(0.765732 0.4578 -2.21041e-21)
(0.762127 0.487323 1.59867e-25)
(0.733493 0.521751 2.70272e-21)
(0.704337 0.506919 -2.62661e-21)
(0.698183 0.395926 0)
(0.725415 0.191661 4.78667e-22)
(0.768068 -0.0351621 4.11927e-21)
(0.812032 -0.223492 -7.36717e-21)
(0.839558 -0.333436 2.88605e-21)
(0.856953 -0.379252 2.44179e-22)
(0.856596 -0.38683 -1.61443e-21)
(0.82635 -0.387938 1.23092e-21)
(0.77273 -0.387057 2.2889e-22)
(0.718564 -0.326524 2.29891e-22)
(0.703612 -0.217674 -2.77535e-22)
(0.726404 -0.0330513 0)
(0.774645 0.106025 0)
(0.809366 0.246776 -7.60377e-22)
(0.81081 0.334523 3.74505e-22)
(0.776441 0.383149 -3.63575e-22)
(0.748644 0.378002 5.97345e-22)
(0.752523 0.203051 8.38696e-22)
(0.784556 0.104671 -1.70943e-22)
(0.821986 -0.115693 3.41362e-22)
(0.818593 -0.205199 -2.66731e-22)
(0.797153 -0.296666 1.25983e-22)
(0.796295 -0.389403 0)
(0.774267 -0.114501 0)
(-0.0066581 0.212653 -7.30431e-20)
(0.0161306 0.247296 -2.10318e-22)
(0.0464594 0.277697 6.947e-20)
(0.0837812 0.301862 -5.71973e-22)
(0.128654 0.316769 0)
(0.180772 0.31917 0)
(0.239416 0.306308 -8.13553e-20)
(0.303429 0.276142 -6.65643e-21)
(0.37114 0.227591 1.26812e-19)
(0.440473 0.160706 1.86703e-21)
(0.509186 0.0764466 -4.47433e-20)
(0.575686 -0.0235671 -4.3947e-20)
(0.639095 -0.137346 4.40738e-20)
(0.698452 -0.260946 0)
(0.75043 -0.383342 -3.51286e-20)
(0.788193 -0.486537 3.2149e-20)
(0.805559 -0.55404 0)
(0.802042 -0.580501 0)
(0.782214 -0.573621 1.35559e-20)
(0.751863 -0.546717 -2.8246e-21)
(0.717003 -0.509941 -9.77059e-21)
(0.679666 -0.472713 -6.97696e-21)
(0.632883 -0.447693 6.91329e-21)
(0.570516 -0.436821 -6.15931e-21)
(0.503769 -0.414854 -4.05283e-22)
(0.460032 -0.34198 6.22611e-21)
(0.458638 -0.202925 9.06711e-22)
(0.495996 -0.024579 1.04061e-22)
(0.554962 0.149086 0)
(0.618824 0.286914 5.28654e-21)
(0.67799 0.375697 -5.40935e-21)
(0.727231 0.421777 2.78453e-22)
(0.757156 0.452053 0)
(0.758568 0.492437 -2.75798e-22)
(0.736092 0.533001 5.64256e-21)
(0.715735 0.517043 -1.1621e-20)
(0.718578 0.399567 -2.34141e-21)
(0.752948 0.188219 -6.10165e-22)
(0.798938 -0.043235 7.18696e-21)
(0.842229 -0.231702 8.55173e-22)
(0.864206 -0.339396 -4.66696e-21)
(0.874247 -0.381551 4.05793e-21)
(0.869134 -0.382473 2.81729e-24)
(0.837414 -0.375514 9.77839e-22)
(0.783371 -0.371814 -1.18035e-21)
(0.725381 -0.31764 -1.50846e-21)
(0.707538 -0.221311 4.5265e-22)
(0.726394 -0.045598 8.06318e-22)
(0.77477 0.0925361 -1.53068e-21)
(0.807742 0.240514 1.10252e-21)
(0.809788 0.337603 -3.85605e-22)
(0.776008 0.390234 2.67827e-22)
(0.749152 0.382279 3.70211e-22)
(0.755754 0.200052 -1.35785e-21)
(0.78877 0.0978599 2.24462e-23)
(0.830887 -0.118192 -4.06687e-22)
(0.827086 -0.20308 0)
(0.804717 -0.293478 -1.25502e-22)
(0.802395 -0.387553 9.80718e-23)
(0.778252 -0.112905 0)
(0.106363 0.17506 6.82886e-20)
(0.132141 0.206025 -1.34813e-19)
(0.164169 0.232732 6.56757e-20)
(0.203154 0.253271 7.02549e-20)
(0.249068 0.265261 -1.41768e-19)
(0.301461 0.266001 -4.98715e-21)
(0.359535 0.252934 7.4913e-20)
(0.422134 0.224161 8.47086e-20)
(0.487723 0.178633 -8.2993e-20)
(0.554475 0.11611 0)
(0.620735 0.0369082 -9.25796e-20)
(0.685319 -0.0568555 1.81502e-19)
(0.747337 -0.164807 -8.89673e-20)
(0.805038 -0.282539 0)
(0.85313 -0.397972 0)
(0.882969 -0.492623 1.00841e-21)
(0.888604 -0.551209 -4.71042e-20)
(0.871595 -0.570431 4.5762e-20)
(0.83925 -0.558868 0)
(0.79886 -0.529886 2.12136e-20)
(0.755912 -0.493054 -3.55694e-20)
(0.713797 -0.453874 2.75871e-20)
(0.668081 -0.421491 -2.27908e-20)
(0.6088 -0.403534 5.05433e-22)
(0.537821 -0.386989 1.9432e-20)
(0.478341 -0.335895 -9.84024e-21)
(0.457198 -0.223615 -4.00749e-22)
(0.479561 -0.0630285 -5.17049e-21)
(0.531166 0.105276 3.69684e-22)
(0.594731 0.246896 4.90511e-21)
(0.658589 0.344 2.76276e-22)
(0.714236 0.400556 -3.88694e-21)
(0.749756 0.44262 7.92628e-21)
(0.756516 0.493705 -4.55286e-21)
(0.740804 0.540546 0)
(0.729343 0.524948 -7.9654e-21)
(0.740949 0.403407 7.94206e-21)
(0.78197 0.186747 -7.77672e-21)
(0.830996 -0.0484514 9.70404e-21)
(0.873632 -0.236721 -9.30185e-22)
(0.890403 -0.342272 0)
(0.892945 -0.381772 -4.97983e-22)
(0.882891 -0.377545 1.04087e-21)
(0.849807 -0.363269 0)
(0.795973 -0.356588 1.93544e-21)
(0.734924 -0.308422 -7.67475e-22)
(0.71442 -0.224869 4.03057e-22)
(0.728874 -0.0585038 3.13192e-22)
(0.776788 0.0785379 0)
(0.807712 0.233623 0)
(0.810486 0.340176 -1.05175e-21)
(0.777567 0.396931 1.89792e-21)
(0.751917 0.386741 -1.28148e-21)
(0.760995 0.197294 5.23684e-22)
(0.794584 0.0908882 9.61999e-22)
(0.841039 -0.120778 4.0707e-22)
(0.836753 -0.200768 -6.22001e-22)
(0.813148 -0.289853 0)
(0.809111 -0.385446 -1.80054e-22)
(0.782929 -0.11125 1.38262e-23)
(0.230527 0.134615 6.54868e-20)
(0.256327 0.162879 -6.50626e-20)
(0.286856 0.186406 5.20889e-22)
(0.324482 0.203912 -5.08987e-22)
(0.369014 0.213925 5.49075e-22)
(0.419582 0.214073 -5.74773e-22)
(0.475319 0.201889 1.17078e-21)
(0.535249 0.175563 0)
(0.59807 0.133954 -1.29972e-21)
(0.662083 0.0763284 1.3521e-21)
(0.726852 0.0030889 1.38377e-21)
(0.790615 -0.0846877 -1.43571e-21)
(0.851602 -0.186502 0)
(0.907283 -0.296925 0)
(0.950131 -0.403351 1.14645e-21)
(0.970589 -0.487998 0)
(0.964113 -0.537765 -8.03209e-22)
(0.934688 -0.551475 0)
(0.891647 -0.537884 -2.6451e-20)
(0.843426 -0.509079 4.63287e-20)
(0.794669 -0.47393 -3.45555e-20)
(0.748271 -0.435777 1.48051e-20)
(0.702887 -0.399254 9.06796e-21)
(0.648814 -0.373279 -8.80663e-21)
(0.579706 -0.356036 -7.57726e-21)
(0.509985 -0.321233 7.3795e-21)
(0.46931 -0.236211 0)
(0.473803 -0.0979611 2.13823e-22)
(0.515199 0.060921 0)
(0.576046 0.203739 0)
(0.642434 0.308107 6.24174e-21)
(0.702796 0.375135 -6.40576e-21)
(0.743194 0.428986 4.11933e-22)
(0.755499 0.490503 5.2767e-22)
(0.746904 0.544041 -6.09144e-22)
(0.744271 0.530575 -7.32724e-21)
(0.764292 0.407672 7.11361e-21)
(0.811568 0.18745 -1.03395e-20)
(0.863622 -0.0506528 8.93647e-21)
(0.905672 -0.238615 1.89812e-21)
(0.917727 -0.342136 -4.95761e-21)
(0.912778 -0.379886 8.47182e-22)
(0.897618 -0.372102 2.65935e-21)
(0.863242 -0.351367 0)
(0.810102 -0.341509 -7.20885e-22)
(0.746682 -0.298846 9.25442e-22)
(0.72379 -0.228104 -1.23672e-21)
(0.733501 -0.071478 -3.1518e-22)
(0.780427 0.0640833 0)
(0.809121 0.225989 3.41548e-22)
(0.81281 0.342071 -5.81821e-22)