/*--------------------------------*- C++ -*----------------------------------*\
| =========                 |                                                 |
| \\      /  F ield         | OpenFOAM: The Open Source CFD Toolbox           |
|  \\    /   O peration     | Version:  2512                                  |
|   \\  /    A nd           | Website:  www.openfoam.com                      |
|    \\/     M anipulation  |                                                 |
\*---------------------------------------------------------------------------*/
FoamFile
{
    version     2.0;
    format      ascii;
    arch        "LSB;label=32;scalar=64";
    class       volScalarField;
    location    "9";
    object      p;
}
// * * * * * * * * * * * * * * * * * * * * * * * * * * * * * * * * * * * * * //

dimensions      [0 2 -2 0 0 0 0];

internalField   nonuniform List<scalar> 
13248
(
-0.37754
-0.375295
-0.37217
-0.368454
-0.364539
-0.360857
-0.357757
-0.355488
-0.354153
-0.353707
-0.35396
-0.35459
-0.355183
-0.355275
-0.354402
-0.35216
-0.348241
-0.342469
-0.334791
-0.325301
-0.314018
-0.301273
-0.286087
-0.269339
-0.385089
-0.382323
-0.378669
-0.374434
-0.370002
-0.365782
-0.362085
-0.35909
-0.356826
-0.355168
-0.353859
-0.352541
-0.350812
-0.348278
-0.344605
-0.339558
-0.333018
-0.324982
-0.31553
-0.30479
-0.292879
-0.279944
-0.265803
-0.251332
-0.394869
-0.391247
-0.386888
-0.382068
-0.377094
-0.372314
-0.367957
-0.364098
-0.360666
-0.35746
-0.354192
-0.350538
-0.346188
-0.3409
-0.334522
-0.327003
-0.318381
-0.308752
-0.298236
-0.286964
-0.275012
-0.262533
-0.2494
-0.236208
-0.406879
-0.402107
-0.396874
-0.391368
-0.38576
-0.380295
-0.375079
-0.370061
-0.365077
-0.359894
-0.354268
-0.347987
-0.340911
-0.332981
-0.324218
-0.3147
-0.304534
-0.293833
-0.282697
-0.271208
-0.259432
-0.247469
-0.23526
-0.223375
-0.421012
-0.414872
-0.408625
-0.40232
-0.395927
-0.389545
-0.383136
-0.376531
-0.369525
-0.361938
-0.353655
-0.344647
-0.334959
-0.324691
-0.313969
-0.302915
-0.291636
-0.280211
-0.268695
-0.257131
-0.245551
-0.234005
-0.222463
-0.211287
-0.437109
-0.429459
-0.422102
-0.414878
-0.40748
-0.399829
-0.391749
-0.383019
-0.37349
-0.363135
-0.352041
-0.340371
-0.328319
-0.31607
-0.303775
-0.29154
-0.279429
-0.267476
-0.255692
-0.244085
-0.232659
-0.22143
-0.210382
-0.199752
-0.454918
-0.445698
-0.437173
-0.428876
-0.420153
-0.410737
-0.400388
-0.388949
-0.376454
-0.363107
-0.349209
-0.335074
-0.320966
-0.307078
-0.293528
-0.28037
-0.267617
-0.255259
-0.243275
-0.231641
-0.220342
-0.209363
-0.1987
-0.188447
-0.474037
-0.463262
-0.453519
-0.443927
-0.433433
-0.421637
-0.408369
-0.393693
-0.377929
-0.361538
-0.344988
-0.328657
-0.312804
-0.297569
-0.283007
-0.269112
-0.25585
-0.243175
-0.231037
-0.219394
-0.208209
-0.197454
-0.187119
-0.177191
-0.493847
-0.481601
-0.470575
-0.45937
-0.446542
-0.431696
-0.414917
-0.396635
-0.3775
-0.358187
-0.339239
-0.321016
-0.303707
-0.287372
-0.271994
-0.257512
-0.243853
-0.230941
-0.218705
-0.207084
-0.196025
-0.185491
-0.175455
-0.165822
-0.513476
-0.499897
-0.487479
-0.474241
-0.458457
-0.439943
-0.419237
-0.397213
-0.37482
-0.352845
-0.331816
-0.312007
-0.293504
-0.276281
-0.260255
-0.245319
-0.231368
-0.2183
-0.206027
-0.194471
-0.183566
-0.173264
-0.16351
-0.154173
-0.531817
-0.517071
-0.503085
-0.487315
-0.467969
-0.44532
-0.420499
-0.394823
-0.369439
-0.345142
-0.322365
-0.301257
-0.2818
-0.263885
-0.247373
-0.232118
-0.217987
-0.204859
-0.192629
-0.181202
-0.170503
-0.160467
-0.151004
-0.141993
-0.547632
-0.531916
-0.516153
-0.49733
-0.473875
-0.446763
-0.417794
-0.388666
-0.360613
-0.334344
-0.310143
-0.288023
-0.267855
-0.249458
-0.232642
-0.217229
-0.20306
-0.189998
-0.177919
-0.166721
-0.156318
-0.146629
-0.137535
-0.128969
-0.307835
-0.314059
-0.318163
-0.321628
-0.325609
-0.330399
-0.336067
-0.342592
-0.349879
-0.357775
-0.366079
-0.374549
-0.382898
-0.390796
-0.397873
-0.403729
-0.407938
-0.410073
-0.409717
-0.406477
-0.399988
-0.390013
-0.376629
-0.360186
-0.311049
-0.316774
-0.320651
-0.324039
-0.328
-0.332809
-0.33853
-0.345139
-0.352538
-0.360574
-0.369049
-0.377719
-0.386296
-0.39445
-0.40181
-0.407973
-0.412508
-0.414976
-0.414946
-0.412
-0.40573
-0.395815
-0.382301
-0.365979
-0.317583
-0.32224
-0.325599
-0.328761
-0.332605
-0.337369
-0.343106
-0.349788
-0.357318
-0.365545
-0.374277
-0.383275
-0.39226
-0.400907
-0.408854
-0.415699
-0.421011
-0.424341
-0.425227
-0.423215
-0.417892
-0.408878
-0.395952
-0.379974
-0.326242
-0.329442
-0.33204
-0.334807
-0.338378
-0.342946
-0.348552
-0.355162
-0.36268
-0.370958
-0.37981
-0.389008
-0.398283
-0.407323
-0.415777
-0.423253
-0.429333
-0.433566
-0.435481
-0.434609
-0.430561
-0.422982
-0.411376
-0.394096
-0.33561
-0.337206
-0.33888
-0.341067
-0.344151
-0.348283
-0.353498
-0.359757
-0.366965
-0.374979
-0.38362
-0.392671
-0.401874
-0.410934
-0.419512
-0.427235
-0.433701
-0.438467
-0.441082
-0.441066
-0.437952
-0.431306
-0.42073
-0.405009
-0.344423
-0.344517
-0.345208
-0.346643
-0.348998
-0.3524
-0.35689
-0.362436
-0.36895
-0.376301
-0.384319
-0.3928
-0.401499
-0.410138
-0.418397
-0.42592
-0.432319
-0.437152
-0.439994
-0.440374
-0.437853
-0.431798
-0.422571
-0.407196
-0.351834
-0.350738
-0.350493
-0.351056
-0.352466
-0.354853
-0.358287
-0.362761
-0.368212
-0.374529
-0.381561
-0.38912
-0.39698
-0.404873
-0.412501
-0.419483
-0.425474
-0.430069
-0.432798
-0.433168
-0.430839
-0.424867
-0.416458
-0.401194
-0.357532
-0.355674
-0.354635
-0.354281
-0.354608
-0.355778
-0.357913
-0.361055
-0.365185
-0.370226
-0.376057
-0.382508
-0.389375
-0.396351
-0.403178
-0.409534
-0.414978
-0.419077
-0.421377
-0.421333
-0.418705
-0.412348
-0.403922
-0.388556
-0.361708
-0.35952
-0.357869
-0.356637
-0.355854
-0.355742
-0.356491
-0.358211
-0.36094
-0.364651
-0.369254
-0.374561
-0.380391
-0.386513
-0.392541
-0.3981
-0.402752
-0.406021
-0.407434
-0.406447
-0.402876
-0.395694
-0.386464
-0.370873
-0.364951
-0.362749
-0.360656
-0.358641
-0.356829
-0.355515
-0.354963
-0.355354
-0.356786
-0.359266
-0.36272
-0.367022
-0.3719
-0.377049
-0.382077
-0.386536
-0.389937
-0.391783
-0.39162
-0.389032
-0.383915
-0.375671
-0.365468
-0.349908
-0.368095
-0.366009
-0.363577
-0.360894
-0.358203
-0.355871
-0.354223
-0.353497
-0.353832
-0.355262
-0.357702
-0.360969
-0.364764
-0.368702
-0.372327
-0.375135
-0.376618
-0.376315
-0.373855
-0.369039
-0.361901
-0.352471
-0.341708
-0.32713
-0.372039
-0.369992
-0.367237
-0.363986
-0.360586
-0.357451
-0.354952
-0.353345
-0.352777
-0.353263
-0.35468
-0.356779
-0.359197
-0.361486
-0.363146
-0.363678
-0.362628
-0.359645
-0.354494
-0.347159
-0.337688
-0.326566
-0.314407
-0.301102
-0.337305
-0.304015
-0.264987
-0.220798
-0.173214
-0.124297
-0.0769175
-0.0327571
0.00498868
0.0355717
0.0585314
0.0741361
0.0832682
0.0871571
0.0870975
0.0843052
0.0798233
0.0744008
0.0686069
0.0627778
0.057145
0.0518435
0.0469228
0.0424354
0.0383446
0.0346958
0.0314161
0.0284853
0.0258827
0.0235753
0.0215306
0.0197177
0.0181086
0.0166784
0.0154052
0.0142693
0.0132533
0.0123419
0.0115217
0.0107807
0.0101086
0.0094955
0.00893364
0.0084138
0.00793145
0.00747543
0.00704688
0.00662765
0.00623019
0.00582153
0.00543178
0.0050097
0.00459595
0.00414276
0.00365982
0.00315468
0.00256126
0.00195291
0.00121899
0.000455716
-0.344358
-0.311322
-0.272269
-0.22792
-0.18017
-0.130318
-0.0831323
-0.0364261
0.00117474
0.0321696
0.0556573
0.0717685
0.0813591
0.0856524
0.0859607
0.0834801
0.0792155
0.0739731
0.0682969
0.0625726
0.0570135
0.0517604
0.0468492
0.0424348
0.0383712
0.0347852
0.0315051
0.0285644
0.0259571
0.0236446
0.0215942
0.0197754
0.0181607
0.0167256
0.015448
0.0143081
0.0132885
0.0123738
0.0115506
0.0108069
0.0101323
0.00951697
0.00895299
0.00843135
0.00794711
0.0074898
0.00705932
0.00663957
0.00623972
0.00583154
0.0054389
0.0050177
0.00460197
0.00414762
0.00366622
0.00315615
0.00256716
0.00195221
0.00122323
0.000450473
-0.361501
-0.329203
-0.290684
-0.246726
-0.19981
-0.144943
-0.097063
-0.0510888
-0.0112052
0.021567
0.0466299
0.0641655
0.0750279
0.080451
0.0817583
0.0801238
0.0765659
0.0719206
0.066756
0.0614454
0.056223
0.05122
0.0465472
0.042125
0.0380463
0.0346683
0.0314588
0.0285424
0.0259568
0.0236587
0.021617
0.0198024
0.0181896
0.016755
0.0154771
0.0143365
0.0133156
0.0123995
0.0115747
0.0108294
0.0101531
0.00953615
0.00897058
0.00844758
0.0079618
0.00750351
0.00707134
0.00665129
0.00624922
0.00584174
0.00544629
0.00502613
0.00460852
0.00415307
0.00367331
0.00315829
0.00257376
0.00195215
0.00122795
0.000445503
-0.380813
-0.349697
-0.31208
-0.268729
-0.220735
-0.16925
-0.119102
-0.0718177
-0.0299583
0.00492124
0.032096
0.0516775
0.0644679
0.0716709
0.0745928
0.0743959
0.0720523
0.068398
0.0640324
0.0593594
0.0546404
0.0500381
0.045678
0.0415891
0.0379206
0.0343426
0.031243
0.0284129
0.0258866
0.0236222
0.0216027
0.0198021
0.0181983
0.0167695
0.0154953
0.0143567
0.0133368
0.0124207
0.0115955
0.0108494
0.0101722
0.0095542
0.00898747
0.00846343
0.0079764
0.00751736
0.00708368
0.00666351
0.00625937
0.00585269
0.00545457
0.00503553
0.0046161
0.00415964
0.00368146
0.00316162
0.0025813
0.00195315
0.00123324
0.00044108
-0.392566
-0.365841
-0.330589
-0.2894
-0.243111
-0.193345
-0.143296
-0.0955244
-0.0524329
-0.0158001
0.0134477
0.0352746
0.0503563
0.0597874
0.064793
0.0665131
0.0658287
0.0635281
0.0602534
0.0564565
0.0524358
0.0483898
0.0444537
0.0406964
0.0371843
0.0338269
0.0308183
0.0281285
0.0257386
0.0235326
0.0215494
0.0197727
0.0181854
0.016768
0.0155017
0.0143683
0.0133516
0.0124373
0.011613
0.0108671
0.0101896
0.00957111
0.00900365
0.00847892
0.00799091
0.00753134
0.00709637
0.00667622
0.00627019
0.0058644
0.00546377
0.0050459
0.00462474
0.0041674
0.00369062
0.00316628
0.00258972
0.00195536
0.00123904
0.000437387
-0.395529
-0.371968
-0.340693
-0.303556
-0.260903
-0.214161
-0.166034
-0.119191
-0.0760109
-0.0384152
-0.00754742
0.0163575
0.0337848
0.0456375
0.0529866
0.0568784
0.0581765
0.0575392
0.0556013
0.0528697
0.0496951
0.0463144
0.0428914
0.0395347
0.0363152
0.0332032
0.0304036
0.0277388
0.0255159
0.0233896
0.0214564
0.0197129
0.0181499
0.0167497
0.0154957
0.0143707
0.0133596
0.0124489
0.0116267
0.010882
0.0102051
0.00958667
0.00901894
0.00849388
0.00800519
0.00754532
0.00710929
0.00668929
0.00628158
0.00587674
0.0054738
0.00505714
0.00463432
0.0041763
0.00370062
0.00317228
0.00259883
0.00195883
0.0012452
0.000434611
-0.389203
-0.367763
-0.341115
-0.30907
-0.271083
-0.228737
-0.184367
-0.140222
-0.0984046
-0.0609154
-0.0291531
-0.00360992
0.0159498
0.0301748
0.0399111
0.0460553
0.0494295
0.0506488
0.050235
0.0487141
0.0464976
0.0438738
0.0410436
0.0381451
0.035276
0.0324746
0.0297953
0.0274962
0.025245
0.0231824
0.0213214
0.0196217
0.0180908
0.0167141
0.0154769
0.0143637
0.0133605
0.0124553
0.0116366
0.0108942
0.0102185
0.00960079
0.00903325
0.00850822
0.00801915
0.0075592
0.00712234
0.00670262
0.00629346
0.0058896
0.00548459
0.00506915
0.00464474
0.00418631
0.00371133
0.00317965
0.00260849
0.00196366
0.00125159
0.000432994
-0.375213
-0.354878
-0.333061
-0.306601
-0.273604
-0.23607
-0.196591
-0.156723
-0.117808
-0.0816765
-0.0499362
-0.0233894
-0.00211541
0.0142317
0.0262285
0.034572
0.0399702
0.0430546
0.0442729
0.0440753
0.0429053
0.0411082
0.0389301
0.0365439
0.0340733
0.0315976
0.0291892
0.0269327
0.0248376
0.022873
0.0211369
0.0194972
0.0180076
0.0166606
0.0154451
0.0143469
0.0133543
0.0124563
0.0116425
0.0109034
0.0102298
0.00961336
0.0090465
0.00852186
0.00803273
0.00757292
0.00713549
0.00671614
0.00630581
0.00590289
0.00549611
0.00508186
0.00465593
0.00419743
0.0037226
0.00318848
0.00261854
0.00196994
0.00125808
0.000432833
-0.355526
-0.336023
-0.318908
-0.297649
-0.269684
-0.237477
-0.203194
-0.168069
-0.133092
-0.0994838
-0.0687546
-0.0419648
-0.0195434
-0.00148145
0.0125022
0.0228734
0.0301925
0.0350214
0.0378542
0.0390468
0.038995
0.0380764
0.0365883
0.0347479
0.0327098
0.0305812
0.0284536
0.0263777
0.0243862
0.0225146
0.0209149
0.0193404
0.0179001
0.0165889
0.0153996
0.01432
0.0133405
0.0124517
0.0116444
0.0109096
0.0102389
0.00962444
0.00905873
0.00853485
0.00804598
0.00758649
0.00714876
0.00672984
0.00631866
0.00591658
0.00550839
0.00509525
0.00466787
0.0042097
0.00373433
0.00319885
0.00262887
0.00197781
0.00126457
0.000434507
-0.332676
-0.314867
-0.302058
-0.284873
-0.261491
-0.234718
-0.205763
-0.175223
-0.144273
-0.113821
-0.0849323
-0.058687
-0.0357796
-0.0165206
-0.00093597
0.0111935
0.0202524
0.0267026
0.031019
0.0336071
0.0347565
0.0348068
0.034072
0.0328144
0.0312315
0.0294626
0.0276156
0.0257511
0.0238469
0.0222496
0.0206577
0.0191349
0.0177653
0.0164995
0.0153417
0.0142843
0.0133205
0.0124429
0.0116433
0.0109138
0.0102467
0.00963459
0.00907036
0.00854745
0.00805903
0.00759997
0.00716213
0.0067436
0.00633186
0.00593048
0.00552122
0.00510912
0.00468032
0.004223
0.00374628
0.00321073
0.00263928
0.00198733
0.00127095
0.000438512
-0.310158
-0.295841
-0.286304
-0.271679
-0.252304
-0.230643
-0.206668
-0.180515
-0.153284
-0.126043
-0.0994566
-0.0744024
-0.0516295
-0.0316567
-0.0147968
-0.00109284
0.00963694
0.0177078
0.0234999
0.027402
0.0297828
0.030938
0.0311207
0.0305848
0.029557
0.0282141
0.0266905
0.025072
0.0234161
0.0218429
0.0203227
0.0188604
0.0176059
0.0163974
0.0152743
0.0142411
0.0132946
0.0124292
0.0116382
0.0109147
0.0102517
0.00964234
0.00907989
0.00855817
0.00807042
0.00761193
0.00717421
0.00675614
0.00634413
0.00594344
0.00553342
0.00512244
0.00469222
0.00423644
0.0037575
0.00322351
0.00264897
0.00199816
0.0012768
0.000445418
-0.289265
-0.280768
-0.272393
-0.258567
-0.242317
-0.224849
-0.205221
-0.183258
-0.15965
-0.135266
-0.11092
-0.0874163
-0.0654373
-0.0454511
-0.0279165
-0.0130863
-0.000979643
0.00855219
0.0157693
0.0209796
0.0244875
0.0265968
0.0276277
0.0278337
0.0274215
0.0265737
0.0254395
0.0241282
0.0227307
0.0213185
0.0199176
0.01846
0.0173586
0.0162303
0.0151563
0.0141567
0.0132349
0.0123878
0.0116105
0.0108971
0.0102417
0.00963794
0.00907972
0.0085612
0.00807587
0.00761922
0.00718297
0.00676594
0.00635492
0.00595476
0.00554534
0.00513497
0.00470404
0.00425024
0.00376796
0.00323752
0.00265762
0.00201022
0.00128148
0.000455812
-0.265764
-0.270271
-0.260408
-0.245194
-0.229417
-0.21321
-0.195405
-0.175569
-0.154136
-0.13189
-0.10958
-0.0878774
-0.0673874
-0.0486011
-0.0319227
-0.0175967
-0.00568375
0.00390313
0.011355
0.0169216
0.0208801
0.0234991
0.0250277
0.0256866
0.0256788
0.0251838
0.0243473
0.0232815
0.0220822
0.0208291
0.0195211
0.0184528
0.0171581
0.0160557
0.0150232
0.0140576
0.0131632
0.0123376
0.011577
0.0108768
0.0102317
0.00963612
0.00908439
0.00857076
0.00808968
0.00763553
0.00720266
0.00678576
0.00637852
0.00597593
0.00557078
0.00515711
0.00472771
0.00427409
0.00378685
0.00326027
0.00267205
0.00202735
0.00128772
0.000469417
-0.241287
-0.249367
-0.240888
-0.225828
-0.210629
-0.195924
-0.180332
-0.163031
-0.144215
-0.12457
-0.104789
-0.0854467
-0.0670414
-0.0499904
-0.0346358
-0.0212161
-0.00983281
-0.000461266
0.0070189
0.0127915
0.0170697
0.0200649
0.021986
0.023036
0.023403
0.0232527
0.0227234
0.0219272
0.0209584
0.0198893
0.0187623
0.0177337
0.0166603
0.0156593
0.0147055
0.0138053
0.012963
0.0121789
0.0114515
0.0107778
0.010154
0.0095754
0.00903737
0.00853473
0.00806264
0.00761553
0.00718882
0.00677608
0.00637363
0.00597276
0.00557191
0.00515824
0.00473199
0.00427877
0.00379147
0.00326699
0.00267618
0.00203317
0.0012891
0.000476572
-0.218642
-0.22727
-0.22081
-0.207322
-0.193366
-0.180223
-0.166679
-0.15172
-0.135323
-0.118051
-0.100539
-0.0832964
-0.0667388
-0.0512239
-0.0370608
-0.0244868
-0.013632
-0.0045177
0.00292293
0.00881684
0.0133239
0.0166169
0.0188768
0.020283
0.021003
0.021187
0.0209647
0.020445
0.0197194
0.0188597
0.0179322
0.017048
0.0161059
0.0151924
0.0143182
0.0134871
0.0127023
0.0119658
0.0112774
0.0106357
0.010038
0.00948076
0.00896023
0.00847187
0.00801156
0.00757395
0.00715532
0.00674875
0.00635213
0.00595494
0.00555868
0.00514694
0.00472415
0.00427238
0.00378663
0.00326422
0.00267327
0.00203241
0.0012869
0.000480174
-0.197755
-0.206072
-0.201453
-0.18997
-0.177523
-0.165791
-0.153941
-0.140976
-0.12671
-0.111564
-0.0960969
-0.080766
-0.0659251
-0.0518785
-0.0388985
-0.027207
-0.0169468
-0.00817122
-0.000857371
0.00507397
0.00973908
0.0132753
0.0158321
0.0175613
0.018609
0.01911
0.0191838
0.0189341
0.0184496
0.0178053
0.0170717
0.016315
0.0154997
0.014691
0.013904
0.0131455
0.0124212
0.0117347
0.0110877
0.0104801
0.00991045
0.00937631
0.00887477
0.00840198
0.00795457
0.0075274
0.00711767
0.00671792
0.00632774
0.00593473
0.00554337
0.00513412
0.0047147
0.00426509
0.00378065
0.00326086
0.00266972
0.00203142
0.00128465
0.00048296
-0.178102
-0.186212
-0.183045
-0.173423
-0.162519
-0.152136
-0.141781
-0.130575
-0.118236
-0.105043
-0.0914635
-0.0779048
-0.0646749
-0.0520322
-0.0402114
-0.0294154
-0.0197913
-0.0114161
-0.00430089
0.00159554
0.00635226
0.0100725
0.0128745
0.0148838
0.0162256
0.0170187
0.0173719
0.0173817
0.0171332
0.0166999
0.0161467
0.0155265
0.0148475
0.0141516
0.0134573
0.0127761
0.0121162
0.0114834
0.0108809
0.0103102
0.00977095
0.00926192
0.00878113
0.00832541
0.00789219
0.00747654
0.00707667
0.00668453
0.00630145
0.00591321
0.00552717
0.00512093
0.00470504
0.00425816
0.00377486
0.00325826
0.00266665
0.00203117
0.0012831
0.000485231
-0.160065
-0.167809
-0.165667
-0.157652
-0.148251
-0.139201
-0.130229
-0.120598
-0.109988
-0.0985682
-0.086715
-0.0747839
-0.0630473
-0.0517265
-0.0410229
-0.0311188
-0.0221588
-0.0142342
-0.00738085
-0.00158729
0.00319366
0.00703467
0.0100259
0.0122681
0.0138662
0.014923
0.0155349
0.0157902
0.0157683
0.0155388
0.0151641
0.0146935
0.0141519
0.0135708
0.0129733
0.0123735
0.0117822
0.0112068
0.0106523
0.0101215
0.00961544
0.00913393
0.00867599
0.00823916
0.00782168
0.00741892
0.00703001
0.00664652
0.00627133
0.00588869
0.00550846
0.00510592
0.00469384
0.00425026
0.00376828
0.0032553
0.00266332
0.0020308
0.00128175
0.000486676
-0.143635
-0.150735
-0.149352
-0.142747
-0.134761
-0.126987
-0.119291
-0.111062
-0.101986
-0.0921548
-0.0818655
-0.0714222
-0.0610642
-0.0509826
-0.0413495
-0.032326
-0.0240487
-0.0166154
-0.0100787
-0.00445055
0.00029023
0.0041903
0.00731491
0.00974199
0.0115565
0.0128451
0.0136916
0.0141749
0.0143674
0.0143353
0.014137
0.0138189
0.0134117
0.012949
0.0124518
0.0119373
0.0114182
0.0109037
0.0104005
0.00991255
0.00944244
0.0089909
0.00855795
0.0081419
0.0077418
0.00735336
0.00697664
0.0066029
0.00623643
0.0058603
0.0054864
0.00508836
0.00468039
0.00424073
0.00376034
0.00325135
0.00265933
0.00202982
0.00128037
0.000487296
-0.128401
-0.134916
-0.13417
-0.128793
-0.122079
-0.115477
-0.108936
-0.101951
-0.0942302
-0.0858147
-0.0769363
-0.0678496
-0.0587615
-0.0498366
-0.0412224
-0.0330587
-0.0254713
-0.0185587
-0.0123838
-0.00697583
-0.00233394
0.00156694
0.00477041
0.00733352
0.00932258
0.0108085
0.0118622
0.0125528
0.0129456
0.013101
0.013073
0.0129059
0.0126343
0.0122897
0.0118948
0.0114683
0.0110244
0.010574
0.010125
0.0096829
0.00925135
0.00883218
0.00842639
0.00803302
0.00765198
0.00727935
0.00691608
0.00655324
0.0061964
0.00582772
0.00546073
0.00506801
0.00466448
0.00422943
0.00375092
0.0032463
0.00265466
0.00202812
0.00127901
0.000487287
-0.114368
-0.120392
-0.120145
-0.115801
-0.110199
-0.104644
-0.0991365
-0.0932549
-0.0867298
-0.079572
-0.07196
-0.0641039
-0.0561798
-0.0483287
-0.0406762
-0.033343
-0.0264424
-0.0200691
-0.0142914
-0.00914975
-0.00465905
-0.000811529
0.00241816
0.00506865
0.00718916
0.00883578
0.0100671
0.0109417
0.0115168
0.0118467
0.0119806
0.0119608
0.0118226
0.0115959
0.0113043
0.0109676
0.0106014
0.0102177
0.0098257
0.00943206
0.0090416
0.00865713
0.00828063
0.00791187
0.00755161
0.00719631
0.0068478
0.00649708
0.00615083
0.0057906
0.00543117
0.00504462
0.00464596
0.00421619
0.00373994
0.00324008
0.00264932
0.00202571
0.00127773
0.000486839
-0.101651
-0.107115
-0.107209
-0.103729
-0.0990995
-0.0944715
-0.08988
-0.0849705
-0.0794983
-0.0734527
-0.0669707
-0.0602239
-0.0533605
-0.0464999
-0.0397484
-0.0332095
-0.0269833
-0.0211581
-0.0158029
-0.0109652
-0.00667101
-0.00292594
0.000280487
0.00297119
0.00518017
0.00694986
0.00832686
0.00935946
0.0100965
0.0105855
0.010871
0.0109921
0.0109828
0.0108719
0.0106833
0.0104374
0.0101504
0.00983542
0.00950265
0.00915982
0.00881275
0.00846519
0.00812004
0.0077778
0.00744002
0.00710363
0.00677123
0.0064339
0.00609926
0.00574852
0.00539736
0.00501788
0.00462458
0.0042008
0.00372726
0.00323254
0.00264325
0.00202252
0.00127649
0.000486094
-0.0900671
-0.0949525
-0.0953012
-0.0925569
-0.0887703
-0.0849532
-0.081163
-0.0771025
-0.0725512
-0.0674834
-0.0620031
-0.0562498
-0.0503466
-0.0443937
-0.0384802
-0.0326938
-0.0271215
-0.0218436
-0.0169268
-0.0124217
-0.00836157
-0.00476201
-0.001624
0.00106236
0.00331783
0.00517266
0.00666234
0.00782513
0.00870144
0.00933212
0.00975605
0.0100088
0.0101221
0.0101233
0.010036
0.00988042
0.0096733
0.00942829
0.00915644
0.00886633
0.00856466
0.00825603
0.00794417
0.00763028
0.00731667
0.00700073
0.00668583
0.00636318
0.00604119
0.00570104
0.00535893
0.00498743
0.00460008
0.00418298
0.00371272
0.00322349
0.00263639
0.00201851
0.00127524
0.00048517
-0.0794507
-0.0838378
-0.0843912
-0.0822668
-0.0791992
-0.0760798
-0.0729815
-0.0696554
-0.0659034
-0.0616896
-0.0570917
-0.0522221
-0.0471824
-0.0420553
-0.036915
-0.0318347
-0.0268889
-0.0221491
-0.0176774
-0.0135247
-0.00972833
-0.00631063
-0.00328104
-0.00064006
0.00162197
0.00352472
0.00509371
0.0063578
0.00734912
0.00810164
0.0086487
0.00902173
0.00924932
0.00935708
0.00936762
0.00930064
0.00917284
0.00899819
0.00878824
0.00855223
0.00829758
0.0080296
0.00775276
0.00746893
0.00718109
0.00688713
0.00659108
0.00628442
0.00597619
0.00564774
0.0053155
0.00495293
0.00457217
0.00416248
0.00369614
0.00321278
0.00262863
0.00201364
0.00127388
0.00048416
-0.069828
-0.0737586
-0.0744378
-0.0728129
-0.0703531
-0.0678314
-0.0653264
-0.0626305
-0.0595672
-0.0560943
-0.0522687
-0.04818
-0.0439112
-0.0395302
-0.0350975
-0.0306734
-0.0263211
-0.0221027
-0.0180746
-0.0142856
-0.0107748
-0.00756824
-0.00468128
-0.0021223
0.000109329
0.00202442
0.00363983
0.00497585
0.00605674
0.00690975
0.00756269
0.00804242
0.00837416
0.00858114
0.00868447
0.00870286
0.00865263
0.0085477
0.00839984
0.00821868
0.00801217
0.0077862
0.00754586
0.00729358
0.007033
0.00676246
0.00648659
0.0061972
0.00590383
0.00558819
0.00526671
0.00491402
0.0045406
0.00413904
0.00367733
0.00320023
0.00261985
0.00200788
0.00127233
0.000483139
-0.0611487
-0.0646293
-0.0653707
-0.0641508
-0.0622021
-0.0601889
-0.0581887
-0.0560287
-0.053554
-0.0507195
-0.047565
-0.0441616
-0.0405761
-0.0368637
-0.033073
-0.0292532
-0.0254567
-0.0217369
-0.0181434
-0.0147216
-0.0115102
-0.00853687
-0.00582049
-0.00337507
-0.00120705
0.000687262
0.00231751
0.00369642
0.004841
0.00577216
0.00651222
0.00708335
0.00750723
0.00780434
0.00799375
0.00809283
0.00811715
0.00808022
0.00799371
0.00786741
0.00770957
0.00752651
0.00732378
0.00710431
0.00687229
0.00662648
0.00637205
0.00610116
0.00582376
0.00552204
0.00521225
0.00487038
0.00450508
0.00411239
0.00365611
0.00318572
0.00260991
0.00200122
0.0012705
0.000482159
-0.0532829
-0.0563451
-0.0571208
-0.0562349
-0.0547177
-0.0531338
-0.0515585
-0.0498501
-0.047874
-0.0455847
-0.043009
-0.0402022
-0.0372177
-0.0340995
-0.0308864
-0.0276177
-0.0243363
-0.021087
-0.0179127
-0.0148544
-0.0119489
-0.00922394
-0.00669968
-0.00439388
-0.00231824
-0.000474597
0.00114098
0.0025348
0.0037174
0.00470389
0.00551137
0.00615739
0.00665984
0.00703627
0.0073035
0.00747716
0.0075717
0.00759988
0.00757301
0.00750075
0.00739145
0.00725164
0.00708722
0.0069015
0.00669909
0.00647915
0.00624729
0.00599605
0.00573569
0.00544895
0.00515179
0.0048217
0.00446536
0.0040823
0.00363227
0.00316909
0.0025987
0.00199365
0.00126831
0.000481249
-0.0461643
-0.048863
-0.0496548
-0.0490342
-0.0478674
-0.0466385
-0.0454183
-0.0440884
-0.0425318
-0.0407048
-0.0386245
-0.0363332
-0.0338731
-0.0312788
-0.0285808
-0.0258101
-0.0230009
-0.0201903
-0.0174147
-0.01471
-0.0121103
-0.00964191
-0.00732492
-0.00517909
-0.00321979
-0.00145282
0.000121393
0.00150392
0.00269975
0.00371884
0.0045736
0.0052772
0.00584356
0.00628716
0.00662247
0.00686322
0.00702235
0.0071116
0.00714161
0.00712168
0.00706003
0.00696321
0.0068373
0.00668586
0.00651381
0.00632064
0.00611233
0.00588176
0.00563943
0.00536869
0.0050851
0.00476771
0.00442121
0.00404855
0.00360562
0.00315024
0.00258608
0.00198516
0.00126571
0.000480415
-0.0397613
-0.0421271
-0.042903
-0.0424875
-0.0416078
-0.0406754
-0.0397514
-0.0387362
-0.0375297
-0.0360914
-0.0344315
-0.0325822
-0.0305761
-0.02844
-0.0261975
-0.0238723
-0.0214916
-0.0190855
-0.0166837
-0.0143175
-0.0120175
-0.00980775
-0.00770705
-0.00573585
-0.00391177
-0.00224324
-0.000733701
0.000613822
0.00179969
0.00282943
0.00371133
0.0044547
0.00506967
0.0055674
0.00595986
0.00625894
0.00647582
0.00662094
0.00670404
0.0067338
0.00671809
0.00666332
0.00657555
0.00645845
0.00631715
0.00615137
0.00596736
0.00575832
0.00553493
0.0052811
0.005012
0.0047082
0.00437241
0.00401095
0.00357596
0.00312907
0.00257192
0.00197573
0.00126266
0.000479655
-0.0339978
-0.0360584
-0.0368068
-0.0365602
-0.0359137
-0.0352213
-0.0345387
-0.0337825
-0.032866
-0.0317522
-0.0304465
-0.028973
-0.0273566
-0.0256179
-0.0237745
-0.0218444
-0.0198486
-0.0178108
-0.0157552
-0.0137082
-0.0116969
-0.00974229
-0.0078612
-0.00607371
-0.00439863
-0.00284583
-0.00142058
-0.000128832
0.0010261
0.00204613
0.0029358
0.00370101
0.00434868
0.00488692
0.00532492
0.00567258
0.0059393
0.00613403
0.00626541
0.0063413
0.00636901
0.0063546
0.00630399
0.00622078
0.0061102
0.00597207
0.00581286
0.00562599
0.00542228
0.00518617
0.00493239
0.00464303
0.00431879
0.00396937
0.00354314
0.00310547
0.00255611
0.00196535
0.00125914
0.000478964
-0.0288097
-0.030602
-0.0313148
-0.0311984
-0.0307436
-0.0302452
-0.029758
-0.0292134
-0.0285358
-0.027691
-0.0266813
-0.0255247
-0.0242403
-0.0228433
-0.0213466
-0.0197635
-0.0181097
-0.0164039
-0.0146649
-0.0129147
-0.0111769
-0.00946934
-0.00780617
-0.00620634
-0.004689
-0.00326463
-0.00193926
-0.000720743
0.000384738
0.00137646
0.00225622
0.00302623
0.00369027
0.00425493
0.0047265
0.00511245
0.00542025
0.00565741
0.00583132
0.00594888
0.00601665
0.00604019
0.00602509
0.00597476
0.00589438
0.00578377
0.00564953
0.00548523
0.00530176
0.00508403
0.00484629
0.00457216
0.00426025
0.00392369
0.00350701
0.00307938
0.00253857
0.00195398
0.00125516
0.000478341
-0.0241521
-0.0257074
-0.0263777
-0.0263608
-0.0260592
-0.025718
-0.0253868
-0.0250125
-0.0245302
-0.0239075
-0.0231437
-0.0222525
-0.0212484
-0.0201427
-0.0189446
-0.0176634
-0.0163108
-0.0149008
-0.013448
-0.0119701
-0.0104875
-0.00901499
-0.00756364
-0.00615084
-0.00479539
-0.00350759
-0.00229357
-0.00116216
-0.000121465
0.000825495
0.00167868
0.00243776
0.0031032
0.00368059
0.00417332
0.00458664
0.00492613
0.00519779
0.0054077
0.00556165
0.00566534
0.00572367
0.00574177
0.00572271
0.0056715
0.00558786
0.00547842
0.00533676
0.00517385
0.00497497
0.00475388
0.00449565
0.00419678
0.00387389
0.00346748
0.00305076
0.00251925
0.0019416
0.00125075
0.000477794
-0.0199775
-0.0213222
-0.0219461
-0.0220042
-0.0218256
-0.0216126
-0.021406
-0.0211654
-0.0208391
-0.0203977
-0.0198373
-0.019167
-0.018398
-0.0175387
-0.0165954
-0.0155744
-0.0144842
-0.0133352
-0.012138
-0.0109069
-0.00965926
-0.0084067
-0.0071575
-0.00592717
-0.00473362
-0.00358645
-0.00249124
-0.00145706
-0.000493143
0.000395753
0.00120776
0.00194122
0.00259599
0.00317184
0.00367313
0.00410266
0.00446409
0.00476183
0.00500058
0.00518495
0.00531973
0.00540901
0.00545735
0.00546735
0.00544377
0.00538607
0.00530084
0.00518159
0.0050393
0.00485951
0.00465547
0.00441372
0.00412844
0.00382002
0.00342451
0.0030196
0.00249811
0.0019282
0.00124594
0.000477343
-0.0162382
-0.0173984
-0.0179752
-0.0180892
-0.0180075
-0.0178965
-0.0177913
-0.0176573
-0.0174538
-0.0171572
-0.0167624
-0.0162748
-0.0157017
-0.0150491
-0.0143215
-0.0135229
-0.0126592
-0.0117377
-0.0107663
-0.00975608
-0.00872174
-0.00767209
-0.0066126
-0.00555689
-0.00452191
-0.00351609
-0.00254381
-0.00161394
-0.000736116
8.45903e-05
0.000844992
0.00153975
0.00217002
0.0027335
0.00323214
0.00366714
0.00404075
0.00435588
0.00461588
0.00482421
0.00498464
0.00510042
0.00517545
0.00521175
0.00521372
0.00518046
0.00511846
0.00502101
0.00489906
0.00473837
0.00455157
0.0043267
0.00405543
0.00376221
0.00337812
0.0029859
0.00247516
0.00191376
0.00124079
0.000477015
-0.0128961
-0.013896
-0.0144267
-0.0145814
-0.0145754
-0.0145449
-0.0145195
-0.0144714
-0.0143651
-0.0141823
-0.0139199
-0.0135811
-0.0131696
-0.0126891
-0.0121423
-0.0115318
-0.0108615
-0.0101366
-0.00936213
-0.00854695
-0.0077034
-0.00683783
-0.00595316
-0.00506114
-0.00417759
-0.00330989
-0.00246121
-0.00163978
-0.000855693
-0.000113853
0.000585237
0.00123258
0.00182807
0.00236882
0.00285454
0.00328516
0.00366164
0.00398558
0.00425914
0.00448466
0.00466491
0.00480228
0.00489992
0.00495924
0.0049842
0.00497341
0.00493321
0.00485658
0.0047544
0.00461251
0.00444289
0.00423513
0.00397806
0.0037007
0.0033284
0.00294972
0.00245043
0.00189827
0.00123537
0.000476849
-0.00990803
-0.0107677
-0.0112536
-0.0114369
-0.0114896
-0.011522
-0.011559
-0.0115786
-0.0115518
-0.0114615
-0.0113043
-0.0110856
-0.0108063
-0.0104676
-0.0100709
-0.00961803
-0.00911193
-0.0085556
-0.00795156
-0.00730671
-0.00663168
-0.0059309
-0.00520507
-0.00446401
-0.00372222
-0.00298536
-0.00225459
-0.00153664
-0.000842806
-0.000183984
0.000449012
0.00103155
0.00157833
0.00208488
0.00254656
0.00296243
0.00333224
0.0036563
0.00393556
0.00417127
0.00436521
0.00451887
0.00463466
0.00471328
0.00475821
0.00476751
0.00474731
0.00469014
0.0046068
0.00448313
0.00433033
0.00413973
0.0038968
0.00363584
0.00327549
0.00291116
0.00242397
0.0018817
0.00122973
0.000476892
-0.00726743
-0.00800613
-0.00844874
-0.00864945
-0.0087449
-0.00882396
-0.00890778
-0.00898004
-0.00901852
-0.00900945
-0.0089475
-0.00882955
-0.00865657
-0.00842646
-0.00815091
-0.00783072
-0.00746462
-0.00705216
-0.00659401
-0.00609644
-0.00556975
-0.00501719
-0.0044377
-0.00383961
-0.00323645
-0.00263242
-0.00202635
-0.0014211
-0.000818365
-0.000251629
0.00031459
0.00086659
0.00137897
0.00185434
0.00229186
0.00269017
0.00304869