/*--------------------------------*- C++ -*----------------------------------*\
| =========                 |                                                 |
| \\      /  F ield         | OpenFOAM: The Open Source CFD Toolbox           |
|  \\    /   O peration     | Version:  2512                                  |
|   \\  /    A nd           | Website:  www.openfoam.com                      |
|    \\/     M anipulation  |                                                 |
\*---------------------------------------------------------------------------*/
FoamFile
{
    version     2.0;
    format      ascii;
    arch        "LSB;label=32;scalar=64";
    class       volVectorField;
    location    "56.75";
    object      U;
}
// * * * * * * * * * * * * * * * * * * * * * * * * * * * * * * * * * * * * * //

dimensions      [0 1 -1 0 0 0 0];

internalField   nonuniform List<vector> 
13248
(
(-0.0128488 0.0120703 7.18604e-20)
(-0.024095 0.0261911 0)
(-0.0211607 0.0343351 -1.35825e-19)
(-0.00495903 0.0381942 1.27948e-19)
(0.0238441 0.0392204 1.19797e-19)
(0.0647408 0.0386207 0)
(0.117254 0.037341 0)
(0.180818 0.0361071 2.90865e-19)
(0.254622 0.0354499 -6.93048e-22)
(0.33747 0.0357141 -2.5544e-19)
(0.42768 0.0370641 2.38888e-19)
(0.523066 0.0394889 -1.49539e-19)
(0.621014 0.0428187 0)
(0.71863 0.0467536 -2.61302e-19)
(0.812946 0.0509035 4.89121e-19)
(0.901146 0.0548359 -1.16323e-19)
(0.980781 0.0581315 -2.10265e-19)
(1.04995 0.0604092 1.97391e-19)
(1.10744 0.0614572 0)
(1.1527 0.0608723 0)
(1.18619 0.0593809 0)
(1.20791 0.054457 0)
(1.2212 0.0529127 6.06122e-20)
(1.2231 0.0364616 2.19653e-19)
(-0.0123759 0.0103024 -2.16938e-19)
(-0.0192216 0.0205418 1.47815e-19)
(-0.00870981 0.0255252 -1.30186e-21)
(0.0178823 0.0271904 -1.95305e-19)
(0.0596712 0.0271327 -1.19669e-19)
(0.115888 0.0266394 -1.13196e-19)
(0.185603 0.0266624 -2.08599e-19)
(0.267523 0.0278615 1.9713e-19)
(0.359797 0.0306256 0)
(0.459928 0.0350762 5.32368e-22)
(0.564801 0.0410769 9.80738e-22)
(0.670858 0.0482629 1.49087e-19)
(0.774369 0.0560958 0)
(0.871756 0.0639377 0)
(0.959913 0.0711361 1.78765e-19)
(1.03646 0.0771064 -3.35864e-19)
(1.09989 0.0813995 2.02765e-19)
(1.14969 0.0837454 -1.90364e-19)
(1.18623 0.0840687 -8.44366e-20)
(1.21069 0.0824605 -1.5533e-19)
(1.22469 0.0792554 -6.5221e-20)
(1.23051 0.0744147 -1.22844e-19)
(1.22978 0.0702044 1.79123e-19)
(1.22466 0.0611732 5.16045e-20)
(-0.0110287 0.00830968 0)
(-0.011119 0.0145828 0)
(0.00988232 0.016842 6.9083e-20)
(0.0501171 0.0171306 6.36897e-20)
(0.108229 0.0171191 -1.44916e-21)
(0.182818 0.0181216 -1.16632e-19)
(0.271992 0.0210054 0)
(0.373117 0.0262192 -9.81332e-20)
(0.482717 0.0338154 9.23597e-20)
(0.596577 0.0434737 4.7173e-22)
(0.710054 0.0545599 -1.59128e-19)
(0.81852 0.0662255 -1.46955e-19)
(0.917838 0.0775374 1.88108e-21)
(1.00476 0.0876128 -1.23755e-19)
(1.07721 0.0957367 2.95449e-19)
(1.13436 0.101442 0)
(1.17659 0.104546 -1.95181e-19)
(1.20528 0.105128 9.46626e-20)
(1.22251 0.103512 8.4363e-20)
(1.23068 0.100078 0)
(1.23228 0.0955578 6.98782e-20)
(1.22934 0.0898102 -2.41592e-19)
(1.22363 0.0852808 2.26793e-19)
(1.21698 0.0766399 1.44262e-19)
(-0.00839463 0.00603071 -7.64949e-20)
(0.00121326 0.00837167 -7.90536e-20)
(0.0359909 0.00863858 7.15829e-20)
(0.0932318 0.00875021 0)
(0.170705 0.0103042 0)
(0.265814 0.0144959 -2.36284e-21)
(0.375028 0.0219061 0)
(0.493743 0.0325186 -2.9943e-19)
(0.616469 0.0457844 2.78708e-19)
(0.737325 0.0607311 -3.45006e-19)
(0.8507 0.0761332 7.95181e-20)
(0.951908 0.0907201 0)
(1.03768 0.103376 1.33991e-19)
(1.10641 0.113292 -2.48861e-19)
(1.15809 0.120047 5.92315e-20)
(1.19411 0.123606 1.54524e-19)
(1.21678 0.124257 -5.6424e-21)
(1.22891 0.122509 -1.72649e-19)
(1.23335 0.118967 0)
(1.2326 0.114229 0)
(1.22865 0.108876 -6.31397e-20)
(1.22287 0.103048 5.70093e-20)
(1.21628 0.0982352 2.06652e-19)
(1.20929 0.0904979 -1.94002e-19)
(-0.00403954 0.00349658 -8.04661e-20)
(0.0187455 0.00217169 -8.02231e-20)
(0.0707711 0.0015146 2.25701e-19)
(0.148135 0.00301287 -1.37081e-19)
(0.247161 0.00794613 1.29031e-19)
(0.363336 0.0171243 2.34883e-19)
(0.490806 0.0305213 -1.66039e-19)
(0.622618 0.0473332 -2.02747e-19)
(0.751436 0.0661782 3.45464e-21)
(0.870488 0.0853736 2.60536e-19)
(0.974461 0.103252 0)
(1.06007 0.118446 7.24908e-20)
(1.12623 0.130071 0)
(1.17383 0.137789 -1.20068e-19)
(1.20518 0.141753 1.69041e-19)
(1.22346 0.142476 1.68105e-21)
(1.23202 0.140655 -4.50069e-20)
(1.23391 0.137025 8.49536e-20)
(1.2316 0.132242 7.3696e-20)
(1.22688 0.126821 -6.65775e-20)
(1.2209 0.121163 6.31249e-20)
(1.21433 0.11537 -5.69954e-20)
(1.20751 0.11031 0)
(1.20087 0.103184 -4.38905e-20)
(0.00244721 0.00085664 8.04546e-20)
(0.0422967 -0.00348529 8.43905e-20)
(0.114966 -0.0036085 -7.56088e-20)
(0.214901 0.00115601 1.4092e-19)
(0.336273 0.0114026 -1.32637e-19)
(0.471917 0.0271573 1.20228e-19)
(0.613247 0.0473912 -5.76647e-20)
(0.751188 0.0702404 1.52177e-19)
(0.877506 0.0934535 -9.57357e-20)
(0.986017 0.114868 1.70901e-19)
(1.07329 0.132805 -3.95365e-19)
(1.13869 0.146289 1.45618e-19)
(1.18395 0.15508 -1.28943e-19)
(1.21229 0.159536 1.21115e-19)
(1.22761 0.160397 1.05939e-19)
(1.23372 0.158548 9.39761e-20)
(1.23385 0.15484 -2.6162e-19)
(1.23042 0.149975 1.62754e-19)
(1.22507 0.144472 -7.36989e-20)
(1.21882 0.138684 1.94046e-19)
(1.21221 0.13284 -6.25371e-20)
(1.20554 0.127031 -1.54836e-19)
(1.19896 0.121715 1.43318e-19)
(1.19257 0.115041 4.38757e-20)
(0.0114126 -0.0016195 0)
(0.0724124 -0.00780376 6.9938e-22)
(0.168718 -0.00552856 1.57919e-19)
(0.292563 0.00457603 -1.48124e-19)
(0.435228 0.0219199 -1.33818e-19)
(0.586417 0.0452607 2.48904e-19)
(0.735019 0.0722273 -1.15683e-19)
(0.870883 0.099855 1.54912e-19)
(0.98651 0.125318 -3.00538e-21)
(1.07798 0.146498 -8.81818e-20)
(1.14495 0.162261 1.94148e-19)
(1.18985 0.17244 -2.87148e-19)
(1.21676 0.177602 0)
(1.23031 0.178725 -5.71195e-20)
(1.23476 0.176895 -1.53829e-19)
(1.23355 0.17309 4.82601e-20)
(1.22915 0.168078 1.67677e-21)
(1.22316 0.162403 -1.08998e-19)
(1.21651 0.156416 5.81193e-21)
(1.2097 0.150336 1.26531e-19)
(1.20297 0.144294 -5.71436e-20)
(1.1964 0.138373 -2.22592e-20)
(1.19 0.132746 6.76241e-20)
(1.18383 0.12636 0)
(0.0230985 -0.00356014 0)
(0.109243 -0.00979024 4.28044e-20)
(0.231396 -0.00289792 -2.05825e-19)
(0.378988 0.0146056 7.49323e-20)
(0.539868 0.0403531 -7.05237e-20)
(0.700698 0.0713928 -6.45718e-20)
(0.848882 0.103921 -1.14571e-19)
(0.974935 0.1342 5.69274e-20)
(1.07388 0.159434 4.97937e-20)
(1.14526 0.178176 0)
(1.19206 0.190262 1.15239e-19)
(1.21919 0.196457 -1.72331e-19)
(1.23205 0.198002 1.28484e-19)
(1.23547 0.196219 5.71489e-20)
(1.23324 0.192259 -4.7418e-20)
(1.22796 0.186992 -4.02327e-20)
(1.22129 0.181013 -3.78605e-20)
(1.21415 0.174696 1.12074e-19)
(1.207 0.168266 0)
(1.20006 0.161854 5.75124e-20)
(1.19339 0.15554 4.9219e-20)
(1.18698 0.149383 -1.2124e-19)
(1.1808 0.143403 -8.43581e-20)
(1.17481 0.137178 7.79155e-20)
(0.0375988 -0.00451937 -4.61194e-20)
(0.152439 -0.00835657 -1.71146e-21)
(0.301511 0.00558437 4.1875e-20)
(0.470971 0.0322548 1.17107e-19)
(0.645171 0.0669384 3.41934e-20)
(0.808636 0.104769 -6.60154e-20)
(0.949054 0.140819 6.03511e-20)
(1.05952 0.171248 -5.31571e-20)
(1.13884 0.194005 9.56886e-20)
(1.19028 0.208779 4.11218e-20)
(1.21953 0.216499 -1.16581e-19)
(1.23288 0.218707 3.45877e-20)
(1.23592 0.217025 5.95487e-20)
(1.23293 0.212844 -2.92201e-20)
(1.22685 0.207193 0)
(1.21945 0.200758 4.44047e-20)
(1.21169 0.193957 7.58652e-20)
(1.20407 0.187031 1.35101e-20)
(1.19677 0.180118 -6.37071e-20)
(1.18985 0.173298 2.69561e-20)
(1.1833 0.166622 0)
(1.17706 0.16012 -2.15366e-20)
(1.17106 0.153755 -2.05893e-20)
(1.16524 0.147539 0)
(0.0548099 -0.00401416 0)
(0.201083 -0.00244611 2.41611e-20)
(0.376737 0.020973 4.47127e-20)
(0.564524 0.0580095 -1.19408e-19)
(0.745964 0.101226 3.85553e-20)
(0.905121 0.144049 0)
(1.03201 0.181132 5.84408e-20)
(1.12375 0.209354 -8.16503e-20)
(1.18334 0.227968 -4.78055e-20)
(1.21714 0.23797 2.16878e-20)
(1.23247 0.241232 -3.50746e-20)
(1.23592 0.239772 8.49805e-20)
(1.23254 0.235317 4.30191e-20)
(1.22573 0.229137 -2.96856e-20)
(1.21755 0.22206 -2.56471e-21)
(1.20909 0.214581 -8.30491e-20)
(1.20087 0.206976 3.79425e-20)
(1.19309 0.199394 -9.78751e-22)
(1.18581 0.191918 0)
(1.179 0.1846 -2.69843e-20)
(1.17262 0.177472 0)
(1.16657 0.17053 6.22233e-20)
(1.16078 0.163763 -7.44846e-20)
(1.15512 0.157411 3.40971e-20)
(0.0743921 -0.0015664 -1.25982e-20)
(0.253671 0.00884567 -6.08762e-20)
(0.454062 0.0439216 6.92669e-20)
(0.655337 0.0917427 4.07867e-20)
(0.837629 0.14218 -1.94539e-20)
(0.986643 0.187626 3.28962e-20)
(1.09644 0.223261 -1.59425e-20)
(1.16882 0.247397 2.67224e-20)
(1.21049 0.260863 0)
(1.22989 0.265851 6.1159e-20)
(1.2349 0.264884 -2.36121e-21)
(1.23165 0.260163 -4.9668e-20)
(1.22431 0.253311 2.14173e-20)
(1.21535 0.245386 -2.43647e-20)
(1.20611 0.237004 -9.43107e-21)
(1.19718 0.2285 1.07463e-20)
(1.18881 0.220048 -8.40298e-21)
(1.18106 0.211738 -4.60253e-20)
(1.17391 0.203619 2.82358e-20)
(1.16729 0.195725 5.85106e-21)
(1.16112 0.188067 5.19585e-21)
(1.1553 0.180624 4.61775e-21)
(1.14973 0.173452 0)
(1.14425 0.166807 0)
(0.095824 0.00326357 1.26069e-20)
(0.308316 0.0261822 -1.26124e-20)
(0.530218 0.0745898 -2.30869e-20)
(0.739419 0.132738 0)
(0.916688 0.188376 -9.67023e-21)
(1.05139 0.233909 -8.73707e-21)
(1.14267 0.265964 -1.50191e-20)
(1.19682 0.284734 0)
(1.22332 0.292602 0)
(1.23165 0.292684 0)
(1.22941 0.287838 0)
(1.22187 0.280213 0)
(1.21223 0.271218 -1.34762e-20)
(1.20218 0.261672 6.14606e-21)
(1.19249 0.252008 1.07742e-20)
(1.18346 0.242441 5.05305e-21)
(1.17516 0.233071 1.26076e-20)
(1.16759 0.223951 0)
(1.16067 0.215111 -3.08244e-21)
(1.15433 0.206568 -2.9664e-21)
(1.14846 0.198313 -5.20411e-21)
(1.14295 0.190331 -4.62512e-21)
(1.13767 0.182753 0)
(1.13247 0.175671 3.40008e-21)
(-0.00159045 0.0158383 7.38185e-21)
(-0.00656728 0.0362165 -7.6543e-21)
(-0.0149291 0.0485784 -1.44866e-20)
(-0.0250358 0.0550783 0)
(-0.0359642 0.0574379 -1.93382e-20)
(-0.0472356 0.0570028 6.0409e-21)
(-0.0585128 0.0547627 -1.1503e-20)
(-0.0695592 0.0513824 0)
(-0.0802233 0.0472521 0)
(-0.0904111 0.04255 0)
(-0.100064 0.0373059 0)
(-0.109145 0.0314578 0)
(-0.117623 0.0248971 -9.38183e-23)
(-0.125473 0.0175004 -7.50576e-21)
(-0.132667 0.00914994 1.43466e-20)
(-0.139162 -0.000253291 2.01498e-20)
(-0.144904 -0.0107689 6.46407e-21)
(-0.149856 -0.0224204 0)
(-0.153982 -0.0351739 5.48943e-21)
(-0.157262 -0.0489533 -1.56729e-20)
(-0.1597 -0.0636274 -9.85627e-21)
(-0.161356 -0.0790189 -9.22251e-21)
(-0.162395 -0.0949316 0)
(-0.163109 -0.11116 0)
(-0.00276056 0.0188667 -2.22941e-20)
(-0.00891898 0.0435523 3.83587e-20)
(-0.0174487 0.0589092 -1.46423e-20)
(-0.0271386 0.0674244 -2.75906e-20)
(-0.0373127 0.0710543 3.88891e-20)
(-0.0476296 0.0713274 -2.4589e-20)
(-0.0578385 0.0693833 3.46274e-20)
(-0.0677534 0.0660057 2.20582e-20)
(-0.0772487 0.0616752 0)
(-0.0862419 0.0566348 -1.93503e-20)
(-0.0946789 0.0509572 -1.46704e-22)
(-0.102523 0.0446049 1.70621e-20)
(-0.109746 0.0374788 2.46271e-20)
(-0.116324 0.0294539 3.0903e-20)
(-0.122229 0.0204047 -1.42197e-20)
(-0.127425 0.0102257 -4.08479e-20)
(-0.131865 -0.00116356 1.31609e-20)
(-0.135485 -0.0137947 -4.90106e-20)
(-0.138237 -0.0276354 0)
(-0.140101 -0.0425492 1.05059e-20)
(-0.141052 -0.0583458 9.84332e-21)
(-0.1411 -0.0747257 9.21029e-21)
(-0.140335 -0.0912791 0)
(-0.139124 -0.107498 0)
(-0.00418112 0.0212188 0)
(-0.0117808 0.0494743 7.85394e-20)
(-0.0204498 0.0675032 -2.95848e-20)
(-0.0294883 0.0779502 2.78245e-20)
(-0.0385118 0.0828993 -7.94008e-20)
(-0.0473406 0.0839965 0)
(-0.0558268 0.0824925 -4.71787e-20)
(-0.0638471 0.0792707 2.23374e-20)
(-0.0713072 0.0748957 -4.23651e-20)
(-0.0781365 0.0696781 2.03963e-20)
(-0.0842814 0.0637401 1.13026e-19)
(-0.0897002 0.0570774 -5.31251e-20)
(-0.0943585 0.0496087 -8.36881e-20)
(-0.0982247 0.0412134 -3.24066e-20)
(-0.101266 0.0317593 -3.59106e-22)
(-0.103444 0.0211226 1.12946e-19)
(-0.104715 0.00920516 -5.31785e-20)
(-0.105027 -0.00404549 -8.44625e-22)
(-0.104284 -0.0186155 0)
(-0.102445 -0.0343954 -4.54047e-20)
(-0.099515 -0.0511261 0)
(-0.0953985 -0.068383 -3.83918e-20)
(-0.0899412 -0.0854923 1.46778e-19)
(-0.0837057 -0.101502 -4.0235e-22)
(-0.00572247 0.0227443 0)
(-0.0149102 0.053614 5.51292e-22)
(-0.0236851 0.0738362 3.03586e-20)
(-0.0318776 0.0860188 -2.87215e-20)
(-0.0394074 0.0922558 2.64736e-20)
(-0.0462652 0.0942373 1.52367e-19)
(-0.0524162 0.0932779 -4.77457e-20)
(-0.0578069 0.0903334 -4.55333e-20)
(-0.0623791 0.0860404 8.5374e-20)
(-0.0660733 0.0807741 -1.21016e-19)
(-0.0688316 0.0747107 3.83108e-20)
(-0.0705988 0.0678865 3.64592e-20)
(-0.0713224 0.0602475 0)
(-0.0709514 0.0516873 3.19933e-20)
(-0.0694352 0.0420761 0)
(-0.066721 0.0312813 5.86726e-20)
(-0.0627527 0.0191877 -1.10122e-19)
(-0.0574733 0.00571622 2.48909e-20)
(-0.0508429 -0.00915525 9.76643e-20)
(-0.042785 -0.0253782 4.53584e-20)
(-0.0332771 -0.042699 0)
(-0.0222688 -0.0606508 -1.21129e-19)
(-0.00926198 -0.0782981 3.76964e-20)
(0.00576175 -0.0940538 0)
(-0.00724707 0.023382 0)
(-0.0180474 0.0557676 -9.70076e-20)
(-0.0268974 0.0775569 -3.08625e-20)
(-0.0341056 0.0911442 -5.77831e-20)
(-0.0398729 0.0985241 5.44087e-20)
(-0.0443535 0.101359 -5.10173e-20)
(-0.0476269 0.100977 9.72855e-20)
(-0.049714 0.0983739 4.5964e-20)
(-0.050595 0.0942375 -1.29479e-19)
(-0.0502223 0.0889992 8.23039e-20)
(-0.0485298 0.0828879 -1.16207e-19)
(-0.0454409 0.0759848 2.58453e-19)
(-0.0408738 0.0682712 -1.38704e-19)
(-0.0347445 0.0596668 6.64945e-20)
(-0.0269702 0.0500586 1.88729e-19)
(-0.0174694 0.0393238 -5.75695e-20)
(-0.00616602 0.027348 -5.56872e-20)
(0.00700235 0.0140399 -5.2254e-20)
(0.0220628 -0.00066159 0)
(0.0390506 -0.0167044 -9.4825e-20)
(0.057937 -0.0339501 -8.90699e-20)
(0.0786466 -0.0520211 1.25064e-19)
(0.101762 -0.0698649 1.5416e-19)
(0.129157 -0.0852832 -1.45908e-19)
(-0.00863535 0.0231694 0)
(-0.0209549 0.0559233 -1.32272e-19)
(-0.029845 0.07853 -5.31449e-22)
(-0.0359786 0.0930447 1.1708e-19)
(-0.0397844 0.101282 0)
(-0.0415581 0.104818 0)
(-0.0414861 0.104947 0)
(-0.0396625 0.102667 -4.64431e-20)
(-0.0361077 0.0986947 -5.15806e-22)
(-0.0307864 0.0935016 8.27826e-20)
(-0.0236229 0.0873608 -1.17965e-19)
(-0.0145152 0.0803967 -4.54739e-22)
(-0.00334536 0.0726294 0)
(0.0100112 0.0640121 -6.64618e-20)
(0.0256782 0.0544612 6.45763e-20)
(0.0437705 0.0438799 -1.8026e-19)
(0.0643835 0.0321764 2.28454e-19)
(0.0875638 0.0192744 5.56545e-20)
(0.113343 0.00515134 1.15533e-21)
(0.141699 -0.0101399 -1.92102e-19)
(0.172471 -0.026506 -9.07133e-20)
(0.205515 -0.0436949 2.95728e-19)
(0.240156 -0.0609309 -1.98261e-19)
(0.284497 -0.0750431 0)
(-0.00980825 0.0222389 6.54763e-20)
(-0.0234509 0.0542624 6.63798e-20)
(-0.0323179 0.0768525 -6.34116e-20)
(-0.037296 0.0916788 -1.18709e-19)
(-0.0389683 0.100339 1.11772e-19)
(-0.0377396 0.104284 -1.05496e-19)
(-0.0338864 0.104739 1.49151e-19)
(-0.0275678 0.102674 -4.65421e-20)
(-0.018841 0.0988055 8.841e-20)
(-0.00768071 0.0936258 0)
(0.00599936 0.0874402 8.03118e-20)
(0.0223277 0.08041 -1.50147e-19)
(0.041457 0.072593 1.43078e-19)
(0.0635483 0.0639798 -1.34382e-19)
(0.0887542 0.0545233 0)
(0.117202 0.0441636 1.21174e-19)
(0.148976 0.0328474 2.31141e-19)
(0.18409 0.0205487 -2.16754e-19)
(0.222475 0.0072992 -1.02648e-19)
(0.263982 -0.00682192 -9.70312e-20)
(0.308143 -0.0216916 2.72396e-19)
(0.355429 -0.0368985 8.43084e-20)
(0.400784 -0.0527935 -7.97638e-20)
(0.465308 -0.0640111 7.21166e-20)
(-0.0107431 0.020791 -6.54852e-20)
(-0.0254277 0.0511202 2.03827e-19)
(-0.034133 0.0728322 -6.43429e-20)
(-0.0378071 0.0872525 1.20076e-19)
(-0.0371116 0.0957729 -1.13058e-19)
(-0.0325212 0.0997114 3.53137e-22)
(-0.0243763 0.100204 5.02563e-20)
(-0.012883 0.0981671 1.89983e-19)
(0.00187777 0.0942976 8.14503e-22)
(0.0199299 0.0890892 -8.3735e-20)
(0.0413735 0.0828675 0)
(0.0663597 0.0758234 -7.62303e-20)
(0.0950619 0.0680517 1.42336e-19)
(0.127649 0.0595838 1.3603e-19)
(0.164256 0.0504154 -6.36717e-20)
(0.20495 0.0405316 -8.88454e-23)
(0.249705 0.0299287 -5.75024e-20)
(0.298369 0.0186336 1.08255e-19)
(0.350623 0.00671424 1.0262e-19)
(0.406116 -0.00565484 -9.65661e-20)
(0.463503 -0.0184996 8.95221e-20)
(0.52507 -0.0306193 -8.32391e-20)
(0.578242 -0.044633 0)
(0.661009 -0.0515784 -7.20218e-20)
(-0.0114675 0.019051 6.68998e-20)
(-0.026834 0.0469168 -6.82958e-20)
(-0.0350919 0.0669303 6.49967e-20)
(-0.0371344 0.0801926 0)
(-0.0336365 0.0879461 0)
(-0.025103 0.091394 1.08075e-19)
(-0.0119039 0.0915825 -1.00922e-19)
(0.00573692 0.0893674 9.55147e-20)
(0.027735 0.0854109 -4.48097e-19)
(0.0541259 0.0801962 -2.6155e-22)
(0.0850184 0.0740637 7.98243e-20)
(0.120559 0.0672303 0)
(0.160888 0.0598255 -1.43407e-19)
(0.206092 0.0519211 2.70406e-19)
(0.256156 0.0435561 -1.9152e-19)
(0.310924 0.0347604 -3.03417e-19)
(0.37006 0.0255722 -1.23876e-21)
(0.433022 0.0160568 2.13854e-19)
(0.498996 0.00628583 0)
(0.567308 -0.00344261 0)
(0.635363 -0.0135687 -8.95126e-20)
(0.707266 -0.0217694 8.32295e-20)
(0.764076 -0.033313 -3.01411e-19)
(0.855146 -0.035244 2.82671e-19)
(-0.0120374 0.0172226 0)
(-0.0276229 0.0420692 0)
(-0.0349036 0.0596758 -1.95606e-19)
(-0.0346661 0.0710875 6.21532e-20)
(-0.0275577 0.0774823 3.70802e-22)
(-0.0140762 0.0799894 1.09e-19)
(0.00541665 0.079584 0)
(0.0307109 0.0770654 -9.5583e-20)
(0.0617295 0.0730604 8.97158e-20)
(0.0985015 0.0680517 -1.69585e-19)
(0.141104 0.0623841 -2.70577e-22)
(0.189576 0.0562909 1.5115e-19)
(0.243869 0.049929 8.38557e-22)
(0.30378 0.0433992 1.35725e-19)
(0.368893 0.0367641 -1.90174e-19)
(0.438544 0.0300648 0)
(0.511802 0.0233349 2.26135e-19)
(0.587487 0.0166179 -3.19287e-19)
(0.664129 0.00992554 9.82875e-20)
(0.740492 0.00354612 0)
(0.813458 -0.00322069 8.50335e-20)
(0.88667 -0.00772273 3.17805e-19)
(0.941761 -0.0164315 -2.98262e-19)
(1.0246 -0.014305 -3.33518e-19)
(-0.0124931 0.0154405 2.05551e-19)
(-0.0276684 0.0369049 -2.8236e-19)
(-0.0330871 0.0515755 6.53924e-22)
(-0.0294566 0.0606142 6.27219e-20)
(-0.017385 0.0652271 -1.16842e-19)
(0.00266109 0.0665225 -1.08544e-19)
(0.0303491 0.0654355 2.03982e-19)
(0.0654851 0.0627297 -6.41521e-22)
(0.107977 0.0590163 -1.80079e-19)
(0.157749 0.0547607 3.38849e-19)
(0.214659 0.0502954 5.59278e-22)
(0.278418 0.0458609 -1.50012e-19)
(0.348491 0.0416077 0)
(0.424043 0.0376122 0)
(0.503913 0.0338916 -6.32282e-20)
(0.586627 0.0304162 -1.17305e-19)
(0.670451 0.0271262 -2.2189e-19)
(0.753466 0.0239345 2.08284e-19)
(0.833693 0.0207672 -9.833e-20)
(0.909297 0.017583 1.79291e-19)
(0.978018 0.0140724 -8.76515e-20)
(1.04093 0.0114977 1.4991e-19)
(1.0876 0.00552116 -3.55694e-19)
(1.14686 0.00824028 6.61217e-20)
(-0.0128057 0.0137401 6.93462e-20)
(-0.0266689 0.0316027 0)
(-0.0288758 0.043042 1.33887e-19)
(-0.0201563 0.0494646 -1.26124e-19)
(-0.00110453 0.0521799 1.1695e-19)
(0.0278372 0.0523262 0)
(0.0663394 0.0508328 0)
(0.114142 0.0484442 -9.62518e-20)
(0.170968 0.0457437 3.36653e-22)
(0.236401 0.0431608 8.4878e-20)
(0.309762 0.0409959 -7.96531e-20)
(0.390026 0.0394224 1.49709e-19)
(0.475767 0.0384956 0)
(0.565166 0.0381667 2.64642e-19)
(0.65608 0.0382993 -4.96647e-19)
(0.746153 0.03869 3.50373e-19)
(0.832969 0.0391008 2.16586e-19)
(0.914206 0.0392528 -2.03314e-19)
(0.987857 0.0389864 0)
(1.05217 0.0378543 0)
(1.10634 0.03632 0)
(1.14969 0.0331309 0)
(1.1813 0.0296765 6.9103e-20)
(1.21158 0.027677 -2.44322e-19)
(-0.1638 -0.130325 -5.46368e-21)
(-0.166113 -0.154523 5.49656e-21)
(-0.16702 -0.179075 -1.66995e-22)
(-0.166857 -0.202943 0)
(-0.165539 -0.225104 -4.78578e-21)
(-0.162916 -0.244299 9.24794e-21)
(-0.15886 -0.25907 -4.37817e-23)
(-0.153214 -0.267817 -4.30042e-21)
(-0.145732 -0.268829 0)
(-0.136039 -0.260305 0)
(-0.123636 -0.240532 -2.36643e-22)
(-0.107995 -0.208071 -2.31001e-22)
(-0.0886163 -0.161799 -4.11812e-21)
(-0.0650002 -0.101414 3.78251e-21)
(-0.0370102 -0.0279714 0)
(-0.00521562 0.0564223 0)
(0.0293305 0.147062 3.28924e-21)
(0.0646937 0.239051 -1.99177e-22)
(0.0980331 0.324983 -2.74886e-21)
(0.126246 0.398997 -1.45076e-22)
(0.146022 0.459161 0)
(0.155191 0.505069 0)
(0.156692 0.534981 0)
(0.159952 0.541126 0)
(0.17847 0.509496 0)
(0.220455 0.428791 0)
(0.281615 0.300334 7.31945e-22)
(0.352143 0.136523 -1.21443e-21)
(0.425747 -0.0437887 0)
(0.497143 -0.214108 0)
(0.558448 -0.348175 -6.79633e-22)
(0.601629 -0.434082 6.60503e-22)
(0.626149 -0.473156 2.3851e-22)
(0.63564 -0.478034 0)
(0.618199 -0.478561 0)
(0.562454 -0.493788 3.26331e-22)
(0.494122 -0.491414 -3.17225e-22)
(0.459773 -0.413388 0)
(0.474893 -0.247105 4.30094e-22)
(0.524655 -0.0390649 -6.17908e-22)
(0.585093 0.152397 1.84851e-22)
(0.636845 0.290537 0)
(0.675863 0.36221 -2.39006e-22)
(0.699743 0.3835 2.32406e-22)
(0.681027 0.392616 0)
(0.620272 0.400045 0)
(0.565097 0.358906 -8.09942e-23)
(0.564482 0.241972 2.55244e-22)
(0.609285 0.0786672 0)
(0.670571 -0.0659259 0)
(0.721787 -0.163968 -4.91646e-23)
(0.761925 -0.206938 -1.08312e-24)
(0.780088 -0.209706 -1.12764e-23)
(0.778691 -0.200033 1.09699e-23)
(0.744721 -0.171798 0)
(0.724448 -0.145001 0)
(0.725789 -0.0774001 0)
(0.757208 -0.02957 0)
(0.795971 0.0298927 0)
(0.831912 0.0595439 0)
(-0.138103 -0.125964 -5.63304e-22)
(-0.142519 -0.151323 -2.26669e-20)
(-0.145489 -0.177182 6.15132e-22)
(-0.147912 -0.202352 2.0676e-20)
(-0.149839 -0.225854 3.10542e-22)
(-0.151113 -0.246427 0)
(-0.151642 -0.2626 -1.70922e-20)
(-0.151332 -0.272805 3.3331e-20)
(-0.149984 -0.275446 -1.62298e-20)
(-0.147249 -0.268852 1.49555e-20)
(-0.142616 -0.251431 -1.42998e-20)
(-0.135393 -0.221741 1.37568e-20)
(-0.124764 -0.178655 -1.33149e-20)
(-0.109802 -0.121698 -3.76701e-22)
(-0.0896918 -0.0515162 -1.26388e-20)
(-0.064578 0.029889 1.22827e-20)
(-0.0347962 0.119244 -1.13059e-20)
(-0.00253198 0.211315 1.06813e-20)
(0.0291434 0.300658 -9.58481e-21)
(0.0589454 0.379421 1.7707e-20)
(0.0848044 0.445896 -8.16952e-21)
(0.105736 0.496937 -4.22836e-22)
(0.125791 0.527697 -6.7241e-21)
(0.153501 0.528704 1.346e-20)
(0.198131 0.487879 -6.73e-21)
(0.261377 0.399094 5.00072e-22)
(0.335527 0.266734 8.97939e-21)
(0.412807 0.101797 5.79827e-22)
(0.489175 -0.0785747 -1.67866e-20)
(0.559331 -0.246335 1.51339e-20)
(0.615511 -0.3737 -6.93002e-21)
(0.650807 -0.450237 6.38772e-22)
(0.66466 -0.480911 -2.3897e-22)
(0.664928 -0.476769 3.74498e-22)
(0.646035 -0.463807 0)
(0.591043 -0.467886 0)
(0.514354 -0.468655 -1.22162e-21)
(0.463813 -0.406998 8.9736e-22)
(0.464593 -0.257657 1.15314e-21)
(0.504971 -0.0590289 2.20148e-22)
(0.560879 0.131225 -1.6039e-21)
(0.614331 0.272977 2.82924e-22)
(0.659319 0.350488 0)
(0.684366 0.382605 0)
(0.661266 0.404765 0)
(0.60109 0.416512 0)
(0.55665 0.36615 3.78247e-22)
(0.568578 0.235577 -1.76644e-22)
(0.6232 0.0643599 0)
(0.688615 -0.0806701 0)
(0.740418 -0.175382 0)
(0.777021 -0.214194 -5.95818e-23)
(0.79464 -0.212157 2.68957e-23)
(0.797383 -0.196643 -3.24715e-23)
(0.765097 -0.165829 0)
(0.741027 -0.141827 0)
(0.727175 -0.0796268 6.91989e-24)
(0.751497 -0.0357509 1.47721e-23)
(0.780633 0.0233491 0)
(0.816003 0.0560182 0)
(-0.0794358 -0.118481 -2.65182e-22)
(-0.085329 -0.144592 -4.84222e-20)
(-0.0896896 -0.171439 4.56181e-20)
(-0.0941564 -0.197706 -4.26488e-20)
(-0.0989961 -0.222413 -3.12655e-22)
(-0.103986 -0.244304 0)
(-0.10901 -0.261874 -3.4498e-20)
(-0.114023 -0.273532 3.37696e-20)
(-0.118816 -0.277871 2.41598e-22)
(-0.12302 -0.273283 4.18655e-22)
(-0.126124 -0.258289 3.84635e-22)
(-0.127389 -0.231532 4.10339e-22)
(-0.12586 -0.191924 -2.29441e-20)
(-0.120367 -0.138852 2.26775e-20)
(-0.109654 -0.0726391 0)
(-0.0928016 0.00499816 5.57121e-22)
(-0.06988 0.0917015 -1.8577e-20)
(-0.0419012 0.182693 1.83591e-20)
(-0.0123584 0.272917 0)
(0.0184932 0.354696 0)
(0.0512716 0.425119 -1.40216e-20)
(0.0849455 0.47866 2.7192e-20)
(0.123434 0.508403 -2.61688e-20)
(0.172947 0.504577 -9.7904e-22)
(0.238193 0.457725 2.9538e-20)
(0.316416 0.365503 -3.37553e-20)
(0.399232 0.233211 3.49385e-20)
(0.480756 0.0698101 -5.91658e-22)
(0.558212 -0.108496 -1.84542e-20)
(0.625723 -0.272538 0)
(0.675248 -0.39322 0)
(0.702035 -0.460881 3.34027e-21)
(0.705755 -0.484132 -4.51109e-21)
(0.695839 -0.473828 -9.07468e-24)
(0.674209 -0.450006 2.20928e-21)
(0.622072 -0.441859 -2.14714e-21)
(0.540802 -0.442813 0)
(0.475049 -0.397046 2.91313e-22)
(0.460649 -0.266399 2.81741e-21)
(0.490759 -0.0786672 -5.50052e-21)
(0.541766 0.109014 2.43728e-21)
(0.596819 0.253443 2.21198e-22)
(0.645976 0.337684 -2.2368e-21)
(0.669846 0.382287 1.73695e-21)
(0.642732 0.417267 3.8542e-22)
(0.585235 0.431493 3.89373e-22)
(0.552455 0.370962 -3.79224e-22)
(0.576435 0.227348 0)
(0.640028 0.0494418 0)
(0.708838 -0.0953285 -1.34752e-21)
(0.760957 -0.186083 6.03859e-22)
(0.79351 -0.220758 -3.67149e-22)
(0.808795 -0.21491 3.41556e-22)
(0.814271 -0.194109 2.19861e-22)
(0.78524 -0.160013 -5.62497e-23)
(0.76043 -0.137079 3.2185e-23)
(0.73328 -0.0797148 -1.7556e-23)
(0.750428 -0.0401884 -4.53084e-24)
(0.767732 0.0179069 0)
(0.802187 0.0525862 0)
(0.0137653 -0.109829 -1.04056e-19)
(0.00729605 -0.134868 3.36292e-21)
(0.00239466 -0.161983 9.54804e-20)
(-0.00338288 -0.188856 -6.878e-22)
(-0.0105869 -0.214238 0)
(-0.0189833 -0.236986 0)
(-0.0283723 -0.255646 -6.83304e-20)
(-0.0388747 -0.268532 3.95185e-21)
(-0.0501976 -0.274558 8.7916e-20)
(-0.0617037 -0.272146 -2.3428e-21)
(-0.0727646 -0.259801 -2.47436e-20)
(-0.0825362 -0.236232 -2.00676e-20)
(-0.0899796 -0.200403 2.01032e-20)
(-0.0938463 -0.151667 0)
(-0.0927761 -0.0900796 -1.66144e-20)
(-0.0851311 -0.0171279 1.51504e-20)
(-0.069931 0.0654044 0)
(-0.0477739 0.154901 0)
(-0.0214101 0.241618 1.29233e-20)
(0.0103133 0.324535 -3.09477e-22)
(0.0490043 0.396508 -1.14953e-20)
(0.093759 0.450655 -1.25821e-20)
(0.147521 0.478751 1.25859e-20)
(0.213787 0.471438 -1.51381e-20)
(0.293455 0.421864 -1.95521e-21)
(0.381237 0.330181 1.62446e-20)
(0.469054 0.201311 2.39964e-21)
(0.552764 0.0417094 -4.50874e-23)
(0.630405 -0.133268 0)
(0.694688 -0.292986 1.58693e-20)
(0.736699 -0.407341 -1.63031e-20)
(0.75425 -0.466891 6.65194e-22)
(0.748564 -0.483247 0)
(0.728291 -0.468908 -3.69773e-22)
(0.70202 -0.437583 4.03733e-21)
(0.653766 -0.417086 -6.92838e-21)
(0.572399 -0.414353 -3.78739e-22)
(0.493614 -0.382583 -4.24268e-22)
(0.463219 -0.272469 3.14155e-21)
(0.482602 -0.0978576 5.77534e-22)
(0.52855 0.085836 -4.02138e-21)
(0.584446 0.232366 3.40019e-21)
(0.635369 0.324406 3.42489e-23)
(0.656227 0.382591 1.62541e-21)
(0.626004 0.429622 -1.96703e-21)
(0.573031 0.444648 -2.96572e-21)
(0.552426 0.373518 7.44253e-22)
(0.588038 0.217763 1.89449e-21)
(0.659625 0.0340542 -3.53138e-21)
(0.730861 -0.109771 2.37152e-21)
(0.782847 -0.196043 -3.73639e-22)
(0.81129 -0.226449 6.7602e-22)
(0.82298 -0.217612 3.701e-22)
(0.829393 -0.192383 -3.40885e-22)
(0.804337 -0.154797 3.04937e-23)
(0.781428 -0.131337 -1.19882e-23)
(0.743843 -0.07793 0)
(0.754301 -0.0427307 -7.19469e-24)
(0.758399 0.0137621 1.0257e-24)
(0.791725 0.0492687 0)
(0.140398 -0.100592 1.08195e-19)
(0.135364 -0.123675 -2.08528e-19)
(0.129611 -0.150058 9.92747e-20)
(0.123395 -0.176403 8.9868e-20)
(0.114867 -0.2013 -1.70732e-19)
(0.103837 -0.223832 5.83447e-21)
(0.0907278 -0.242699 7.3618e-20)
(0.0750803 -0.256687 5.9993e-20)
(0.056919 -0.264355 -5.87558e-20)
(0.0375021 -0.264167 0)
(0.0177864 -0.254712 -4.04171e-20)
(-0.00113012 -0.234712 7.45248e-20)
(-0.017933 -0.203071 -3.43353e-20)
(-0.0311969 -0.159053 0)
(-0.0397227 -0.1026 0)
(-0.0413842 -0.0347905 4.37095e-22)
(-0.0335111 0.0423583 -2.13654e-20)
(-0.0186913 0.125416 2.07566e-20)
(0.00286731 0.208341 0)
(0.0348923 0.29001 2.01809e-20)
(0.0769854 0.361294 -3.9488e-20)
(0.129292 0.414704 4.20201e-20)
(0.193431 0.441299 -4.7621e-20)
(0.270546 0.432347 -4.91152e-21)
(0.358859 0.383033 6.38155e-20)
(0.451684 0.295008 -3.43539e-20)
(0.54156 0.172041 -1.23524e-21)
(0.625902 0.017739 -1.95319e-20)
(0.703272 -0.152852 9.32881e-22)
(0.764352 -0.307437 1.8729e-20)
(0.798555 -0.415482 8.96493e-22)
(0.806193 -0.467994 -9.63633e-21)
(0.791761 -0.478303 1.63293e-20)
(0.762111 -0.461415 -7.4769e-21)
(0.729581 -0.426155 0)
(0.68485 -0.394913 -3.34125e-21)
(0.60754 -0.385067 3.20331e-21)
(0.519423 -0.363745 -2.56883e-21)
(0.472318 -0.275077 3.20252e-21)
(0.480404 -0.116273 -3.63875e-22)
(0.521313 0.0619024 0)
(0.576733 0.210233 -3.82807e-22)
(0.626911 0.311036 1.18968e-21)
(0.643622 0.383253 0)
(0.611558 0.441243 4.22905e-21)
(0.564644 0.455749 -1.57142e-21)
(0.55646 0.374065 9.45782e-22)
(0.603303 0.207117 1.10685e-21)
(0.681943 0.0185769 0)
(0.754552 -0.123801 0)
(0.805621 -0.205222 -1.58177e-21)
(0.830068 -0.231174 2.01258e-21)
(0.837505 -0.219943 -8.62392e-22)
(0.843005 -0.191289 1.94404e-22)
(0.821843 -0.15047 1.73546e-22)
(0.802772 -0.125197 1.19994e-23)
(0.758258 -0.0746839 2.60049e-23)
(0.763099 -0.0433925 0)
(0.75377 0.0109981 -2.73665e-24)
(0.785841 0.0460733 8.85863e-24)
(0.295898 -0.090119 1.11527e-19)
(0.293022 -0.112664 -1.10748e-19)
(0.287236 -0.137609 7.88374e-22)
(0.281085 -0.162094 -7.37307e-22)
(0.272241 -0.185246 6.79529e-22)
(0.259767 -0.206332 -6.19486e-22)
(0.243713 -0.224216 1.10161e-21)
(0.223873 -0.238068 0)
(0.2002 -0.246288 -8.35866e-22)
(0.173483 -0.247598 7.0892e-22)
(0.144921 -0.240841 5.90973e-22)
(0.116116 -0.224775 -5.51096e-22)
(0.0889894 -0.198206 0)
(0.0655076 -0.160221 0)
(0.0470694 -0.11061 2.62825e-22)
(0.0354174 -0.0496744 0)
(0.0335588 0.0205102 -1.89353e-22)
(0.0413595 0.0959658 0)
(0.0586717 0.17542 -1.39574e-20)
(0.0883148 0.253279 2.85468e-20)
(0.13078 0.322022 -3.13079e-20)
(0.186403 0.373705 1.65101e-20)
(0.255646 0.399185 2.40588e-20)
(0.337949 0.390285 -2.33608e-20)
(0.429887 0.343528 -3.53458e-20)
(0.523942 0.261406 3.45017e-20)
(0.613409 0.146072 0)
(0.697845 -0.00195965 1.3213e-21)
(0.775237 -0.167261 0)
(0.833058 -0.316016 0)
(0.859523 -0.417671 2.44762e-20)
(0.856975 -0.464413 -2.55529e-20)
(0.834164 -0.469921 9.99994e-22)
(0.796738 -0.451367 7.16196e-22)
(0.757072 -0.415176 -4.78617e-22)
(0.714306 -0.375969 -2.49221e-21)
(0.644168 -0.356687 2.42004e-21)
(0.551835 -0.341011 -2.40556e-21)
(0.488146 -0.273409 2.0554e-21)
(0.483417 -0.13327 6.36616e-22)
(0.518975 0.0374906 -2.82691e-21)
(0.572514 0.187397 -4.46763e-22)
(0.619926 0.297636 2.07363e-21)
(0.632155 0.38381 0)
(0.599729 0.451614 -1.64521e-21)
(0.560111 0.464725 3.17993e-21)
(0.564384 0.372837 -3.96895e-21)
(0.622163 0.195711 -1.1139e-21)
(0.706935 0.00318376 0)
(0.779781 -0.137163 6.25627e-22)
(0.828933 -0.213546 -1.475e-21)