/*--------------------------------*- C++ -*----------------------------------*\
| =========                 |                                                 |
| \\      /  F ield         | OpenFOAM: The Open Source CFD Toolbox           |
|  \\    /   O peration     | Version:  2512                                  |
|   \\  /    A nd           | Website:  www.openfoam.com                      |
|    \\/     M anipulation  |                                                 |
\*---------------------------------------------------------------------------*/
FoamFile
{
    version     2.0;
    format      ascii;
    arch        "LSB;label=32;scalar=64";
    class       volScalarField;
    location    "196.5";
    object      p;
}
// * * * * * * * * * * * * * * * * * * * * * * * * * * * * * * * * * * * * * //

dimensions      [0 2 -2 0 0 0 0];

internalField   nonuniform List<scalar> 
13248
(
-0.329168
-0.32842
-0.327051
-0.325143
-0.322703
-0.319651
-0.315866
-0.311214
-0.305584
-0.298899
-0.291142
-0.282361
-0.272678
-0.262276
-0.251389
-0.24027
-0.229174
-0.21833
-0.207923
-0.198104
-0.188923
-0.180518
-0.172604
-0.165573
-0.337237
-0.335429
-0.33316
-0.330465
-0.327303
-0.3236
-0.319229
-0.314041
-0.307905
-0.300733
-0.292507
-0.283287
-0.273211
-0.262477
-0.251323
-0.239996
-0.228728
-0.217715
-0.207107
-0.197009
-0.187464
-0.178501
-0.169981
-0.162113
-0.34636
-0.34341
-0.340141
-0.336552
-0.332559
-0.32809
-0.323007
-0.317133
-0.310313
-0.302449
-0.293531
-0.283641
-0.272948
-0.261674
-0.25007
-0.238381
-0.226824
-0.215573
-0.204751
-0.194438
-0.184652
-0.175421
-0.166612
-0.15838
-0.356687
-0.352509
-0.348167
-0.343616
-0.338706
-0.333354
-0.32739
-0.320604
-0.312819
-0.303949
-0.294019
-0.283164
-0.271603
-0.259596
-0.24741
-0.235286
-0.22342
-0.211953
-0.200978
-0.19054
-0.180644
-0.171299
-0.162388
-0.154123
-0.368386
-0.362888
-0.357423
-0.351862
-0.34595
-0.339556
-0.33247
-0.324452
-0.315336
-0.305091
-0.293822
-0.281748
-0.269149
-0.256319
-0.243527
-0.230986
-0.218852
-0.207225
-0.196154
-0.185656
-0.175722
-0.166341
-0.15743
-0.149151
-0.381548
-0.374645
-0.368023
-0.361406
-0.354366
-0.346696
-0.338144
-0.328481
-0.317613
-0.305623
-0.29274
-0.279278
-0.265568
-0.251909
-0.238538
-0.225621
-0.213258
-0.201501
-0.190365
-0.179839
-0.169902
-0.160527
-0.151653
-0.143398
-0.396107
-0.387742
-0.379941
-0.37219
-0.363818
-0.354527
-0.344066
-0.332289
-0.319259
-0.30523
-0.290569
-0.275664
-0.260861
-0.246423
-0.232528
-0.219277
-0.206717
-0.194854
-0.183672
-0.173141
-0.163227
-0.15389
-0.14509
-0.136877
-0.41179
-0.401956
-0.39295
-0.383926
-0.373913
-0.36255
-0.349672
-0.335329
-0.319816
-0.30358
-0.287103
-0.270801
-0.254981
-0.23984
-0.22548
-0.211937
-0.199205
-0.187254
-0.176043
-0.165528
-0.155661
-0.146399
-0.137707
-0.129565
-0.428085
-0.416837
-0.40659
-0.39607
-0.384001
-0.370045
-0.354261
-0.337002
-0.318834
-0.300377
-0.282166
-0.264585
-0.247863
-0.232109
-0.217348
-0.203556
-0.190685
-0.178675
-0.167464
-0.156994
-0.147208
-0.138059
-0.129509
-0.121474
-0.444234
-0.431688
-0.420129
-0.407799
-0.393187
-0.376132
-0.357067
-0.336718
-0.315909
-0.29536
-0.275588
-0.256892
-0.239401
-0.223134
-0.208044
-0.194059
-0.181093
-0.169065
-0.157895
-0.14751
-0.137846
-0.128849
-0.120463
-0.112573
-0.459255
-0.44556
-0.432567
-0.418037
-0.400384
-0.37982
-0.357273
-0.333853
-0.310567
-0.288151
-0.267038
-0.247413
-0.229297
-0.212626
-0.197295
-0.18319
-0.170197
-0.158214
-0.147145
-0.136907
-0.127425
-0.118635
-0.110453
-0.10277
-0.472032
-0.457382
-0.442806
-0.425653
-0.40449
-0.380105
-0.353999
-0.327627
-0.302092
-0.278064
-0.255846
-0.235492
-0.216918
-0.199986
-0.184537
-0.170423
-0.157507
-0.145667
-0.134795
-0.124796
-0.115591
-0.107104
-0.0992235
-0.0918927
-0.354509
-0.356654
-0.357873
-0.358699
-0.359638
-0.360864
-0.362426
-0.36432
-0.366505
-0.368922
-0.371496
-0.374137
-0.376735
-0.379158
-0.381244
-0.382806
-0.383619
-0.383418
-0.382131
-0.379446
-0.375204
-0.369309
-0.36186
-0.353293
-0.342794
-0.345487
-0.346921
-0.347702
-0.348378
-0.349105
-0.349914
-0.350787
-0.351671
-0.352492
-0.353167
-0.353598
-0.35368
-0.353296
-0.352323
-0.350616
-0.34802
-0.344423
-0.339777
-0.334017
-0.327128
-0.319119
-0.310299
-0.301853
-0.332267
-0.335337
-0.336905
-0.337614
-0.338025
-0.338269
-0.338359
-0.33826
-0.337907
-0.337219
-0.336101
-0.334457
-0.332187
-0.329196
-0.32539
-0.32068
-0.315007
-0.308357
-0.30076
-0.292307
-0.283136
-0.273349
-0.263228
-0.25443
-0.32335
-0.326631
-0.328259
-0.328882
-0.329047
-0.328857
-0.328302
-0.327335
-0.325883
-0.323855
-0.321158
-0.317699
-0.313392
-0.308166
-0.301965
-0.294763
-0.286581
-0.277479
-0.267582
-0.257082
-0.246256
-0.235376
-0.224572
-0.215013
-0.316318
-0.319661
-0.321283
-0.321808
-0.321749
-0.32118
-0.320069
-0.318358
-0.315965
-0.312801
-0.308776
-0.303809
-0.297835
-0.290812
-0.282729
-0.273621
-0.26357
-0.252716
-0.241258
-0.229465
-0.217683
-0.206252
-0.195363
-0.186207
-0.311323
-0.314599
-0.31615
-0.316559
-0.316293
-0.315393
-0.313809
-0.311471
-0.308297
-0.304199
-0.299096
-0.292925
-0.285645
-0.277249
-0.267774
-0.257304
-0.245984
-0.234018
-0.221669
-0.209261
-0.19718
-0.18584
-0.175528
-0.166732
-0.308419
-0.311512
-0.312927
-0.313194
-0.312725
-0.311533
-0.30955
-0.306699
-0.302896
-0.298058
-0.292118
-0.285032
-0.276786
-0.26741
-0.256983
-0.245643
-0.233585
-0.221069
-0.208408
-0.195965
-0.184139
-0.173311
-0.164132
-0.155342
-0.307584
-0.310374
-0.311582
-0.311674
-0.311001
-0.309549
-0.307238
-0.303984
-0.299702
-0.294318
-0.287777
-0.280055
-0.271168
-0.261182
-0.250218
-0.238457
-0.226143
-0.213576
-0.2011
-0.189087
-0.177962
-0.167825
-0.160127
-0.151347
-0.308733
-0.311085
-0.312002
-0.311874
-0.310984
-0.309296
-0.306721
-0.303166
-0.298547
-0.292796
-0.285872
-0.27777
-0.268535
-0.258266
-0.247121
-0.235321
-0.223145
-0.210915
-0.198988
-0.187697
-0.177528
-0.168159
-0.161798
-0.153647
-0.311685
-0.313465
-0.313994
-0.313582
-0.312442
-0.31052
-0.307715
-0.303929
-0.299075
-0.29309
-0.285942
-0.277646
-0.268271
-0.257945
-0.246859
-0.235262
-0.223453
-0.21176
-0.200526
-0.190031
-0.180748
-0.172238
-0.166555
-0.159633
-0.316226
-0.31729
-0.317312
-0.316521
-0.315057
-0.312853
-0.309798
-0.305786
-0.300726
-0.294554
-0.287247
-0.278837
-0.269413
-0.259128
-0.248198
-0.236886
-0.22549
-0.21432
-0.203677
-0.193811
-0.185037
-0.17723
-0.171544
-0.165795
-0.322121
-0.322332
-0.321714
-0.320416
-0.318512
-0.315925
-0.31254
-0.30824
-0.302927
-0.296534
-0.289044
-0.2805
-0.271009
-0.260743
-0.249928
-0.238827
-0.227719
-0.216875
-0.206531
-0.196896
-0.188106
-0.180321
-0.173871
-0.168462
-0.341984
-0.32668
-0.310131
-0.293672
-0.279087
-0.268382
-0.263222
-0.265208
-0.272951
-0.285185
-0.298631
-0.30883
-0.311078
-0.301231
-0.277616
-0.242164
-0.201148
-0.162285
-0.131163
-0.110006
-0.0984901
-0.0951882
-0.0992327
-0.111344
-0.131486
-0.154337
-0.169333
-0.167435
-0.149776
-0.124205
-0.0997451
-0.081986
-0.0721842
-0.0690401
-0.0723345
-0.0841252
-0.103027
-0.11943
-0.122371
-0.108988
-0.0888881
-0.0712898
-0.0589406
-0.0525627
-0.0529869
-0.0593223
-0.0644334
-0.0624854
-0.05544
-0.0484392
-0.0417992
-0.039099
-0.0383497
-0.0381261
-0.0379963
-0.0351808
-0.0263067
-0.0188021
-0.0095204
-0.0025645
-0.292921
-0.282456
-0.272481
-0.264298
-0.259058
-0.25843
-0.263444
-0.274371
-0.289869
-0.307718
-0.324466
-0.335898
-0.337717
-0.326138
-0.299433
-0.259929
-0.214497
-0.171397
-0.136414
-0.111643
-0.0965853
-0.0897961
-0.0902051
-0.0980977
-0.113713
-0.133036
-0.147002
-0.146997
-0.133671
-0.11264
-0.0921765
-0.0778139
-0.0708978
-0.0702601
-0.076146
-0.0908098
-0.11243
-0.130448
-0.132725
-0.117895
-0.0949566
-0.074348
-0.0593493
-0.0507646
-0.0487866
-0.0529955
-0.0566009
-0.0550548
-0.0497882
-0.0448942
-0.0406004
-0.0398761
-0.041553
-0.0423775
-0.0424721
-0.0391102
-0.0286857
-0.0200902
-0.00914581
-0.00190548
-0.248252
-0.24231
-0.2381
-0.237259
-0.240119
-0.247868
-0.260904
-0.27872
-0.299647
-0.321093
-0.339703
-0.351742
-0.353483
-0.34099
-0.312549
-0.270707
-0.222663
-0.176921
-0.139329
-0.111861
-0.0938694
-0.0838875
-0.0807543
-0.0844575
-0.0954288
-0.110985
-0.123707
-0.125292
-0.116228
-0.0996431
-0.0832219
-0.0723572
-0.0684127
-0.0703412
-0.0787931
-0.0961236
-0.120171
-0.139671
-0.141776
-0.125622
-0.1002
-0.0768441
-0.0593864
-0.0487987
-0.0446489
-0.0469199
-0.0491061
-0.0478669
-0.0441094
-0.0411651
-0.0392076
-0.0405581
-0.0447853
-0.0466514
-0.0468099
-0.0428457
-0.030932
-0.0213004
-0.00878451
-0.00128399
-0.211663
-0.209427
-0.210236
-0.214564
-0.223347
-0.237102
-0.255529
-0.277687
-0.301765
-0.325151
-0.344685
-0.357142
-0.358822
-0.346056
-0.317081
-0.274555
-0.225745
-0.179068
-0.140215
-0.111009
-0.0907856
-0.0781092
-0.0717861
-0.0715556
-0.0779637
-0.0895645
-0.100749
-0.105374
-0.0981541
-0.0856741
-0.0731843
-0.065752
-0.0646956
-0.0690784
-0.0798862
-0.099562
-0.12579
-0.146799
-0.149132
-0.131987
-0.104501
-0.0787549
-0.0590958
-0.0467389
-0.0406916
-0.0412489
-0.0421135
-0.0409888
-0.0384925
-0.0373044
-0.0376287
-0.041117
-0.0480024
-0.0509056
-0.0509631
-0.0463353
-0.0330156
-0.0224192
-0.00843866
-0.000700877
-0.185383
-0.185199
-0.18884
-0.196662
-0.209091
-0.22619
-0.247423
-0.271653
-0.297048
-0.321089
-0.340934
-0.353391
-0.355071
-0.342418
-0.313884
-0.272221
-0.224466
-0.17854
-0.139676
-0.109579
-0.0877389
-0.0728797
-0.0638447
-0.0601659
-0.0622794
-0.0698
-0.0787455
-0.083519
-0.0796902
-0.0711534
-0.062333
-0.0580914
-0.0596891
-0.0662947
-0.0791487
-0.100818
-0.128995
-0.151544
-0.15446
-0.136845
-0.107796
-0.0800943
-0.0585408
-0.0446592
-0.0369866
-0.0360693
-0.0357392
-0.0345642
-0.0330319
-0.0333647
-0.0358659
-0.0415187
-0.0511486
-0.0550797
-0.0548715
-0.049531
-0.0349076
-0.0234333
-0.00810959
-0.000156772
-0.167757
-0.169374
-0.174207
-0.183414
-0.197277
-0.215552
-0.237502
-0.261983
-0.28726
-0.310919
-0.330367
-0.342418
-0.343876
-0.331584
-0.304301
-0.264824
-0.219698
-0.175966
-0.1382
-0.107988
-0.0850788
-0.0684964
-0.0572079
-0.0506475
-0.0490264
-0.0525343
-0.058759
-0.0631391
-0.0616294
-0.0565654
-0.0509703
-0.0495209
-0.0534426
-0.0619771
-0.0765207
-0.099774
-0.129591
-0.15369
-0.157597
-0.140105
-0.110037
-0.0808722
-0.05777
-0.0426093
-0.0335726
-0.0314199
-0.0300523
-0.0286826
-0.0278172
-0.0293971
-0.0339201
-0.0417212
-0.0541524
-0.0590961
-0.0584824
-0.0523935
-0.0365809
-0.0243275
-0.00779613
0.000349089
-0.158271
-0.161014
-0.165513
-0.174265
-0.187915
-0.205778
-0.226878
-0.250222
-0.274339
-0.297161
-0.31449
-0.325816
-0.326916
-0.315246
-0.289943
-0.253778
-0.212509
-0.172052
-0.13624
-0.106565
-0.0830725
-0.0651705
-0.0520442
-0.0431057
-0.0383658
-0.038212
-0.0415132
-0.0449391
-0.0447161
-0.0424406
-0.0394842
-0.0403197
-0.0461615
-0.0562601
-0.0720581
-0.0963957
-0.127521
-0.153188
-0.158552
-0.141713
-0.11119
-0.0810908
-0.0568147
-0.0406195
-0.0304595
-0.0272886
-0.0250689
-0.023401
-0.0229234
-0.0254529
-0.0317921
-0.0416756
-0.056932
-0.0628762
-0.0617546
-0.0548863
-0.0380114
-0.0250884
-0.00749416
0.000819716
-0.155841
-0.15902
-0.161933
-0.168852
-0.181011
-0.197199
-0.216241
-0.237281
-0.259164
-0.281908
-0.295938
-0.305243
-0.305759
-0.294986
-0.272351
-0.240378
-0.203784
-0.167278
-0.133997
-0.105372
-0.081742
-0.0629056
-0.0483375
-0.0374989
-0.0302514
-0.0269561
-0.0273577
-0.029472
-0.0311308
-0.0293034
-0.0283042
-0.0308553
-0.0381237
-0.0493561
-0.0659591
-0.0908381
-0.122878
-0.150149
-0.157621
-0.141636
-0.111237
-0.0807552
-0.0556995
-0.0387106
-0.0276482
-0.0236487
-0.0207581
-0.0187387
-0.0184106
-0.0215822
-0.0294867
-0.0413317
-0.0594061
-0.0663445
-0.0646352
-0.0569772
-0.0391817
-0.0257119
-0.00720328
0.00126071
-0.158759
-0.161348
-0.161989
-0.166458
-0.176153
-0.189566
-0.205594
-0.223319
-0.241146
-0.256243
-0.273051
-0.281536
-0.281827
-0.272415
-0.253058
-0.225821
-0.19428
-0.162009
-0.131568
-0.10437
-0.0810106
-0.0616229
-0.0459899
-0.0336943
-0.0245002
-0.0186532
-0.016342
-0.0166564
-0.017723
-0.0173294
-0.0178247
-0.0214999
-0.0296595
-0.0415453
-0.0584062
-0.0833415
-0.115933
-0.144765
-0.157385
-0.139899
-0.110262
-0.0799725
-0.0545386
-0.0369652
-0.0251678
-0.0204923
-0.0171005
-0.0146928
-0.014312
-0.0178347
-0.0270055
-0.0406433
-0.0615019
-0.0694181
-0.06707
-0.0586432
-0.0400842
-0.0262017
-0.00693609
0.00167805
-0.163695
-0.164607
-0.163372
-0.165654
-0.172321
-0.182207
-0.1947
-0.209016
-0.224203
-0.237589
-0.249779
-0.256764
-0.257161
-0.249597
-0.233941
-0.211625
-0.18514
-0.157113
-0.129648
-0.104148
-0.0814077
-0.0618037
-0.0453912
-0.0319471
-0.0212111
-0.0133042
-0.00854804
-0.00678417
-0.00676486
-0.00695015
-0.00834711
-0.0125518
-0.0210794
-0.0331732
-0.0499414
-0.0744606
-0.106967
-0.136959
-0.150656
-0.136328
-0.108462
-0.0789655
-0.0535475
-0.035552
-0.0230832
-0.0177901
-0.0140885
-0.0113103
-0.0106435
-0.014237
-0.024376
-0.0395785
-0.0631335
-0.0719993
-0.0690293
-0.0598674
-0.0407112
-0.0265474
-0.00670181
0.00207605
-0.167268
-0.166099
-0.164211
-0.164911
-0.168462
-0.174795
-0.183758
-0.194679
-0.20754
-0.217443
-0.226501
-0.232404
-0.233302
-0.227998
-0.216232
-0.198784
-0.177218
-0.153374
-0.128953
-0.105314
-0.0834005
-0.0637964
-0.0467805
-0.0323622
-0.0203649
-0.0107934
-0.00389352
4.80082e-05
0.00145097
0.00154298
-0.000105718
-0.00432934
-0.0126862
-0.0243918
-0.0404636
-0.0642595
-0.0969077
-0.127484
-0.141522
-0.131
-0.105625
-0.0774762
-0.0524839
-0.0343216
-0.0212708
-0.0153611
-0.0114838
-0.00856142
-0.00760981
-0.0108697
-0.0215515
-0.0380765
-0.064291
-0.0739779
-0.0704642
-0.0606067
-0.0410132
-0.0267004
-0.00645159
0.00246984
-0.167279
-0.165628
-0.163973
-0.163292
-0.164318
-0.167628
-0.172994
-0.179909
-0.186994
-0.196813
-0.203555
-0.207925
-0.208905
-0.205348
-0.196788
-0.183446
-0.166142
-0.146092
-0.124647
-0.103076
-0.0823995
-0.0633522
-0.0463476
-0.0315564
-0.0189646
-0.0085274
-0.000211699
0.00556593
0.00830793
0.00851576
0.00707629
0.0027959
-0.00510394
-0.0162003
-0.0313771
-0.0538473
-0.0854158
-0.115643
-0.129848
-0.12279
-0.100466
-0.0739831
-0.0498898
-0.0321569
-0.0190404
-0.0128351
-0.00875448
-0.00587372
-0.0063245
-0.00783974
-0.0187637
-0.0361842
-0.0647747
-0.0753168
-0.0713504
-0.0608186
-0.0408835
-0.0266054
-0.00606892
0.00290339
-0.163183
-0.164113
-0.16227
-0.160565
-0.160664
-0.162963
-0.16712
-0.172631
-0.179001
-0.185249
-0.190401
-0.193496
-0.193454
-0.189416
-0.181021
-0.168478
-0.152487
-0.134072
-0.114375
-0.0944813
-0.075266
-0.0573729
-0.0411748
-0.0268416
-0.0143974
-0.00384079
0.00491588
0.011592
0.0156072
0.0169002
0.0154797
0.0113282
0.00443228
-0.00531837
-0.0194685
-0.041885
-0.0753371
-0.108585
-0.125293
-0.117943
-0.0950446
-0.0690683
-0.0458149
-0.0288395
-0.0162265
-0.0103096
-0.00601899
-0.00283935
-0.00252466
-0.00378778
-0.0150007
-0.0334453
-0.0649151
-0.0769216
-0.072252
-0.0608088
-0.0404085
-0.0263295
-0.00556575
0.00333379
-0.157666
-0.160377
-0.158662
-0.156259
-0.155572
-0.156999
-0.160018
-0.163984
-0.16828
-0.17245
-0.175663
-0.176993
-0.175673
-0.171101
-0.163017
-0.151583
-0.137327
-0.121022
-0.103545
-0.0857493
-0.0683516
-0.0519167
-0.0367931
-0.0231796
-0.0111748
-0.000796912
0.00810121
0.0152628
0.0199042
0.021491
0.0202757
0.017017
0.0113239
0.00295941
-0.0100527
-0.0320758
-0.0662811
-0.100301
-0.116591
-0.109225
-0.0871965
-0.0629251
-0.0414147
-0.0256815
-0.0137081
-0.00797361
-0.00365758
-0.000639897
-0.000195673
-0.00102973
-0.0120865
-0.0310994
-0.0645508
-0.0777545
-0.0721054
-0.0600951
-0.0395209
-0.0257299
-0.0050598
0.00357136
-0.149976
-0.154171
-0.153072
-0.150464
-0.149168
-0.149763
-0.151712
-0.154362
-0.157143
-0.159558
-0.161048
-0.161021
-0.158916
-0.154269
-0.146841
-0.136687
-0.124145
-0.109769
-0.0942297
-0.0782232
-0.0623631
-0.0471636
-0.0329732
-0.0200078
-0.00838974
0.00179063
0.0106331
0.0179682
0.0230805
0.0252831
0.0245995
0.0218755
0.0170235
0.00947908
-0.00303765
-0.0246759
-0.057659
-0.0899488
-0.105678
-0.0990869
-0.0787437
-0.0565835
-0.0369302
-0.0224715
-0.0112057
-0.00570808
-0.00142273
0.0014135
0.00207339
0.0011485
-0.00991543
-0.029216
-0.0636006
-0.0776644
-0.071296
-0.0588108
-0.0383137
-0.024888
-0.0045816
0.00371428
-0.140948
-0.146267
-0.14594
-0.143457
-0.141782
-0.141737
-0.142885
-0.144517
-0.146059
-0.147144
-0.147432
-0.146508
-0.143923
-0.139299
-0.132412
-0.123264
-0.112088
-0.0993009
-0.0854271
-0.0710299
-0.0566184
-0.0426365
-0.0294075
-0.0171523
-0.0060004
0.00390112
0.0125761
0.0199322
0.0254188
0.0282719
0.0283176
0.0264401
0.0225665
0.0158017
0.00371828
-0.0170771
-0.0480009
-0.0786068
-0.0937757
-0.0879099
-0.0696486
-0.0498385
-0.0322119
-0.0191751
-0.00873251
-0.00351805
0.000708688
0.0034233
0.0042241
0.00316855
-0.00788621
-0.0270563
-0.0617494
-0.0766586
-0.0698379
-0.056945
-0.0367749
-0.0237802
-0.0041177
0.00378423
-0.131235
-0.137249
-0.137662
-0.13551
-0.133705
-0.133228
-0.133744
-0.134573
-0.135218
-0.135391
-0.13484
-0.13326
-0.130319
-0.125724
-0.119293
-0.111011
-0.101034
-0.0896667
-0.0773016
-0.0643781
-0.0513118
-0.0384838
-0.0261918
-0.0146638
-0.00403331
0.00553018
0.0139773
0.0212275
0.0268847
0.0302786
0.0311833
0.0303898
0.0277901
0.0222296
0.0110579
-0.00867132
-0.0378776
-0.0667609
-0.0807598
-0.0758473
-0.0600755
-0.0428817
-0.0273878
-0.0158465
-0.00630835
-0.00141203
0.00273623
0.00535311
0.00617767
0.00511344
-0.00567675
-0.0242574
-0.0588588
-0.074552
-0.0675631
-0.0544454
-0.0348776
-0.0224022
-0.00366139
0.00377752
-0.121107
-0.127529
-0.128583
-0.126852
-0.125082
-0.124326
-0.124377
-0.12465
-0.124686
-0.124223
-0.123074
-0.121036
-0.117879
-0.113384
-0.107404
-0.099907
-0.0909899
-0.0808669
-0.0698313
-0.0582284
-0.046398
-0.0346657
-0.0232969
-0.0125155
-0.00245997
0.00669801
0.0148616
0.0219305
0.0276207
0.0314129
0.0330807
0.0333556
0.032189
0.02822
0.0182579
-0.000550032
-0.0280496
-0.0545456
-0.0670735
-0.0632944
-0.05032
-0.0358898
-0.0225485
-0.0125203
-0.00394689
0.000600446
0.00464824
0.00719208
0.00795351
0.00697391
-0.00327226
-0.0208596
-0.0548062
-0.071112
-0.0643538
-0.0512991
-0.032621
-0.0207579
-0.00320237
0.00369548
-0.110894
-0.117454
-0.118993
-0.117687
-0.116056
-0.115172
-0.114937
-0.114841
-0.114464
-0.113575
-0.112043
-0.109738
-0.106503
-0.102176
-0.0966346
-0.0898409
-0.0818519
-0.0728209
-0.0629682
-0.0525631
-0.0418785
-0.0311884
-0.0207245
-0.0106988
-0.00125527
0.00743866
0.0152666
0.0221108
0.0277467
0.0317866
0.0340343
0.0351759
0.0352436
0.0327803
0.0240524
0.00640343
-0.0187401
-0.0421611
-0.05315
-0.0507213
-0.0406921
-0.0290482
-0.0178052
-0.00924228
-0.0016622
0.00251538
0.0064405
0.00894628
0.00958151
0.00872689
-0.000760925
-0.016939
-0.0494854
-0.0661961
-0.0601476
-0.047529
-0.0300252
-0.0188616
-0.00272916
0.00354695
-0.100821
-0.107271
-0.109146
-0.108241
-0.106818
-0.105922
-0.105527
-0.105202
-0.104571
-0.103434
-0.101698
-0.0992788
-0.0960712
-0.0919574
-0.0868424
-0.0806882
-0.0735285
-0.065472
-0.0566819
-0.047366
-0.0377416
-0.0280375
-0.018455
-0.00918807
-0.000381673
0.00780281
0.0152443
0.0218247
0.0273369
0.0314997
0.0341425
0.0358431
0.0366727
0.0352397
0.0277619
0.0119903
-0.00996021
-0.0299273
-0.0395931
-0.038677
-0.0315256
-0.0225368
-0.0132648
-0.00606048
0.000534847
0.00433631
0.00811453
0.0106237
0.0110959
0.0103751
0.00183952
-0.012516
-0.0429149
-0.0597919
-0.0549405
-0.0431944
-0.0271346
-0.0167412
-0.00222776
0.00334832
-0.0909736
-0.0971879
-0.0992865
-0.0987362
-0.0975468
-0.0967056
-0.0962436
-0.0957988
-0.0950396
-0.0937913
-0.0919817
-0.0895611
-0.086462
-0.0826022
-0.0779095
-0.0723502
-0.0659424
-0.0587622
-0.0509301
-0.0426062
-0.0339635
-0.0251913
-0.0164629
-0.00795157
0.000202419
0.00784521
0.0148553
0.0211231
0.0264552
0.0306362
0.0335125
0.0355014
0.0366364
0.0357331
0.0295591
0.0163215
-0.00191095
-0.0184818
-0.0271552
-0.0277184
-0.0231231
-0.0165043
-0.00901856
-0.00302579
0.00263106
0.006069
0.00967649
0.0122328
0.0125515
0.011979
0.00458324
-0.00766133
-0.0352832
-0.0520474
-0.0488118
-0.0383945
-0.024018
-0.0144398
-0.00168137
0.00312363
-0.0815018
-0.0873917
-0.0896023
-0.0893422
-0.0883832
-0.0876386
-0.0871747
-0.0866905
-0.0858947
-0.0846314
-0.082845
-0.0805086
-0.077582
-0.0740095
-0.0697371
-0.0647362
-0.0590155
-0.0526288
-0.0456655
-0.0382491
-0.0305167
-0.0226236
-0.0147175
-0.00695148
0.000542841
0.00762292
0.0141674
0.0200727
0.0251706
0.0292799
0.0322557
0.0343579
0.0355413
0.0348812
0.0299721
0.0194246
0.00487055
-0.0086479
-0.0165031
-0.0182512
-0.0156945
-0.0110526
-0.00513277
-0.000187898
0.0046082
0.00771176
0.0111334
0.0137828
0.0140311
0.0136432
0.00751387
-0.00254312
-0.0269481
-0.0432948
-0.0419431
-0.0332648
-0.0207626
-0.0120181
-0.00107026
0.00290389
-0.0725278
-0.0779947
-0.0802183
-0.0801867
-0.0794424
-0.0788162
-0.0783954
-0.077928
-0.0771577
-0.0759478
-0.0742544
-0.0720647
-0.0693569
-0.0660943
-0.0622374
-0.0577632
-0.0526756
-0.047013
-0.0408421
-0.0342581
-0.0273697
-0.0203034
-0.0131845
-0.00614636
0.000689575
0.0071945
0.0132512
0.0187587
0.0235659
0.0275232
0.030494
0.0326037
0.0337348
0.0332108
0.0293863
0.0212281
0.00990581
-0.00095892
-0.00795808
-0.0104249
-0.00932977
-0.00623502
-0.00164728
0.00240965
0.00644625
0.00924954
0.0124799
0.0152666
0.0156161
0.0154743
0.0106326
0.00259464
-0.0184169
-0.0340441
-0.0346175
-0.027967
-0.0174647
-0.00955425
-0.000375541
0.00272418
-0.0640529
-0.0690552
-0.0712307
-0.0713771
-0.0708271
-0.0703248
-0.0699694
-0.069553
-0.0688512
-0.0677414
-0.0661875
-0.0641855
-0.0617258
-0.0587854
-0.0553361
-0.0513602
-0.046859
-0.0418605
-0.0364147
-0.0305953
-0.0244885
-0.0181974
-0.0118273
-0.00549363
0.000694831
0.00662106
0.0121744
0.0172587
0.021736
0.0254788
0.0283589
0.0304034
0.0314539
0.031034
0.0280683
0.0218499
0.0131941
0.00460962
-0.00143277
-0.00416877
-0.00401857
-0.00206574
0.00142087
0.00473335
0.00812539
0.0106613
0.0136949
0.0166356
0.0173153
0.0175261
0.0138913
0.0074559
-0.010282
-0.0249218
-0.0272032
-0.022678
-0.0142201
-0.0071416
0.000407459
0.0026167
-0.0560893
-0.060634
-0.0627217
-0.0629985
-0.0626142
-0.062231
-0.0619522
-0.0616062
-0.0609965
-0.0600135
-0.0586264
-0.0568358
-0.05464
-0.0520252
-0.0489718
-0.0454664
-0.0415093
-0.037121
-0.0323396
-0.0272226
-0.0218385
-0.0162713
-0.010609
-0.00495039
0.000608147
0.00596147
0.0110061
0.0156517
0.0197745
0.0232603
0.0259857
0.0279199
0.0288944
0.0285813
0.0262979
0.0216103
0.0150874
0.00842484
0.00338339
0.000706313
0.000311356
0.00146759
0.00407141
0.0067636
0.00962234
0.0119249
0.0147572
0.0178112
0.0189999
0.0196915
0.017103
0.0117012
-0.0031108
-0.0165278
-0.0200893
-0.0175732
-0.0111165
-0.00487725
0.00125485
0.0025971
-0.0486884
-0.0527752
-0.0547378
-0.0551027
-0.0548567
-0.0545819
-0.0543813
-0.0541142
-0.0536087
-0.0527655
-0.0515575
-0.0499883
-0.0480606
-0.0457668
-0.0430932
-0.0400298
-0.0365766
-0.032749
-0.0285764
-0.0241039
-0.0193863
-0.0144919
-0.00949367
-0.00447614
0.00047616
0.0052706
0.00981371
0.014017
0.0177709
0.0209727
0.0235074
0.0253122
0.0262314
0.0260405
0.0243223
0.0208369
0.0159857
0.0109157
0.00684418
0.00442269
0.00376216
0.00439553
0.00631409
0.00849417
0.0109144
0.0130144
0.0156463
0.0187233
0.0204286
0.0216045
0.0198445
0.0149797
0.0026928
-0.00927162
-0.0136055
-0.0128119
-0.00823361
-0.00284944
0.00211437
0.00264512
-0.0418502
-0.0454828
-0.0472973
-0.0477183
-0.0475863
-0.0474085
-0.0472831
-0.0470967
-0.0466971
-0.0459958
-0.0449688
-0.0436205
-0.041956
-0.0399714
-0.0376573
-0.0350062
-0.0320181
-0.0287046
-0.0250888
-0.0212062
-0.0171007
-0.012828
-0.00844855
-0.00403425
0.000342069
0.00459906
0.00865342
0.0124205
0.0158066
0.0187165
0.021044
0.0227166
0.0236024
0.0235488
0.0223102
0.0197748
0.0162288
0.0124406
0.00924578
0.00718282
0.00644637
0.00676221
0.00816538
0.00992851
0.0119859
0.0139034
0.0163238
0.0193082
0.0213734
0.0228237
0.0216219
0.0170687
0.00698014
-0.00334311
-0.00798857
-0.00853276
-0.00563733
-0.00112912
0.00290354
0.00270527
-0.0355417
-0.0387496
-0.0404105
-0.0408652
-0.0408261
-0.0407315
-0.0406697
-0.0405626
-0.0402651
-0.0397011
-0.0388488
-0.0377128
-0.0362993
-0.0346067
-0.0326284
-0.0303586
-0.0277971
-0.0249531
-0.0218445
-0.0184995
-0.0149536
-0.011252
-0.00744479
-0.00359251
0.00024275
0.00398902
0.00757407
0.0109213
0.0139493
0.0165704
0.0186905
0.0202382
0.0211073
0.0211969
0.0203663
0.0185837
0.0160501
0.013277
0.0108385
0.0091709
0.00847629
0.00861977
0.00964753
0.0110772
0.0128272
0.0145674
0.0167508
0.0195035
0.0216875
0.0230848
0.0222198
0.0180203
0.00984229
0.00120974
-0.00340091
-0.00484089
-0.00336779
0.000245786
0.00351647
0.00270875
-0.029753
-0.0325712
-0.0340786
-0.0345494
-0.0345867
-0.0345696
-0.0345829
-0.0345252
-0.0343136
-0.0338746
-0.0331846
-0.0322466
-0.031067
-0.0296452
-0.0279763
-0.0260556
-0.0238828
-0.0214649
-0.018816
-0.0159587
-0.0129212
-0.00974069
-0.00645828
-0.00312458
0.000207546
0.00347578
0.00661873
0.0095679
0.0122526
0.0145947
0.0165161
0.0179496
0.0188126
0.0190397
0.0185508
0.0173579
0.0156046
0.0136358
0.0118352
0.010548
0.00995828
0.0100253
0.0107885
0.0119536
0.0134353
0.0149915
0.0169171
0.0193147
0.021388
0.0224908
0.0218107
0.0180921
0.0115196
0.00445701
9.7104e-05
-0.00179087
-0.00144429
0.00128851
0.00387139
0.00260308
-0.0244701
-0.026928
-0.0282824
-0.0287531
-0.0288465
-0.0288856
-0.0289407
-0.0289472
-0.0288207
-0.0284993
-0.0279595
-0.0272034
-0.0262377
-0.0250631
-0.0236756
-0.0220712
-0.0202494
-0.0182156
-0.0159807
-0.0135628
-0.0109844
-0.00827575
-0.0054704
-0.00261093
0.00025901
0.00308633
0.00581796
0.008394
0.0107549
0.012835
0.0145695
0.0158978
0.0167563
0.017104
0.0168947
0.0161609
0.0150036
0.0136702
0.0123887
0.0114446
0.0109877
0.0110379
0.0116203
0.0125734
0.0138176
0.0151803
0.0168336
0.018807
0.0204533
0.0213294
0.0207422
0.0175791
0.0123171
0.00660776
0.00269643
0.000617081
0.000132169
0.00203781
0.00394825
0.00237959
-0.019661
-0.0217921
-0.0230008
-0.0234622
-0.0235986
-0.0236839
-0.0237816
-0.0238395
-0.0237835
-0.0235633
-0.0231572
-0.022565
-0.0217918
-0.0208392
-0.0197043
-0.0183835
-0.0168758
-0.0151854
-0.0133205
-0.0112956
-0.00912865
-0.00684394
-0.00446881
-0.00203818
0.000411874
0.00283589
0.00518982
0.00742175
0.00948211
0.0113199
0.0128787
0.0141065
0.0149545
0.0154001
0.0154138
0.0150317
0.0143226
0.013466
0.0126119
0.0119669
0.0116492
0.0117158
0.0121767
0.0129586
0.0139925
0.0151539
0.0165343
0.018087
0.0193722
0.0199156
0.0193459
0.0167236
0.0125208
0.0079238
0.00449283
0.00242263
0.00138034
0.00253795
0.00378729
0.00207258
-0.0152966
-0.0171368
-0.0182106
-0.0186568
-0.0188264
-0.0189504
-0.0190845
-0.0191831
-0.0191832
-0.0190493
-0.0187609
-0.0183137
-0.0177111
-0.0169551
-0.0160437
-0.014974
-0.0137447
-0.0123584
-0.0108216
-0.00914546
-0.00734417
-0.00543723
-0.00344648
-0.00140052
0.000671135
0.00273103
0.00474274
0.00666185
0.00844822
0.0100619
0.0114499
0.0125816
0.0134118
0.0139273
0.0141085
0.0139924
0.0136212
0.0131176
0.0125979
0.0122027
0.0120169
0.0121139
0.0124938
0.0131359
0.0139846
0.014945
0.0160613
0.0172275
0.0181788
0.0184426
0.017853
0.0157001
0.012351
0.00864567
0.0056574
0.00370549
0.00233361
0.00283847
0.00347872
0.00174655
-0.0113518
-0.0129343
-0.0138842
-0.0143112
-0.014505
-0.0146582
-0.0148191
-0.0149517
-0.0150044
-0.0149419
-0.0147521
-0.0144299
-0.0139763
-0.0133924
-0.0126768
-0.011827
-0.0108417
-0.00972243
-0.00847381
-0.00710447
-0.00562548
-0.00405227
-0.00240215
-0.000698046
0.00103606
0.00276972
0.0044738
0.0061118
0.00764792
0.00904709
0.0102761
0.0113158
0.012119
0.0126766
0.0129777
0.0130547
0.0129334
0.0126974
0.0124247
0.012226
0.0121539
0.0122834
0.0126083
0.0131354
0.0138216
0.0145907
0.0154611
0.016295
0.0169564
0.0170097
0.0163979
0.0146262
0.0119528
0.0089573
0.00635343
0.00456394
0.00303375
0.00299352
0.00311889
0.00145199
-0.00779823
-0.00915372
-0.00999145
-0.0103973
-0.0106085
-0.0107845
-0.0109668
-0.0111263
-0.011219
-0.0112174
-0.0111095
-0.010894
-0.0105691
-0.0101343
-0.0095883
-0.00892909
-0.00815539
-0.00726802
-0.00627019
-0.0051683
-0.00397085
-0.00268989
-0.00133892
6.39172e-05
0.00149964
0.00294413
0.00437319
0.00575798
0.00707161
0.0082836
0.00937071
0.0102975
0.0110585
0.0116335
0.0120124
0.0122223
0.0122759
0.0122366
0.0121465
0.0120958
0.0121147
0.0122712
0.0125566
0.0129873
0.0135317
0.0141279
0.0147822
0.0153473
0.015763
0.0156658
0.0150463
0.0135736
0.0114197
0.00898973
0.00671757
0.00509198
0.00352378
0.00305762
0.00277756
0.00120923
-0.0046072
-0.00576498
-0.00650266
-0.0068868
-0.00710999
-0.00730339
-0.0075017
-0.00768209
-0.00780827
-0.00785431
-0.00781225
-0.00768673
-0.00747172
-0.00716469
-0.00676402
-0.00626814
-0.00567602
-0.00498803
-0.00420629
-0.00333536
-0.00238165
-0.00135435
-0.000263834
0.000875862
0.0020499
0.00323923
0.00442497
0.00558445
0.00669583
0.00773576
0.00868192
0.00951608
0.0102132
0.0107783
0.0112017
0.0114978
0.0116675
0.0117622
0.0118028
0.0118587
0.0119452
0.0121195
0.012373
0.012722
0.0131454
0.0135905
0.0140602
0.0144141
0.0146335
0.0144331
0.0138203
0.0125796
0.0108192
0.00883498
0.00684726
0.00537843
0.00384
0.00306763
0.00248635
0.00102187
-0.00175227
-0.00273909
-0.00338835
-0.00375102
-0.00398211
-0.00418829
-0.00439856
-0.00459491
-0.00474847
-0.0048386
-0.00485703
-0.0047991
-0.00467035
-0.00446872
-0.00419032
-0.00383285
-0.00339505
-0.00287685
-0.00227951
-0.00160619
-0.000861558
-5.24696e-05
0.000813211
0.00172487
0.00267115
0.0036374
0.00460893
0.00556794
0.00649728
0.00737914
0.00819584
0.00893302
0.0095755
0.0101184
0.0105479
0.010881
0.0111197
0.0112982
0.0114255
0.011552
0.0116838
0.0118656
0.0120898
0.0123694
0.0126911
0.0130087
0.0133243
0.0135165
0.0135859
0.0133174
0.0127209
0.0116615
0.010197
0.00855585
0.00680648
0.00538101
0.00400042
0.00304585
0.00225243
0.000883347
0.000791992
-4.78266e-05
-0.00061946
-0.000961379
-0.00119694
-0.00141189
-0.00163009
-0.00183753
-0.00201103
-0.00213382
-0.00219792
-0.0022007
-0.00214414
-0.002029
-0.00185288
-0.00161213
-0.00130471
-0.000929959
-0.000488569
1.72233e-05
0.000584104
0.00120709
0.00188033
0.00259598
0.00334549
0.00411784
0.00490169
0.00568349
0.00644997
0.00718721
0.00788126
0.00852086
0.00909293
0.00959338
0.0100129
0.010361
0.010635
0.01086
0.0110382
0.0112053