/*--------------------------------*- C++ -*----------------------------------*\
| =========                 |                                                 |
| \\      /  F ield         | OpenFOAM: The Open Source CFD Toolbox           |
|  \\    /   O peration     | Version:  2512                                  |
|   \\  /    A nd           | Website:  www.openfoam.com                      |
|    \\/     M anipulation  |                                                 |
\*---------------------------------------------------------------------------*/
FoamFile
{
    version     2.0;
    format      ascii;
    arch        "LSB;label=32;scalar=64";
    class       volScalarField;
    location    "87";
    object      p;
}
// * * * * * * * * * * * * * * * * * * * * * * * * * * * * * * * * * * * * * //

dimensions      [0 2 -2 0 0 0 0];

internalField   nonuniform List<scalar> 
13248
(
-0.300758
-0.299895
-0.298029
-0.295355
-0.292056
-0.288247
-0.284027
-0.27949
-0.27473
-0.269845
-0.264927
-0.260066
-0.255344
-0.250823
-0.246545
-0.242524
-0.238745
-0.23517
-0.231731
-0.22838
-0.224957
-0.221529
-0.217388
-0.213162
-0.308252
-0.306517
-0.303945
-0.300698
-0.296915
-0.292715
-0.288179
-0.283372
-0.278348
-0.27316
-0.26786
-0.262501
-0.257131
-0.251788
-0.246501
-0.241281
-0.236126
-0.231018
-0.22593
-0.220823
-0.215623
-0.210283
-0.204559
-0.198956
-0.317406
-0.314613
-0.311186
-0.307246
-0.30288
-0.298191
-0.293234
-0.28802
-0.282548
-0.276819
-0.270846
-0.264658
-0.258297
-0.251815
-0.245262
-0.238689
-0.232135
-0.225629
-0.219182
-0.212793
-0.206406
-0.200027
-0.193472
-0.187159
-0.328216
-0.324204
-0.319801
-0.31507
-0.310019
-0.30472
-0.299174
-0.293322
-0.287101
-0.280472
-0.273438
-0.266044
-0.25837
-0.250519
-0.242595
-0.234696
-0.226901
-0.219262
-0.211802
-0.204517
-0.197373
-0.190367
-0.183366
-0.176801
-0.340703
-0.335343
-0.329873
-0.324274
-0.318431
-0.312353
-0.305965
-0.299135
-0.291758
-0.283799
-0.275305
-0.266389
-0.257204
-0.247918
-0.238682
-0.229618
-0.220808
-0.212296
-0.204091
-0.196178
-0.188524
-0.181111
-0.173853
-0.167046
-0.354865
-0.348058
-0.341469
-0.334934
-0.328159
-0.321052
-0.313453
-0.305189
-0.296173
-0.286444
-0.276151
-0.26551
-0.254751
-0.244084
-0.233671
-0.223621
-0.213992
-0.204798
-0.196028
-0.187651
-0.17963
-0.171932
-0.164495
-0.157523
-0.370601
-0.362291
-0.354552
-0.346998
-0.339076
-0.330571
-0.321275
-0.311044
-0.299901
-0.288034
-0.275731
-0.263302
-0.251022
-0.239099
-0.227668
-0.216795
-0.206499
-0.196764
-0.187555
-0.178828
-0.170538
-0.162641
-0.155096
-0.147998
-0.387636
-0.37782
-0.368913
-0.360198
-0.350806
-0.340415
-0.328853
-0.316123
-0.302453
-0.288221
-0.273843
-0.259683
-0.246006
-0.232978
-0.220675
-0.209113
-0.198269
-0.188096
-0.178543
-0.169552
-0.16107
-0.153049
-0.145455
-0.138286
-0.40547
-0.394212
-0.384105
-0.374006
-0.362705
-0.349857
-0.335463
-0.319801
-0.303363
-0.28671
-0.270332
-0.254584
-0.239673
-0.225693
-0.212654
-0.20052
-0.189229
-0.178712
-0.168899
-0.159723
-0.151122
-0.143044
-0.135452
-0.128268
-0.423356
-0.410776
-0.399404
-0.387598
-0.373865
-0.357989
-0.34031
-0.32147
-0.302225
-0.283258
-0.265059
-0.247916
-0.231949
-0.217168
-0.203519
-0.190921
-0.179281
-0.16851
-0.158521
-0.149237
-0.140587
-0.132516
-0.124967
-0.117821
-0.440311
-0.426563
-0.413804
-0.399879
-0.383169
-0.363784
-0.342548
-0.320491
-0.298574
-0.27751
-0.257726
-0.239402
-0.222558
-0.207126
-0.192998
-0.180051
-0.168169
-0.157243
-0.147173
-0.13787
-0.129257
-0.121268
-0.113814
-0.106782
-0.455207
-0.440487
-0.426187
-0.409693
-0.389482
-0.366213
-0.341287
-0.316096
-0.291717
-0.268817
-0.247699
-0.228419
-0.210897
-0.194989
-0.180536
-0.167386
-0.155396
-0.144441
-0.13441
-0.125204
-0.11674
-0.108942
-0.101692
-0.0949298
-0.317949
-0.320361
-0.321758
-0.322577
-0.323197
-0.323713
-0.324154
-0.324533
-0.324836
-0.325038
-0.325107
-0.325009
-0.324711
-0.324185
-0.323416
-0.322401
-0.321161
-0.319739
-0.318216
-0.316709
-0.315368
-0.314363
-0.313928
-0.314454
-0.310521
-0.312741
-0.313937
-0.314497
-0.314763
-0.31482
-0.314703
-0.314427
-0.313995
-0.313395
-0.312618
-0.311654
-0.310506
-0.309192
-0.307746
-0.306228
-0.304725
-0.303355
-0.302267
-0.301644
-0.301693
-0.302609
-0.304625
-0.308295
-0.304337
-0.306261
-0.307208
-0.307497
-0.307419
-0.307047
-0.306414
-0.305545
-0.304453
-0.303145
-0.301629
-0.299924
-0.298064
-0.296101
-0.294117
-0.292219
-0.290542
-0.289249
-0.288544
-0.288643
-0.289777
-0.292141
-0.295899
-0.301682
-0.299283
-0.300869
-0.301548
-0.301566
-0.301158
-0.300381
-0.299271
-0.29786
-0.296172
-0.294232
-0.292069
-0.289726
-0.287262
-0.284763
-0.282342
-0.280143
-0.278339
-0.27708
-0.276664
-0.277278
-0.279159
-0.282509
-0.287408
-0.294314
-0.295214
-0.296481
-0.296899
-0.296652
-0.295924
-0.294761
-0.293198
-0.291277
-0.289037
-0.28652
-0.283775
-0.280868
-0.277882
-0.274917
-0.272125
-0.269662
-0.267717
-0.266497
-0.266235
-0.267154
-0.26947
-0.273377
-0.278974
-0.286129
-0.292013
-0.293025
-0.293207
-0.292702
-0.291656
-0.290112
-0.288108
-0.285695
-0.282927
-0.279868
-0.276584
-0.273163
-0.269708
-0.266346
-0.263231
-0.260539
-0.25847
-0.257235
-0.257052
-0.258135
-0.260674
-0.264785
-0.270806
-0.277537
-0.28964
-0.290479
-0.290455
-0.289694
-0.288329
-0.286403
-0.283963
-0.281072
-0.277801
-0.274232
-0.270455
-0.266575
-0.262716
-0.25902
-0.255653
-0.2528
-0.250663
-0.249451
-0.249349
-0.250552
-0.253244
-0.257293
-0.263594
-0.269346
-0.288158
-0.28889
-0.28868
-0.287661
-0.285975
-0.283672
-0.280812
-0.277473
-0.273744
-0.269725
-0.265528
-0.261278
-0.257114
-0.253195
-0.249694
-0.2468
-0.244705
-0.243598
-0.243669
-0.245007
-0.24784
-0.251601
-0.257978
-0.262384
-0.287729
-0.288373
-0.287974
-0.286689
-0.284684
-0.282025
-0.278786
-0.27506
-0.270955
-0.266588
-0.262089
-0.257602
-0.253278
-0.249284
-0.245798
-0.242995
-0.24105
-0.240117
-0.240332
-0.241693
-0.244473
-0.24771
-0.253572
-0.256682
-0.288579
-0.289085
-0.28846
-0.286895
-0.284581
-0.281601
-0.278047
-0.274024
-0.269654
-0.265068
-0.260407
-0.255822
-0.25147
-0.247514
-0.244114
-0.241422
-0.23957
-0.238659
-0.238766
-0.239829
-0.24206
-0.244563
-0.249101
-0.251123
-0.290938
-0.291181
-0.290258
-0.28838
-0.285756
-0.282491
-0.278684
-0.27445
-0.269914
-0.26521
-0.260481
-0.255872
-0.25153
-0.247595
-0.244196
-0.241437
-0.239395
-0.238108
-0.23758
-0.23776
-0.238703
-0.240045
-0.24269
-0.243861
-0.294978
-0.294773
-0.293439
-0.291188
-0.288234
-0.284689
-0.28066
-0.276257
-0.271601
-0.266815
-0.262026
-0.257361
-0.252939
-0.248863
-0.245216
-0.242051
-0.239383
-0.237196
-0.235429
-0.234038
-0.232916
-0.232154
-0.231984
-0.232168
-0.316587
-0.320951
-0.327724
-0.336805
-0.347681
-0.359081
-0.369551
-0.376752
-0.378238
-0.371772
-0.355508
-0.328894
-0.293272
-0.252403
-0.211498
-0.175495
-0.147676
-0.129317
-0.12049
-0.121392
-0.132169
-0.150394
-0.16903
-0.178296
-0.173009
-0.153276
-0.126901
-0.10209
-0.0838797
-0.0738118
-0.0708727
-0.0741209
-0.0851307
-0.104552
-0.125974
-0.137165
-0.130423
-0.110218
-0.087251
-0.0696028
-0.0586338
-0.0533506
-0.0550989
-0.0641104
-0.0726742
-0.0722195
-0.0640681
-0.0539945
-0.0457165
-0.0408472
-0.0399748
-0.0424352
-0.0429774
-0.0391279
-0.034915
-0.0285403
-0.0193365
-0.0141063
-0.00830317
-0.00341795
-0.315422
-0.325423
-0.337821
-0.352414
-0.368296
-0.38401
-0.397665
-0.406924
-0.409321
-0.402378
-0.384241
-0.354311
-0.314171
-0.267981
-0.22148
-0.180026
-0.147119
-0.124048
-0.110639
-0.106688
-0.112251
-0.125724
-0.141592
-0.151377
-0.148895
-0.134159
-0.113123
-0.0930411
-0.0788421
-0.0721903
-0.0721548
-0.0782135
-0.0924318
-0.115121
-0.138883
-0.15032
-0.141641
-0.118442
-0.0922668
-0.0715902
-0.0580882
-0.0505692
-0.0498788
-0.0564993
-0.063371
-0.0632407
-0.056841
-0.0495707
-0.0437659
-0.0412211
-0.0428213
-0.0471579
-0.0488761
-0.0439627
-0.0385663
-0.0306687
-0.0197144
-0.0133355
-0.0063763
-0.00231621
-0.31283
-0.326887
-0.343234
-0.361573
-0.38081
-0.399301
-0.414994
-0.425629
-0.428725
-0.421672
-0.402465
-0.370449
-0.327314
-0.277498
-0.227082
-0.181677
-0.144883
-0.117882
-0.100347
-0.091746
-0.0920997
-0.100602
-0.113213
-0.122846
-0.12312
-0.113211
-0.0974574
-0.082213
-0.0722118
-0.0691109
-0.0720487
-0.0809312
-0.0981989
-0.12385
-0.149717
-0.161509
-0.151209
-0.125391
-0.0963934
-0.0730074
-0.057196
-0.0476552
-0.0447297
-0.0490963
-0.0543484
-0.0544346
-0.0496367
-0.0449884
-0.0415574
-0.0414161
-0.0456453
-0.0519631
-0.0548386
-0.0487276
-0.0420113
-0.0326331
-0.0200516
-0.0125956
-0.00451559
-0.00126026
-0.308122
-0.324715
-0.343225
-0.3636
-0.384703
-0.404736
-0.421494
-0.432878
-0.436557
-0.429643
-0.410072
-0.377162
-0.33264
-0.281062
-0.228637
-0.181049
-0.141774
-0.111866
-0.0909118
-0.0782371
-0.0736584
-0.0770187
-0.0857995
-0.0944167
-0.0970886
-0.0912251
-0.0804511
-0.0699459
-0.0641195
-0.0644865
-0.0702641
-0.0817662
-0.101742
-0.13004
-0.157933
-0.170341
-0.158859
-0.130905
-0.0995495
-0.0738663
-0.0560348
-0.0447207
-0.0398206
-0.0421362
-0.0458519
-0.0460235
-0.0425945
-0.0403222
-0.0391147
-0.0413983
-0.0483648
-0.0567603
-0.0607821
-0.0533669
-0.0452108
-0.0344018
-0.0203371
-0.0118933
-0.00273269
-0.000254327
-0.301339
-0.319155
-0.338388
-0.359378
-0.381077
-0.401605
-0.418906
-0.430377
-0.434107
-0.427306
-0.407893
-0.375159
-0.330847
-0.279472
-0.227071
-0.179041
-0.138626
-0.106808
-0.0831799
-0.0670407
-0.0581093
-0.056463
-0.060949
-0.0675684
-0.0712695
-0.0689375
-0.0626866
-0.0565905
-0.0546564
-0.0582052
-0.0665435
-0.0803292
-0.102611
-0.133239
-0.163072
-0.17639
-0.164362
-0.134907
-0.101732
-0.0742153
-0.0546921
-0.0418686
-0.0352668
-0.0357667
-0.0380638
-0.0381973
-0.0358527
-0.0356449
-0.0364542
-0.041124
-0.0508862
-0.061438
-0.0665897
-0.0578148
-0.0481255
-0.0359491
-0.020561
-0.0112336
-0.00103708
0.000698499
-0.293239
-0.311207
-0.329974
-0.350442
-0.371719
-0.39188
-0.408032
-0.419571
-0.422936
-0.416172
-0.397327
-0.36571
-0.323077
-0.27372
-0.22318
-0.176299
-0.135977
-0.103176
-0.0776205
-0.058677
-0.0460252
-0.0398221
-0.0398221
-0.0436524
-0.0472502
-0.0474053
-0.0448623
-0.042565
-0.0439989
-0.0503006
-0.0608421
-0.0765175
-0.100636
-0.133175
-0.164806
-0.179392
-0.167585
-0.13736
-0.102953
-0.0740952
-0.0532318
-0.0391642
-0.0311298
-0.0300681
-0.0311039
-0.0310967
-0.0295364
-0.0310208
-0.033596
-0.0405497
-0.0531059
-0.0658558
-0.072133
-0.0620123
-0.050725
-0.0372523
-0.0207115
-0.0106174
0.000564188
0.0015973
-0.285007
-0.302074
-0.319234
-0.338183
-0.358251
-0.379342
-0.392052
-0.402031
-0.404717
-0.398036
-0.380126
-0.350497
-0.310857
-0.265043
-0.217847
-0.173388
-0.134173
-0.101175
-0.0743613
-0.0532715
-0.0375927
-0.0274619
-0.0231211
-0.023591
-0.0260592
-0.0275127
-0.0276346
-0.0283614
-0.0325025
-0.0410113
-0.0533063
-0.0703955
-0.0958078
-0.129781
-0.16307
-0.179229
-0.168449
-0.138246
-0.103241
-0.0735348
-0.0516929
-0.0366432
-0.0274295
-0.0250524
-0.0250131
-0.0248062
-0.0237457
-0.026515
-0.0305714
-0.0396337
-0.0549146
-0.0698646
-0.0772936
-0.0659034
-0.0529832
-0.0382964
-0.0207791
-0.0100408
0.00206735
0.00244352
-0.277236
-0.292174
-0.306743
-0.323107
-0.339743
-0.353535
-0.369854
-0.378969
-0.381051
-0.374598
-0.358091
-0.331293
-0.295726
-0.25458
-0.211744
-0.170578
-0.133227
-0.10069
-0.073208
-0.0505926
-0.0325963
-0.0192901
-0.0110739
-0.00792565
-0.00833788
-0.0100182
-0.0115495
-0.0144965
-0.0206016
-0.0306687
-0.044187
-0.0622056
-0.0883514
-0.123231
-0.15801
-0.175964
-0.166904
-0.137558
-0.102625
-0.0725556
-0.0500989
-0.0343259
-0.0241665
-0.0206988
-0.0197659
-0.019345
-0.0185572
-0.0221906
-0.0274221
-0.0383463
-0.0562062
-0.0733276
-0.081954
-0.0694304
-0.0548804
-0.0390776
-0.0207643
-0.00950693
0.00347137
0.0032412
-0.269322
-0.280835
-0.292444
-0.306292
-0.321131
-0.333741
-0.345389
-0.352397
-0.353766
-0.347738
-0.333172
-0.309911
-0.279138
-0.24328
-0.205306
-0.167877
-0.132858
-0.101299
-0.07368
-0.0501049
-0.0304659
-0.0147756
-0.00339059
0.00326013
0.00558649
0.00505673
0.00290989
-0.00135703
-0.00866075
-0.0196131
-0.0337863
-0.0522152
-0.0786402
-0.114055
-0.150036
-0.169846
-0.163105
-0.135425
-0.101257
-0.0712979
-0.0485669
-0.0323005
-0.0213739
-0.0169946
-0.0153277
-0.0146915
-0.0140025
-0.0181076
-0.0241971
-0.0366508
-0.0568964
-0.0761339
-0.0859974
-0.0725367
-0.0564119
-0.0396066
-0.0206773
-0.00903682
0.00476903
0.00399689
-0.259905
-0.267327
-0.276456
-0.287724
-0.29878
-0.309754
-0.318501
-0.324158
-0.32509
-0.319946
-0.307849
-0.288576
-0.262884
-0.232443
-0.199394
-0.165815
-0.133358
-0.103141
-0.0758249
-0.0517451
-0.0309774
-0.0135357
0.000322195
0.0100708
0.0154428
0.0169724
0.0154412
0.0108443
0.00308098
-0.00815691
-0.0224996
-0.0410053
-0.0673502
-0.102725
-0.139577
-0.161275
-0.157354
-0.132143
-0.0994836
-0.0700852
-0.0473439
-0.0307507
-0.019137
-0.0139194
-0.0116488
-0.0108423
-0.00945956
-0.0142956
-0.0209488
-0.0345736
-0.0569108
-0.0781749
-0.0892989
-0.0751689
-0.0575917
-0.0398913
-0.0205162
-0.0086377
0.00594032
0.00471726
-0.248296
-0.252744
-0.260147
-0.268331
-0.276337
-0.284374
-0.291638
-0.296404
-0.297398
-0.293657
-0.284393
-0.26928
-0.248666
-0.223547
-0.195358
-0.165662
-0.135898
-0.107225
-0.0804669
-0.0561568
-0.0345645
-0.0157817
2.22102e-05
0.0124094
0.0208579
0.0251941
0.0257924
0.021704
0.0143
0.00344118
-0.0104766
-0.0285852
-0.0546989
-0.0903829
-0.127814
-0.150486
-0.14972
-0.127448
-0.0970951
-0.0687083
-0.0461967
-0.0294856
-0.0173107
-0.0112878
-0.00847845
-0.00770561
-0.00643939
-0.0109026
-0.0177065
-0.0319865
-0.0562401
-0.079449
-0.0917182
-0.0771822
-0.0583814
-0.0398715
-0.0202238
-0.0082406
0.00699805
0.00540906
-0.235084
-0.239446
-0.24452
-0.248888
-0.25363
-0.259703
-0.264885
-0.268351
-0.269189
-0.266519
-0.259639
-0.248128
-0.231972
-0.211624
-0.187951
-0.162082
-0.135232
-0.108534
-0.0829105
-0.0590418
-0.0373631
-0.0181171
-0.00146848
0.012385
0.0231501
0.0303556
0.0334932
0.0308463
0.0242871
0.0142701
0.0010785
-0.016414
-0.0417621
-0.076608
-0.113663
-0.136993
-0.138364
-0.119633
-0.0920643
-0.0652056
-0.043474
-0.0272067
-0.0150292
-0.00859106
-0.00534829
-0.0046894
-0.0037104
-0.00780869
-0.0147259
-0.0291629
-0.0547954
-0.0797013
-0.0932748
-0.0783701
-0.0585969
-0.0393975
-0.0196825
-0.00773459
0.00805467
0.00609792
-0.222524
-0.231266
-0.234803
-0.237278
-0.240871
-0.244503
-0.248243
-0.250681
-0.250642
-0.247393
-0.240398
-0.229321
-0.214154
-0.195287
-0.173457
-0.149626
-0.124834
-0.100059
-0.0761042
-0.0535666
-0.032843
-0.0141788
0.00225441
0.0162815
0.0277189
0.0362331
0.0422013
0.0407215
0.0355947
0.0270865
0.0152999
-0.00139963
-0.0274539
-0.0651654
-0.105748
-0.131385
-0.132351
-0.112327
-0.0852625
-0.0596368
-0.0391
-0.0237075
-0.0120418
-0.0057934
-0.00239173
-0.00159921
-0.0001371
-0.00357083
-0.0104023
-0.0250499
-0.0524984
-0.079744
-0.0951825
-0.07951
-0.0583187
-0.0385867
-0.0189601
-0.00717965
0.00911477
0.0067567
-0.208342
-0.219613
-0.223014
-0.223585
-0.224823
-0.22721
-0.229646
-0.230763
-0.229577
-0.225556
-0.218366
-0.207799
-0.19387
-0.176873
-0.15737
-0.136102
-0.113883
-0.0915009
-0.0696307
-0.0488075
-0.0294136
-0.0117206
0.00408753
0.017895
0.0295666
0.0385857
0.0428711
0.0454115
0.0423427
0.0356896
0.02559
0.00989798
-0.0165979
-0.0559337
-0.0973345
-0.121743
-0.121087
-0.101811
-0.0768261
-0.053479
-0.0346758
-0.0205048
-0.0094995
-0.00339175
8.74809e-05
0.000773126
0.00232606
-0.000833561
-0.00721866
-0.0217523
-0.0502993
-0.079086
-0.0955922
-0.0795687
-0.0572813
-0.0373614
-0.0180597
-0.006551
0.00995777
0.00720426
-0.193496
-0.205739
-0.209215
-0.208829
-0.208802
-0.209949
-0.211179
-0.211242
-0.209303
-0.204951
-0.197982
-0.188266
-0.175783
-0.160705
-0.143415
-0.124468
-0.104513
-0.0842086
-0.0641487
-0.0448306
-0.0266326
-0.00983393
0.00536303
0.0188028
0.0303577
0.0396602
0.0455218
0.0485344
0.0468575
0.0416706
0.0327573
0.0174261
-0.0095931
-0.0485069
-0.0873951
-0.109323
-0.108035
-0.0905473
-0.0682603
-0.0473648
-0.0302918
-0.0173125
-0.00700016
-0.00112021
0.0024028
0.00299605
0.0046215
0.00148739
-0.00480612
-0.0193581
-0.0483284
-0.0774798
-0.0946437
-0.0788049
-0.0557392
-0.0358196
-0.0170189
-0.00587825
0.0106687
0.00754512
-0.179084
-0.190939
-0.194535
-0.193912
-0.193094
-0.193217
-0.193532
-0.192911
-0.190573
-0.186156
-0.179521
-0.17059
-0.159335
-0.145861
-0.130447
-0.113521
-0.0956052
-0.077244
-0.0589417
-0.0411374
-0.0241852
-0.00836115
0.00612298
0.0190687
0.0303355
0.0397481
0.0463436
0.0499633
0.0495844
0.0457884
0.0379883
0.0230897
-0.00364393
-0.0406483
-0.0762149
-0.0953556
-0.0938896
-0.0786352
-0.0593497
-0.0410766
-0.0258274
-0.0140975
-0.00455626
0.00102164
0.00457515
0.00515566
0.00687354
0.00380287
-0.00252909
-0.0170042
-0.0457745
-0.0747436
-0.0925385
-0.0772022
-0.0537125
-0.0339436
-0.015821
-0.00515753
0.0112384
0.0078012
-0.164521
-0.175817
-0.179551
-0.178934
-0.177678
-0.177128
-0.176814
-0.175743
-0.173188
-0.168822
-0.162552
-0.154344
-0.14419
-0.132159
-0.118448
-0.103378
-0.0873536
-0.0708143
-0.0541836
-0.0378485
-0.0221397
-0.0073304
0.00636367
0.0187225
0.0295629
0.038696
0.0456317
0.0497465
0.0503658
0.0477734
0.0411348
0.0271965
0.00186251
-0.0322863
-0.0639652
-0.0802669
-0.0789832
-0.0664078
-0.0503764
-0.0348141
-0.0214048
-0.0109131
-0.00218166
0.00303775
0.00660287
0.00723669
0.00902694
0.006134
-0.000127793
-0.0141527
-0.0422887
-0.0708609
-0.0890888
-0.0746017
-0.0511495
-0.0317381
-0.0144674
-0.0043987
0.0116499
0.00795544
-0.150029
-0.160858
-0.164627
-0.164089
-0.162655
-0.161715
-0.160984
-0.159623
-0.156983
-0.152773
-0.146925
-0.139435
-0.130309
-0.119593
-0.107421
-0.0940271
-0.0797244
-0.0648686
-0.0498168
-0.0349071
-0.0204413
-0.00668242
0.00615301
0.017841
0.0281669
0.0369244
0.0438315
0.0481765
0.049419
0.0476759
0.0420173
0.029376
0.00646803
-0.0236246
-0.0507101
-0.0645082
-0.0640378
-0.0543972
-0.0416113
-0.0286978
-0.0170897
-0.00779547
0.000114614
0.00493319
0.00847743
0.00923129
0.0110941
0.0084819
0.00243798
-0.0107755
-0.0379383
-0.0657593
-0.0841494
-0.0709031
-0.0480329
-0.0292305
-0.0129688
-0.00360882
0.0118874
0.00798841
-0.136211
-0.146315
-0.149987
-0.149571
-0.148123
-0.146986
-0.146012
-0.144504
-0.141898
-0.137932
-0.132552
-0.125769
-0.117597
-0.108071
-0.0972814
-0.085401
-0.0726712
-0.0593785
-0.0458202
-0.0322883
-0.0190536
-0.00636439
0.00556384
0.0165126
0.0262556
0.0345802
0.0412344
0.0456061
0.0471956
0.0459768
0.041047
0.0299282
0.0103543
-0.0147524
-0.0371768
-0.049103
-0.0498527
-0.0430844
-0.0333018
-0.0228515
-0.0129548
-0.00479079
0.00231925
0.00671628
0.0102037
0.0111427
0.0130932
0.0108518
0.00512924
-0.00702266
-0.0327879
-0.0594211
-0.0777208
-0.0660681
-0.0443688
-0.0264635
-0.0113484
-0.00279303
0.0119383
0.00788675
-0.123035
-0.132265
-0.135792
-0.135529
-0.134169
-0.132977
-0.131898
-0.130364
-0.127879
-0.124214
-0.119321
-0.113222
-0.105937
-0.0974926
-0.0879547
-0.0774488
-0.0661601
-0.0543169
-0.0421653
-0.0299555
-0.0179283
-0.00631394
0.00467739
0.0148336
0.0239343
0.0317592
0.0380571
0.0423274
0.0441045
0.0432502
0.0389991
0.0296377
0.0137543
-0.00635813
-0.0246146
-0.0351347
-0.0371135
-0.0328486
-0.0256496
-0.0173762
-0.00905623
-0.00194138
0.00441744
0.00839544
0.0117969
0.0129728
0.0150403
0.0132464
0.00793335
-0.00294281
-0.0268692
-0.0519721
-0.0699221
-0.0601259
-0.0401894
-0.0234962
-0.00964153
-0.00195202
0.0117965
0.0076435
-0.110403
-0.118846
-0.122222
-0.122108
-0.120882
-0.119723
-0.118641
-0.117161
-0.114858
-0.111525
-0.107127
-0.101686
-0.0952275
-0.087775
-0.0793748
-0.0701193
-0.0601496
-0.0496473
-0.0388151
-0.0278664
-0.0170132
-0.00646545
0.0035767
0.0129098
0.0213241
0.028598
0.0344821
0.0385737
0.0404566
0.0399365
0.0364302
0.0288652
0.0163674
0.000613992
-0.014078
-0.0233471
-0.0262119
-0.0238958
-0.0187801
-0.0123456
-0.00543725
0.000714463
0.0063904
0.00997273
0.0132731
0.014717
0.0169553
0.0156877
0.010913
0.00148946
-0.020299
-0.043661
-0.0609831
-0.0531928
-0.0355579
-0.0203998
-0.00789337
-0.00108006
0.0114654
0.00726092
-0.0985249
-0.106203
-0.109385
-0.109391
-0.108316
-0.107244
-0.106222
-0.104855
-0.10277
-0.099789
-0.0958804
-0.0910695
-0.0853825
-0.0788397
-0.0714753
-0.0633575
-0.0545944
-0.0453299
-0.0357306
-0.025977
-0.0162544
-0.0067511
0.00234601
0.0108452
0.0185483
0.0252394
0.0306808
0.0345499
0.0364902
0.0362923
0.0335296
0.0275644
0.0178795
0.00570986
-0.00595012
-0.0139373
-0.0172134
-0.0162683
-0.0127471
-0.00780854
-0.0021292
0.00314566
0.00821466
0.0114437
0.0146415
0.0163606
0.0188571
0.0182292
0.0141613
0.00625552
-0.013307
-0.0348315
-0.0512487
-0.0454848
-0.0305713
-0.0172505
-0.00615256
-0.000162555
0.0109637
0.00675559
-0.0874945
-0.0943619
-0.0973051
-0.0974136
-0.0965032
-0.095552
-0.0946312
-0.0934089
-0.0915648
-0.0889404
-0.0855084
-0.0812939
-0.0763231
-0.0706144
-0.0641934
-0.0571109
-0.0494499
-0.0413249
-0.0328718
-0.0242428
-0.0155978
-0.00710467
0.00106675
0.00873978
0.0157252
0.021822
0.0268122
0.0304351
0.0323906
0.0324792
0.0303947
0.0257813
0.018372
0.00909765
-1.63337e-05
-0.00670631
-0.00998534
-0.00990499
-0.00755067
-0.00379255
0.000846352
0.00533219
0.00986178
0.0127995
0.0158993
0.0178739
0.0207268
0.0209082
0.0177352
0.0112614
-0.00622429
-0.0259189
-0.0411641
-0.0373089
-0.0253595
-0.0141206
-0.00446214
0.000822128
0.0103347
0.00616502
-0.0772087
-0.0833098
-0.0860189
-0.0862189
-0.0854729
-0.084656
-0.0838554
-0.0827951
-0.0811976
-0.0789227
-0.0759456
-0.0722899
-0.0679807
-0.0630348
-0.0574719
-0.0513301
-0.0446734
-0.0375928
-0.0301991
-0.0226198
-0.0149919
-0.0074628
-0.000185042
0.00668148
0.0129617
0.018472
0.0230165
0.0263815
0.0283203
0.028658
0.0271784
0.0237051
0.0181301
0.01116
0.00415149
-0.00129148
-0.00429867
-0.00469506
-0.00315675
-0.000306216
0.00347424
0.00726605
0.0113052
0.0140226
0.0170323
0.0192175
0.0224648
0.0236379
0.0215291
0.0162665
0.000526391
-0.0173855
-0.0312129
-0.0290397
-0.0200829
-0.0110705
-0.00284879
0.00189453
0.00964535
0.00555438
-0.0676631
-0.0730786
-0.0755597
-0.0758294
-0.075233
-0.0745517
-0.0738777
-0.0729832
-0.0716274
-0.0696857
-0.0671352
-0.0639972
-0.060295
-0.0560438
-0.0512589
-0.0459692
-0.0402242
-0.0340961
-0.0276751
-0.0210674
-0.0143894
-0.00776929
-0.0013427
0.00474829
0.0103495
0.0152947
0.0194101
0.0225183
0.0244213
0.0249759
0.0240298
0.0215131
0.0174116
0.0122657
0.00698913
0.0026829
9.14141e-05
-0.000507987
0.000489337
0.00265951
0.00574518
0.0089457
0.0125297
0.0150826
0.0180089
0.0203628
0.0239243
0.026064
0.0250589
0.0207389
0.00649835
-0.00958902
-0.0218442
-0.0210891
-0.0149311
-0.00814726
-0.00131776
0.0030639
0.008982
0.0050119
-0.0589021
-0.0636718
-0.065919
-0.0662391
-0.0657873
-0.0652271
-0.0646756
-0.063941
-0.062814
-0.0611832
-0.0590268
-0.0563632
-0.0532136
-0.0495914
-0.0455086
-0.0409872
-0.0360655
-0.0308009
-0.0252665
-0.0195503
-0.0137507
-0.00797713
-0.00234776
0.00301073
0.00796616
0.0123732
0.0160833
0.018945
0.0208009
0.0215393
0.0210538
0.0193322
0.0164085
0.0127093
0.00886823
0.00553371
0.00341047
0.00278901
0.00345321
0.00512808
0.00765837
0.0103701
0.0135292
0.0159514
0.0187823
0.0212579
0.0249678
0.0277696
0.0275985
0.0239901
0.0113438
-0.00276079
-0.013455
-0.0138611
-0.0101088
-0.00539014
0.000138979
0.00430782
0.00844479
0.00462979
-0.0508806
-0.0550454
-0.0570633
-0.0574168
-0.0570812
-0.0566443
-0.0562132
-0.0556322
-0.0547185
-0.0533729
-0.0515752
-0.0493413
-0.0466901
-0.0436331
-0.04018
-0.0363473
-0.0321647
-0.0276777
-0.0229452
-0.0180399
-0.0130435
-0.008049
-0.00315744
0.0015215
0.00587162
0.00977067
0.0131024
0.0157313
0.0175314
0.0184186
0.0183177
0.0172469
0.0152613
0.0126962
0.0100894
0.00750031
0.00585264
0.00532449
0.00580601
0.00713303
0.00922279
0.0115379
0.014305
0.0166054
0.0193081
0.0218224
0.0254578
0.028452
0.0286858
0.0256195
0.014867
0.00289123
-0.00637069
-0.00767643
-0.0057984
-0.00283293
0.00152257
0.0055446
0.00812136
0.00447585
-0.0435409
-0.0471657
-0.048971
-0.0493453
-0.0491158
-0.0487937
-0.0484708
-0.0480247
-0.0473005
-0.0462117
-0.044737
-0.0428884
-0.0406825
-0.0381297
-0.0352373
-0.0320179
-0.0284942
-0.0247021
-0.020689
-0.016514
-0.0122446
-0.00795908
-0.00374261
0.000310983
0.00410293
0.00753031
0.0105145
0.0129213
0.0146548
0.0156532
0.0158647
0.0153167
0.0140619
0.0123156
0.0102417
0.00871836
0.00758267
0.00721915
0.00762141
0.00871379
0.010456
0.0124498
0.0148625
0.0170254
0.0195547
0.0220112
0.0253381
0.0280971
0.0284032
0.0257506
0.0170302
0.00719335
-0.000762713
-0.00269664
-0.00211941
-0.000498909
0.00280198
0.00663047
0.00805567
0.00455649
-0.0368598
-0.0400035
-0.0416112
-0.0419974
-0.0418597
-0.0416315
-0.0414019
-0.0410759
-0.0405227
-0.0396627
-0.0384743
-0.0369669
-0.0351548
-0.0330473
-0.0306502
-0.0279726
-0.0250317
-0.0218557
-0.0184823
-0.0149591
-0.0113413
-0.00769337
-0.00408565
-0.000598561
0.00268479
0.00566425
0.00834181
0.0105353
0.0121898
0.0132614
0.0137155
0.01358
0.0129069
0.0118644
0.0105516
0.00950583
0.00877061
0.00858797
0.00897378
0.00991268
0.0113819
0.0131128
0.0152061
0.0172032
0.0195173
0.0218369
0.0246763
0.0269596
0.027178
0.0248465
0.0180044
0.0101476
0.00342115
0.00111263
0.000882368
0.00158737
0.00391607
0.0073951
0.00817585
0.00478788
-0.0308047
-0.0335162
-0.03494
-0.0353288
-0.0352669
-0.0351254
-0.034984
-0.0347604
-0.0343513
-0.0336877
-0.0327488
-0.0315404
-0.0300736
-0.0283561
-0.0263925
-0.0241895
-0.0217599
-0.0191255
-0.016316
-0.0133694
-0.0103298
-0.00724916
-0.00418392
-0.00119742
0.00164967
0.00431304
0.00660509
0.00857431
0.0101345
0.0112426
0.0118727
0.0120482
0.0118234
0.0113986
0.0105676
0.00994039
0.00953736
0.00952942
0.00993335
0.0107736
0.0120297
0.0135397
0.0153444
0.0171473
0.0192067
0.0213604
0.0236105
0.0253516
0.0254427
0.0233941
0.018114
0.0119525
0.00638475
0.00391719
0.00322264
0.00337623
0.00480543
0.0077516
0.00825928
0.00497606
-0.025326
-0.0276554
-0.0289124
-0.0292987
-0.0293011
-0.0292338
-0.0291667
-0.0290328
-0.0287458
-0.0282499
-0.0275257
-0.0265759
-0.0254085
-0.0240293
-0.0224418
-0.020651
-0.0186663
-0.0165041
-0.0141873
-0.0117459
-0.00921478
-0.00663558
-0.00405367
-0.0015205
0.000909786
0.00318115
0.00522514
0.00700546
0.00846872
0.00958248
0.0103268
0.0107146
0.0107629
0.0104982
0.0103255
0.0100998
0.00997925
0.0101286
0.010566
0.0113416
0.0124297
0.0137495
0.0152958
0.0168828
0.0186244
0.0202041
0.0220925
0.0235134
0.0235068
0.0217357
0.0176853
0.0128907
0.00837203
0.00591229
0.0049584
0.00480392
0.00543392
0.00774585
0.00806811
0.0049002
-0.0203825
-0.0223781
-0.0234857
-0.0238654
-0.0239204
-0.0239151
-0.0239113
-0.0238545
-0.0236698
-0.0233142
-0.0227715
-0.0220425
-0.0211318
-0.0200433
-0.0187794
-0.0173434
-0.0157421
-0.0139878
-0.0120979
-0.0100956
-0.00800827
-0.00586875
-0.00371297
-0.00158205
0.000479108
0.0024241
0.00421615
0.00580817
0.00716565
0.00825863
0.00907082
0.00961291
0.00990541
0.0100066
0.0100504
0.0100874
0.0101821
0.0104598
0.010932
0.011661
0.0126145
0.0137684
0.0150863
0.01646
0.0179259
0.0192862
0.0206828
0.0216658
0.0215694
0.0200628
0.0169571
0.0132213
0.00960596
0.007277
0.00616648
0.00582866
0.00579275
0.00742628
0.00749314
0.00448733
-0.0159365
-0.0176409
-0.0186148
-0.0189844
-0.0190819
-0.0191279
-0.0191765
-0.0191842
-0.0190885
-0.0188489
-0.0184563
-0.0179113
-0.0172176
-0.0163764
-0.0153885
-0.0142555
-0.012982
-0.0115771
-0.0100538
-0.00843002
-0.00672659
-0.00496898
-0.0031852
-0.00140747
0.000330661
0.00199111
0.00353945
0.00494805
0.0061893
0.00723949
0.00808105
0.00872254
0.00917642
0.00949617
0.00973231
0.0099588
0.0102111
0.0105853
0.0110852
0.0117751
0.0126186
0.0136253
0.0147424
0.0159137
0.0171259
0.0182435
0.019264
0.0199018
0.0197368
0.0184662
0.0160778
0.0131486
0.0102717
0.00815319
0.00693515
0.00645804
0.00593
0.0068788
0.00662499
0.00383709
-0.0119487
-0.0134002
-0.0142555
-0.014613
-0.0147443
-0.0148322
-0.0149232
-0.014983
-0.0149606
-0.0148216
-0.0145526
-0.0141569
-0.0136437
-0.0130104
-0.0122556
-0.0113788
-0.010383
-0.00927475
-0.00806379
-0.00676335
-0.00538911
-0.00396051
-0.0024987
-0.00102868
0.000423658
0.00183028
0.00316448
0.0044014
0.00551787
0.00649868
0.00733322
0.00802362
0.00857634
0.00902598
0.0093993
0.00975621
0.0101175
0.0105576
0.0110733
0.0117251
0.0124754
0.0133507
0.0142924
0.0152751
0.0162582
0.0171452
0.0178803
0.0182648
0.0180532
0.0169844
0.0151363
0.0128212
0.0105179
0.00864415
0.00735339
0.00675507
0.00591249
0.00623413
0.00559596
0.00310367
-0.00838115
-0.00961476
-0.0103657
-0.01071
-0.0108678
-0.0109892
-0.011114
-0.0112153
-0.0112516
-0.0111947
-0.0110336
-0.0107682
-0.0103985
-0.0099328
-0.0093696
-0.00870644
-0.00794394
-0.00708575
-0.00613843
-0.00511186
-0.00401775
-0.00287053
-0.00168606
-0.000483241
0.000718697
0.00189861
0.00303585
0.00410979
0.00510355
0.00600442
0.0068029
0.00750017
0.00809768
0.0086182
0.00907539
0.0095133
0.00994255
0.0104201
0.0109381
0.0115493
0.0122178
0.0129748
0.0137642
0.0145769
0.01536
0.016044
0.0165645
0.0167691
0.0165301
0.0156315
0.0141855
0.0123369
0.0104611
0.00878729
0.00752451
0.00681469
0.0057857
0.00559006
0.00466295
0.00242719
-0.00519955
-0.00624632
-0.00690591
-0.00723623
-0.00741408
-0.00756183
-0.00771288
-0.00784629
-0.00792858
-0.00793653
-0.00786084
-0.00770084
-0.00745772
-0.00713136
-0.00672268
-0.006234
-0.00566488
-0.00501518
-0.00428897
-0.00349302
-0.0026357
-0.00172761
-0.000780436
0.000191873
0.00117508
0.00215325
0.00311075
0.00403209
0.00490365
0.00571502
0.00645761
0.00713097
0.00773377
0.00828089
0.00877788
0.0092562
0.00971901
0.0102091
0.0107159
0.0112825
0.0118766
0.0125277
0.0131849
0.0138475
0.0144623
0.0149772
0.0153351
0.0154159
0.0151645
0.0144057
0.0132541
0.0117634
0.0102111
0.00877017
0.00752103
0.00670952
0.00559365
0.0049995
0.00389328
0.00188336
-0.00237163
-0.00325881
-0.00383871
-0.00415474
-0.00434745
-0.0045154
-0.00468633
-0.0048441
-0.00496196
-0.00502092
-0.00501307
-0.00493738
-0.00479473
-0.00458545
-0.00430896
-0.00396381
-0.0035499
-0.00306981
-0.00252752
-0.00192424
-0.00126571
-0.000559581
0.000185761
0.000960249
0.0017534
0.00255342
0.00334873
0.0041275
0.00487886
0.00559445
0.00626677
0.00689441
0.00747407
0.00801507
0.00851786
0.00900427
0.00947276
0.00995442
0.0104377
0.0109556
0.01148
0.0120356
0.0125795
0.0131124