/*--------------------------------*- C++ -*----------------------------------*\
| =========                 |                                                 |
| \\      /  F ield         | OpenFOAM: The Open Source CFD Toolbox           |
|  \\    /   O peration     | Version:  2512                                  |
|   \\  /    A nd           | Website:  www.openfoam.com                      |
|    \\/     M anipulation  |                                                 |
\*---------------------------------------------------------------------------*/
FoamFile
{
    version     2.0;
    format      ascii;
    arch        "LSB;label=32;scalar=64";
    class       volScalarField;
    location    "69";
    object      p;
}
// * * * * * * * * * * * * * * * * * * * * * * * * * * * * * * * * * * * * * //

dimensions      [0 2 -2 0 0 0 0];

internalField   nonuniform List<scalar> 
13248
(
-0.376795
-0.374373
-0.371574
-0.3686
-0.365703
-0.363155
-0.361126
-0.359664
-0.358698
-0.358058
-0.357485
-0.356659
-0.355229
-0.352855
-0.349241
-0.344164
-0.337502
-0.329232
-0.319416
-0.308213
-0.295688
-0.282153
-0.26677
-0.250386
-0.384646
-0.381638
-0.3782
-0.374556
-0.370955
-0.367668
-0.364842
-0.362482
-0.360462
-0.358557
-0.356466
-0.353859
-0.35042
-0.345885
-0.340072
-0.332897
-0.324371
-0.314583
-0.303676
-0.29181
-0.279119
-0.265763
-0.251572
-0.237351
-0.394083
-0.390277
-0.386095
-0.381741
-0.377414
-0.37335
-0.369643
-0.366226
-0.36291
-0.359425
-0.35547
-0.350765
-0.345089
-0.338308
-0.330386
-0.321371
-0.311377
-0.300554
-0.289056
-0.277033
-0.264581
-0.251852
-0.238731
-0.225718
-0.405293
-0.40047
-0.395433
-0.390313
-0.385199
-0.380253
-0.37548
-0.370731
-0.365765
-0.360318
-0.354151
-0.347099
-0.33909
-0.33014
-0.32034
-0.309827
-0.298754
-0.287265
-0.275486
-0.263517
-0.251432
-0.239332
-0.227151
-0.215368
-0.418324
-0.412286
-0.406286
-0.400321
-0.394305
-0.388278
-0.382145
-0.375687
-0.368665
-0.360886
-0.352252
-0.342761
-0.332498
-0.321603
-0.310242
-0.298573
-0.286731
-0.274818
-0.26291
-0.251062
-0.239311
-0.227709
-0.216217
-0.205148
-0.433091
-0.425684
-0.418631
-0.411719
-0.404609
-0.397197
-0.389295
-0.380671
-0.37117
-0.360759
-0.349526
-0.337642
-0.325314
-0.312749
-0.300118
-0.287551
-0.275135
-0.26292
-0.250935
-0.239194
-0.227708
-0.21649
-0.20552
-0.195003
-0.449355
-0.440498
-0.432321
-0.424318
-0.415831
-0.406608
-0.396429
-0.385152
-0.372805
-0.359578
-0.345756
-0.331639
-0.317497
-0.30353
-0.289873
-0.276598
-0.263736
-0.251289
-0.239247
-0.227595
-0.21632
-0.205407
-0.194848
-0.18473
-0.466723
-0.456403
-0.447041
-0.437739
-0.42748
-0.415915
-0.402909
-0.388536
-0.373095
-0.357016
-0.340737
-0.32462
-0.308922
-0.293793
-0.2793
-0.265453
-0.252232
-0.239599
-0.227515
-0.215942
-0.204847
-0.194201
-0.183994
-0.174214
-0.484595
-0.472872
-0.462254
-0.451363
-0.438839
-0.42435
-0.408009
-0.390229
-0.371617
-0.352801
-0.334294
-0.316446
-0.299444
-0.28336
-0.268189
-0.253884
-0.240381
-0.227611
-0.215513
-0.204028
-0.193108
-0.182715
-0.172825
-0.16335
-0.502144
-0.489138
-0.477162
-0.464305
-0.448965
-0.431013
-0.410977
-0.38968
-0.368006
-0.346697
-0.326257
-0.306954
-0.288883
-0.272029
-0.25632
-0.241661
-0.227954
-0.215106
-0.203034
-0.191664
-0.180933
-0.170795
-0.161199
-0.152022
-0.518335
-0.504195
-0.490701
-0.475437
-0.456744
-0.434917
-0.411025
-0.386298
-0.361816
-0.338333
-0.31627
-0.295781
-0.276858
-0.259407
-0.243298
-0.228397
-0.214578
-0.201728
-0.189745
-0.178541
-0.168042
-0.158187
-0.148889
-0.140036
-0.53201
-0.516923
-0.50173
-0.483593
-0.461059
-0.43506
-0.407283
-0.379314
-0.352323
-0.326994
-0.303612
-0.282202
-0.26265
-0.24479
-0.228444
-0.213442
-0.199634
-0.186889
-0.175091
-0.16414
-0.153955
-0.144458
-0.135535
-0.127128
-0.295652
-0.29771
-0.299016
-0.299924
-0.300747
-0.301565
-0.302405
-0.303279
-0.304178
-0.305084
-0.305967
-0.306781
-0.307491
-0.308058
-0.308414
-0.308503
-0.308268
-0.307651
-0.306601
-0.305087
-0.30309
-0.300617
-0.297726
-0.294559
-0.30283
-0.304681
-0.305927
-0.306898
-0.307885
-0.308969
-0.310177
-0.311517
-0.312979
-0.314539
-0.316162
-0.317803
-0.319407
-0.320891
-0.322187
-0.323199
-0.323817
-0.323921
-0.32339
-0.322112
-0.319982
-0.316902
-0.312822
-0.307962
-0.310609
-0.312127
-0.313235
-0.314214
-0.315318
-0.316627
-0.318165
-0.319938
-0.321931
-0.324116
-0.326452
-0.328887
-0.331353
-0.333757
-0.335986
-0.337904
-0.339364
-0.340173
-0.340131
-0.339035
-0.336689
-0.332864
-0.327362
-0.320604
-0.318684
-0.319766
-0.320659
-0.32158
-0.322733
-0.324194
-0.325988
-0.328114
-0.330556
-0.333278
-0.336235
-0.339363
-0.34258
-0.345777
-0.348816
-0.351521
-0.353689
-0.35507
-0.355379
-0.354327
-0.351628
-0.346957
-0.339902
-0.330743
-0.326723
-0.327305
-0.327914
-0.328697
-0.329807
-0.331314
-0.333245
-0.335599
-0.33835
-0.341461
-0.344874
-0.348516
-0.352287
-0.35606
-0.359668
-0.362904
-0.365498
-0.367184
-0.367568
-0.366309
-0.363042
-0.357383
-0.348825
-0.337266
-0.33442
-0.334485
-0.334754
-0.335311
-0.336262
-0.33768
-0.339596
-0.342007
-0.344886
-0.348183
-0.351833
-0.355747
-0.359807
-0.36386
-0.367711
-0.371114
-0.373772
-0.375342
-0.375431
-0.373628
-0.369531
-0.362721
-0.352959
-0.339057
-0.341543
-0.34112
-0.341012
-0.341255
-0.34192
-0.343094
-0.344817
-0.347091
-0.349884
-0.35314
-0.356781
-0.360698
-0.364754
-0.368765
-0.372505
-0.375696
-0.378006
-0.379058
-0.378442
-0.375735
-0.370573
-0.362442
-0.351863
-0.335996
-0.347987
-0.347142
-0.346635
-0.346476
-0.34673
-0.347502
-0.348853
-0.350791
-0.353287
-0.356277
-0.359667
-0.36333
-0.3671
-0.370768
-0.374071
-0.376696
-0.378286
-0.378447
-0.376778
-0.372871
-0.366505
-0.357004
-0.345763
-0.328733
-0.3538
-0.352614
-0.351695
-0.351059
-0.350788
-0.351018
-0.351835
-0.353263
-0.355276
-0.357805
-0.360737
-0.363925
-0.367169
-0.370222
-0.372787
-0.374522
-0.375053
-0.373996
-0.370995
-0.365699
-0.358066
-0.347401
-0.335498
-0.318188
-0.359189
-0.357729
-0.356387
-0.355214
-0.35433
-0.353912
-0.354075
-0.354862
-0.35625
-0.358163
-0.360473
-0.362992
-0.365485
-0.367661
-0.36919
-0.369707
-0.368845
-0.366265
-0.361697
-0.354931
-0.34606
-0.334657
-0.322291
-0.305455
-0.364511
-0.362798
-0.361011
-0.359253
-0.357698
-0.356564
-0.355998
-0.356055
-0.356718
-0.357894
-0.359421
-0.361074
-0.36257
-0.363579
-0.363742
-0.362699
-0.360122
-0.35575
-0.349423
-0.341119
-0.331016
-0.319184
-0.306764
-0.291242
-0.370222
-0.368211
-0.365936
-0.363559
-0.361306
-0.35943
-0.358102
-0.357389
-0.357256
-0.357582
-0.358162
-0.358721
-0.358932
-0.35844
-0.356889
-0.353962
-0.349409
-0.34308
-0.334921
-0.325038
-0.313562
-0.300942
-0.287789
-0.273902
-0.290707
-0.285913
-0.281518
-0.277898
-0.275519
-0.274798
-0.275962
-0.278919
-0.283092
-0.287315
-0.289704
-0.289015
-0.283251
-0.270593
-0.251014
-0.225519
-0.197268
-0.169987
-0.147019
-0.130789
-0.12304
-0.125284
-0.137924
-0.158039
-0.178194
-0.188524
-0.182859
-0.161724
-0.132751
-0.10467
-0.0831252
-0.0700672
-0.0645749
-0.0655954
-0.0746847
-0.0918793
-0.109901
-0.117439
-0.109767
-0.0918551
-0.0740524
-0.0622776
-0.0562549
-0.0563918
-0.0654089
-0.0784701
-0.0844513
-0.0775768
-0.0640268
-0.0515619
-0.042005
-0.0365415
-0.0366099
-0.036113
-0.0354162
-0.0313942
-0.0239454
-0.0162141
-0.00822363
0.000823385
-0.301999
-0.293359
-0.284292
-0.275173
-0.266576
-0.259151
-0.253426
-0.249672
-0.247755
-0.247024
-0.246227
-0.244004
-0.238637
-0.228942
-0.214528
-0.195128
-0.173862
-0.153518
-0.136985
-0.12675
-0.124987
-0.133422
-0.151915
-0.176485
-0.198803
-0.208376
-0.20042
-0.175278
-0.141957
-0.109966
-0.0849977
-0.0688151
-0.0605253
-0.0587913
-0.0646056
-0.0784638
-0.0944328
-0.102381
-0.0971054
-0.0828561
-0.068996
-0.0606592
-0.0574592
-0.0604102
-0.0724203
-0.0879431
-0.0945613
-0.0859143
-0.0691441
-0.0535557
-0.0413507
-0.0335341
-0.0311232
-0.0291368
-0.0285683
-0.0258606
-0.0205741
-0.0145428
-0.00846242
8.64736e-05
-0.313156
-0.300778
-0.287127
-0.272601
-0.257779
-0.243515
-0.230729
-0.219949
-0.211435
-0.205035
-0.200064
-0.195542
-0.189803
-0.181387
-0.172752
-0.158979
-0.144636
-0.131269
-0.121491
-0.11782
-0.122659
-0.137571
-0.161634
-0.190041
-0.214216
-0.224465
-0.213759
-0.185425
-0.148688
-0.113585
-0.085863
-0.0670392
-0.0562094
-0.0519049
-0.0545893
-0.0650937
-0.0788428
-0.0868864
-0.0838717
-0.0732361
-0.0633045
-0.0583954
-0.058088
-0.0639396
-0.0789109
-0.0968105
-0.104094
-0.0938051
-0.0739099
-0.0552453
-0.0405426
-0.0306269
-0.0260126
-0.0226569
-0.0220669
-0.0204851
-0.0172083
-0.0129022
-0.00884409
-0.000785295
-0.323018
-0.30714
-0.289361
-0.270067
-0.249573
-0.228913
-0.209659
-0.192159
-0.177056
-0.164688
-0.154849
-0.147075
-0.140521
-0.131532
-0.127491
-0.118887
-0.110961
-0.104374
-0.101492
-0.104696
-0.116271
-0.137325
-0.166261
-0.197855
-0.223579
-0.233928
-0.222275
-0.191926
-0.152865
-0.115552
-0.0858087
-0.064917
-0.051904
-0.0452906
-0.0450841
-0.0523234
-0.0636882
-0.0714532
-0.0704402
-0.0632523
-0.0570987
-0.0554946
-0.0580429
-0.0667539
-0.0845835
-0.104785
-0.112793
-0.101068
-0.0782512
-0.0566176
-0.039589
-0.0278356
-0.0213065
-0.0167053
-0.0159486
-0.0152974
-0.013874
-0.0113137
-0.00937186
-0.0017872
-0.329106
-0.311299
-0.290032
-0.266965
-0.241915
-0.215757
-0.191864
-0.168475
-0.147364
-0.129287
-0.114429
-0.102833
-0.0943594
-0.0834277
-0.0838289
-0.0785174
-0.0757575
-0.0752414
-0.0788703
-0.0886975
-0.106563
-0.132956
-0.165795
-0.199825
-0.226822
-0.23766
-0.225934
-0.194804
-0.154625
-0.116086
-0.0850293
-0.0626168
-0.047826
-0.0392198
-0.0364316
-0.0405518
-0.0494507
-0.0565868
-0.0572181
-0.053165
-0.0504851
-0.0519407
-0.0572026
-0.0686513
-0.0892001
-0.111613
-0.120401
-0.107536
-0.0821074
-0.0576775
-0.0385087
-0.0251656
-0.0170058
-0.0112876
-0.0102397
-0.010323
-0.0105933
-0.00979336
-0.010039
-0.00290752
-0.330447
-0.311686
-0.288468
-0.263114
-0.235518
-0.206454
-0.177628
-0.149682
-0.123783
-0.100913
-0.0816661
-0.0666036
-0.0566715
-0.0495561
-0.0444859
-0.0418801
-0.0427359
-0.0470415
-0.0561558
-0.071655
-0.0947447
-0.125261
-0.160829
-0.196472
-0.224488
-0.236009
-0.224915
-0.194169
-0.154125
-0.115397
-0.0837173
-0.0602802
-0.0441081
-0.0338256
-0.0288461
-0.0300903
-0.036527
-0.0427611
-0.0445892
-0.0432328
-0.0435614
-0.047734
-0.0554932
-0.069502
-0.0925851
-0.117071
-0.126728
-0.113087
-0.0854253
-0.0584284
-0.0373151
-0.0226104
-0.0130914
-0.00638904
-0.00495183
-0.00558088
-0.00738361
-0.00835154
-0.0108311
-0.00413075
-0.326455
-0.307495
-0.284161
-0.258338
-0.229911
-0.199567
-0.168535
-0.1379
-0.108851
-0.0825136
-0.0597498
-0.0412957
-0.0278326
-0.0186146
-0.0133462
-0.0122289
-0.0152034
-0.0227115
-0.0357376
-0.0553592
-0.0821243
-0.115279
-0.152313
-0.188706
-0.217359
-0.229641
-0.219688
-0.190344
-0.15163
-0.113691
-0.0820421
-0.0580172
-0.0408213
-0.0291661
-0.0223596
-0.0210744
-0.0251436
-0.030322
-0.0328901
-0.0337144
-0.0364586
-0.0429304
-0.0528893
-0.0692216
-0.0946353
-0.121045
-0.131651
-0.117605
-0.0881464
-0.0588692
-0.0360183
-0.0201597
-0.00952484
-0.00197613
-8.2823e-05
-0.00108128
-0.00425668
-0.00699274
-0.0117306
-0.00543919
-0.317747
-0.29904
-0.277262
-0.252803
-0.225197
-0.195261
-0.164117
-0.132753
-0.102289
-0.0739141
-0.0486701
-0.0274427
-0.0109418
0.000747397
0.00721495
0.0085505
0.00496573
-0.00402277
-0.0191422
-0.0410493
-0.0697504
-0.104031
-0.141344
-0.177649
-0.206509
-0.219382
-0.210907
-0.18379
-0.147402
-0.111103
-0.0800825
-0.0558656
-0.0379683
-0.0252362
-0.0169447
-0.0135019
-0.0153594
-0.0194245
-0.0223716
-0.0248469
-0.0293346
-0.0376164
-0.0494277
-0.0677861
-0.0953008
-0.123507
-0.13508
-0.120996
-0.0902304
-0.0590125
-0.0346373
-0.0178158
-0.00627537
0.00199711
0.00437971
0.0031756
-0.00121992
-0.00571647
-0.0127192
-0.00681596
-0.305545
-0.287397
-0.268359
-0.246572
-0.221105
-0.193081
-0.163523
-0.133153
-0.102925
-0.0739758
-0.0473832
-0.0241207
-0.00509613
0.00902843
0.0175277
0.0202703
0.0174581
0.00857921
-0.00687583
-0.0292705
-0.0582608
-0.0923145
-0.128866
-0.164344
-0.193089
-0.20611
-0.199308
-0.17509
-0.14183
-0.107867
-0.0780097
-0.0539679
-0.0356483
-0.0221069
-0.0126198
-0.0073799
-0.00719154
-0.0100981
-0.0131269
-0.0168106
-0.0223436
-0.0319152
-0.0451099
-0.0651518
-0.0946397
-0.124477
-0.136988
-0.123266
-0.0917121
-0.0589462
-0.0332443
-0.0156109
-0.00335084
0.00555548
0.00845918
0.00719791
0.00172356
-0.00451777
-0.0137803
-0.00824727
-0.291302
-0.274373
-0.258644
-0.23988
-0.217205
-0.192101
-0.165276
-0.137114
-0.108418
-0.080231
-0.0535584
-0.029408
-0.00879596
0.00719635
0.0182549
0.0236945
0.022786
0.0153661
0.00107976
-0.02025
-0.0480857
-0.0807025
-0.115592
-0.149456
-0.17764
-0.190531
-0.185791
-0.165132
-0.135686
-0.104639
-0.0764003
-0.0528305
-0.0342583
-0.0200704
-0.00956997
-0.00278574
-0.000659073
-0.00233126
-0.00519877
-0.00972217
-0.0155635
-0.025926
-0.0400974
-0.0614684
-0.0925926
-0.123933
-0.137397
-0.124445
-0.0926567
-0.0588066
-0.0319499
-0.0135797
-0.000745495
0.00868422
0.0121528
0.0110012
0.00457388
-0.00338907
-0.0148965
-0.00972178
-0.27681
-0.262337
-0.249703
-0.233358
-0.213512
-0.191723
-0.168074
-0.142676
-0.116246
-0.0895418
-0.0634553
-0.0389139
-0.0170028
0.00116445
0.0142927
0.0209536
0.0225244
0.0175688
0.00563079
-0.0134552
-0.0391357
-0.0696143
-0.102271
-0.134004
-0.161623
-0.172908
-0.170539
-0.154072
-0.129105
-0.101489
-0.0752363
-0.0523883
-0.0336737
-0.0189467
-0.00763155
0.000480122
0.00450712
0.00418248
0.00153513
-0.00390566
-0.00916705
-0.0197399
-0.0341966
-0.0565084
-0.0894733
-0.122249
-0.136249
-0.124339
-0.0927811
-0.0583709
-0.030607
-0.0116016
0.00171314
0.0114828
0.0154321
0.0145752
0.00734208
-0.00231181
-0.0160579
-0.0112295
-0.263035
-0.25305
-0.242453
-0.227559
-0.210561
-0.192382
-0.172327
-0.150253
-0.126745
-0.102567
-0.078495
-0.0552419
-0.0335507
-0.0136455
0.00186842
0.0124214
0.0162857
0.0144029
0.005972
-0.00944265
-0.0312829
-0.0579601
-0.0869376
-0.115242
-0.136266
-0.151991
-0.151976
-0.13966
-0.119138
-0.0950491
-0.0711225
-0.049569
-0.0312974
-0.0165462
-0.00501864
0.00378109
0.00929349
0.0103542
0.00804058
0.000723395
-0.0032334
-0.0137978
-0.0281661
-0.0507864
-0.0848735
-0.118752
-0.133578
-0.122475
-0.0912234
-0.0566194
-0.0284524
-0.00924416
0.00438191
0.0143263
0.0185685
0.0179841
0.00999987
-0.0012882
-0.0172326
-0.0127685
-0.24322
-0.244551
-0.233197
-0.217407
-0.201174
-0.184405
-0.166091
-0.145948
-0.124382
-0.102023
-0.0795425
-0.057637
-0.0368886
-0.0180643
-0.00339664
0.00657133
0.0114856
0.0109927
0.0042062
-0.00933779
-0.029267
-0.0539527
-0.0809037
-0.107006
-0.127652
-0.139635
-0.138742
-0.126787
-0.107673
-0.0855198
-0.0635111
-0.0435487
-0.0263756
-0.0122249
-0.000958243
0.00786627
0.0139326
0.0161455
0.0151238
0.0152413
0.00478915
-0.00542364
-0.0193657
-0.0426876
-0.0795104
-0.116648
-0.133202
-0.121417
-0.0887884
-0.0536431
-0.0254368
-0.00654827
0.00712787
0.0172333
0.0219202
0.0215706
0.0127546
-0.00021324
-0.0183714
-0.01433
-0.222909
-0.227094
-0.217026
-0.201729
-0.186443
-0.171353
-0.155202
-0.13742
-0.118283
-0.0983883
-0.0783631
-0.0588091
-0.0402965
-0.0237628
-0.0104395
-0.000962795
0.00403264
0.00394716
-0.0018167
-0.0135871
-0.0309961
-0.0525474
-0.0759195
-0.0982117
-0.115119
-0.124098
-0.122413
-0.111552
-0.0947773
-0.0753597
-0.0558449
-0.037828
-0.021951
-0.00857313
0.00224144
0.0110221
0.0175588
0.0205832
0.0200893
0.0184429
0.0105211
0.00122881
-0.0119599
-0.0355589
-0.0744576
-0.11366
-0.13026
-0.117537
-0.0847418
-0.0500237
-0.0223098
-0.0038294
0.00974899
0.0197676
0.0247532
0.024543
0.0151221
0.000622838
-0.01946
-0.0157467
-0.204077
-0.208815
-0.200621
-0.186869
-0.172905
-0.15942
-0.145262
-0.129709
-0.112896
-0.0953692
-0.0777137
-0.0604637
-0.044156
-0.0295597
-0.0175522
-0.00887027
-0.00419612
-0.0040274
-0.00878518
-0.0186461
-0.0331862
-0.0510487
-0.0701716
-0.0882204
-0.101475
-0.108111
-0.106339
-0.0971675
-0.0829407
-0.0661547
-0.0488859
-0.0325798
-0.0178846
-0.00519585
0.00524968
0.0139048
0.0207003
0.0244081
0.0245032
0.0225729
0.0158948
0.00710437
-0.00588186
-0.0300937
-0.0700129
-0.109228
-0.125226
-0.112094
-0.0798368
-0.0459963
-0.0189881
-0.00102062
0.0123739
0.0222851
0.0275144
0.0273081
0.0172496
0.00123428
-0.0205259
-0.0170936
-0.186073
-0.191106
-0.184779
-0.172887
-0.160388
-0.148381
-0.136004
-0.122501
-0.107869
-0.092561
-0.0771073
-0.0619853
-0.0476804
-0.0348381
-0.0241639
-0.0163206
-0.0118811
-0.0112747
-0.0148187
-0.0225796
-0.0341278
-0.0483272
-0.0634784
-0.0773473
-0.0881071
-0.093171
-0.0915838
-0.0839214
-0.0718771
-0.0574051
-0.0421923
-0.027512
-0.0139951
-0.00202427
0.00803695
0.0164865
0.0234084
0.0277238
0.0286176
0.0269863
0.0214845
0.0132704
0.000217664
-0.0245625
-0.0645558
-0.103269
-0.11873
-0.105258
-0.0739189
-0.0414121
-0.0154321
0.00188202
0.0150039
0.0247852
0.03024
0.0300212
0.0193001
0.00177171
-0.0215141
-0.018363
-0.168931
-0.174329
-0.169558
-0.159417
-0.148417
-0.137848
-0.127109
-0.115485
-0.102871
-0.0896185
-0.0761999
-0.0630463
-0.0506015
-0.0393845
-0.0299496
-0.0228461
-0.018555
-0.0174502
-0.0197694
-0.0255184
-0.03432
-0.0452824
-0.0570262
-0.0678082
-0.0759863
-0.0797657
-0.0782909
-0.0718782
-0.061726
-0.0493085
-0.0359555
-0.0227645
-0.010366
0.000881311
0.0105581
0.0187715
0.0257109
0.030501
0.0322417
0.0313101
0.027209
0.0199251
0.00708728
-0.0177956
-0.0575279
-0.0957651
-0.11048
-0.096901
-0.0669931
-0.0363197
-0.0116862
0.00484498
0.0176177
0.0272507
0.032892
0.0326924
0.0213532
0.00232448
-0.0223735
-0.0195025
-0.153087
-0.158523
-0.154965
-0.146439
-0.136936
-0.127778
-0.118552
-0.10863
-0.0978552
-0.0864881
-0.0749504
-0.0635793
-0.0528159
-0.0430496
-0.0347244
-0.0282913
-0.0241528
-0.0226169
-0.0238606
-0.0278627
-0.0343013
-0.0424701
-0.0512572
-0.0593638
-0.0653951
-0.068052
-0.0666147
-0.0612046
-0.0526122
-0.0419281
-0.0302014
-0.0183569
-0.00700964
0.00350549
0.0127806
0.0207532
0.0276186
0.0327309
0.0352739
0.0353422
0.0328424
0.0268906
0.0147363
-0.00988894
-0.049158
-0.086564
-0.100322
-0.0870756
-0.0591482
-0.0307717
-0.00778926
0.00783509
0.0201876
0.0296573
0.0354467
0.035291
0.0234072
0.00291597
-0.0230141
-0.0204284
-0.138377
-0.143613
-0.141074
-0.13404
-0.125984
-0.11815
-0.110304
-0.10191
-0.092787
-0.0831161
-0.0732263
-0.0635163
-0.054254
-0.0457829
-0.0384636
-0.0326599
-0.0286981
-0.0268253
-0.0271732
-0.0297079
-0.0341638
-0.0399777
-0.0462475
-0.0521163
-0.0563684
-0.0580494
-0.0565571
-0.0518799
-0.0445198
-0.0352731
-0.0249583
-0.0143281
-0.00395604
0.00583144
0.0146744
0.0224085
0.0291472
0.0344439
0.0376807
0.0388895
0.0380588
0.0337776
0.0226825
-0.00142718
-0.0397011
-0.075707
-0.0883769
-0.0759451
-0.0505396
-0.0248651
-0.00379657
0.010812
0.0226817
0.0319777
0.0378784
0.0377781
0.0254387
0.00358504
-0.0233031
-0.0210411
-0.124565
-0.129639
-0.127979
-0.122264
-0.115513
-0.108913
-0.102323
-0.0952952
-0.0876439
-0.0794974
-0.0711324
-0.062852
-0.0549184
-0.0476035
-0.0411925
-0.0359732
-0.0322047
-0.0300829
-0.0297068
-0.0310402
-0.0338739
-0.0377779
-0.0421275
-0.046022
-0.0487824
-0.0496002
-0.0479671
-0.0438015
-0.0374054
-0.0293419
-0.0202394
-0.0106972
-0.00122404
0.0078543
0.0162298
0.0237106
0.0303001
0.0356642
0.0394967
0.0415388
0.0424388
0.0400468
0.030334
0.00712251
-0.0294933
-0.0634858
-0.0750071
-0.0638125
-0.0414034
-0.0187339
0.000227106
0.0137343
0.0250674
0.0341813
0.040154
0.0401154
0.0274445
0.0044204
-0.0230877
-0.0212312
-0.111767
-0.116659
-0.115702
-0.111119
-0.105535
-0.100047
-0.0945836
-0.0887678
-0.0824183
-0.0756192
-0.0685935
-0.0615895
-0.0548334
-0.0485443
-0.0429466
-0.0382654
-0.0347048
-0.0324187
-0.031483
-0.0318664
-0.033401
-0.0357567
-0.0384631
-0.0408723
-0.0424119
-0.0424802
-0.0406654
-0.0368517
-0.0312046
-0.0241091
-0.0160408
-0.00746999
0.00117353
0.00957208
0.0174539
0.0246445
0.0310642
0.0363814
0.0399812
0.0432647
0.0456244
0.0450964
0.0370345
0.0152392
-0.0190369
-0.0502939
-0.060616
-0.0511094
-0.0320439
-0.0125447
0.00420698
0.0165606
0.0273138
0.0362362
0.0422386
0.0422755
0.0294505
0.00554411
-0.0222115
-0.020888
-0.100023
-0.104625
-0.104208
-0.100596
-0.096043
-0.0915423
-0.0870741
-0.0823204
-0.0771088
-0.0714894
-0.0656386
-0.0597594
-0.0540398
-0.0486562
-0.043785
-0.0396012
-0.0362634
-0.033892
-0.0325457
-0.0322018
-0.0327245
-0.0338563
-0.0352659
-0.0364838
-0.0370392
-0.0364787
-0.0344754
-0.0309022
-0.0258373
-0.0195356
-0.0123487
-0.00464206
0.00323367
0.0109854
0.0183622
0.0252169
0.0314416
0.0367107
0.0406059
0.0441686
0.0474391
0.0483894
0.0419958
0.0222664
-0.00877266
-0.0365231
-0.0457632
-0.0383671
-0.0228102
-0.00648187
0.00806176
0.0192503
0.0293963
0.0381166
0.0441073
0.0442504
0.0314994
0.0070917
-0.0205293
-0.0199147
-0.0891753
-0.0934635
-0.0934784
-0.0906935
-0.0870355
-0.0833969
-0.079794
-0.07596
-0.0717329
-0.0671364
-0.0623071
-0.0574094
-0.0525968
-0.0480106
-0.0437884
-0.0400651
-0.0369629
-0.0345748
-0.0329463
-0.032059
-0.0318093
-0.0320216
-0.0324301
-0.0327032
-0.0324757
-0.0314045
-0.0292289
-0.0258256
-0.0212198
-0.0155737
-0.00914051
-0.00220077
0.00496426
0.0120993
0.0189722
0.0254515
0.0314359
0.0366148
0.0406534
0.0443208
0.0479346
0.0496861
0.0447371
0.0277857
0.00100022
-0.0227244
-0.0312042
-0.0261853
-0.0140592
-0.000726407
0.0117099
0.0217622
0.0312941
0.0398068
0.0457607
0.0460598
0.0336418
0.00919507
-0.0179352
-0.0182458
-0.0791505
-0.0831503
-0.0835033
-0.0814069
-0.0785104
-0.0756115
-0.0727503
-0.0697028
-0.0663176
-0.0625987
-0.0586495
-0.0546014
-0.0505782
-0.0466916
-0.043048
-0.0397503
-0.0368918
-0.0345435
-0.0327414
-0.0314727
-0.0306658
-0.030187
-0.0298455
-0.0293936
-0.0285617
-0.0270908
-0.0247751
-0.0215027
-0.017268
-0.0121696
-0.00638518
-0.000127003
0.00638168
0.012927
0.0193011
0.0253781
0.0310653
0.0360851
0.0401498
0.0437984
0.0473468
0.049265
0.0454846
0.0317394
0.00981139
-0.00985115
-0.0178548
-0.0151434
-0.00609822
0.00456855
0.0150783
0.0240546
0.0329846
0.0412921
0.0472263
0.0477607
0.035937
0.0119475
-0.014394
-0.0158694
-0.0699581
-0.0736567
-0.0742504
-0.072716
-0.0704597
-0.0681873
-0.0659534
-0.0635697
-0.0608964
-0.0579226
-0.0547246
-0.0514062
-0.0480654
-0.0447898
-0.0416607
-0.0387558
-0.0361454
-0.0338838
-0.031999
-0.0304824
-0.029286
-0.0283138
-0.0274253
-0.0264407
-0.025162
-0.0233958
-0.0209819
-0.0178237
-0.0138997
-0.00926656
-0.00404589
0.00160416
0.0075081
0.0134902
0.0193702
0.025027
0.0303683
0.0351597
0.0391492
0.0426772
0.045941
0.0476768
0.0448145
0.0341578
0.0169581
0.0010445
-0.00647417
-0.00563198
0.00087593
0.00929441
0.0181079
0.0260899
0.0344379
0.0425527
0.0485444
0.0494305
0.038436
0.0153431
-0.0099753
-0.0128561
-0.061538
-0.064919
-0.0656763
-0.064598
-0.0628751
-0.0611269
-0.0594162
-0.0575854
-0.0555068
-0.053159
-0.0505964
-0.0478993
-0.0451449
-0.0424005
-0.0397275
-0.037184
-0.0348227
-0.0326848
-0.0307917
-0.0291352
-0.027688
-0.0263818
-0.0251148
-0.0237581
-0.0221678
-0.0202007
-0.0177345
-0.0146888
-0.0110362
-0.00680661
-0.00208156
0.00302268
0.00836977
0.0138163
0.0192094
0.0244335
0.0293935
0.0339016
0.03773
0.0410526
0.0439355
0.0453725
0.0431845
0.0351019
0.0219919
0.00941061
0.00262096
0.00222926
0.00679125
0.0133908
0.0207518
0.0278387
0.0356137
0.0435287
0.0497048
0.051083
0.041088
0.0191987
-0.00487965
-0.00936998
-0.053805
-0.0568824
-0.0577485
-0.0570355
-0.05575
-0.0544335
-0.0531529
-0.0517764
-0.0501888
-0.0483611
-0.0463306
-0.0441585
-0.0419044
-0.0396195
-0.0373495
-0.035137
-0.033021
-0.0310336
-0.0291972
-0.0274811
-0.0258939
-0.0243829
-0.0228751
-0.021279
-0.0194908
-0.0174063
-0.0149338
-0.0120088
-0.00860358
-0.0047321
-0.000448558
0.00416273
0.0089963
0.0139361
0.0188537
0.02364
0.028199
0.0323822
0.0359796
0.0390366
0.0415173
0.0426558
0.0409515
0.0348803
0.0250972
0.015388
0.00955595
0.00851245
0.0116647
0.0168381
0.0229765
0.0292697
0.0364686
0.0441067
0.050611
0.0524683
0.0435659
0.0231287
0.000574186
-0.00564247
-0.0467193
-0.0495089
-0.0504358
-0.0500078
-0.0490752
-0.0481091
-0.0471768
-0.0461687
-0.0449811
-0.0435809
-0.0419919
-0.0402597
-0.0384298
-0.0365405
-0.034625
-0.0327134
-0.030833
-0.029005
-0.0272376
-0.0255609
-0.0239296
-0.0223186
-0.0206808
-0.0189527
-0.017061
-0.0149311
-0.0124956
-0.00970451
-0.00653331
-0.00298719
0.000897994
0.005061
0.00942021
0.0138825
0.0183406
0.0226931
0.0268462
0.0306747
0.0339921
0.0367562
0.0388673
0.0397664
0.0384419
0.0339337
0.0267632
0.0194316
0.0146528
0.013389
0.0155641
0.0196427
0.0247676
0.0303391
0.0369444
0.0441842
0.0507957
0.0529758
0.0452419
0.026597
0.00590568
-0.00202839
-0.0402429
-0.0427529
-0.0436995
-0.0434895
-0.0428383
-0.042153
-0.0414991
-0.0407854
-0.0399198
-0.0388672
-0.037641
-0.0362746
-0.0348023
-0.033252
-0.0316473
-0.0300093
-0.0283571
-0.0267072
-0.0250698
-0.0234498
-0.0218332
-0.0201999
-0.0185177
-0.0167427
-0.0148239
-0.0127087
-0.0103488
-0.00770694
-0.00476312
-0.00151862
0.00200248
0.00575514
0.00967622
0.0136903
0.0177085
0.0216395
0.025392
0.0288535
0.0318682
0.0343416
0.0361457
0.036885
0.0358942
0.0326075
0.0274343
0.0220192
0.0182835
0.0170609
0.0185837
0.0218251
0.0261192
0.0310157
0.0369746
0.0436594
0.0499311
0.0520976
0.0455259
0.0290151
0.0104437
0.000997482
-0.0343206
-0.0365653
-0.0375028
-0.0374569
-0.037027
-0.0365636
-0.0361289
-0.0356472
-0.0350373
-0.0342641
-0.0333334
-0.0322691
-0.0310962
-0.0298349
-0.0285015
-0.0271101
-0.0256735
-0.0242036
-0.0227083
-0.0211881
-0.0196365
-0.0180406
-0.0163793
-0.0146233
-0.0127376
-0.0106859
-0.00843439
-0.00595656
-0.00323736
-0.000276889
0.0029078
0.0062829
0.00979915
0.0133947
0.0169963
0.0205239
0.0238902
0.026991
0.0297033
0.0319073
0.0334729
0.0341263
0.0334437
0.0311116
0.0274479
0.0235413
0.0207461
0.0197113
0.0208239
0.0234219
0.027026
0.03128
0.0365238
0.0424457
0.0479102
0.0497261
0.0442147
0.029997
0.013623
0.00317098
-0.0289079
-0.0309058
-0.0318134
-0.031887
-0.0316283
-0.0313376
-0.0310726
-0.030771
-0.0303616
-0.0298104
-0.0291181
-0.0283011
-0.0273775
-0.0263614
-0.0252632
-0.0240922
-0.0228563
-0.0215633
-0.0202188
-0.0188233
-0.0173722
-0.0158572
-0.0142654
-0.0125779
-0.0107713
-0.00882103
-0.00670426
-0.00440308
-0.00190717
0.000782964
0.00365434
0.00668068
0.0098229
0.0130303
0.0162415
0.019388
0.0223904
0.0251552
0.0275765
0.0295412
0.0309296
0.0315541
0.0311528
0.0295664
0.0270431
0.0242807
0.0220914
0.0215007
0.0223843
0.0244828
0.0274981
0.0311262
0.0356001
0.0405959
0.0450065
0.0462353
0.0415473
0.0295389
0.0152857
0.00445771
-0.0239687
-0.025737
-0.0265987
-0.0267562
-0.0266278
-0.0264694
-0.0263337
-0.0261696
-0.0259152
-0.0255386
-0.0250367
-0.0244207
-0.0237032
-0.0228938
-0.0219987
-0.0210232
-0.0199718
-0.0188486
-0.0176577
-0.0164006
-0.015073
-0.013669
-0.0121808
-0.0105971
-0.00890287
-0.0070821
-0.00511983
-0.00300474
-0.000730618
0.00170079
0.00427884
0.00698228
0.00977945
0.012629
0.0154794
0.0182708
0.0209347
0.0233899
0.0255462
0.0273049
0.028564
0.0291956
0.0290448
0.0280419
0.0263767
0.0245142
0.0230475
0.0226449
0.0233674
0.0250651
0.0275614
0.0305841
0.0342724
0.0382603
0.0415747
0.0421545
0.0380522
0.0280029
0.0156874
0.00502803
-0.019466
-0.0210222
-0.0218276
-0.0220414
-0.0220105
-0.0219518
-0.021913
-0.021852
-0.0217157
-0.0214747
-0.0211237
-0.0206698
-0.0201217
-0.0194856
-0.0187647
-0.0179612
-0.0170772
-0.0161142
-0.0150749
-0.0139615
-0.0127701
-0.0114957
-0.0101335
-0.00867719
-0.00711789
-0.0054456
-0.00365104
-0.0017277
0.000327291
0.00251093
0.00481388
0.0072182
0.00969804
0.0122193
0.0147386
0.0172047
0.0195593
0.0217342
0.0236539
0.0252368
0.0263997
0.0270565
0.0271215
0.0265699
0.0255461
0.0243717
0.023475
0.0232483
0.0238586
0.0252269
0.0272586
0.02971
0.0326409
0.0356171
0.0379276
0.0379166
0.0342254
0.0258191
0.0152125
0.00510634
-0.0153661
-0.0167284
-0.0174718
-0.0177205
-0.0177611
-0.0177764
-0.0178086
-0.0178235
-0.0177758
-0.0176389
-0.0174064
-0.0170825
-0.0166728
-0.0161811
-0.0156086
-0.0149555
-0.0142221
-0.0134087
-0.0125154
-0.0115431
-0.0104918
-0.00935667
-0.00813347
-0.0068187
-0.00540775
-0.0038951
-0.00227539
-0.000545501
0.00129502
0.00324216
0.00528722
0.00741495
0.0096039
0.0118249
0.014042
0.0162132
0.0182898
0.0202148
0.0219249
0.0233559
0.0244441
0.0251312
0.0253712
0.0251619
0.0246139
0.0239473
0.0234611
0.0234008
0.0239336
0.0250277
0.0266429
0.0285644
0.0307941
0.0328846
0.0343072
0.0338006
0.0304044
0.0233292
0.0142043
0.00488332
-0.0116401
-0.012826
-0.0135048
-0.0137725
-0.0138643
-0.0139333
-0.0140164
-0.0140859
-0.0141035
-0.0140457
-0.0139055
-0.013685
-0.013388
-0.0130161
-0.0125693
-0.0120466
-0.0114468
-0.0107693
-0.0100127
-0.00917725
-0.00826442
-0.00727076
-0.00619187
-0.00502516
-0.00376869
-0.00242014
-0.000976964
0.000561745
0.00219472
0.0039174
0.0057216
0.00759396
0.00951637
0.0114645
0.0134089
0.0153146
0.0171415
0.0188434
0.0203684
0.0216675
0.0226933
0.0234043
0.0237775
0.0238209
0.0236175
0.0233147
0.0231195
0.0231902
0.0236643
0.0245254
0.0257707
0.0272123
0.0288086
0.0301618
0.0308574
0.0299574
0.0267872
0.0207725
0.0129173
0.00449781
-0.00826123
-0.00928807
-0.00990219
-0.0101771
-0.0103047
-0.0104119
-0.0105305
-0.0106382
-0.0107031
-0.0107045
-0.0106356
-0.0104971
-0.0102911
-0.0100182
-0.00967739
-0.00926681
-0.00878452
-0.00822912
-0.00759929
-0.00689426
-0.00611318
-0.00525632
-0.00432003
-0.00330172
-0.00220019
-0.00101489
0.00025471
0.00160796
0.00304265
0.00455384
0.006134
0.00777144
0.00945094
0.0111523
0.0128514
0.0145187
0.0161219
0.0176243
0.0189856
0.0201676
0.0211347
0.0218572
0.0223245
0.0225463
0.0225834
0.0225323
0.0225328
0.0226778
0.0231228
0.0237786
0.0246987
0.025718
0.026774
0.0275218
0.0276472
0.0264559
0.0234752
0.0183025
0.0115294
0.00404034
-0.00520577
-0.00609014
-0.00664154
-0.0069156
-0.0070673
-0.00720084
-0.00734328
-0.00747694
-0.00757518
-0.00762044
-0.00760624
-0.00753233
-0.00739969
-0.00720818
-0.00695619
-0.00664148
-0.0062617
-0.0058149
-0.00529946
-0.00471373
-0.00405723
-0.0033296
-0.00252975
-0.00165505
-0.000704249
0.000322738
0.00142539
0.00260194
0.00384956
0.00516332
0.00653648
0.00795887
0.00941775
0.0108962
0.0123744
0.0138282
0.0152322
0.0165574
0.0177718
0.0188453
0.0197526
0.0204717
0.020997
0.0213363
0.0215329
0.0216465
0.0217736
0.0219819
0.0223972
0.0228429
0.0234822
0.0241404