/*--------------------------------*- C++ -*----------------------------------*\
| =========                 |                                                 |
| \\      /  F ield         | OpenFOAM: The Open Source CFD Toolbox           |
|  \\    /   O peration     | Version:  2512                                  |
|   \\  /    A nd           | Website:  www.openfoam.com                      |
|    \\/     M anipulation  |                                                 |
\*---------------------------------------------------------------------------*/
FoamFile
{
    version     2.0;
    format      ascii;
    arch        "LSB;label=32;scalar=64";
    class       surfaceScalarField;
    location    "181.75";
    object      phi;
}
// * * * * * * * * * * * * * * * * * * * * * * * * * * * * * * * * * * * * * //

dimensions      [0 3 -1 0 0 0 0];

oriented        oriented;

internalField   nonuniform List<scalar> 
26232
(
-5.19271e-05
0.00103807
-0.000986139
8.96924e-05
0.00198687
-0.00212849
0.000666517
0.00199943
-0.00257626
0.00189527
0.00112692
-0.00235568
0.00398091
-0.000621096
-0.00146454
0.00711797
-0.00325505
0.000117992
0.0114873
-0.00678855
0.00241918
0.0172382
-0.0112226
0.00547171
0.0244721
-0.0165289
0.00929503
0.0332207
-0.0226388
0.0138902
0.0434288
-0.0294396
0.0192315
0.0549444
-0.0367772
0.0252615
0.0675199
-0.0444661
0.0318906
0.0808246
-0.0523044
0.0389996
0.094469
-0.0600902
0.0464459
0.108035
-0.0676382
0.0540719
0.121115
-0.0747944
0.0617148
0.133344
-0.0814483
0.0692194
0.144442
-0.0875376
0.0764391
0.154222
-0.0930652
0.0832856
0.162633
-0.0980342
0.0896226
0.169644
-0.102649
0.0956377
0.175218
-0.106537
0.100963
-0.110958
0.106916
0.17926
2.69638e-05
0.0010111
0.000399412
0.00161442
0.00137754
0.00102131
0.00320196
-0.000697497
0.00609837
-0.00351751
0.0102687
-0.00742534
0.0158727
-0.0123926
0.023003
-0.0183529
0.03166
-0.0251858
0.0417338
-0.0327127
0.0530002
-0.0407061
0.0651327
-0.0489096
0.0777302
-0.0570636
0.090357
-0.0649312
0.102588
-0.0723209
0.114052
-0.0791022
0.124471
-0.0852133
0.133682
-0.0906599
0.141651
-0.0955062
0.148444
-0.0998585
0.154246
-0.103836
0.159185
-0.107588
0.163724
-0.111076
-0.114929
0.167695
0.000127144
0.000883958
0.000792315
0.00094925
0.00226742
-0.000453802
0.00480599
-0.00323606
0.00863354
-0.00734506
0.013924
-0.0127159
0.0207682
-0.0192368
0.0291425
-0.0267272
0.03889
-0.0349333
0.0497221
-0.0435447
0.0612437
-0.0522277
0.0729987
-0.0606647
0.0845265
-0.0685913
0.0954179
-0.0758227
0.105363
-0.082266
0.11418
-0.0879194
0.121824
-0.0928572
0.128371
-0.097207
0.133985
-0.101121
0.138877
-0.10475
0.143252
-0.108211
0.14729
-0.111626
0.151143
-0.114929
-0.118567
0.154781
0.000242565
0.000641393
0.00124521
-5.33906e-05
0.00328422
-0.00249281
0.00660792
-0.00655977
0.0114099
-0.012147
0.0177892
-0.0190952
0.0257113
-0.0271589
0.0349849
-0.0360008
0.0452683
-0.0452167
0.0561093
-0.0543858
0.0670091
-0.0631274
0.077495
-0.0711506
0.0871858
-0.0782821
0.0958357
-0.0844726
0.10335
-0.0897808
0.109774
-0.0943433
0.115255
-0.0983373
0.119992
-0.101945
0.124197
-0.105325
0.128047
-0.1086
0.131684
-0.111848
0.135183
-0.115125
0.138653
-0.118399
-0.121948
0.142033
0.000370189
0.000271204
0.00174272
-0.00142592
0.00438542
-0.00513551
0.00851451
-0.0106889
0.014249
-0.0178815
0.0215597
-0.0264059
0.0302378
-0.035837
0.0399021
-0.0456651
0.050052
-0.0553666
0.0601505
-0.0644842
0.0697144
-0.0726913
0.0783864
-0.0798226
0.0859734
-0.0858692
0.092447
-0.0909461
0.0979107
-0.0952445
0.102549
-0.0989819
0.106574
-0.102362
0.11018
-0.105551
0.113521
-0.108666
0.116705
-0.111784
0.119801
-0.114944
0.122847
-0.118171
0.125894
-0.121445
-0.124921
0.128867
0.000509673
-0.00023847
0.00227452
-0.00319077
0.00553184
-0.00839283
0.010429
-0.015586
0.0169608
-0.0244132
0.024922
-0.0343672
0.0339091
-0.044824
0.0433803
-0.0551363
0.0527591
-0.0647454
0.0615432
-0.0732683
0.0693847
-0.0805328
0.0761235
-0.0865614
0.0817735
-0.0915191
0.0864743
-0.095647
0.0904298
-0.0992
0.0938519
-0.102404
0.0969229
-0.105433
0.0997793
-0.108407
0.102512
-0.111399
0.105179
-0.11445
0.107812
-0.117577
0.110429
-0.120788
0.113057
-0.124073
-0.127511
0.115646
0.000660228
-0.000898698
0.00282655
-0.0053571
0.00667379
-0.0122401
0.0122357
-0.021148
0.0193364
-0.0315138
0.0275716
-0.0426025
0.0363692
-0.0536216
0.0451084
-0.0638755
0.0532514
-0.0728884
0.0604372
-0.0804542
0.0665149
-0.0866104
0.0715182
-0.0915647
0.075606
-0.0956069
0.0789918
-0.0990328
0.081887
-0.102095
0.0844664
-0.104983
0.0868562
-0.107823
0.0891387
-0.11069
0.0913628
-0.113623
0.0935564
-0.116643
0.0957349
-0.119756
0.0979063
-0.12296
0.100084
-0.12625
-0.129656
0.102229
0.000818222
-0.00171692
0.00337554
-0.00791441
0.00774451
-0.016609
0.0138005
-0.027204
0.0211685
-0.0388818
0.0292628
-0.0506968
0.0374155
-0.0617743
0.0450336
-0.0714936
0.0517154
-0.0795702
0.0572908
-0.0860297
0.0617926
-0.0911122
0.0653855
-0.0951575
0.0682886
-0.0985101
0.0707153
-0.101459
0.0728382
-0.104218
0.0747798
-0.106925
0.0766183
-0.109661
0.0783988
-0.11247
0.0801466
-0.115371
0.0818753
-0.118372
0.0835929
-0.121473
0.0853045
-0.124671
0.0870168
-0.127963
-0.131348
0.0887085
0.000976404
-0.00269332
0.00388866
-0.0108267
0.00866518
-0.0213855
0.0149894
-0.0335282
0.0222906
-0.0461831
0.0298603
-0.0582665
0.0370322
-0.0689461
0.0433321
-0.0777936
0.0485402
-0.0847782
0.0526642
-0.0901537
0.0558624
-0.0943104
0.0583567
-0.0976519
0.0603651
-0.100518
0.0620639
-0.103158
0.0635771
-0.105731
0.0649825
-0.10833
0.0663247
-0.111004
0.0676278
-0.113773
0.0689049
-0.116648
0.0701634
-0.119631
0.0714081
-0.122718
0.0726425
-0.125906
0.0738695
-0.12919
-0.132557
0.0750781
0.00112469
-0.00381802
0.00432783
-0.0140298
0.00935779
-0.0264155
0.0156945
-0.0398649
0.022611
-0.0530996
0.0293594
-0.0650148
0.0353627
-0.0749495
0.0403148
-0.0827456
0.0441702
-0.0886336
0.0470649
-0.0930484
0.0492185
-0.0964641
0.050856
-0.0992894
0.0521621
-0.101825
0.0532674
-0.104263
0.0542535
-0.106717
0.0551669
-0.109244
0.0560323
-0.111869
0.0568625
-0.114604
0.0576651
-0.117451
0.0584447
-0.12041
0.0592046
-0.123478
0.0599475
-0.126649
0.060675
-0.129917
-0.133266
0.061384
0.00125226
-0.00507028
0.00465719
-0.0174347
0.00976055
-0.0315189
0.0158552
-0.0459596
0.0221237
-0.0593681
0.0278635
-0.0707546
0.0326427
-0.0797287
0.0363267
-0.0864297
0.0390058
-0.0913127
0.0408875
-0.09493
0.042203
-0.0977796
0.0431499
-0.100236
0.0438704
-0.102545
0.0444541
-0.104847
0.0449521
-0.107215
0.0453909
-0.109683
0.0457844
-0.112262
0.0461402
-0.114959
0.046463
-0.117774
0.0467564
-0.120704
0.0470228
-0.123744
0.0472639
-0.12689
0.0474792
-0.130132
-0.133456
0.0476697
0.00135199
-0.00642227
0.00485206
-0.0209348
0.00983963
-0.0365064
0.0154646
-0.0515846
0.0208972
-0.0648007
0.0255446
-0.0754019
0.0291384
-0.0833225
0.0316884
-0.0889797
0.0333712
-0.0929955
0.034419
-0.0959778
0.0350443
-0.0984049
0.0354059
-0.100598
0.0356063
-0.102745
0.0357043
-0.104945
0.0357303
-0.107241
0.0356997
-0.109652
0.0356205
-0.112183
0.0354977
-0.114837
0.0353351
-0.117611
0.0351357
-0.120504
0.0349019
-0.12351
0.0346349
-0.126623
0.0343334
-0.129831
0.0340012
-0.133124
-0.000276711
0.000331296
-5.45848e-05
-0.000943605
0.0014796
-0.00081271
-0.00191158
0.00296059
-0.00199262
-0.00312169
0.00461405
-0.00340394
-0.00453023
0.00632231
-0.00491378
-0.00610031
0.00802333
-0.00645325
-0.00779681
0.00970408
-0.00800758
-0.009584
0.0113857
-0.00959854
-0.0114249
0.0131063
-0.0112654
-0.0132812
0.0149052
-0.0130488
-0.0151131
0.0168115
-0.0149797
-0.0168779
0.018839
-0.0170742
-0.0185289
0.0209836
-0.0193326
-0.0200133
0.0232234
-0.021739
-0.0212714
0.0255196
-0.0242615
-0.0222355
0.0278161
-0.026852
-0.0228305
0.0300393
-0.0294443
-0.0229751
0.0320979
-0.0319533
-0.0225842
0.0338838
-0.0342747
-0.0215719
0.0352751
-0.0362874
-0.0198567
0.0361433
-0.0378585
-0.0173666
0.0363567
-0.0388468
-0.0140554
0.0357963
-0.0391074
0.0344328
-0.00994638
-0.0385418
-0.000202812
0.000534108
-0.000692896
0.00196969
-0.00140371
0.0036714
-0.00229044
0.00550078
-0.00331864
0.00735052
-0.00445601
0.00916071
-0.00566718
0.0109152
-0.00691141
0.01263
-0.00814259
0.0143375
-0.00931024
0.0160728
-0.0103605
0.0178618
-0.0112364
0.0197149
-0.0118775
0.0216246
-0.012219
0.0235649
-0.0121913
0.025492
-0.01172
0.0273447
-0.010727
0.0290464
-0.00913301
0.0305039
-0.00686
0.0316108
-0.00383426
0.0322493
1.35557e-05
0.0322955
0.00473966
0.0316306
0.0103841
0.0301519
0.0278341
0.0169828
-0.000122889
0.000656997
-0.000419305
0.0022661
-0.000843565
0.00409566
-0.00136266
0.00601988
-0.00194952
0.00793738
-0.00257579
0.00978697
-0.0032066
0.0115461
-0.00379806
0.0132214
-0.00429742
0.0148369
-0.00464446
0.0164198
-0.00477386
0.0179912
-0.00461658
0.0195576
-0.00410088
0.0211089
-0.0031529
0.0226169
-0.00169723
0.0240363
0.000341762
0.0253057
0.00303947
0.0263487
0.00646733
0.0270761
0.0106898
0.0273883
0.0157614
0.0271777
0.0217238
0.0263331
0.028608
0.0247464
0.0364244
0.0223355
0.0189609
0.0452975
-5.08232e-05
0.00070782
-0.000166807
0.00238209
-0.000315979
0.00424483
-0.000471571
0.00617547
-0.00061006
0.00807587
-0.000705245
0.00988216
-0.000723141
0.011564
-0.000619295
0.0131176
-0.000338088
0.0145557
0.00018521
0.0158965
0.00102266
0.0171537
0.00225033
0.01833
0.00394624
0.019413
0.00618854
0.0203746
0.00905399
0.0211708
0.0126163
0.0217434
0.0169435
0.0220215
0.0220956
0.0219239
0.0281223
0.0213615
0.0350603
0.0202398
0.0429298
0.0184636
0.0517528
0.0159235
0.0614774
0.0126108
0.00807765
0.0723607
2.2287e-06
0.000705591
2.66963e-05
0.00235762
0.000102853
0.00416868
0.000258701
0.00601962
0.000519379
0.00781519
0.000911831
0.00948971
0.00146965
0.0110061
0.0022364
0.0123508
0.00326649
0.0135256
0.00462441
0.0145386
0.00638201
0.0153961
0.0086158
0.0160962
0.0114038
0.016625
0.014823
0.0169554
0.0189468
0.017047
0.0238432
0.0168471
0.0295722
0.0162924
0.0361851
0.0153111
0.043722
0.0138246
0.0522141
0.0117477
0.0616757
0.00900195
0.0721555
0.00544371
0.0835026
0.00126369
-0.00466949
0.0962498
2.83333e-05
0.000677258
0.000135187
0.00225077
0.000358844
0.00394502
0.000736275
0.00564219
0.00129966
0.00725181
0.0020802
0.00870916
0.00311286
0.00997347
0.00443988
0.0110238
0.00611257
0.0118529
0.00819113
0.0124601
0.0107429
0.0128443
0.0138399
0.0129992
0.0175556
0.0129092
0.021963
0.0125481
0.0271317
0.0118783
0.0331268
0.0108521
0.0400072
0.00941194
0.0478279
0.00749039
0.0566359
0.00501662
0.066471
0.00191259
0.0773685
-0.00189551
0.0894355
-0.00662334
0.102498
-0.0117987
-0.0193333
0.117162
2.55908e-05
0.000651667
0.000150192
0.00212617
0.000432164
0.00366305
0.000923696
0.00515066
0.00166843
0.00650707
0.00270529
0.0076723
0.00407322
0.00860554
0.00581514
0.00928188
0.00798049
0.00968756
0.0106261
0.00981448
0.0138155
0.00965492
0.0176177
0.009197
0.0221054
0.00842157
0.0273531
0.00730032
0.0334368
0.00579467
0.0404321
0.00385673
0.0484115
0.00143253
0.0574552
-0.00155324
0.067634
-0.00516226
0.079027
-0.00948041
0.0916614
-0.0145299
0.105659
-0.0206212
0.12077
-0.0269098
-0.0361192
0.137556
-2.59106e-06
0.000654258
8.43871e-05
0.00203919
0.00034666
0.00340078
0.000856311
0.00464101
0.00167205
0.00569133
0.00284425
0.0065001
0.0044203
0.0070295
0.00644925
0.00725293
0.00898533
0.00715148
0.01209
0.00670984
0.0158328
0.00591214
0.0202913
0.00473846
0.0255507
0.00316221
0.0317016
0.00114938
0.038841
-0.00134475
0.0470671
-0.00436937
0.0564794
-0.00797979
0.067162
-0.0122358
0.0791903
-0.0171905
0.0926083
-0.0228985
0.107414
-0.0293358
0.12356
-0.0367669
0.14084
-0.0441897
-0.0544991
0.15922
-4.46161e-05
0.000698874
-2.6725e-05
0.0020213
0.000172846
0.0032012
0.00064922
0.00416464
0.00147992
0.00486063
0.00273235
0.00524766
0.00447019
0.00529166
0.00675901
0.00496411
0.00967059
0.0042399
0.0132857
0.00309468
0.0176955
0.0015024
0.0230005
-0.000566542
0.0293088
-0.00314613
0.036732
-0.00627376
0.0453765
-0.00998926
0.0553376
-0.0143305
0.0666876
-0.0193298
0.0794604
-0.0250086
0.0936406
-0.0313707
0.109141
-0.0383987
0.12582
-0.0460148
0.143343
-0.0542895
0.161601
-0.0624483
-0.0725893
0.179691
-8.52809e-05
0.000784155
-0.000130237
0.00206625
1.83376e-05
0.00305263
0.00048169
0.00370128
0.00136184
0.00398047
0.0027516
0.0038579
0.00474184
0.00330142
0.00742747
0.00227849
0.010911
0.000756357
0.0153035
-0.00129785
0.0207225
-0.00391657
0.0272864
-0.00713043
0.0351061
-0.0109659
0.0442741
-0.0154417
0.0548507
-0.0205658
0.0668508
-0.0263307
0.0802308
-0.0327098
0.0948779
-0.0396556
0.1106
-0.0470925
0.127128
-0.0549268
0.144123
-0.0630101
0.161086
-0.0712528
0.17785
-0.0792117
-0.0877858
0.193046
-0.000106615
0.00089077
-0.000168115
0.00212775
1.28148e-06
0.00288323
0.000550766
0.0031518
0.00161442
0.00291681
0.00331868
0.00215365
0.0057899
0.000830201
0.00915844
-0.00109005
0.0135574
-0.0036426
0.0191173
-0.00685779
0.0259568
-0.010756
0.0341691
-0.0153428
0.0438079
-0.0206047
0.0548722
-0.026506
0.0672935
-0.0329871
0.0809277
-0.0399649
0.0955517
-0.0473338
0.110868
-0.0549721
0.126512
-0.0627366
0.142091
-0.0705053
0.15717
-0.0780894
0.171391
-0.0854736
0.184466
-0.0922868
-0.0988472
0.195527
-9.53686e-05
-9.61053e-05
0.000210867
0.00100699
0.00245927
0.00473091
0.00798028
0.0123619
0.0180144
0.0250468
0.0335223
0.0434411
0.054727
0.0672207
0.0806795
0.0947865
0.109167
0.123415
0.137117
0.149897
0.161431
0.171595
0.180271
0.18834
-0.00332078
0.0430536
-0.0496792
0.00405394
0.0366245
-0.0439992
0.0121018
0.0271476
-0.0351954
0.0206571
0.014585
-0.0231403
0.0294442
-0.00102783
-0.0077593
0.0384424
-0.0194534
0.0104552
0.0474051
-0.0403729
0.0314102
0.0562078
-0.0628694
0.0540667
0.0646403
-0.0854726
0.0770402
0.0723701
-0.106241
0.0985116
0.0789005
-0.123232
0.116702
0.0836516
-0.135163
0.130412
0.0859776
-0.141906
0.139581
0.0852128
-0.144816
0.14558
0.0812894
-0.146509
0.150433
0.0757137
-0.148851
0.154427
0.0716045
-0.149782
0.153891
0.0721165
-0.142539
0.142027
0.0783699
-0.1196
0.113346
0.0891726
-0.0784015
0.0675988
0.102491
-0.0233194
0.0100012
0.116212
0.0366241
-0.0503449
0.128582
0.0909743
-0.103345
0.138128
0.132113
-0.141659
0.144255
0.158314
-0.164441
0.147436
0.171826
-0.175008
0.148218
0.177085
-0.177866
0.146182
0.181291
-0.179255
0.140868
0.191707
-0.186393
0.133739
0.205107
-0.197978
0.128219
0.203227
-0.197706
0.127232
0.165654
-0.164667
0.131261
0.0888321
-0.0928605
0.138568
-0.00663702
-0.000669888
0.146434
-0.0953876
0.0875212
0.152954
-0.157448
0.150928
0.157174
-0.192133
0.187912
0.158096
-0.205786
0.204864
0.154444
-0.216929
0.220581
0.146661
-0.229681
0.237465
0.13813
-0.230951
0.239482
0.133245
-0.198201
0.203087
0.134139
-0.114285
0.113391
0.14008
-0.0127904
0.00684958
0.147742
0.0947446
-0.102406
0.152955
0.161847
-0.167061
0.152402
0.22262
-0.222067
0.146645
0.259466
-0.253709
0.140214
0.270014
-0.263584
0.13801
0.234597
-0.232393
0.141304
0.107975
-0.111269
0.146723
0.014551
-0.0199698
0.148733
-0.132899
0.13089
0.146644
-0.199619
0.201707
0.143671
-0.27917
0.282144
0.142582
-0.310707
0.311796
0.14282
-0.168238
0.168
0.142715
-0.132959
0.133065
0.141001
0.149312
-0.147599
0.233142
-0.231265
0.0240966
0.0359397
0.0315612
0.0291599
0.0392418
0.0194669
0.0469946
0.00683225
0.0546241
-0.00865736
0.0620663
-0.0268956
0.0692309
-0.0475374
0.0760263
-0.0696649
0.0822574
-0.0917037
0.0875897
-0.111574
0.091602
-0.127245
0.0939173
-0.137479
0.09422
-0.142209
0.0920242
-0.14262
0.0867674
-0.141252
0.0789174
-0.141001
0.0710228
-0.141888
0.0669719
-0.138488
0.0695327
-0.12216
0.0786193
-0.0874881
0.0921405
-0.0368406
0.107399
0.0213656
0.121967
0.0764061
0.13391
0.12017
0.142375
0.14985
0.147623
0.166579
0.149985
0.174723
0.149129
0.182147
0.145019
0.195817
0.139317
0.210808
0.135004
0.207541
0.134318
0.166339
0.137586
0.0855646
0.143419
-0.0124701
0.149512
-0.101481
0.154194
-0.162129
0.156795
-0.194734
0.156631
-0.205622
0.152367
-0.212666
0.144129
-0.221443
0.135123
-0.221945
0.130093
-0.193171
0.131483
-0.115676
0.138508
-0.0198151
0.147272
0.0859805
0.153252
0.155867
0.153237
0.222635
0.147832
0.264871
0.141596
0.276251
0.139144
0.237049
0.142081
0.105038
0.147346
0.009286
0.149251
-0.134805
0.147005
-0.197372
0.143756
-0.275921
0.142606
-0.309557
0.14263
-0.168261
0.142309
-0.132639
0.14053
0.151091
0.235038
0.0522528
0.0289844
0.0593681
0.0220447
0.0663951
0.0124398
0.0732214
5.96247e-06
0.0796288
-0.0150648
0.0855717
-0.0328384
0.0910123
-0.0529781
0.0958467
-0.0744992
0.0998661
-0.0957231
0.10276
-0.114467
0.104194
-0.128679
0.103959
-0.137244
0.102079
-0.140329
0.0984938
-0.139035
0.0925891
-0.135348
0.0838444
-0.132257
0.0735753
-0.131619
0.0655041
-0.130417
0.0637828
-0.120439
0.0700389
-0.0937442
0.0827174
-0.0495191
0.0988488
0.00523418
0.115179
0.0600758
0.12935
0.105999
0.140165
0.139035
0.147556
0.159187
0.151638
0.170641
0.152228
0.181557
0.14965
0.198395
0.145562
0.214896
0.142407
0.210696
0.1418
0.166946
0.144011
0.083354
0.148168
-0.0166279
0.15239
-0.105703
0.155242
-0.164982
0.15627
-0.195761
0.155119
-0.204471
0.150448
-0.207995
0.141998
-0.212994
0.132646
-0.212593
0.127411
-0.187936
0.129133
-0.117398
0.137034
-0.0277166
0.146789
0.0762263
0.153555
0.149101
0.154198
0.221992
0.149273
0.269797
0.143281
0.282242
0.140543
0.239788
0.143014
0.102567
0.14808
0.00422057
0.149886
-0.136611
0.147467
-0.194953
0.143893
-0.272348
0.142678
-0.308342
0.14255
-0.168134
0.14206
-0.132148
0.140228
0.152923
0.236945
0.0790016
0.0223435
0.08562
0.0154262
0.0919071
0.00615277
0.0979408
-0.00602778
0.103273
-0.0203971
0.10795
-0.0375158
0.111875
-0.0569025
0.114869
-0.0774938
0.116691
-0.0975451
0.117085
-0.114861
0.115899
-0.127493
0.113171
-0.134516
0.109149
-0.136307
0.104146
-0.134032
0.0979256
-0.129127
0.0894813
-0.123812
0.0785973
-0.120735
0.0678031
-0.119623
0.0617866
-0.114422
0.0641441
-0.0961017
0.0747147
-0.0600897
0.0907467
-0.0107978
0.108256
0.0425668
0.124389
0.0898652
0.137494
0.12593
0.14707
0.149611
0.15301
0.164701
0.155292
0.179274
0.154508
0.19918
0.152165
0.217239
0.150099
0.212761
0.149403
0.167643
0.150369
0.0823878
0.15271
-0.018969
0.155026
-0.108018
0.156102
-0.166058
0.155615
-0.195274
0.153538
-0.202393
0.148613
-0.203071
0.140195
-0.204575
0.130671
-0.203069
0.125179
-0.182444
0.127032
-0.119251
0.135608
-0.0362928
0.146241
0.0655936
0.153827
0.141515
0.155261
0.220558
0.150954
0.274104
0.145276
0.287921
0.142228
0.242836
0.144118
0.100676
0.148901
-0.000562409
0.150619
-0.138328
0.148022
-0.192356
0.144076
-0.268402
0.142782
-0.307048
0.14257
-0.167923
0.141956
-0.131533
0.140088
0.15479
0.238851
0.102722
0.015871
0.108961
0.00918717
0.114804
0.000310167
0.120155
-0.011379
0.124702
-0.0249436
0.128365
-0.0411792
0.13094
-0.0594772
0.132154
-0.0787082
0.131756
-0.0971462
0.129621
-0.112727
0.12587
-0.123742
0.120843
-0.129489
0.114963
-0.130427
0.108675
-0.127743
0.102137
-0.122589
0.0945486
-0.116224
0.0846558
-0.110842
0.0730914
-0.108059
0.0637529
-0.105084
0.0616264
-0.0939752
0.0688315
-0.0672948
0.0833732
-0.0253395
0.101319
0.0246214
0.11898
0.0722042
0.134176
0.110734
0.145888
0.137899
0.153779
0.15681
0.15796
0.175094
0.159183
0.197957
0.1587
0.217721
0.157687
0.213774
0.156794
0.168536
0.15646
0.0827217
0.156925
-0.0194335
0.157347
-0.108441
0.156722
-0.165433
0.154804
-0.193357
0.151864
-0.199453
0.146809
-0.198015
0.138643
-0.196409
0.129138
-0.193564
0.12337
-0.176677
0.125149
-0.121029
0.134159
-0.0453026
0.145564
0.0541884
0.154014
0.133064
0.156381
0.218192
0.152842
0.277642
0.14756
0.293203
0.144186
0.24621
0.145385
0.0994767
0.149806
-0.0049835
0.151426
-0.139948
0.148659
-0.189589
0.144299
-0.264042
0.142905
-0.305654
0.142674
-0.167692
0.141983
-0.130841
0.140102
0.156671
0.240737
0.123471
0.00956154
0.129323
0.00333477
0.135183
-0.00554953
0.139861
-0.0160571
0.143665
-0.0287473
0.146322
-0.0438358
0.1475
-0.0606554
0.146872
-0.0780801
0.144246
-0.0945208
0.13969
-0.108171
0.13359
-0.117642
0.126563
-0.122462
0.119216
-0.12308
0.111989
-0.120516
0.10516
-0.11576
0.0983915
-0.109456
0.090308
-0.102758
0.0799121
-0.0976626
0.069139
-0.0943108
0.0629462
-0.0877824
0.0656597
-0.0700083
0.0773063
-0.0369861
0.0945814
0.00734621
0.113107
0.0536787
0.130024
0.093817
0.143718
0.124204
0.153583
0.146946
0.159797
0.168879
0.163171
0.194583
0.164633
0.21626
0.164734
0.213673
0.163671
0.169599
0.162043
0.0843493
0.160685
-0.0180756
0.159272
-0.107028
0.157045
-0.163206
0.153806
-0.190118
0.15006
-0.195708
0.144957
-0.192912
0.13723
-0.188682
0.127948
-0.184282
0.121925
-0.170654
0.123426
-0.12253
0.132626
-0.0545025
0.144683
0.042131
0.154044
0.123704
0.157485
0.21475
0.154872
0.280256
0.150084
0.297991
0.146391
0.249903
0.146808
0.0990594
0.150767
-0.00894227
0.15228
-0.141461
0.149365
-0.186675
0.144557
-0.259233
0.143033
-0.30413
0.142847
-0.167507
0.142125
-0.130119
0.14026
0.158536
0.242583
0.143182
0.00393557
0.14884
-0.00232256
0.153767
-0.0104767
0.157627
-0.0199172
0.160359
-0.0314797
0.161645
-0.045121
0.161091
-0.0601015
0.158406
-0.0753952
0.153537
-0.0896524
0.146768
-0.101401
0.138707
-0.109581
0.130135
-0.11389
0.121756
-0.114701
0.113994
-0.112755
0.107043
-0.108808
0.100849
-0.103263
0.0945376
-0.0964467
0.086494
-0.0896191
0.0765154
-0.0843321
0.0678888
-0.0791558
0.0658753
-0.0679947
0.0732322
-0.044343
0.0883818
-0.00780336
0.106812
0.0352484
0.124899
0.0757303
0.140311
0.108792
0.152093
0.135164
0.160395
0.160577
0.165996
0.188982
0.169454
0.212802
0.170708
0.212419
0.169613
0.170694
0.16691
0.0870524
0.163871
-0.0150369
0.160716
-0.103873
0.15701
-0.159499
0.152581
-0.185689
0.148089
-0.191216
0.142983
-0.187806
0.135835
-0.181534
0.126972
-0.175419
0.120755
-0.164438
0.121804
-0.123578
0.130936
-0.0636352
0.143517
0.0295503
0.153827
0.113394
0.158485
0.210092
0.156957
0.281783
0.152771
0.302176
0.148783
0.253892
0.14837
0.0994725
0.151756
-0.0123284
0.153149
-0.142854
0.150123
-0.183649
0.144844
-0.253955
0.143154
-0.30244
0.143073
-0.167425
0.142366
-0.129412
0.140551
0.160351
0.244358
0.16352
-0.000364304
0.16766
-0.00646342
0.170999
-0.0138157
0.173252
-0.0221696
0.174235
-0.0324635
0.173576
-0.0444615
0.170898
-0.0574233
0.166031
-0.0705284
0.159091
-0.0827124
0.150534
-0.0928448
0.141096
-0.100143
0.131587
-0.104381
0.12268
-0.105794
0.114761
-0.104836
0.107925
-0.101972
0.102146
-0.0974828
0.0970717
-0.0913728
0.0914583
-0.0840057
0.0838879
-0.0767617
0.0752258
-0.0704938
0.0697206
-0.0624895
0.0720712
-0.0466936
0.0832923
-0.0190245
0.10029
0.0182508
0.118722
0.0572977
0.135462
0.0920524
0.149033
0.121593
0.159409
0.150201
0.167242
0.181149
0.17271
0.207334
0.175187
0.209941
0.174218
0.171664
0.17072
0.0905503
0.166315
-0.0106317
0.161582
-0.0991407
0.156543
-0.15446
0.151078
-0.180225
0.145906
-0.186043
0.140811
-0.18271
0.134334
-0.175058
0.126062
-0.167147
0.119747
-0.158122
0.120219
-0.124051
0.129029
-0.0724452
0.141989
0.01659
0.15327
0.102113
0.15927
0.204092
0.158985
0.282069
0.15552
0.305641
0.151302
0.25811
0.150025
0.10075
0.152745
-0.0150487
0.153997
-0.144106
0.150909
-0.18056
0.145149
-0.248195
0.143257
-0.300548
0.143334
-0.167502
0.142687
-0.128765
0.140965
0.162074
0.246028
0.181879
-0.00255209
0.183808
-0.00839248
0.184871
-0.014879
0.184881
-0.0221793
0.183631
-0.0312137
0.180729
-0.0415587
0.175903
-0.0525979
0.16913
-0.0637552
0.160651
-0.0742331
0.150999
-0.0831933
0.140907
-0.0900514
0.131109
-0.094582
0.122169
-0.0968541
0.114403
-0.09707
0.107868
-0.0954368
0.102488
-0.0921024
0.0981464
-0.0870311
0.0942762
-0.0801354
0.0894919
-0.0719773
0.0828746
-0.0638765
0.0762954
-0.0559104
0.0743267
-0.0447249
0.0804637
-0.0251614
0.0942095
0.00450495
0.111667
0.0398406
0.129055
0.0746643
0.14416
0.106488
0.156555
0.137806
0.166662
0.171043
0.174205
0.199791
0.177951
0.206195
0.177263
0.172352
0.173283
0.0945312
0.167863
-0.00521249
0.161769
-0.0930468
0.155542
-0.148232
0.149207
-0.17389
0.143439
-0.180275
0.138348
-0.17762
0.132602
-0.169311
0.125067
-0.159612
0.118765
-0.15182
0.118595
-0.123881
0.126853
-0.0807039
0.140034
0.00340921
0.152273
0.0898747
0.159732
0.196633
0.160839
0.280961
0.158222
0.308259
0.153849
0.262482
0.151738
0.102861
0.153701
-0.0170112
0.154787
-0.145193
0.151696
-0.177469
0.145462
-0.241961
0.143331
-0.298418
0.143617
-0.167788
0.143072
-0.12822
0.141488
0.163657
0.247552
0.193472
-0.00297739
0.193289
-0.00821028
0.192074
-0.0136636
0.189944
-0.0200498
0.18667
-0.0279396
0.181902
-0.0367908
0.175511
-0.0462063
0.16757
-0.0558141
0.158369
-0.065032
0.148424
-0.0732485
0.138373
-0.0800006
0.128819
-0.0850281
0.120209
-0.0882437
0.112791
-0.089652
0.106632
-0.0892774
0.101668
-0.0871389
0.0978237
-0.0831868
0.0949546
-0.0772663
0.0923355
-0.0693583
0.088614
-0.0601549
0.0834726
-0.050769
0.0794804
-0.0407328
0.0808665
-0.0265475
0.0898721
-0.00450063
0.104547
0.0251658
0.121369
0.0578423
0.137438
0.0904192
0.151644
0.1236
0.163897
0.158789
0.173482
0.190207
0.178689
0.200987
0.178584
0.172457
0.174544
0.0985706
0.168483
0.000849404
0.161237
-0.0858013
0.153936
-0.140931
0.146893
-0.166847
0.140637
-0.174019
0.13553
-0.172513
0.130535
-0.164317
0.123868
-0.152945
0.117693
-0.145644
0.116847
-0.123035
0.124358
-0.0882151
0.1376
-0.0098324
0.150754
0.0767209
0.159741
0.187646
0.162367
0.278336
0.160732
0.309893
0.156336
0.266879
0.153456
0.105741
0.154592
-0.0181477
0.155486
-0.146086
0.152453
-0.174435
0.145778
-0.235287
0.143376
-0.296015
0.143913
-0.168325
0.143503
-0.12781
0.142113
0.165047
0.248885
0.195011
-0.00246068
0.193457
-0.00665685
0.190875
-0.0110812
0.187511
-0.0166856
0.18309
-0.0235184
0.177402
-0.0311038
0.170428
-0.0392323
0.162272
-0.0476573
0.15321
-0.0559709
0.143689
-0.0637274
0.134222
-0.0705333
0.125279
-0.0760856
0.117212
-0.0801763
0.110226
-0.0826662
0.104406
-0.0834576
0.0997523
-0.0824848
0.0962279
-0.0796624
0.0938323
-0.0748707
0.092398
-0.067924
0.0910787
-0.0588357
0.088666
-0.0483562
0.0854167
-0.0374834
0.084183
-0.0253139
0.0885154
-0.00883304
0.0988633
0.0148179
0.113403
0.043303
0.129298
0.0745242
0.144864
0.108033
0.159329
0.144324
0.171189
0.178347
0.177833
0.194342
0.17833
0.171961
0.174745
0.102156
0.168316
0.00727779
0.160241
-0.0777263
0.151957
-0.132647
0.144338
-0.159228
0.137694
-0.167376
0.132498
-0.167316
0.128176
-0.159995
0.122461
-0.14723
0.116508
-0.139691
0.114951
-0.121479
0.12152
-0.0947834
0.134635
-0.0229484
0.148619
0.062737
0.15924
0.177025
0.163511
0.274065
0.162948
0.310456
0.158663
0.271163
0.155157
0.109247
0.155408
-0.0183995
0.156085
-0.146763
0.153161
-0.171511
0.146101
-0.228227
0.143408
-0.293323
0.144223
-0.169139
0.143964
-0.127551
0.142828
0.166183
0.249979
0.187424
-0.00154485
0.1853
-0.00453206
0.182543
-0.00832488
0.179051
-0.0131929
0.174546
-0.0190143
0.169016
-0.0255736
0.162487
-0.0327029
0.15505
-0.0402209
0.146941
-0.047861
0.138505
-0.0552922
0.130136
-0.0621642
0.122194
-0.0681432
0.114956
-0.0729388
0.108605
-0.0763144
0.10323
-0.0780827
0.0988666
-0.0781216
0.0955201
-0.0763159
0.0932033
-0.072554
0.0919896
-0.0667103
0.0917036
-0.0585496
0.0914318
-0.0480844
0.0902336
-0.0362853
0.0888941
-0.0239745
0.0899315
-0.00987037
0.0959967
0.00875265
0.106771
0.0325283
0.120628
0.0606677
0.135952
0.092709
0.151611
0.128665
0.16535
0.164608
0.173802
0.185891
0.176039
0.169723
0.173792
0.104403
0.167842
0.0132281
0.158831
-0.0687159
0.149744
-0.123559
0.141762
-0.151245
0.134858
-0.160472
0.129475
-0.161933
0.125641
-0.156161
0.120884
-0.142473
0.115241
-0.134048
0.112958
-0.119196
0.118541
-0.100366
0.13125
-0.0356571
0.145848
0.0481391
0.157957
0.164915
0.163975
0.268047
0.164679
0.309753
0.160727
0.275115
0.156783
0.11319
0.156115
-0.0177313
0.156565
-0.147213
0.153799
-0.168744
0.146425
-0.220853
0.143434
-0.290332
0.14454
-0.170245
0.144453
-0.127464
0.143627
0.167009
0.250784
0.210139
-0.000843634
-0.210841
0.210112
-0.00450502
0.209979
-0.00819178
0.20947
-0.0126835
0.208428
-0.0179721
0.206736
-0.0238819
0.204306
-0.0302728
0.201059
-0.0369739
0.19697
-0.0437719
0.192086
-0.0504084
0.186511
-0.0565892
0.18038
-0.0620126
0.173842
-0.0664001
0.167045
-0.0695174
0.160131
-0.0711692
0.153232
-0.0712219
0.146462
-0.0695467
0.139909
-0.0660004
0.133684
-0.0604853
0.127947
-0.0528123
0.122502
-0.0426395
0.116566
-0.0303501
0.109737
-0.0171446
0.103327
-0.00346124
0.0991944
0.0128857
0.0989366
0.0327861
0.102439
0.0571655
0.108746
0.0864014
0.116986
0.120426
0.126551
0.155042
0.138439
0.174003
0.154364
0.153797
0.171219
0.0875481
0.181855
0.00259193
0.184821
-0.0716816
0.181229
-0.119967
0.174149
-0.144166
0.165568
-0.15189
0.157147
-0.153512
0.1498
-0.148814
0.141995
-0.134669
0.133085
-0.125137
0.126209
-0.112321
0.12487
-0.099027
0.128997
-0.0397843
0.13431
0.0428266
0.138423
0.160802
0.140969
0.265501
0.143804
0.306918
0.147507
0.271412
0.151235
0.109462
0.154849
-0.0213452
0.156305
-0.148669
0.15287
-0.165309
0.144953
-0.212936
0.138864
-0.284244
0.136492
-0.167873
0.133067
-0.124038
0.130644
0.169431
0.251318
0.219828
-0.000414276
-0.220257
0.219387
-0.00406461
0.219051
-0.00785584
0.218398
-0.0120303
0.217206
-0.0167803
0.215398
-0.0220735
0.212903
-0.0277778
0.209663
-0.033734
0.205654
-0.039763
0.200901
-0.0456551
0.195479
-0.0511671
0.189505
-0.0560391
0.183125
-0.0600195
0.176495
-0.0628874
0.169772
-0.0644464
0.163097
-0.0645471
0.156597
-0.0630468
0.150373
-0.0597765
0.144498
-0.0546104
0.139108
-0.0474216
0.134286
-0.0378183
0.129631
-0.025695
0.124368
-0.0118816
0.118347
0.00255976
0.113249
0.0179843
0.110815
0.0352199
0.112269
0.0557109
0.117627
0.0810437
0.126093
0.11196
0.137083
0.144053
0.151773
0.159313
0.170237
0.135334
0.187553
0.0702316
0.197622
-0.0074769
0.198834
-0.0728941
0.193672
-0.114804
0.185441
-0.135935
0.176134
-0.142584
0.167111
-0.144489
0.159455
-0.141157
0.151778
-0.126992
0.142898
-0.116258
0.135393
-0.104815
0.133325
-0.0969595
0.13712
-0.0435788
0.142779
0.0371668
0.147646
0.155936
0.151212
0.261934
0.155236
0.302893
0.159824
0.266825
0.163734
0.105552
0.166896
-0.0245071
0.167792
-0.149565
0.163887
-0.161404
0.154909
-0.203958
0.148048
-0.277382
0.145416
-0.165242
0.1417
-0.120322
0.139166
0.171965
0.251741
0.228925
-0.000265831
-0.229073
0.228543
-0.00368309
0.228032
-0.00734432
0.227231
-0.0112295
0.225961
-0.0155101
0.224114
-0.020227
0.221632
-0.0252961
0.218476
-0.0305777
0.214626
-0.0359133
0.210098