/*--------------------------------*- C++ -*----------------------------------*\
| =========                 |                                                 |
| \\      /  F ield         | OpenFOAM: The Open Source CFD Toolbox           |
|  \\    /   O peration     | Version:  2512                                  |
|   \\  /    A nd           | Website:  www.openfoam.com                      |
|    \\/     M anipulation  |                                                 |
\*---------------------------------------------------------------------------*/
FoamFile
{
    version     2.0;
    format      ascii;
    arch        "LSB;label=32;scalar=64";
    class       volVectorField;
    location    "96";
    object      U;
}
// * * * * * * * * * * * * * * * * * * * * * * * * * * * * * * * * * * * * * //

dimensions      [0 1 -1 0 0 0 0];

internalField   nonuniform List<vector> 
13248
(
(-0.0140148 0.0124954 8.24704e-20)
(-0.0261617 0.0264629 0)
(-0.0224731 0.0340523 -1.55607e-19)
(-0.00319607 0.0374629 1.4658e-19)
(0.0315027 0.0382591 1.36855e-19)
(0.0814253 0.0375721 0)
(0.146201 0.0362267 0)
(0.225108 0.0348258 3.28822e-19)
(0.316862 0.0337801 -9.89007e-22)
(0.419453 0.0333061 -2.88358e-19)
(0.53007 0.0334218 2.70154e-19)
(0.645175 0.0339514 -1.69046e-19)
(0.760707 0.0345554 0)
(0.872405 0.0347827 -2.98901e-19)
(0.976176 0.034142 5.60772e-19)
(1.06847 0.0321784 -1.33809e-19)
(1.14659 0.0285474 -2.43409e-19)
(1.20895 0.0230496 2.2852e-19)
(1.25514 0.0157326 0)
(1.28589 0.00651193 0)
(1.30307 -0.00349464 0)
(1.30842 -0.0170777 0)
(1.30537 -0.0251503 6.90824e-20)
(1.29376 -0.0534588 2.48065e-19)
(-0.0140576 0.0112487 -2.49002e-19)
(-0.0211785 0.0213295 1.69694e-19)
(-0.00810126 0.025224 -1.64933e-21)
(0.0241813 0.0256109 -2.24023e-19)
(0.0750487 0.0243926 -1.36706e-19)
(0.143803 0.0229342 -1.29412e-19)
(0.229281 0.0221605 -2.3719e-19)
(0.329545 0.0226403 2.24708e-19)
(0.441675 0.0246196 0)
(0.56174 0.0280301 5.49281e-22)
(0.684998 0.0325116 1.33974e-21)
(0.806295 0.0374704 1.69187e-19)
(0.92058 0.0421727 0)
(1.02342 0.0458613 0)
(1.11144 0.0478734 2.04528e-19)
(1.18263 0.0477371 -3.84506e-19)
(1.23643 0.0452302 2.32276e-19)
(1.27363 0.0403924 -2.18086e-19)
(1.29617 0.0334811 -9.62226e-20)
(1.30668 0.024932 -1.77409e-19)
(1.30799 0.0152487 -7.33889e-20)
(1.30287 0.00479962 -1.38415e-19)
(1.2932 -0.00429461 2.02501e-19)
(1.28139 -0.0176639 5.74885e-20)
(-0.0128716 0.0094615 0)
(-0.0120784 0.0155106 0)
(0.0138638 0.0164665 7.92669e-20)
(0.0629665 0.0151331 7.29213e-20)
(0.133766 0.0135667 -1.8527e-21)
(0.224483 0.0132403 -1.34228e-19)
(0.332399 0.0150265 0)
(0.45355 0.0192601 -1.11756e-19)
(0.582726 0.025784 1.05563e-19)
(0.713833 0.0340083 9.66607e-22)
(0.84053 0.0430212 -1.81147e-19)
(0.956979 0.0517518 -1.67293e-19)
(1.05853 0.0591553 2.15433e-21)
(1.1422 0.0643814 -1.4084e-19)
(1.20684 0.0668923 3.36423e-19)
(1.25305 0.0665102 0)
(1.28286 0.0633951 -2.21784e-19)
(1.29917 0.0579554 1.07949e-19)
(1.30524 0.0507751 9.61502e-20)
(1.30408 0.0423759 0)
(1.29828 0.0335968 7.92536e-20)
(1.28945 0.0240786 -2.70329e-19)
(1.27897 0.0168166 2.53775e-19)
(1.26753 0.0044199 1.58293e-19)
(-0.00995859 0.00706748 -8.81499e-20)
(0.00225962 0.00894914 -9.12035e-20)
(0.0447636 0.00784781 8.23905e-20)
(0.114279 0.00631591 0)
(0.20795 0.00631362 0)
(0.322138 0.00918877 -3.21829e-21)
(0.451718 0.0154792 0)
(0.590043 0.0249653 -3.43555e-19)
(0.729471 0.036796 3.19498e-19)
(0.862302 0.0496839 -3.94683e-19)
(0.981829 0.0621691 9.06786e-20)
(1.0832 0.0728981 0)
(1.16387 0.080852 1.52403e-19)
(1.22364 0.0854754 -2.82843e-19)
(1.26425 0.0866912 6.73957e-20)
(1.28879 0.0848183 1.74935e-19)
(1.30089 0.0804292 -6.80326e-21)
(1.30414 0.0742016 -1.94522e-19)
(1.30154 0.0667787 0)
(1.29534 0.0587272 0)
(1.287 0.0504858 -7.03931e-20)
(1.2774 0.0421905 6.32509e-20)
(1.2671 0.0352506 2.27856e-19)
(1.25644 0.0249159 -2.13941e-19)
(-0.00488139 0.00418919 -9.30232e-20)
(0.022792 0.00202777 -9.27511e-20)
(0.085593 2.1568e-05 2.60764e-19)
(0.178564 8.32415e-05 -1.58304e-19)
(0.296725 0.0037416 1.49e-19)
(0.4337 0.011855 2.70779e-19)
(0.58126 0.0242184 -1.91587e-19)
(0.729963 0.0396964 -2.33564e-19)
(0.870447 0.0565506 4.41532e-21)
(0.994877 0.0728519 2.98834e-19)
(1.09802 0.086887 0)
(1.17772 0.0974582 8.26843e-20)
(1.23462 0.104014 0)
(1.27153 0.106609 -1.36106e-19)
(1.29243 0.105746 1.91624e-19)
(1.30156 0.102165 2.04234e-21)
(1.30272 0.0966485 -5.06516e-20)
(1.29889 0.0898907 9.56733e-20)
(1.29215 0.0824412 8.24348e-20)
(1.2838 0.0746889 -7.41967e-20)
(1.27459 0.0669411 7.03777e-20)
(1.2649 0.0592548 -6.32361e-20)
(1.25498 0.0524791 0)
(1.24499 0.0433674 -4.7873e-20)
(0.00273134 0.0011012 9.30098e-20)
(0.0502358 -0.00447634 9.77477e-20)
(0.136844 -0.00582026 -8.74211e-20)
(0.255358 -0.00209447 1.63162e-19)
(0.397823 0.00734082 -1.53565e-19)
(0.554363 0.0223562 1.39078e-19)
(0.713489 0.0415549 -6.68233e-20)
(0.863752 0.062652 1.75313e-19)
(0.995718 0.0831145 -1.10355e-19)
(1.10341 0.100758 1.95876e-19)
(1.18475 0.114146 -4.52432e-19)
(1.24114 0.122715 1.66358e-19)
(1.2763 0.126666 -1.46409e-19)
(1.29505 0.126704 1.37527e-19)
(1.30222 0.123755 1.19604e-19)
(1.30188 0.118727 1.05658e-19)
(1.29706 0.11238 -2.93864e-19)
(1.28979 0.10528 1.82685e-19)
(1.28129 0.0978148 -8.24395e-20)
(1.27222 0.0902506 2.15703e-19)
(1.26291 0.0827585 -6.96351e-20)
(1.25351 0.0754469 -1.70251e-19)
(1.24408 0.0687159 1.57295e-19)
(1.23465 0.0605243 4.78593e-20)
(0.0131748 -0.00181018 0)
(0.0849754 -0.00950373 9.18177e-22)
(0.198311 -0.00815331 1.83295e-19)
(0.343059 0.00146887 -1.71825e-19)
(0.507489 0.0185209 -1.5524e-19)
(0.677941 0.0413354 2.88599e-19)
(0.840412 0.0670208 -1.34064e-19)
(0.983188 0.0922444 1.78785e-19)
(1.09888 0.114144 -3.80908e-21)
(1.18508 0.130897 -1.01427e-19)
(1.24359 0.14186 2.21867e-19)
(1.279 0.147367 -3.27739e-19)
(1.29698 0.148349 0)
(1.30301 0.145952 -6.47175e-20)
(1.30155 0.141251 -1.73606e-19)
(1.29582 0.135109 5.44986e-20)
(1.28792 0.128143 2.05657e-21)
(1.27903 0.120762 -1.2151e-19)
(1.2698 0.113225 7.07604e-21)
(1.2605 0.105702 1.40792e-19)
(1.25127 0.0983029 -6.32261e-20)
(1.24211 0.0911207 -2.41289e-20)
(1.23301 0.0842732 7.41742e-20)
(1.22397 0.0766924 0)
(0.0266338 -0.00408222 0)
(0.126946 -0.0118457 4.97005e-20)
(0.268924 -0.0053772 -2.39019e-19)
(0.438833 0.0122924 8.70861e-20)
(0.620733 0.0381741 -8.19594e-20)
(0.797734 0.068642 -7.49768e-20)
(0.955038 0.0993669 -1.32588e-19)
(1.08291 0.126485 6.61377e-20)
(1.17781 0.147511 5.75658e-20)
(1.24158 0.161561 0)
(1.27951 0.169048 1.31687e-19)
(1.29818 0.171151 -1.96366e-19)
(1.3039 0.169294 1.46262e-19)
(1.3017 0.164784 6.47529e-20)
(1.29517 0.158644 -5.33944e-20)
(1.28657 0.151584 -4.49964e-20)
(1.27714 0.144057 -4.2195e-20)
(1.26755 0.136341 1.2552e-19)
(1.25807 0.128603 0)
(1.2488 0.120952 6.36754e-20)
(1.23974 0.113468 5.39377e-20)
(1.23088 0.106217 -1.33518e-19)
(1.22214 0.0991905 -9.18944e-20)
(1.21349 0.092016 8.49007e-20)
(0.0431338 -0.00520254 -5.354e-20)
(0.175535 -0.0102699 -2.02643e-21)
(0.346694 0.00394156 4.86728e-20)
(0.538809 0.0314161 1.36239e-19)
(0.731999 0.0664371 3.96909e-20)
(0.90768 0.103349 -7.66437e-20)
(1.05257 0.136903 7.00065e-20)
(1.1609 0.163504 -6.14163e-20)
(1.23382 0.181716 1.10159e-19)
(1.27707 0.191906 4.70402e-20)
(1.29822 0.195506 -1.33488e-19)
(1.30462 0.194291 3.94349e-20)
(1.30215 0.189894 6.76038e-20)
(1.29494 0.183577 -3.32032e-20)
(1.28558 0.1762 0)
(1.27548 0.168298 5.00196e-20)
(1.26535 0.160183 8.50649e-20)
(1.25547 0.152036 1.48498e-20)
(1.24595 0.143964 -7.11718e-20)
(1.23679 0.136041 2.99542e-20)
(1.22794 0.128325 0)
(1.21934 0.120847 -2.37046e-20)
(1.21092 0.113566 -2.25053e-20)
(1.2026 0.106552 0)
(0.062484 -0.00464215 0)
(0.229522 -0.00364785 2.80497e-20)
(0.428801 0.0208704 5.20029e-20)
(0.638504 0.0592262 -1.38929e-19)
(0.836001 0.102698 4.48707e-20)
(1.00327 0.144025 0)
(1.13077 0.177914 6.75558e-20)
(1.21783 0.201858 -9.43251e-20)
(1.27012 0.215899 -5.50199e-20)
(1.29618 0.221666 2.48845e-20)
(1.30463 0.221369 -4.00158e-20)
(1.30255 0.217088 9.70649e-20)
(1.29491 0.21044 4.88537e-20)
(1.2848 0.202517 -3.38319e-20)
(1.27392 0.193986 -3.05251e-21)
(1.26311 0.185223 -9.37169e-20)
(1.25268 0.176433 4.27498e-20)
(1.24276 0.167732 -1.05948e-21)
(1.23333 0.15919 0)
(1.22435 0.15086 -2.99855e-20)
(1.21575 0.142778 0)
(1.20746 0.134947 6.8418e-20)
(1.19938 0.127369 -8.1629e-20)
(1.1914 0.120321 3.72714e-20)
(0.0842389 -0.0018962 -1.46168e-20)
(0.287094 0.00893142 -7.07996e-20)
(0.511828 0.0459803 8.05648e-20)
(0.733381 0.0954284 4.74282e-20)
(0.928389 0.145775 -2.26485e-20)
(1.08182 0.189049 3.80971e-20)
(1.18946 0.220918 -1.8498e-20)
(1.25586 0.240576 3.08293e-20)
(1.29028 0.249659 0)
(1.30286 0.250859 7.01078e-20)
(1.30222 0.246858 -2.79921e-21)
(1.29457 0.239787 -5.67534e-20)
(1.28382 0.231098 2.43986e-20)
(1.27212 0.221668 -2.76634e-20)
(1.2605 0.211982 -1.06448e-20)
(1.2494 0.202291 1.21692e-20)
(1.23893 0.192724 -9.48985e-21)
(1.22911 0.183355 -5.16457e-20)
(1.21987 0.17423 3.16798e-20)
(1.21115 0.165384 6.53952e-21)
(1.20285 0.156831 5.78271e-21)
(1.19489 0.148562 5.11539e-21)
(1.18716 0.140648 0)
(1.17952 0.133353 0)
(0.107768 0.00348228 1.46269e-20)
(0.346096 0.0280809 -1.46586e-20)
(0.592247 0.0792879 -2.68569e-20)
(0.819478 0.139132 0)
(1.00617 0.194159 -1.12493e-20)
(1.14234 0.236873 -1.01308e-20)
(1.22971 0.264778 -1.736e-20)
(1.27748 0.279073 0)
(1.29731 0.282866 0)
(1.29982 0.2796 0)
(1.29297 0.272144 0)
(1.28186 0.2625 0)
(1.26937 0.251885 -1.53704e-20)
(1.25691 0.240964 7.01037e-21)
(1.24504 0.230069 1.22333e-20)
(1.23394 0.219358 5.72115e-21)
(1.22362 0.208908 1.42532e-20)
(1.21403 0.198763 0)
(1.2051 0.188952 -3.45917e-21)
(1.19673 0.179493 -3.30225e-21)
(1.18883 0.170384 -5.79192e-21)
(1.18128 0.161619 -5.12355e-21)
(1.17398 0.15334 0)
(1.16678 0.145634 3.72603e-21)
(-0.00195211 0.0391262 9.10108e-21)
(-0.00693572 0.0973519 -9.40416e-21)
(-0.0147527 0.140252 -1.77575e-20)
(-0.0244697 0.170504 0)
(-0.0353729 0.190754 -2.36675e-20)
(-0.046938 0.203602 7.39803e-21)
(-0.0586915 0.211359 -1.41078e-20)
(-0.0702335 0.215848 0)
(-0.0812564 0.218326 0)
(-0.0915356 0.219503 0)
(-0.100909 0.219637 0)
(-0.109254 0.21865 0)
(-0.11647 0.216244 -8.14745e-23)
(-0.12246 0.211993 -9.61901e-21)
(-0.127124 0.205409 1.87907e-20)
(-0.130352 0.195986 2.68074e-20)
(-0.132023 0.183231 8.8549e-21)
(-0.13201 0.166692 0)
(-0.130181 0.145985 7.66179e-21)
(-0.126412 0.120841 -2.21803e-20)
(-0.120593 0.0911505 -1.42875e-20)
(-0.112649 0.0570082 -1.35842e-20)
(-0.102632 0.0187631 0)
(-0.0906808 -0.0228084 0)
(-0.00408009 0.0404575 -2.74691e-20)
(-0.0110688 0.101502 4.71478e-20)
(-0.0183909 0.14718 -1.79953e-20)
(-0.0261561 0.179888 -3.37473e-20)
(-0.034247 0.202073 4.75694e-20)
(-0.0424596 0.216238 -3.01026e-20)
(-0.0505202 0.224689 4.24153e-20)
(-0.0581336 0.229309 2.70504e-20)
(-0.065022 0.23145 0)
(-0.0709426 0.231924 -2.42888e-20)
(-0.0756905 0.231073 -5.81563e-22)
(-0.0790944 0.228884 2.1403e-20)
(-0.0810089 0.225095 3.14369e-20)
(-0.0813078 0.219299 4.03154e-20)
(-0.0798752 0.211006 -1.80263e-20)
(-0.076603 0.199706 -5.4176e-20)
(-0.0713912 0.184895 1.83376e-20)
(-0.0641486 0.166111 -6.76483e-20)
(-0.0547941 0.142961 0)
(-0.0432588 0.115162 1.49629e-20)
(-0.0294862 0.082596 1.42634e-20)
(-0.0133968 0.0453879 1.3561e-20)
(0.00507241 0.00406693 0)
(0.026411 -0.039888 0)
(-0.00615142 0.0399719 0)
(-0.0152368 0.101614 9.62291e-20)
(-0.022185 0.148862 -3.62353e-20)
(-0.0279887 0.18348 3.3993e-20)
(-0.0330545 0.207473 -9.66667e-20)
(-0.0374833 0.223063 0)
(-0.0412163 0.23241 -5.76296e-20)
(-0.0440923 0.237364 2.7181e-20)
(-0.0458948 0.239317 -5.18376e-20)
(-0.0463904 0.239167 2.49428e-20)
(-0.0453534 0.237356 1.41156e-19)
(-0.0425788 0.233958 -6.64045e-20)
(-0.0378849 0.228786 -1.07265e-19)
(-0.0311263 0.221485 -4.28849e-20)
(-0.0221825 0.211607 -1.78136e-21)
(-0.0109518 0.19867 1.50927e-19)
(0.00263592 0.182193 -7.17079e-20)
(0.018625 0.161734 -1.0578e-21)
(0.0370326 0.136911 0)
(0.0578486 0.107434 -6.55467e-20)
(0.0810189 0.0731465 0)
(0.106434 0.0340986 -5.93276e-20)
(0.134316 -0.00919495 2.25593e-19)
(0.166573 -0.0551966 7.56073e-22)
(-0.00793116 0.0378607 0)
(-0.0190082 0.0979036 4.57469e-22)
(-0.0257744 0.145319 3.68019e-20)
(-0.0298185 0.181022 -3.46825e-20)
(-0.0319318 0.206421 3.22357e-20)
(-0.0324677 0.223321 1.84078e-19)
(-0.0315744 0.233617 -5.77755e-20)
(-0.0292464 0.239026 -5.49351e-20)
(-0.0253661 0.240919 1.03906e-19)
(-0.0197504 0.240244 -1.48894e-19)
(-0.01219 0.237533 4.67202e-20)
(-0.00247699 0.232964 4.51359e-20)
(0.00957678 0.226448 0)
(0.0241282 0.217713 4.11296e-20)
(0.0412976 0.206387 0)
(0.0611712 0.192044 7.69406e-20)
(0.0837984 0.174253 -1.50005e-19)
(0.109194 0.152609 3.14352e-20)
(0.137333 0.126762 1.35831e-19)
(0.168163 0.0964201 6.54639e-20)
(0.201579 0.0614568 0)
(0.237533 0.0218667 -1.829e-19)
(0.275223 -0.0218876 5.70514e-20)
(0.320982 -0.0684639 0)
(-0.00926436 0.0345023 0)
(-0.0220686 0.0909969 -1.17672e-19)
(-0.0288906 0.137079 -3.69203e-20)
(-0.0315553 0.172775 -6.94711e-20)
(-0.0310522 0.198859 6.54095e-20)
(-0.0279054 0.21666 -6.14278e-20)
(-0.0224406 0.227728 1.1664e-19)
(-0.0148151 0.23357 5.56934e-20)
(-0.00504074 0.235465 -1.55961e-19)
(0.00697325 0.23436 9.98823e-20)
(0.0213771 0.230848 -1.42015e-19)
(0.0383447 0.225203 3.17049e-19)
(0.0580463 0.217441 -1.7138e-19)
(0.0806322 0.207393 8.28813e-20)
(0.106223 0.194774 2.41735e-19)
(0.134908 0.179234 -7.27572e-20)
(0.166741 0.160405 -7.00193e-20)
(0.201764 0.137913 -7.00299e-20)
(0.239936 0.111455 0)
(0.281265 0.0808333 -1.34887e-19)
(0.325552 0.0459065 -1.31926e-19)
(0.373397 0.00674356 1.81795e-19)
(0.420726 -0.0365578 2.33771e-19)
(0.483155 -0.0821119 -2.18941e-19)
(-0.0101112 0.0303951 0)
(-0.0242899 0.0818272 -1.58584e-19)
(-0.0314043 0.125109 1.31566e-22)
(-0.0331564 0.159513 1.39947e-19)
(-0.0305424 0.185261 0)
(-0.0241622 0.203232 0)
(-0.0144705 0.214611 0)
(-0.00177245 0.220647 -5.54679e-20)
(0.0137803 0.22247 -9.05214e-22)
(0.0321615 0.220972 9.83469e-20)
(0.0534337 0.216765 -1.4324e-19)
(0.0777135 0.210188 -1.21275e-21)
(0.105143 0.201346 0)
(0.13587 0.190166 -8.28366e-20)
(0.170032 0.176453 8.12528e-20)
(0.207775 0.159915 -2.27112e-19)
(0.249171 0.140256 2.96954e-19)
(0.294324 0.117204 7.65937e-20)
(0.343338 0.0904982 7.00943e-21)
(0.396243 0.0599812 -2.60789e-19)
(0.452195 0.025429 -1.25162e-19)
(0.513555 -0.0125073 4.22994e-19)
(0.570161 -0.0547427 -2.83247e-19)
(0.65075 -0.0977259 0)
(-0.0105573 0.0260828 7.79968e-20)
(-0.0257523 0.0715011 7.94818e-20)
(-0.0333324 0.110692 -7.48816e-20)
(-0.0345901 0.142459 -1.39966e-19)
(-0.0303716 0.166648 1.31778e-19)
(-0.0212673 0.183785 -1.23485e-19)
(-0.00780082 0.194733 1.74138e-19)
(0.00961428 0.200477 -5.54664e-20)
(0.0307083 0.201968 1.03201e-19)
(0.0553497 0.2 0)
(0.0835233 0.195157 9.41942e-20)
(0.115303 0.187802 -1.75422e-19)
(0.150827 0.178098 1.71839e-19)
(0.190282 0.166034 -1.61386e-19)
(0.233832 0.151482 0)
(0.281692 0.134272 1.50655e-19)
(0.334105 0.114179 2.9297e-19)
(0.391129 0.0909719 -2.76278e-19)
(0.452629 0.0644123 -1.3292e-19)
(0.518737 0.0345458 -1.33569e-19)
(0.587453 0.00098268 3.69985e-19)
(0.66298 -0.034433 1.1678e-19)
(0.728012 -0.0746202 -1.08478e-19)
(0.823889 -0.112497 1.00704e-19)
(-0.0107929 0.0220694 -7.80077e-20)
(-0.0267022 0.0611187 2.39862e-19)
(-0.0347728 0.0952353 -7.55858e-20)
(-0.0357292 0.123126 1.40206e-19)
(-0.030176 0.144502 -1.32003e-19)
(-0.0186314 0.159679 6.27741e-23)
(-0.00162334 0.169281 5.79169e-20)
(0.0203909 0.17407 2.17346e-19)
(0.0470864 0.174819 9.46873e-22)
(0.0782874 0.172201 -9.69685e-20)
(0.113959 0.16674 0)
(0.15419 0.158782 -8.84991e-20)
(0.199144 0.148508 1.6608e-19)
(0.249056 0.13597 1.62072e-19)
(0.304208 0.121123 -7.59983e-20)
(0.364741 0.103841 -1.53319e-21)
(0.430667 0.0839343 -7.18729e-20)
(0.50186 0.0612804 1.34798e-19)
(0.577677 0.0357774 1.32896e-19)
(0.657713 0.0078364 -1.27326e-19)
(0.738579 -0.0233239 1.16898e-19)
(0.824809 -0.0543203 -1.10141e-19)
(0.895144 -0.0909165 0)
(0.995719 -0.120542 -1.00676e-19)
(-0.0110573 0.0187343 7.84406e-20)
(-0.0274332 0.0515862 -8.02282e-20)
(-0.0357492 0.0800376 7.54767e-20)
(-0.0361604 0.1031 0)
(-0.0290105 0.120593 0)
(-0.0147071 0.132784 1.22844e-19)
(0.00628668 0.140169 -1.15645e-19)
(0.0335587 0.143354 1.07953e-19)
(0.0668235 0.142963 -5.09041e-19)
(0.105954 0.139553 -5.19298e-22)
(0.150962 0.133574 9.05114e-20)
(0.201974 0.125345 0)
(0.259182 0.115056 -1.66248e-19)
(0.322717 0.102778 3.15217e-19)
(0.392592 0.0884848 -2.25582e-19)
(0.468603 0.0721002 -3.65628e-19)
(0.550162 0.0535763 -5.76465e-21)
(0.636284 0.0329226 2.59141e-19)
(0.725348 0.010124 0)
(0.815771 -0.0141885 0)
(0.903439 -0.0409675 -1.169e-19)
(0.990728 -0.065979 1.10145e-19)
(1.05914 -0.0972729 -3.97028e-19)
(1.14685 -0.117082 3.71858e-19)
(-0.0115523 0.0162617 0)
(-0.028107 0.043456 0)
(-0.0359945 0.0660757 -2.26324e-19)
(-0.0349528 0.0837848 7.20927e-20)
(-0.0251067 0.0967219 1.10186e-21)
(-0.00672934 0.105257 1.24002e-19)
(0.0198479 0.109864 0)
(0.054345 0.111074 -1.07812e-19)
(0.0965894 0.109409 1.01541e-19)
(0.146531 0.105349 -1.90604e-19)
(0.204197 0.0992776 -7.33786e-22)
(0.269587 0.091466 1.71964e-19)
(0.342575 0.0820778 2.3038e-21)
(0.422794 0.0711794 1.58906e-19)
(0.509488 0.058783 -2.20248e-19)
(0.601446 0.0448603 0)
(0.696937 0.0293936 2.72276e-19)
(0.793732 0.0124077 -3.86426e-19)
(0.889147 -0.00602957 1.19498e-19)
(0.980399 -0.0254869 0)
(1.06378 -0.0464933 1.05137e-19)
(1.13888 -0.0657145 4.02132e-19)
(1.19491 -0.0907385 -3.7743e-19)
(1.25394 -0.102652 -4.18561e-19)
(-0.0123431 0.0146 2.37358e-19)
(-0.0285694 0.0368313 -3.25596e-19)
(-0.0347693 0.0538497 1.16813e-21)
(-0.0305303 0.0661895 7.20436e-20)
(-0.0158428 0.0744511 -1.33328e-19)
(0.00915481 0.079216 -1.23576e-19)
(0.0442871 0.0810346 2.30161e-19)
(0.0894101 0.0804314 -1.26521e-21)
(0.144414 0.0778929 -2.02485e-19)
(0.209144 0.0738316 3.80646e-19)
(0.283299 0.0685587 1.3111e-21)
(0.366298 0.0622874 -1.68967e-19)
(0.457136 0.0551253 0)
(0.554295 0.047084 0)
(0.655705 0.0381059 -7.34236e-20)
(0.758782 0.0280902 -1.36601e-19)
(0.860546 0.0169437 -2.63439e-19)
(0.957779 0.00456606 2.47283e-19)
(1.04734 -0.00895071 -1.19566e-19)
(1.12629 -0.0236888 2.17958e-19)
(1.19235 -0.0392192 -1.07445e-19)
(1.24447 -0.0548272 1.83852e-19)
(1.27961 -0.073756 -4.33962e-19)
(1.30663 -0.0827586 8.25206e-20)
(-0.0132813 0.0134753 7.98638e-20)
(-0.0282424 0.0313772 0)
(-0.0308162 0.0433364 1.53466e-19)
(-0.0207634 0.0507957 -1.44567e-19)
(0.0019361 0.0548641 1.33454e-19)
(0.037217 0.0563958 0)
(0.0849653 0.0560722 0)
(0.144983 0.0544575 -1.08191e-19)
(0.216883 0.0520121 6.50636e-22)
(0.299938 0.0490773 9.54146e-20)
(0.39292 0.0458715 -8.99507e-20)
(0.493998 0.0424751 1.68695e-19)
(0.600705 0.0388361 0)
(0.709998 0.0347895 3.03488e-19)
(0.818419 0.0300925 -5.71692e-19)
(0.922335 0.0244674 4.0591e-19)
(1.01822 0.0176664 2.53809e-19)
(1.10295 0.00946068 -2.38264e-19)
(1.17415 -0.000102614 0)
(1.23019 -0.0113992 0)
(1.27097 -0.0232059 0)
(1.2968 -0.0377126 0)
(1.30991 -0.0507646 8.32171e-20)
(1.31417 -0.0641465 -2.85767e-19)
(-0.0753997 -0.0733924 -8.1181e-21)
(-0.0603026 -0.140521 8.1806e-21)
(-0.0430685 -0.213 -2.52298e-22)
(-0.0245927 -0.287358 0)
(-0.00601574 -0.3602 -6.3364e-21)
(0.011222 -0.428097 1.18197e-20)
(0.0261064 -0.48777 -5.14739e-22)
(0.0375646 -0.536645 -4.84833e-21)
(0.0451446 -0.572602 0)
(0.0512484 -0.592826 0)
(0.0606452 -0.592743 -1.93796e-22)
(0.0796137 -0.565726 -1.78104e-22)
(0.113568 -0.505202 -3.19121e-21)
(0.164303 -0.408775 2.93462e-21)
(0.22856 -0.279614 0)
(0.300483 -0.125993 0)
(0.375158 0.0410195 2.90024e-21)
(0.449008 0.206616 -2.46351e-22)
(0.518028 0.350726 -2.36339e-21)
(0.577054 0.456044 -1.11612e-22)
(0.621511 0.517094 0)
(0.650209 0.539788 0)
(0.665578 0.53641 0)
(0.667108 0.525741 0)
(0.649546 0.527195 0)
(0.6142 0.538946 0)
(0.578494 0.525516 4.68666e-22)
(0.56745 0.440213 -7.67942e-22)
(0.59147 0.26996 0)
(0.641728 0.0503754 0)
(0.70173 -0.159601 -6.53458e-22)
(0.755771 -0.315962 6.3506e-22)
(0.794024 -0.40764 2.3356e-22)
(0.815287 -0.44288 0)
(0.825057 -0.445445 0)
(0.817237 -0.443949 2.37754e-22)
(0.784141 -0.459857 -2.31117e-22)
(0.732702 -0.459127 0)
(0.690427 -0.395115 3.00773e-22)
(0.68032 -0.239484 -4.40281e-22)
(0.701621 -0.040051 1.49201e-22)
(0.741324 0.142847 0)
(0.787279 0.271672 -2.1143e-22)
(0.821475 0.337508 2.0559e-22)
(0.828203 0.389856 0)
(0.796165 0.408121 0)
(0.749868 0.409709 -7.86062e-23)
(0.723312 0.298131 2.47723e-22)
(0.731277 0.141395 0)
(0.768953 -0.0405368 0)
(0.813668 -0.188405 -5.93807e-23)
(0.821791 -0.25598 -2.22605e-24)
(0.807051 -0.367536 -7.06568e-24)
(0.771197 -0.322788 3.18947e-23)
(0.769312 -0.309523 0)
(0.784565 -0.14236 0)
(0.803923 0.0420781 0)
(0.793275 0.120995 0)
(0.795767 0.372883 0)
(0.77885 0.237071 0)
(0.0502956 -0.0914049 -8.7487e-22)
(0.0691033 -0.159115 -3.5312e-20)
(0.08941 -0.232726 1.45212e-21)
(0.109846 -0.307462 3.17263e-20)
(0.128708 -0.379258 4.60664e-22)
(0.144411 -0.444384 0)
(0.155159 -0.499359 -2.07963e-20)
(0.158966 -0.542549 3.86694e-20)
(0.154375 -0.573344 -1.78562e-20)
(0.142089 -0.591401 1.32074e-20)
(0.126106 -0.594803 -1.26441e-20)
(0.113963 -0.577784 1.0517e-20)
(0.114783 -0.531862 -1.01843e-20)
(0.135178 -0.45005 -2.82003e-22)
(0.176285 -0.331523 -1.0405e-20)
(0.23343 -0.183535 1.01117e-20)
(0.300967 -0.0184614 -9.77702e-21)
(0.373745 0.148157 9.24175e-21)
(0.446469 0.297723 -7.60632e-21)
(0.513287 0.412985 1.34947e-20)
(0.568602 0.486546 -5.95085e-21)
(0.609927 0.521308 -2.61798e-22)
(0.637042 0.529 -3.84504e-21)
(0.646723 0.529856 7.52037e-21)
(0.63483 0.541821 -3.67715e-21)
(0.6075 0.557495 2.63247e-22)
(0.585446 0.537488 5.52322e-21)
(0.590788 0.438391 1.18236e-21)
(0.628074 0.254397 -1.27528e-20)
(0.685794 0.0260421 1.29739e-20)
(0.747024 -0.18606 -6.2875e-21)
(0.796944 -0.337552 6.41878e-22)
(0.827779 -0.421044 -2.34014e-22)
(0.839345 -0.449077 3.65649e-22)
(0.840221 -0.445123 0)
(0.826946 -0.435141 0)
(0.79157 -0.44273 -8.66136e-22)
(0.73591 -0.44024 6.3932e-22)
(0.686569 -0.384072 8.29735e-22)
(0.668382 -0.240957 2.50063e-22)
(0.685564 -0.0520663 -1.24791e-21)
(0.725882 0.12616 2.3591e-22)
(0.775709 0.256589 0)
(0.814196 0.330014 0)
(0.822554 0.393046 0)
(0.793641 0.419039 0)
(0.75015 0.420285 3.27433e-22)
(0.729106 0.301807 -1.71441e-22)
(0.738417 0.13582 0)
(0.776576 -0.0504854 0)
(0.821338 -0.195528 0)
(0.829151 -0.255032 -9.36644e-23)
(0.815459 -0.361713 2.06194e-23)
(0.776773 -0.318631 -7.16614e-23)
(0.77528 -0.310847 0)
(0.785881 -0.145752 0)
(0.802237 0.0408733 4.40194e-23)
(0.790124 0.122074 1.09417e-22)
(0.790828 0.374317 0)
(0.776494 0.23795 0)
(0.195697 -0.108051 5.0606e-22)
(0.218745 -0.175914 -7.69284e-20)
(0.240893 -0.249227 7.17985e-20)
(0.262648 -0.323039 -6.71342e-20)
(0.281493 -0.392908 -4.63694e-22)
(0.295634 -0.454755 0)
(0.303314 -0.504791 -4.40887e-20)
(0.302411 -0.540876 4.31296e-20)
(0.290898 -0.563291 2.57432e-22)
(0.267518 -0.574229 4.11919e-22)
(0.233477 -0.575677 3.34021e-22)
(0.194669 -0.565204 3.18833e-22)
(0.162038 -0.534772 -1.67615e-20)
(0.147003 -0.473192 1.65741e-20)
(0.157041 -0.373412 0)
(0.191681 -0.238274 4.31318e-22)
(0.245568 -0.079698 -1.5546e-20)
(0.312367 0.0849061 1.5367e-20)
(0.385135 0.23807 0)
(0.456673 0.36201 0)
(0.520711 0.447635 -8.97406e-21)
(0.573062 0.495327 1.66328e-20)
(0.610424 0.516069 -1.47547e-20)
(0.627674 0.529964 -1.81617e-22)
(0.622614 0.552116 1.52647e-20)
(0.605518 0.570409 -1.78368e-20)
(0.598431 0.543864 2.01387e-20)
(0.619811 0.433514 1.441e-21)
(0.669623 0.239488 -1.29987e-20)
(0.733862 0.00562078 0)
(0.79515 -0.206781 0)
(0.839938 -0.353287 3.39944e-21)
(0.862894 -0.429299 -4.58266e-21)
(0.864942 -0.451247 6.02908e-24)
(0.856969 -0.442438 2.05844e-21)
(0.838335 -0.425392 -2.00052e-21)
(0.80146 -0.425038 0)
(0.742838 -0.420544 2.03443e-22)
(0.687251 -0.372357 2.05425e-21)
(0.660836 -0.242652 -4.16854e-21)
(0.673467 -0.065465 1.90047e-21)
(0.713804 0.10729 1.7284e-22)
(0.766726 0.239513 -1.77471e-21)
(0.808845 0.321077 1.38234e-21)
(0.81879 0.395219 2.93983e-22)
(0.793478 0.429029 3.01283e-22)
(0.753437 0.43026 -3.2828e-22)
(0.738065 0.305769 0)
(0.748678 0.131228 0)
(0.786631 -0.0593868 -1.45998e-21)
(0.830827 -0.202204 6.61623e-22)
(0.838071 -0.253756 -4.74893e-22)
(0.825216 -0.35558 5.31707e-22)
(0.783325 -0.314348 5.01832e-22)
(0.782054 -0.31194 -1.30997e-22)
(0.788295 -0.148905 1.77018e-22)
(0.801897 0.0399904 -1.51863e-22)
(0.788132 0.12325 4.25786e-23)
(0.786765 0.375625 0)
(0.774987 0.238731 0)
(0.351392 -0.121531 -1.63544e-19)
(0.377837 -0.190335 4.35612e-21)
(0.40197 -0.263071 1.51451e-19)
(0.424497 -0.335014 -1.07329e-21)
(0.442618 -0.402331 0)
(0.454406 -0.460826 0)
(0.458489 -0.506163 -8.94133e-20)
(0.453287 -0.535548 1.23283e-20)
(0.437213 -0.548914 1.01297e-19)
(0.408649 -0.549345 -5.60454e-21)
(0.366387 -0.542079 -2.32565e-20)
(0.311888 -0.53024 -1.48332e-20)
(0.253198 -0.510044 1.4881e-20)
(0.20362 -0.469677 0)
(0.177245 -0.395792 -1.17909e-20)
(0.181147 -0.282902 1.07264e-20)
(0.213585 -0.138506 0)
(0.26848 0.0205414 0)
(0.336781 0.17383 9.57742e-21)
(0.409279 0.304436 -1.02476e-21)
(0.479056 0.401231 -7.78086e-21)
(0.539756 0.46233 -6.91541e-21)
(0.58521 0.497375 6.86598e-21)
(0.6094 0.524814 -7.39506e-21)
(0.612305 0.556239 -9.63124e-22)
(0.607127 0.576192 7.93934e-21)
(0.615677 0.544289 1.31266e-21)
(0.652412 0.426269 -1.44884e-23)
(0.713682 0.226358 0)
(0.78391 -0.0105352 1.4525e-20)
(0.845026 -0.221986 -1.49664e-20)
(0.884139 -0.363875 6.76782e-22)
(0.89897 -0.433198 0)
(0.891859 -0.449869 -3.76039e-22)
(0.875191 -0.437651 4.03547e-21)
(0.851086 -0.415216 -6.72576e-21)
(0.813241 -0.407376 -3.23463e-23)
(0.753128 -0.400083 -7.57253e-23)
(0.692586 -0.35939 2.41143e-21)
(0.658088 -0.243998 4.4139e-22)
(0.665601 -0.0796949 -3.22349e-21)
(0.705144 0.0866206 2.72093e-21)
(0.760235 0.220657 4.57496e-23)
(0.805331 0.310653 1.19417e-21)
(0.816865 0.396125 -1.45601e-21)
(0.795586 0.437797 -2.25424e-21)
(0.759564 0.439518 5.74928e-22)
(0.749968 0.310166 1.77274e-21)
(0.761898 0.127907 -3.45374e-21)
(0.799004 -0.0670348 2.46426e-21)
(0.842016 -0.208398 -4.82916e-22)
(0.84841 -0.252251 7.24879e-22)
(0.836203 -0.349123 4.72196e-22)
(0.790716 -0.309825 -7.27338e-22)
(0.789435 -0.31276 1.39371e-23)
(0.791661 -0.151874 -1.21293e-22)
(0.802839 0.0394035 0)
(0.787257 0.124551 -7.61323e-23)
(0.78357 0.376836 9.42912e-23)
(0.774355 0.239423 0)
(0.51254 -0.133823 1.65868e-19)
(0.540528 -0.20207 -3.21872e-19)
(0.566681 -0.272793 1.53754e-19)
(0.5896 -0.341348 1.36364e-19)
(0.605993 -0.404916 -2.55179e-19)
(0.614229 -0.459417 1.36295e-20)
(0.613244 -0.500325 1.03275e-19)
(0.601994 -0.524732 7.25689e-20)
(0.58004 -0.531999 -7.10421e-20)
(0.547189 -0.524091 0)
(0.502483 -0.506251 -3.38057e-20)
(0.444235 -0.485446 5.84078e-20)
(0.37405 -0.464988 -2.48944e-20)
(0.300636 -0.438453 0)
(0.240054 -0.390795 0)
(0.207651 -0.307834 2.99697e-22)
(0.210302 -0.187451 -1.56129e-20)
(0.244755 -0.0419226 1.51685e-20)
(0.302187 0.107074 0)
(0.371827 0.241723 1.24189e-20)
(0.443697 0.348315 -2.28883e-20)
(0.509338 0.422645 2.17647e-20)
(0.560513 0.472376 -2.26845e-20)
(0.591122 0.513099 -1.85875e-21)
(0.603043 0.552801 2.88676e-20)
(0.611011 0.57416 -1.57039e-20)
(0.635322 0.539074 -6.65422e-22)
(0.686344 0.417361 -1.34536e-20)
(0.758007 0.215361 -1.64017e-21)
(0.834076 -0.02199 1.50487e-20)
(0.895338 -0.231442 8.66205e-22)
(0.928671 -0.36893 -1.00303e-20)
(0.935253 -0.432536 1.71365e-20)
(0.919511 -0.444911 -7.94363e-21)
(0.894629 -0.430672 0)
(0.865071 -0.404694 -3.47072e-21)
(0.826601 -0.390299 3.30376e-21)
(0.766365 -0.379564 -2.13824e-21)
(0.702401 -0.345377 2.67314e-21)
(0.660349 -0.244589 -3.01041e-22)
(0.662142 -0.0943709 0)
(0.699841 0.0645261 -2.90655e-22)
(0.756056 0.200168 8.42069e-22)
(0.803493 0.298593 0)
(0.816651 0.395447 2.90439e-21)
(0.79977 0.445055 -1.07874e-21)
(0.768254 0.447956 7.34553e-22)
(0.764437 0.31504 9.38422e-22)
(0.777797 0.126061 0)
(0.813541 -0.073236 0)
(0.854766 -0.213994 -1.83366e-21)
(0.860009 -0.250502 2.51892e-21)
(0.848312 -0.342264 -1.19428e-21)
(0.798849 -0.304959 2.90741e-22)
(0.797236 -0.313295 4.03238e-22)
(0.795814 -0.154727 1.21407e-22)
(0.804974 0.0390792 -1.45094e-22)
(0.787447 0.12601 0)
(0.781233 0.377971 -1.50256e-22)
(0.77462 0.24003 -1.52809e-23)
(0.677223 -0.146811 1.64729e-19)
(0.704384 -0.211969 -1.6408e-19)
(0.731082 -0.278081 1.20014e-21)
(0.752826 -0.341298 -1.07484e-21)
(0.765673 -0.399699 1.00462e-21)
(0.768692 -0.449219 -8.82873e-22)
(0.761281 -0.485417 1.46314e-21)
(0.742774 -0.505677 0)
(0.713509 -0.509365 -9.69391e-22)
(0.67469 -0.497548 7.47359e-22)
(0.627275 -0.473481 5.53018e-22)
(0.570343 -0.443264 -4.29381e-22)
(0.501643 -0.414382 0)
(0.421727 -0.389065 0)
(0.340154 -0.358395 1.06511e-22)
(0.274444 -0.305287 0)
(0.240907 -0.216978 -6.77567e-23)
(0.245603 -0.0955853 0)
(0.283909 0.0424303 -7.5965e-21)
(0.344179 0.176477 1.46478e-20)
(0.413425 0.290265 -1.453e-20)
(0.480425 0.376769 7.24522e-21)
(0.535312 0.440733 9.44287e-21)
(0.572125 0.493961 -9.16999e-21)
(0.593989 0.541063 -1.4752e-20)
(0.615898 0.564208 1.44358e-20)
(0.655522 0.528462 0)
(0.71943 0.407256 7.85476e-22)
(0.80055 0.206667 0)
(0.882781 -0.0288022 0)
(0.944868 -0.235263 2.43097e-20)
(0.972721 -0.368585 -2.53104e-20)
(0.971125 -0.427625 1.06485e-21)
(0.947395 -0.436722 7.71035e-22)
(0.914994 -0.421611 -5.41079e-22)
(0.880045 -0.39389 -2.87053e-21)
(0.841083 -0.374151 2.78736e-21)
(0.78192 -0.359468 -2.3154e-21)
(0.716229 -0.330467 1.98179e-21)
(0.667501 -0.244009 5.4566e-22)
(0.663049 -0.108992 -2.21539e-21)
(0.697772 0.0414168 -9.44492e-23)
(0.753945 0.178152 1.47093e-21)
(0.803115 0.284716 0)
(0.817946 0.392861 -1.04659e-21)
(0.805733 0.450548 2.19741e-21)
(0.7791 0.45545 -2.72951e-21)
(0.781007 0.320371 -9.4442e-22)
(0.796019 0.12566 0)
(0.830033 -0.0778348 7.02141e-22)
(0.868912 -0.218863 -1.60698e-21)
(0.872676 -0.248524 8.85565e-24)
(0.861405 -0.334954 -3.46709e-22)
(0.80766 -0.299636 3.53632e-22)
(0.805298 -0.31351 -3.70179e-22)
(0.800574 -0.157541 0)
(0.808195 0.0389666 1.45161e-22)
(0.788645 0.127649 0)
(0.779746 0.37904 0)
(0.775803 0.240548 2.44323e-23)
(0.844273 -0.158255 -1.60808e-19)
(0.866637 -0.218214 1.59112e-19)
(0.890157 -0.277271 -1.1191e-21)