/*--------------------------------*- C++ -*----------------------------------*\
| =========                 |                                                 |
| \\      /  F ield         | OpenFOAM: The Open Source CFD Toolbox           |
|  \\    /   O peration     | Version:  2512                                  |
|   \\  /    A nd           | Website:  www.openfoam.com                      |
|    \\/     M anipulation  |                                                 |
\*---------------------------------------------------------------------------*/
FoamFile
{
    version     2.0;
    format      ascii;
    arch        "LSB;label=32;scalar=64";
    class       volScalarField;
    location    "63";
    object      p;
}
// * * * * * * * * * * * * * * * * * * * * * * * * * * * * * * * * * * * * * //

dimensions      [0 2 -2 0 0 0 0];

internalField   nonuniform List<scalar> 
13248
(
-0.29324
-0.292207
-0.290505
-0.288276
-0.28565
-0.28271
-0.2795
-0.276034
-0.272311
-0.268325
-0.264071
-0.259554
-0.25479
-0.249812
-0.244666
-0.239411
-0.234108
-0.228822
-0.223607
-0.218535
-0.213582
-0.208943
-0.204153
-0.200046
-0.300437
-0.298614
-0.296208
-0.293345
-0.290132
-0.28666
-0.282966
-0.279047
-0.274879
-0.27043
-0.265676
-0.260606
-0.255231
-0.249583
-0.243715
-0.23769
-0.231579
-0.225449
-0.219359
-0.213356
-0.207456
-0.201689
-0.195919
-0.190612
-0.308962
-0.306196
-0.302967
-0.299377
-0.295496
-0.291413
-0.287148
-0.282667
-0.277909
-0.272814
-0.267338
-0.261469
-0.255229
-0.248671
-0.241872
-0.234921
-0.227909
-0.220921
-0.214023
-0.207269
-0.200663
-0.194251
-0.187915
-0.181993
-0.318924
-0.315063
-0.310907
-0.306514
-0.30189
-0.297102
-0.292137
-0.286911
-0.281324
-0.275296
-0.268788
-0.261816
-0.25444
-0.246761
-0.238896
-0.230968
-0.223086
-0.21534
-0.207794
-0.200484
-0.19341
-0.186601
-0.179947
-0.173824
-0.330415
-0.32532
-0.320152
-0.314893
-0.309442
-0.303818
-0.297951
-0.291706
-0.28496
-0.277645
-0.269771
-0.261416
-0.252711
-0.243811
-0.234872
-0.226031
-0.217393
-0.20903
-0.200982
-0.193261
-0.18586
-0.178777
-0.171942
-0.165623
-0.343469
-0.337023
-0.330784
-0.3246
-0.318207
-0.311543
-0.304474
-0.296834
-0.288522
-0.279541
-0.269997
-0.26006
-0.249935
-0.239818
-0.229872
-0.220219
-0.210938
-0.202066
-0.193614
-0.185573
-0.177921
-0.17064
-0.163673
-0.157216
-0.358004
-0.350129
-0.342779
-0.335594
-0.32808
-0.320069
-0.311387
-0.301896
-0.291591
-0.28061
-0.269185
-0.257582
-0.246051
-0.234791
-0.223942
-0.213586
-0.203758
-0.194461
-0.185678
-0.17738
-0.169533
-0.162104
-0.155055
-0.148487
-0.373768
-0.364442
-0.355954
-0.347646
-0.338734
-0.328957
-0.318165
-0.306347
-0.293677
-0.280469
-0.26708
-0.253837
-0.240988
-0.228699
-0.217058
-0.206093
-0.195798
-0.186141
-0.177084
-0.16858
-0.160586
-0.153059
-0.14597
-0.139331
-0.390305
-0.379568
-0.369912
-0.360286
-0.349595
-0.337543
-0.324128
-0.309574
-0.294297
-0.278784
-0.263477
-0.248707
-0.234677
-0.221487
-0.209161
-0.197678
-0.186989
-0.177037
-0.167763
-0.159107
-0.151017
-0.143444
-0.136356
-0.129689
-0.406921
-0.394877
-0.383998
-0.372771
-0.359829
-0.344978
-0.328505
-0.310962
-0.293012
-0.275272
-0.2582
-0.242074
-0.227021
-0.213063
-0.200161
-0.188248
-0.177242
-0.167063
-0.157635
-0.148887
-0.140755
-0.133189
-0.126136
-0.119488
-0.422702
-0.409493
-0.397284
-0.384088
-0.368392
-0.350282
-0.33047
-0.309869
-0.289347
-0.26957
-0.250946
-0.233661
-0.217751
-0.203161
-0.189798
-0.177553
-0.16632
-0.155997
-0.146494
-0.137728
-0.129627
-0.122133
-0.115163
-0.108604
-0.436588
-0.422401
-0.408733
-0.393154
-0.374211
-0.352463
-0.329153
-0.305541
-0.282626
-0.261044
-0.241101
-0.222869
-0.206285
-0.191224
-0.177542
-0.165096
-0.153754
-0.1434
-0.133929
-0.125248
-0.117281
-0.109956
-0.103164
-0.0968372
-0.286472
-0.288495
-0.289727
-0.290498
-0.291102
-0.291613
-0.292059
-0.292451
-0.292785
-0.293048
-0.29322
-0.293275
-0.293189
-0.292937
-0.292492
-0.291829
-0.290928
-0.289777
-0.288373
-0.28673
-0.284874
-0.282847
-0.280758
-0.278843
-0.282063
-0.28409
-0.285284
-0.285965
-0.286419
-0.286711
-0.286866
-0.286891
-0.286785
-0.286534
-0.286121
-0.285526
-0.284729
-0.283715
-0.282473
-0.280998
-0.279295
-0.27738
-0.275285
-0.273064
-0.270785
-0.268516
-0.266408
-0.26497
-0.278598
-0.280541
-0.281645
-0.282208
-0.282495
-0.282563
-0.282428
-0.2821
-0.281575
-0.280842
-0.279885
-0.278691
-0.277249
-0.275552
-0.273604
-0.271416
-0.269014
-0.266437
-0.263745
-0.261019
-0.258363
-0.255863
-0.253642
-0.252428
-0.276072
-0.277868
-0.278844
-0.279265
-0.279371
-0.279208
-0.278788
-0.278119
-0.277198
-0.276015
-0.274561
-0.272826
-0.270807
-0.268509
-0.265946
-0.263147
-0.260153
-0.257023
-0.253833
-0.25069
-0.247723
-0.245045
-0.242674
-0.241451
-0.274443
-0.276056
-0.276875
-0.277135
-0.277045
-0.276643
-0.275939
-0.274939
-0.273641
-0.27204
-0.270131
-0.26791
-0.265382
-0.262561
-0.259474
-0.256161
-0.25268
-0.249107
-0.24552
-0.242058
-0.238849
-0.236018
-0.233603
-0.232306
-0.273659
-0.275076
-0.27572
-0.275797
-0.275494
-0.274843
-0.273851
-0.272525
-0.270867
-0.268876
-0.26655
-0.263895
-0.260922
-0.257655
-0.254131
-0.250402
-0.246539
-0.242629
-0.238775
-0.235101
-0.23175
-0.228862
-0.226489
-0.224719
-0.273689
-0.274906
-0.275358
-0.275232
-0.274695
-0.27378
-0.272495
-0.270849
-0.268848
-0.266495
-0.263796
-0.260762
-0.257414
-0.253782
-0.249916
-0.245878
-0.241749
-0.237629
-0.233628
-0.229873
-0.2265
-0.223602
-0.221514
-0.218896
-0.274535
-0.275545
-0.275784
-0.275428
-0.274636
-0.273442
-0.27186
-0.269903
-0.267581
-0.264903
-0.261881
-0.258533
-0.254888
-0.250986
-0.246885
-0.242656
-0.23839
-0.234191
-0.230176
-0.22646
-0.223206
-0.220264
-0.218747
-0.215218
-0.276238
-0.277015
-0.277009
-0.27639
-0.275316
-0.27383
-0.27195
-0.269696
-0.267081
-0.26412
-0.260834
-0.257243
-0.253383
-0.249303
-0.245066
-0.240751
-0.236453
-0.232277
-0.228339
-0.224722
-0.221676
-0.218663
-0.217714
-0.21382
-0.27887
-0.279359
-0.279057
-0.278133
-0.276747
-0.27495
-0.27277
-0.270232
-0.267352
-0.26415
-0.260643
-0.256863
-0.252846
-0.248645
-0.244324
-0.239965
-0.235661
-0.231512
-0.227633
-0.224076
-0.221156
-0.218183
-0.217376
-0.213888
-0.282522
-0.282635
-0.281961
-0.280672
-0.278927
-0.276788
-0.274292
-0.271464
-0.268324
-0.264889
-0.261177
-0.257216
-0.253043
-0.248707
-0.244271
-0.239809
-0.235407
-0.231155
-0.227153
-0.223469
-0.220338
-0.217427
-0.216224
-0.213573
-0.287288
-0.286903
-0.285752
-0.284025
-0.281858
-0.279327
-0.276477
-0.273333
-0.269909
-0.266216
-0.262266
-0.258078
-0.253681
-0.249118
-0.244443
-0.239719
-0.235017
-0.230413
-0.225973
-0.221788
-0.217918
-0.214505
-0.212055
-0.210054
-0.276924
-0.274733
-0.273061
-0.272204
-0.272523
-0.274392
-0.278111
-0.283763
-0.291176
-0.299802
-0.308581
-0.315917
-0.319815
-0.318263
-0.309074
-0.291738
-0.266626
-0.236082
-0.203938
-0.17426
-0.150272
-0.134141
-0.127491
-0.13141
-0.144794
-0.16253
-0.17605
-0.17739
-0.164516
-0.142127
-0.118095
-0.0989323
-0.087624
-0.0836635
-0.0866712
-0.0989038
-0.119545
-0.139467
-0.145968
-0.135154
-0.113193
-0.0911261
-0.075623
-0.0666091
-0.0643733
-0.0704883
-0.0807612
-0.0857587
-0.080762
-0.0703072
-0.0600674
-0.0510061
-0.0452227
-0.0432746
-0.0433683
-0.0418001
-0.0342481
-0.0246164
-0.0146455
-0.00250778
-0.264617
-0.26452
-0.265573
-0.268044
-0.272255
-0.278484
-0.286913
-0.297413
-0.309427
-0.322199
-0.334399
-0.344153
-0.349246
-0.347474
-0.336717
-0.316154
-0.286495
-0.250541
-0.21266
-0.177369
-0.148122
-0.12696
-0.115072
-0.113441
-0.121629
-0.135763
-0.14843
-0.151901
-0.14352
-0.126676
-0.10816
-0.0939927
-0.0868689
-0.0862929
-0.092639
-0.108638
-0.132752
-0.154462
-0.160028
-0.146191
-0.120467
-0.0944798
-0.0754675
-0.0636844
-0.0588068
-0.0620898
-0.0700833
-0.0745526
-0.071555
-0.0645319
-0.0576846
-0.0513784
-0.0481296
-0.0482537
-0.0491035
-0.0469158
-0.0378154
-0.0264257
-0.0153627
-0.00281442
-0.253806
-0.255444
-0.258804
-0.264003
-0.271344
-0.281026
-0.293072
-0.307233
-0.322775
-0.338636
-0.3533
-0.364738
-0.370704
-0.368691
-0.356638
-0.333581
-0.300361
-0.260083
-0.217491
-0.177459
-0.14371
-0.118183
-0.101685
-0.0948832
-0.0979304
-0.10821
-0.119621
-0.125121
-0.120847
-0.109469
-0.0965863
-0.0875691
-0.0846867
-0.0875564
-0.0973252
-0.117058
-0.144504
-0.167856
-0.172525
-0.155844
-0.126676
-0.0971773
-0.0749422
-0.0606098
-0.0533509
-0.0540375
-0.0598453
-0.063718
-0.0625302
-0.0587397
-0.0551356
-0.051619
-0.0510416
-0.0533301
-0.0548994
-0.0519653
-0.0413244
-0.0282148
-0.0160802
-0.00311144
-0.244535
-0.247558
-0.252462
-0.259643
-0.269261
-0.281396
-0.295944
-0.31253
-0.330374
-0.348276
-0.364556
-0.377153
-0.383611
-0.381516
-0.368649
-0.343971
-0.30836
-0.265081
-0.219109
-0.175614
-0.13838
-0.109256
-0.0888156
-0.0774111
-0.0753967
-0.0814868
-0.0909927
-0.0976521
-0.0972297
-0.0910575
-0.0836754
-0.0797058
-0.0808924
-0.0870822
-0.100168
-0.123474
-0.154158
-0.179198
-0.183191
-0.163952
-0.13171
-0.0991789
-0.0741048
-0.0574776
-0.0481214
-0.0465082
-0.0502874
-0.0534928
-0.0538627
-0.0530054
-0.0524392
-0.0517208
-0.0539266
-0.058457
-0.0607026
-0.0568909
-0.0447241
-0.0299647
-0.0167881
-0.00339485
-0.236657
-0.24081
-0.246641
-0.254986
-0.265954
-0.279505
-0.295444
-0.313324
-0.332375
-0.351326
-0.36837
-0.381578
-0.388315
-0.386186
-0.372962
-0.347554
-0.310808
-0.266047
-0.218355
-0.172893
-0.133347
-0.101462
-0.0777078
-0.0622506
-0.0554707
-0.0570313
-0.0639144
-0.0708384
-0.0735135
-0.0719825
-0.0696847
-0.0703656
-0.0752531
-0.0844884
-0.100677
-0.127369
-0.161193
-0.188026
-0.191702
-0.170383
-0.13554
-0.100497
-0.073031
-0.0543828
-0.0432035
-0.0395976
-0.0415677
-0.044066
-0.0456981
-0.0473888
-0.0496057
-0.0516662
-0.0567459
-0.063583
-0.0664557
-0.0617052
-0.047976
-0.0316511
-0.0174752
-0.00366139
-0.230455
-0.235488
-0.241554
-0.250206
-0.261687
-0.275758
-0.292097
-0.310273
-0.329557
-0.348745
-0.366089
-0.378725
-0.385531
-0.383376
-0.370207
-0.344889
-0.308268
-0.263624
-0.215893
-0.169988
-0.129366
-0.0956513
-0.0692643
-0.0503152
-0.039161
-0.0360744
-0.0395628
-0.0456967
-0.0504354
-0.0527159
-0.0548226
-0.0595054
-0.0676112
-0.0795682
-0.098588
-0.128424
-0.165213
-0.19393
-0.197781
-0.17504
-0.13816
-0.101149
-0.0717743
-0.0513929
-0.0386504
-0.0333403
-0.0337658
-0.0355544
-0.0381318
-0.0419276
-0.0466367
-0.05143
-0.0594551
-0.0686504
-0.0720976
-0.066435
-0.0510525
-0.0332479
-0.0181285
-0.00390821
-0.226081
-0.231804
-0.237458
-0.245629
-0.256876
-0.270685
-0.286582
-0.304188
-0.322831
-0.341427
-0.359251
-0.3704
-0.376493
-0.374223
-0.361429
-0.336952
-0.301631
-0.258569
-0.212328
-0.16736
-0.126793
-0.0921536
-0.0638701
-0.0420559
-0.0270522
-0.0194339
-0.0189271
-0.0231037
-0.0285473
-0.0336393
-0.0392358
-0.0471825
-0.0579663
-0.0722724
-0.0938097
-0.126482
-0.166022
-0.196658
-0.20125
-0.177851
-0.139574
-0.101151
-0.0703593
-0.0485489
-0.0344894
-0.0277205
-0.0268695
-0.0279915
-0.0311982
-0.0366433
-0.043532
-0.0509834
-0.0620074
-0.0735989
-0.0775692
-0.0708733
-0.0539196
-0.0347282
-0.0187337
-0.00413236
-0.223494
-0.229598
-0.23432
-0.241429
-0.251828
-0.264696
-0.279449
-0.295795
-0.313082
-0.330083
-0.343693
-0.35654
-0.362195
-0.359898
-0.347784
-0.324828
-0.291838
-0.25159
-0.208075
-0.165157
-0.125584
-0.0908168
-0.0613718
-0.0373991
-0.019217
-0.00748619
-0.00269781
-0.00386328
-0.00852401
-0.0150397
-0.023096
-0.0335417
-0.0464409
-0.0627062
-0.0864121
-0.121525
-0.163556
-0.196165
-0.202013
-0.178754
-0.139793
-0.10053
-0.0688019
-0.0458805
-0.0307385
-0.0227188
-0.0208092
-0.0213323
-0.0248774
-0.0315475
-0.0402921
-0.0502968
-0.064351
-0.0783623
-0.0828103
-0.0750311
-0.0565482
-0.0360685
-0.019278
-0.00433107
-0.222223
-0.227966
-0.231474
-0.237318
-0.246402
-0.257723
-0.270771
-0.285293
-0.300839
-0.317974
-0.328921
-0.33918
-0.343923
-0.341642
-0.330508
-0.309679
-0.279843
-0.243306
-0.203365
-0.163252
-0.125363
-0.0911157
-0.061172
-0.0357729
-0.0151929
-5.11339e-05
0.00885148
0.011405
0.00890705
0.00266663
-0.00670321
-0.0188282
-0.0332637
-0.0510693
-0.0766012
-0.113878
-0.158101
-0.192671
-0.200096
-0.177764
-0.13895
-0.0994583
-0.0672474
-0.0435136
-0.0274674
-0.018354
-0.0155323
-0.0155027
-0.0191044
-0.0266437
-0.0369087
-0.0493321
-0.0664402
-0.0828704
-0.0877506
-0.0788802
-0.0589243
-0.0372586
-0.0197562
-0.00450375
-0.221006
-0.22536
-0.227855
-0.232638
-0.240074
-0.249404
-0.260358
-0.272479
-0.284947
-0.296095
-0.309967
-0.318875
-0.323055
-0.321046
-0.311303
-0.293148
-0.267061
-0.234789
-0.198899
-0.162014
-0.126238
-0.0929768
-0.0630362
-0.0368003
-0.0145187
0.00328611
0.0157738
0.0222571
0.0229773
0.0187321
0.00934668
-0.00347941
-0.0188779
-0.0378573
-0.0648846
-0.103846
-0.149846
-0.186375
-0.195729
-0.175088
-0.137381
-0.0983165
-0.0659985
-0.041689
-0.0248147
-0.0146547
-0.0109881
-0.0104662
-0.0138113
-0.0219261
-0.0333778
-0.0480694
-0.0682045
-0.0870356
-0.0923055
-0.0823886
-0.061038
-0.0382969
-0.0201701
-0.00465315
-0.218191
-0.22079
-0.222916
-0.226783
-0.232447
-0.239827
-0.248824
-0.258905
-0.269551
-0.280025
-0.289663
-0.297235
-0.301115
-0.299732
-0.291873
-0.276909
-0.255055
-0.227466
-0.19597
-0.162604
-0.129207
-0.0972013
-0.0675531
-0.0408373
-0.0173525
0.00251399
0.0180201
0.0282937
0.0328556
0.0317138
0.0240405
0.011776
-0.00377815
-0.0233795
-0.0515819
-0.0923219
-0.140087
-0.177853
-0.189172
-0.170493
-0.134842
-0.0968751
-0.0647579
-0.0401596
-0.022614
-0.0114515
-0.00693035
-0.0060808
-0.00919705
-0.0174356
-0.0296313
-0.0464045
-0.0696315
-0.090823
-0.0963631
-0.0854653
-0.0628187
-0.0391406
-0.0204965
-0.00477454
-0.21295
-0.215027
-0.216831
-0.219286
-0.223067
-0.228463
-0.235235
-0.242936
-0.251377
-0.259787
-0.268087
-0.273809
-0.27685
-0.275911
-0.269826
-0.257936
-0.24016
-0.217101
-0.189952
-0.160251
-0.12959
-0.0993691
-0.0706645
-0.0442202
-0.0204928
0.000194558
0.0174324
0.0306308
0.038983
0.0411785
0.0362891
0.0255288
0.0105159
-0.00913022
-0.037672
-0.0790166
-0.12742
-0.166275
-0.178322
-0.162531
-0.129272
-0.0928688
-0.0615107
-0.0373182
-0.0197727
-0.0081277
-0.00289716
-0.00178798
-0.00502147
-0.0131235
-0.0258158
-0.0444088
-0.0705421
-0.0940367
-0.0998806
-0.0879607
-0.064093
-0.039654
-0.0206557
-0.00483928
-0.205322
-0.210037
-0.211539
-0.213034
-0.216028
-0.220652
-0.226489
-0.233174
-0.240383
-0.247454
-0.25368
-0.258242
-0.26023
-0.258472
-0.252024
-0.240348
-0.22342
-0.201801
-0.176541
-0.148964
-0.120439
-0.0921782
-0.065117
-0.0399142
-0.0170039
0.00332552
0.0207423
0.0348247
0.0449503
0.0502986
0.0484907
0.040007
0.0263201
0.00700035
-0.0224235
-0.066586
-0.11898
-0.160348
-0.174064
-0.155478
-0.12177
-0.0863042
-0.0561731
-0.0329558
-0.0159984
-0.00460855
0.000966122
0.00266073
9.08682e-05
-0.00762947
-0.0207887
-0.0413462
-0.0708402
-0.0971746
-0.103434
-0.0901443
-0.0648981
-0.0398146
-0.0206215
-0.00484059
-0.196331
-0.203246
-0.205091
-0.20581
-0.207934
-0.211784
-0.216778
-0.222358
-0.228026
-0.233287
-0.237755
-0.240643
-0.241062
-0.238158
-0.231228
-0.219878
-0.204127
-0.184436
-0.161633
-0.136758
-0.110901
-0.0850607
-0.0600454
-0.0364628
-0.0147561
0.00479486
0.0219711
0.0364539
0.0476496
0.0535907
0.0546364
0.0485588
0.0365837
0.0181151
-0.011573
-0.0572927
-0.111187
-0.152008
-0.162958
-0.144339
-0.112058
-0.07883
-0.0506661
-0.0288781
-0.0126816
-0.00146936
0.00439619
0.00636402
0.00406046
-0.00320491
-0.0165284
-0.0387456
-0.0711896
-0.0997882
-0.106012
-0.0913555
-0.0651373
-0.0396928
-0.0204582
-0.00484898
-0.186231
-0.194655
-0.197025
-0.19737
-0.198772
-0.20184
-0.205935
-0.210319
-0.214572
-0.218377
-0.221278
-0.222642
-0.221849
-0.21826
-0.211326
-0.200732
-0.186466
-0.168834
-0.148435
-0.126071
-0.102626
-0.0789536
-0.0557846
-0.0336952
-0.0131252
0.00562795
0.0223373
0.0367295
0.0483422
0.0556892
0.0579414
0.0533621
0.0424648
0.0243533
-0.00570766
-0.0515019
-0.103437
-0.140802
-0.149386
-0.131599
-0.101763
-0.0712497
-0.0451938
-0.0248064
-0.00939359
0.00154455
0.00766282
0.00998067
0.00810351
0.00104687
-0.0127772
-0.0368358
-0.0717985
-0.101864
-0.10779
-0.0918937
-0.0649609
-0.0393491
-0.0201938
-0.00485933
-0.175707
-0.184666
-0.187525
-0.187832
-0.188733
-0.191081
-0.194335
-0.197763
-0.200926
-0.203504
-0.205121
-0.205364
-0.203769
-0.199821
-0.193068
-0.183239
-0.170291
-0.154437
-0.136132
-0.116009
-0.0947905
-0.0731922
-0.0518513
-0.0312953
-0.0119458
0.00588859
0.0219457
0.0359463
0.0474893
0.055566
0.0587511
0.0554072
0.0454586
0.027799
-0.00192168
-0.0460121
-0.0941641
-0.127546
-0.134125
-0.117612
-0.0907307
-0.0632975
-0.039564
-0.0206857
-0.00615981
0.00441785
0.0107525
0.0135715
0.0123227
0.00554565
-0.00891506
-0.0349282
-0.0720669
-0.103263
-0.108811
-0.0917337
-0.0643148
-0.03876
-0.0198181
-0.00486301
-0.164579
-0.173725
-0.177048
-0.177503
-0.178107
-0.179878
-0.182445
-0.185111
-0.187387
-0.188978
-0.189646
-0.189092
-0.186942
-0.182782
-0.176252
-0.167127
-0.155365
-0.141117
-0.124724
-0.106674
-0.0875409
-0.0679145
-0.0483458
-0.029318
-0.0112362
0.00558651
0.0208604
0.0342615
0.0454141
0.0535844
0.0572866
0.0548834
0.0459358
0.029245
0.00103758
-0.0398454
-0.0832846
-0.112396
-0.117322
-0.102679
-0.0792908
-0.0552304
-0.0339474
-0.0166069
-0.00301581
0.00713945
0.0136345
0.0170635
0.0165935
0.0103365
-0.00463773
-0.0325296
-0.0716611
-0.103823
-0.108838
-0.0907033
-0.0631157
-0.0378976
-0.0193223
-0.00485296
-0.153074
-0.162318
-0.165998
-0.166644
-0.167091
-0.168436
-0.170446
-0.172482
-0.17406
-0.174928
-0.174911
-0.173782
-0.171251
-0.167002
-0.160754
-0.152324
-0.141668
-0.128887
-0.11423
-0.0980699
-0.0808597
-0.0630881
-0.0452287
-0.0277181
-0.0109413
0.00479003
0.0191712
0.0318387
0.0424096
0.0502832
0.0540995
0.0523264
0.0443546
0.0290211
0.003264
-0.0331869
-0.0709448
-0.0956501
-0.0996165
-0.0874524
-0.0678429
-0.0472308
-0.0284314
-0.0126308
6.9032e-06
0.0096899
0.0162706
0.020376
0.0208533
0.0153555
7.88073e-05
-0.0295602
-0.0704659
-0.10326
-0.107596
-0.0886539
-0.0613014
-0.0367425
-0.0187011
-0.00482172
-0.141708
-0.15076
-0.154623
-0.15545
-0.155833
-0.156875
-0.158442
-0.159981
-0.161045
-0.161398
-0.160897
-0.159378
-0.156629
-0.152411
-0.146505
-0.13876
-0.129128
-0.117677
-0.104589
-0.0901483
-0.0747142
-0.0586878
-0.0424729
-0.0264578
-0.0110041
0.00357832
0.0169828
0.0288308
0.0387109
0.0460886
0.049795
0.0484716
0.0414414
0.0276947
0.00506605
-0.0259991
-0.0575391
-0.0778622
-0.0819282
-0.0726186
-0.0567803
-0.0394973
-0.0231217
-0.00883221
0.00287093
0.0120453
0.0186323
0.023418
0.0249925
0.0204792
0.00511933
-0.0260814
-0.0683152
-0.101268
-0.10483
-0.0854713
-0.0588287
-0.0352828
-0.0179527
-0.0047616
-0.130568
-0.139196
-0.143121
-0.144111
-0.144487
-0.145318
-0.146556
-0.147725
-0.148418
-0.148414
-0.147595
-0.145846
-0.143017
-0.138927
-0.133403
-0.126323
-0.117641
-0.107401
-0.0957372
-0.0828675
-0.0690747
-0.0546859
-0.0400437
-0.0254904
-0.0113603
0.00204196
0.0144132
0.0253834
0.0345138
0.0413224
0.0448385
0.043908
0.0378616
0.0259414
0.00687651
-0.0185409
-0.0441621
-0.0610977
-0.0653391
-0.0588187
-0.0464491
-0.0322034
-0.0181028
-0.00527494
0.00553608
0.0141837
0.0206984
0.0260948
0.0288524
0.0255178
0.0103252
-0.0220816
-0.064994
-0.0975713
-0.100356
-0.081086
-0.0556848
-0.0335182
-0.0170794
-0.00466552
-0.119637
-0.127795
-0.131704
-0.132819
-0.133214
-0.133906
-0.134904
-0.135804
-0.136235
-0.135999
-0.134996
-0.133147
-0.130344
-0.126453
-0.12134
-0.114906
-0.107109
-0.097979
-0.0876145
-0.0761818
-0.0639039
-0.0510466
-0.0378995
-0.0247625
-0.0119399
0.000274963
0.011586
0.0216475
0.0300014
0.0362344
0.0395489
0.0390067
0.0340157
0.0240793
0.00857653
-0.0116545
-0.0320978
-0.0461827
-0.0506651
-0.0464997
-0.0370829
-0.0254792
-0.0134421
-0.00201096
0.00795324
0.0160819
0.0224562
0.0283193
0.0322429
0.0302337
0.0155327
-0.0175011
-0.0603306
-0.0919443
-0.0940397
-0.0754999
-0.0518991
-0.0314634
-0.016089
-0.0045279
-0.109104
-0.116737
-0.120541
-0.12173
-0.122152
-0.122752
-0.123578
-0.124285
-0.124541
-0.124172
-0.123088
-0.121236
-0.118541
-0.114903
-0.11022
-0.104412
-0.0974442
-0.0893349
-0.0801576
-0.0700401
-0.0591585
-0.0477287
-0.0359945
-0.0242168
-0.0126697
-0.001629
0.00861729
0.0177152
0.0253463
0.0310303
0.0341558
0.0339924
0.0300566
0.0220479
0.00973648
-0.00609495
-0.0221862
-0.0338074
-0.0382713
-0.0358521
-0.0287959
-0.0194092
-0.00919008
0.000924931
0.0100721
0.0177075
0.0238967
0.0300238
0.0349765
0.0343734
0.0205421
-0.0123364
-0.0542459
-0.0842642
-0.0858903
-0.0688133
-0.047551
-0.0291501
-0.0149943
-0.00434546
-0.0990909
-0.10611
-0.109732
-0.110957
-0.111406
-0.111947
-0.112651
-0.113226
-0.113386
-0.112946
-0.111856
-0.110075
-0.107547
-0.1042
-0.0999565
-0.0947541
-0.0885628
-0.0813941
-0.0733035
-0.0643899
-0.0547931
-0.0446887
-0.0342811
-0.0237953
-0.0134752
-0.00357515
0.00563634
0.0138422
0.0207244
0.0258864
0.0288361
0.029016
0.0260474
0.0197607
0.0101512
-0.00207368
-0.0145665
-0.0239882
-0.0281271
-0.0268668
-0.0216086
-0.0140356
-0.00538403
0.00351256
0.0118556
0.0190171
0.0250039
0.0311845
0.0368842
0.0376533
0.0250539
-0.00671223
-0.0467628
-0.0745725
-0.0761119
-0.0612431
-0.0427719
-0.0266279
-0.0138134
-0.00411783
-0.0895709
-0.0959607
-0.0993637
-0.100594
-0.101067
-0.101568
-0.102185
-0.102672
-0.102767
-0.10232
-0.101284
-0.0996279
-0.0973105
-0.0942793
-0.0904769
-0.0858552
-0.0803897
-0.0740878
-0.0669918
-0.0591793
-0.0507615
-0.0418817
-0.0327103
-0.0234408
-0.0142867
-0.00547695
0.0027423
0.0100885
0.0162677
0.0209453
0.0237324
0.0242089
0.0220893
0.0172934
0.00993046
0.000623252
-0.00893171
-0.0163977
-0.0200007
-0.0194249
-0.0154839
-0.00936752
-0.00205023
0.0057397
0.0132881
0.0199735
0.0257497
0.0318156
0.0378727
0.0397561
0.0286646
-0.000874983
-0.0379908
-0.0631443
-0.0651404
-0.0531234
-0.0377384
-0.0239617
-0.0125685
-0.00384785
-0.0805642
-0.0863508
-0.0895141
-0.0907213
-0.0912073
-0.09168
-0.0922337
-0.0926618
-0.0927339
-0.0923179
-0.0913695
-0.0898685
-0.0877864
-0.0850835
-0.0817159
-0.0776469
-0.0728575
-0.0673529
-0.0611661
-0.054358
-0.0470182
-0.0392632
-0.031235
-0.0230986
-0.0150391
-0.00725823
2.47942e-05
0.00655965
0.0120856
0.0163209
0.0189606
0.0196918
0.0183076
0.0147809
0.00926931
0.00231028
-0.00487065
-0.0106347
-0.0135953
-0.0133604
-0.0103539
-0.00538907
0.000798718
0.00759682
0.0143708
0.0205629
0.0260979
0.0319333
0.0379477
0.0404559
0.0310422
0.00484742
-0.0282773
-0.0506388
-0.0536586
-0.0448765
-0.0326529
-0.0212265
-0.0112847
-0.00354139
-0.0721304
-0.0773242
-0.0802269
-0.0813877
-0.0818783
-0.0823293
-0.0828376
-0.0832281
-0.0833009
-0.0829418
-0.0821037
-0.0807747
-0.0789366
-0.0765618
-0.0736154
-0.0700681
-0.0659056
-0.0611321
-0.0557736
-0.0498789
-0.0435198
-0.0367916
-0.029812
-0.02272
-0.0156747
-0.00885145
-0.00244125
0.0033391
0.00826478
0.0121005
0.0146077
0.0155549
0.0147962
0.0123353
0.00834127
0.00326275
-0.00201065
-0.00632285
-0.00861748
-0.00849686
-0.00613573
-0.0020686
0.00316687
0.00907929
0.0151142
0.0207919
0.0260272
0.0315404
0.0371784
0.039767
0.0320661
0.0099328
-0.0185038
-0.0382056
-0.0425308
-0.0369473
-0.0277115
-0.0184975
-0.00998732
-0.00320666
-0.064269
-0.0688866
-0.071522
-0.0726226
-0.0731116
-0.0735459
-0.0740208
-0.0743908
-0.0744821
-0.0741849
-0.073463
-0.0723145
-0.0707263
-0.0686726
-0.0661266
-0.0630665
-0.059481
-0.0553743
-0.0507671
-0.0456985
-0.0402267
-0.0344292
-0.0284031
-0.0222649
-0.0161486
-0.0102039
-0.00459775
0.000488519
0.00486723
0.00834344
0.0107285
0.011853
0.0116162
0.0100369
0.00727656
0.00369999
-4.97371e-05
-0.00314999
-0.00481102
-0.00466465
-0.0027381
0.000635414
0.00507274
0.0101938
0.0155324
0.0206767
0.0255404
0.0306393
0.0356336
0.037895
0.0317558
0.0137374
-0.00987515
-0.0270722
-0.0325102
-0.0296864
-0.0230673
-0.0158416
-0.00870044
-0.00285326
-0.0569562
-0.0610379
-0.0634135
-0.0644461
-0.064928
-0.0653479
-0.0657972
-0.066154
-0.066267
-0.066041
-0.0654439
-0.0644747
-0.0631258
-0.0613762
-0.0592046
-0.0565942
-0.0535362
-0.0500339
-0.0461042
-0.0417788
-0.0371044
-0.0321442
-0.0269781
-0.0217018
-0.0164279
-0.0112839
-0.00640782
-0.00194974
0.0019339
0.00508323
0.0073511
0.00861282
0.0088009
0.00793996
0.00616995
0.00378006
0.00124431
-0.000864021
-0.00195476
-0.00170774
-6.74778e-05
0.00277188
0.0065434
0.0109599
0.0156451
0.0202422
0.0246566
0.0292557
0.0334072
0.0351293
0.0302172
0.0158966
-0.00319483
-0.0179615
-0.0240039
-0.0232777
-0.0188143
-0.0133128
-0.00744652
-0.00249129
-0.0501886
-0.0537777
-0.0559043
-0.0568636
-0.0573334
-0.0577396
-0.0581679
-0.0585171
-0.0586572
-0.0585062
-0.0580313
-0.057227
-0.0561002
-0.0546349
-0.0528096
-0.0506098
-0.0480293
-0.0450709
-0.0417481
-0.0380866
-0.0341243
-0.0299121
-0.0255148
-0.0210113
-0.0164937
-0.0120676
-0.00784935
-0.00395808
-0.000522203
0.00233002
0.00448174
0.00584099
0.00636251
0.00607204
0.00508468
0.00362633
0.00204632
0.000734271
0.000133807
0.000515081
0.0019693
0.0043954
0.00761242
0.0114051
0.0154764
0.0195258
0.0234242
0.0272368
0.0306689
0.0318241
0.0278062
0.0165826
0.00145187
-0.0109593
-0.0170704
-0.0177705
-0.015
-0.0109527
-0.00624607
-0.00213058
-0.043957
-0.0470928
-0.0489831
-0.0498675
-0.050322
-0.0507152
-0.0511259
-0.0514703
-0.0516377
-0.0515557
-0.0511963
-0.0505527
-0.0496259
-0.0484153
-0.0469042
-0.0450757
-0.0429237
-0.0404509
-0.037668
-0.0345955
-0.0312641
-0.0277147
-0.0239993
-0.0201821
-0.0163384
-0.0125537
-0.00892104
-0.00553541
-0.00250297
7.47118e-05
0.00210694
0.00352514
0.00429783
0.00444778
0.00406493
0.00332177
0.00248895
0.00179846
0.00160703
0.00212772
0.00346129
0.00556398
0.00831791
0.011561
0.0150645
0.0185786
0.0219477
0.0251038
0.0277008
0.0283438
0.0249976
0.0162773
0.00445187
-0.00577679
-0.0115663
-0.0131359
-0.0116419
-0.00879205
-0.00511746
-0.00178014
-0.0382357
-0.0409605
-0.0426319
-0.0434429
-0.0438805
-0.0442611
-0.044656
-0.0449964
-0.0451882
-0.045169
-0.0449139
-0.0444172
-0.0436761
-0.0426924
-0.0414573
-0.0399585
-0.0381873
-0.0361447
-0.0338385
-0.0312849
-0.0285082
-0.025541
-0.0224252
-0.0192126
-0.0159641
-0.0127489
-0.00964073
-0.00670114
-0.00403008
-0.00170626
0.000200998
0.00164052
0.00258977
0.00306606
0.00313907
0.00293363
0.002628
0.00244714
0.00259139
0.00324115
0.00449291
0.00633777
0.00870212
0.0114653
0.0144512
0.0174515
0.020295
0.0228404
0.0247217
0.0249588
0.0221493
0.0154062
0.00625554
-0.0020432
-0.00728266
-0.00930749
-0.00873793
-0.00685158
-0.00407625
-0.00144784
-0.0329997
-0.035357
-0.0368288
-0.0375698
-0.0379893
-0.0383575
-0.0387378
-0.039074
-0.0392867
-0.0393228
-0.0391603
-0.0387951
-0.0382248
-0.0374418
-0.0364441
-0.0352321
-0.0337943
-0.0321287
-0.0302398
-0.0281394
-0.0258465
-0.0233869
-0.020794
-0.0181084
-0.0153796
-0.012668
-0.0100531
-0.00748318
-0.00513408
-0.00304722
-0.00127218
0.000153602
0.00121381
0.00192022
0.00232478
0.00251954
0.00262007
0.00279815
0.00319757
0.00395141
0.00514188
0.00677694
0.00881186
0.0111576
0.0136773
0.0161973
0.0185478
0.0205523
0.0218704
0.0218207
0.0194629
0.0142604
0.00722793
0.00057902
-0.00400844
-0.00620214
-0.00627287
-0.00514296
-0.00313462
-0.00114011
-0.0282261
-0.0302567
-0.0315479
-0.0322231
-0.0326243
-0.0329802
-0.0333467
-0.0336781
-0.0339079
-0.033991
-0.0339084
-0.0336561
-0.0332328
-0.0326344
-0.0318554
-0.0308857
-0.0297267
-0.0283861
-0.0268573
-0.0251489
-0.0232747
-0.0212545
-0.0191136
-0.0168826
-0.014597
-0.0122962
-0.0100091
-0.00787317
-0.00584453
-0.00398918
-0.00235498
-0.000973729
0.000141049
0.000996699
0.00163019
0.00211121
0.00250058
0.00293412
0.0035165
0.00434348
0.00547984
0.0069395
0.00869498
0.0106791
0.0127859
0.0148717
0.0167774
0.0183256
0.0192236
0.0189954
0.0170304
0.0130208
0.00763891
0.0023628
-0.00155505
-0.00373116
-0.00422117
-0.0036693
-0.00230085
-0.000861818
-0.0238888
-0.0256308
-0.0267601
-0.0273746
-0.0277578
-0.0281016
-0.0284548
-0.0287805
-0.0290234
-0.0291454
-0.0291303
-0.0289744
-0.0286768
-0.0282346
-0.0276423
-0.0268945
-0.0259881
-0.0249147
-0.0236869
-0.0223107
-0.0207949
-0.019152
-0.0174013
-0.0155653
-0.0136721
-0.0117577
-0.00984271
-0.00799441
-0.00623013
-0.00458641
-0.00309589
-0.00178306
-0.000660069
0.000276706
0.00105131
0.00170203
0.00230254
0.00291462
0.00362075
0.00449022
0.00557181
0.00688031
0.00839813
0.0100718
0.0118204
0.0135259
0.0150423
0.0162239
0.0168199
0.0164997
0.0148782
0.0117883
0.0076793
0.00352566
0.000241725
-0.00180588
-0.00254957
-0.0024261
-0.00157915
-0.000616223
-0.0199609
-0.0214499
-0.0224358
-0.022995
-0.0233607
-0.0236928
-0.0240331
-0.024352
-0.0246041
-0.0247575
-0.0247982
-0.024723
-0.0245309
-0.0242193
-0.0237836
-0.0232186
-0.0225204
-0.0216874
-0.0207222
-0.0196289
-0.0184149
-0.0170918
-0.0156729
-0.0141754
-0.0126192
-0.0110245
-0.00942902
-0.00785628
-0.00633355
-0.00488782
-0.00354292
-0.0023176
-0.00122246
-0.000257228
0.000593925
0.00135421
0.00207205
0.00279273
0.00357066
0.00445351
0.00547643
0.00665078
0.00796522
0.00937638
0.0108198
0.0122009
0.0133917
0.0142883
0.014673
0.0143215
0.0129985
0.0106167
0.00748256
0.00423396
0.00151931
-0.000341912
-0.00121993
-0.00140241
-0.000969717
-0.000404988
-0.0164164
-0.0176853
-0.0185448
-0.0190541
-0.0194032
-0.0197239
-0.0200516
-0.0203629
-0.0206207
-0.0207984
-0.0208844
-0.0208755
-0.0207709
-0.020568
-0.020263
-0.0198514
-0.0193296
-0.018696
-0.0179511
-0.0170976
-0.0161408
-0.0150882
-0.0139499
-0.0127391
-0.0114708
-0.0101619
-0.00883362
-0.00750704
-0.00620308
-0.00494243
-0.00374307
-0.00261927
-0.00158
-0.000628256
0.00024459
0.00105654
0.00183408
0.00260857
0.00341561
0.00428627
0.00524517
0.0062982
0.00743692
0.00862811
0.00981826
0.0109331
0.0118857
0.0125411
0.0127788
0.012435
0.0113668
0.00953104
0.0071408
0.00461227
0.0023889
0.000737047
-0.000191309
-0.000582056
-0.000469039
-0.0002283
-0.0132305
-0.0143089
-0.0150578
-0.0155224
-0.0158558
-0.0161653
-0.0164808
-0.0167837
-0.0170441
-0.0172401
-0.017362
-0.0174068
-0.0173736
-0.0172603
-0.0170633
-0.0167788
-0.0164035
-0.0159355
-0.0153744
-0.0147218
-0.0139808
-0.0131563
-0.0122554
-0.0112875
-0.0102635
-0.00919642
-0.00810072
-0.0069919
-0.00588547
-0.00479716
-0.00374089
-0.00272765
-0.00176493
-0.000858115
2.60971e-07
0.000816245
0.00160751
0.00239309
0.00319538
0.00403321
0.00492219
0.00586426
0.00685115
0.00785713
0.0088398