/*--------------------------------*- C++ -*----------------------------------*\
| =========                 |                                                 |
| \\      /  F ield         | OpenFOAM: The Open Source CFD Toolbox           |
|  \\    /   O peration     | Version:  2512                                  |
|   \\  /    A nd           | Website:  www.openfoam.com                      |
|    \\/     M anipulation  |                                                 |
\*---------------------------------------------------------------------------*/
FoamFile
{
    version     2.0;
    format      ascii;
    arch        "LSB;label=32;scalar=64";
    class       volScalarField;
    location    "184";
    object      p;
}
// * * * * * * * * * * * * * * * * * * * * * * * * * * * * * * * * * * * * * //

dimensions      [0 2 -2 0 0 0 0];

internalField   nonuniform List<scalar> 
13248
(
-0.313816
-0.313196
-0.311744
-0.309589
-0.306794
-0.30333
-0.299144
-0.29418
-0.288406
-0.281829
-0.2745
-0.26652
-0.258038
-0.249236
-0.240313
-0.231468
-0.222874
-0.214674
-0.206958
-0.199794
-0.193144
-0.187096
-0.181232
-0.175981
-0.321646
-0.319989
-0.31769
-0.314828
-0.311413
-0.307422
-0.302791
-0.297443
-0.291323
-0.284415
-0.276755
-0.268435
-0.259597
-0.250415
-0.24108
-0.231772
-0.222645
-0.213821
-0.205377
-0.197354
-0.189736
-0.182507
-0.175482
-0.168925
-0.330759
-0.32795
-0.324684
-0.320996
-0.316846
-0.312211
-0.307008
-0.301128
-0.294482
-0.287026
-0.278786
-0.269854
-0.260382
-0.250556
-0.240574
-0.230619
-0.220847
-0.211376
-0.202281
-0.193601
-0.185315
-0.177429
-0.169784
-0.162604
-0.341225
-0.337162
-0.332838
-0.32824
-0.32326
-0.317855
-0.311911
-0.305271
-0.297809
-0.289472
-0.2803
-0.270419
-0.260019
-0.249321
-0.238543
-0.227881
-0.217488
-0.207469
-0.197884
-0.188753
-0.180058
-0.171793
-0.16383
-0.156442
-0.353155
-0.347742
-0.3423
-0.336735
-0.33083
-0.324495
-0.317563
-0.309833
-0.30117
-0.291553
-0.281084
-0.26996
-0.258432
-0.246758
-0.235172
-0.223857
-0.21294
-0.202498
-0.192562
-0.183131
-0.174182
-0.165694
-0.157578
-0.150036
-0.366618
-0.359771
-0.353176
-0.346593
-0.339635
-0.332131
-0.323858
-0.314606
-0.30429
-0.292986
-0.280907
-0.268342
-0.255597
-0.242947
-0.230604
-0.218716
-0.207366
-0.196592
-0.186395
-0.176756
-0.16764
-0.159017
-0.15082
-0.143193
-0.381542
-0.373212
-0.365443
-0.357766
-0.349551
-0.340526
-0.330451
-0.319179
-0.306764
-0.29344
-0.279554
-0.265475
-0.25153
-0.237966
-0.224949
-0.212569
-0.20086
-0.189822
-0.179428
-0.169642
-0.160423
-0.151728
-0.143512
-0.135839
-0.397664
-0.387847
-0.378884
-0.369978
-0.360196
-0.349185
-0.336776
-0.322999
-0.308124
-0.29258
-0.276828
-0.261272
-0.246208
-0.231824
-0.218217
-0.205414
-0.193405
-0.182152
-0.171611
-0.161729
-0.152458
-0.143748
-0.135565
-0.127893
-0.414479
-0.403236
-0.393048
-0.382693
-0.37092
-0.357386
-0.342123
-0.325453
-0.307916
-0.290112
-0.272564
-0.255647
-0.239588
-0.224491
-0.210378
-0.197222
-0.184968
-0.173554
-0.162916
-0.152991
-0.143719
-0.135049
-0.126944
-0.119322
-0.431235
-0.418683
-0.407204
-0.395086
-0.380825
-0.364235
-0.345712
-0.325945
-0.305733
-0.285783
-0.266605
-0.248496
-0.231585
-0.215887
-0.201357
-0.187918
-0.175484
-0.163969
-0.153292
-0.143378
-0.13416
-0.125583
-0.117589
-0.110063
-0.44695
-0.433242
-0.42035
-0.406072
-0.388808
-0.368727
-0.346713
-0.323842
-0.301103
-0.279224
-0.258637
-0.239526
-0.221914
-0.205737
-0.19089
-0.177256
-0.164722
-0.153182
-0.142541
-0.132712
-0.123619
-0.115198
-0.107363
-0.100003
-0.460501
-0.445833
-0.43138
-0.414509
-0.393753
-0.369843
-0.34424
-0.318368
-0.293321
-0.269765
-0.248006
-0.228098
-0.209961
-0.193455
-0.178425
-0.164718
-0.152198
-0.140742
-0.130242
-0.1206
-0.111737
-0.103574
-0.0960013
-0.0889595
-0.350816
-0.353209
-0.354568
-0.355455
-0.356378
-0.357485
-0.358808
-0.360331
-0.362002
-0.363751
-0.365487
-0.367107
-0.368483
-0.369456
-0.369814
-0.369636
-0.368562
-0.366444
-0.363158
-0.358632
-0.352856
-0.345911
-0.338063
-0.329866
-0.338293
-0.341033
-0.342469
-0.343196
-0.343738
-0.34423
-0.344693
-0.345104
-0.345411
-0.345542
-0.345412
-0.344928
-0.343986
-0.342472
-0.34032
-0.337446
-0.333768
-0.329247
-0.323898
-0.317801
-0.311098
-0.30397
-0.296808
-0.290673
-0.32713
-0.330044
-0.33148
-0.332031
-0.332209
-0.332127
-0.331792
-0.33118
-0.330235
-0.328888
-0.327063
-0.324682
-0.321674
-0.317983
-0.31357
-0.308426
-0.302573
-0.296081
-0.28908
-0.281772
-0.274427
-0.267309
-0.260755
-0.256079
-0.317607
-0.320551
-0.32193
-0.322306
-0.322156
-0.321569
-0.320537
-0.319031
-0.316997
-0.314375
-0.311102
-0.307123
-0.302398
-0.296913
-0.290685
-0.283771
-0.276274
-0.268352
-0.260223
-0.252171
-0.244552
-0.237706
-0.23178
-0.228179
-0.309862
-0.312738
-0.314019
-0.314224
-0.313785
-0.312762
-0.311136
-0.308872
-0.305924
-0.30224
-0.297777
-0.292507
-0.286425
-0.279556
-0.271969
-0.263779
-0.255154
-0.246318
-0.237551
-0.229178
-0.221599
-0.215194
-0.210203
-0.207472
-0.303952
-0.306695
-0.307847
-0.30788
-0.307178
-0.305775
-0.303641
-0.300739
-0.297031
-0.292479
-0.287062
-0.280779
-0.27366
-0.265771
-0.257225
-0.248187
-0.23887
-0.229553
-0.220551
-0.212222
-0.204954
-0.199151
-0.195184
-0.192852
-0.299895
-0.30246
-0.303453
-0.303302
-0.302349
-0.300606
-0.298036
-0.294601
-0.290271
-0.285026
-0.278865
-0.271817
-0.263945
-0.255353
-0.246195
-0.236676
-0.227052
-0.217625
-0.208735
-0.200745
-0.194031
-0.188856
-0.186036
-0.183663
-0.297707
-0.300041
-0.300837
-0.300483
-0.299283
-0.297235
-0.294295
-0.290429
-0.285615
-0.27985
-0.273155
-0.265586
-0.257238
-0.248251
-0.238813
-0.229162
-0.219583
-0.210394
-0.201933
-0.194534
-0.188588
-0.183978
-0.182316
-0.179638
-0.2974
-0.299424
-0.29997
-0.299386
-0.29794
-0.295621
-0.292383
-0.288195
-0.283045
-0.276942
-0.269928
-0.262083
-0.25353
-0.244439
-0.235026
-0.225552
-0.216311
-0.207618
-0.199792
-0.193086
-0.187938
-0.183784
-0.182867
-0.180152
-0.298957
-0.300553
-0.300774
-0.299921
-0.298223
-0.295662
-0.292192
-0.287785
-0.282431
-0.276152
-0.269005
-0.261087
-0.252542
-0.24356
-0.234372
-0.225245
-0.216465
-0.208321
-0.201093
-0.194957
-0.190302
-0.186505
-0.185515
-0.183113
-0.302306
-0.303325
-0.303116
-0.301928
-0.299941
-0.297134
-0.293461
-0.288887
-0.283407
-0.277045
-0.269865
-0.261974
-0.253529
-0.244726
-0.235798
-0.226999
-0.218587
-0.210805
-0.203866
-0.197917
-0.193171
-0.189397
-0.187609
-0.185472
-0.307315
-0.307591
-0.306822
-0.305196
-0.30284
-0.299733
-0.295821
-0.291068
-0.285459
-0.279015
-0.271799
-0.263921
-0.255537
-0.24684
-0.23805
-0.229393
-0.221082
-0.213305
-0.206196
-0.199868
-0.194358
-0.189778
-0.186383
-0.183948
-0.320137
-0.308799
-0.298922
-0.291792
-0.288761
-0.29071
-0.29778
-0.308596
-0.321079
-0.331947
-0.337188
-0.332899
-0.316321
-0.28688
-0.247566
-0.204814
-0.165708
-0.135075
-0.114667
-0.103944
-0.101523
-0.106885
-0.120756
-0.141969
-0.163722
-0.175331
-0.169797
-0.14934
-0.122777
-0.0985978
-0.0815336
-0.0724887
-0.0700464
-0.0740702
-0.0865495
-0.106185
-0.123728
-0.126959
-0.114848
-0.0942547
-0.0752012
-0.062103
-0.0545552
-0.0541515
-0.0604537
-0.0675928
-0.0681766
-0.0614841
-0.0527626
-0.0457393
-0.0406947
-0.0402499
-0.0407616
-0.0398716
-0.0383578
-0.0336058
-0.0233482
-0.0163243
-0.00917958
-0.0035639
-0.285503
-0.281064
-0.279261
-0.281056
-0.287236
-0.298021
-0.31272
-0.329628
-0.346261
-0.359363
-0.365165
-0.36017
-0.34155
-0.30874
-0.265137
-0.217796
-0.174304
-0.139625
-0.115372
-0.100877
-0.0947315
-0.0961222
-0.105441
-0.122108
-0.140803
-0.152223
-0.149313
-0.133329
-0.111376
-0.0911876
-0.077498
-0.0713354
-0.0714229
-0.0780544
-0.0934723
-0.115833
-0.135047
-0.138007
-0.124085
-0.100682
-0.0785959
-0.0628166
-0.0529553
-0.0502641
-0.0541052
-0.0596239
-0.0598838
-0.0548983
-0.0484639
-0.043698
-0.0410214
-0.0425981
-0.0451898
-0.044476
-0.0425872
-0.0367684
-0.0248007
-0.0165911
-0.00795404
-0.00263565
-0.255225
-0.256887
-0.2617
-0.270555
-0.283723
-0.300873
-0.32084
-0.341685
-0.360821
-0.375206
-0.381476
-0.376149
-0.35644
-0.32175
-0.275679
-0.225605
-0.17934
-0.141896
-0.114743
-0.0970826
-0.0874778
-0.0849644
-0.0897023
-0.101614
-0.116903
-0.127779
-0.127424
-0.115766
-0.0983786
-0.0822668
-0.0720837
-0.068902
-0.0715792
-0.0807827
-0.0989132
-0.123704
-0.144465
-0.147417
-0.132041
-0.106193
-0.0813622
-0.0631108
-0.0511353
-0.0463734
-0.0479468
-0.051959
-0.0518458
-0.0483657
-0.0439867
-0.0414247
-0.0411991
-0.0449288
-0.0496625
-0.0490434
-0.0466202
-0.0397345
-0.0261538
-0.0168221
-0.00676322
-0.00175004
-0.231505
-0.236905
-0.246318
-0.259983
-0.277634
-0.298608
-0.321553
-0.344456
-0.364793
-0.379926
-0.386464
-0.381201
-0.36123
-0.326018
-0.279268
-0.228388
-0.181103
-0.142258
-0.113188
-0.0930841
-0.0805388
-0.0745004
-0.0748911
-0.0820247
-0.0935473
-0.103307
-0.105114
-0.09726
-0.084233
-0.0721294
-0.0654136
-0.0651329
-0.070281
-0.0818233
-0.10233
-0.129301
-0.151606
-0.154805
-0.138509
-0.11066
-0.0834668
-0.063029
-0.0491757
-0.0426038
-0.0421567
-0.0447897
-0.0442282
-0.0419991
-0.0394032
-0.0389431
-0.0412029
-0.0471904
-0.0541202
-0.053524
-0.0504123
-0.0424609
-0.0273881
-0.0170158
-0.00561721
-0.000910679
-0.213219
-0.221396
-0.233296
-0.249288
-0.269038
-0.291664
-0.315708
-0.339199
-0.359701
-0.374807
-0.381782
-0.376734
-0.35707
-0.322485
-0.276745
-0.226974
-0.180377
-0.14138
-0.111249
-0.0893393
-0.0743864
-0.0653465
-0.0619012
-0.0644515
-0.0719703
-0.0799482
-0.0830327
-0.0783665
-0.0693873
-0.0610513
-0.0575698
-0.059956
-0.0673322
-0.0808801
-0.103396
-0.132275
-0.156136
-0.159897
-0.14334
-0.11402
-0.08492
-0.0626368
-0.0471604
-0.0390407
-0.0368398
-0.0382439
-0.0371728
-0.0359046
-0.0347863
-0.0362723
-0.0410002
-0.0493204
-0.0584813
-0.0578506
-0.0539142
-0.0449085
-0.0284857
-0.0171703
-0.00452447
-0.000120262
-0.200332
-0.210072
-0.222559
-0.23888
-0.258888
-0.281491
-0.305162
-0.328077
-0.348335
-0.363223
-0.36965
-0.364558
-0.345566
-0.312578
-0.26931
-0.222285
-0.177832
-0.139794
-0.109381
-0.0862283
-0.0693558
-0.0578131
-0.0511538
-0.0496495
-0.0531138
-0.0586923
-0.0619615
-0.0598712
-0.0543557
-0.0493433
-0.048705
-0.0534263
-0.0627236
-0.0779037
-0.101973
-0.132446
-0.157877
-0.162485
-0.146449
-0.116228
-0.0857317
-0.0619837
-0.0451474
-0.035734
-0.0320485
-0.0323943
-0.0307827
-0.0301744
-0.0302072
-0.0334309
-0.0405537
-0.0512408
-0.0626571
-0.0619552
-0.0570757
-0.0470419
-0.0294276
-0.0172796
-0.00349129
0.000620251
-0.192558
-0.202782
-0.214277
-0.229388
-0.248318
-0.269655
-0.291766
-0.313035
-0.33221
-0.346252
-0.351675
-0.346413
-0.328479
-0.297996
-0.258438
-0.215418
-0.174189
-0.137968
-0.107931
-0.0840347
-0.0656738
-0.0520869
-0.0427778
-0.0378501
-0.0375174
-0.0403286
-0.0429889
-0.0425808
-0.0396687
-0.0374138
-0.0391286
-0.0457696
-0.0566126
-0.0729646
-0.0980554
-0.129783
-0.156814
-0.162495
-0.14781
-0.117256
-0.0859069
-0.0611005
-0.0431729
-0.0327036
-0.0277831
-0.0272517
-0.0251171
-0.0248792
-0.0257402
-0.0304394
-0.0398223
-0.0528685
-0.0665512
-0.0657625
-0.059854
-0.0488334
-0.0301981
-0.0173366
-0.0025201
0.00131217
-0.189435
-0.199112
-0.208361
-0.221163
-0.237994
-0.257035
-0.276749
-0.296395
-0.31301
-0.324954
-0.329197
-0.323941
-0.307542
-0.280382
-0.245451
-0.207245
-0.169903
-0.136078
-0.106946
-0.0827695
-0.0633333
-0.0481434
-0.0367237
-0.0290319
-0.025374
-0.0253037
-0.0267067
-0.0271804
-0.0257653
-0.025726
-0.0292468
-0.0372954
-0.0492389
-0.0662915
-0.09185
-0.124383
-0.153173
-0.160424
-0.147439
-0.117091
-0.0854534
-0.0600096
-0.0412619
-0.0299574
-0.0240262
-0.022783
-0.0201857
-0.0200688
-0.0214598
-0.027321
-0.0387699
-0.0541195
-0.0700539
-0.0691974
-0.0622233
-0.0502676
-0.0307897
-0.0173435
-0.00161297
0.00195972
-0.189633
-0.197478
-0.20383
-0.213829
-0.227746
-0.243538
-0.259953
-0.276573
-0.291284
-0.300603
-0.303708
-0.298783
-0.284503
-0.261314
-0.231517
-0.198453
-0.165262
-0.134143
-0.10631
-0.0822858
-0.0621865
-0.0458139
-0.0327863
-0.0229553
-0.0165629
-0.0137279
-0.0133753
-0.0135801
-0.0129313
-0.0147503
-0.0194826
-0.0283662
-0.0409066
-0.0581159
-0.0836252
-0.116593
-0.147364
-0.16442
-0.145462
-0.115822
-0.0844853
-0.0588292
-0.0395101
-0.027539
-0.0207772
-0.0189651
-0.0159798
-0.0157649
-0.0174376
-0.0240956
-0.0373602
-0.054914
-0.0730712
-0.0721932
-0.0641594
-0.0513393
-0.0312042
-0.0173148
-0.000782874
0.00256904
-0.190425
-0.195299
-0.199156
-0.206471
-0.216914
-0.229245
-0.242958
-0.256026
-0.2674
-0.27478
-0.277272
-0.273179
-0.26156
-0.242691
-0.218109
-0.190128
-0.161075
-0.132801
-0.106553
-0.0830541
-0.0626555
-0.0454231
-0.0311475
-0.0196416
-0.011041
-0.00567539
-0.00324313
-0.00238286
-0.00142683
-0.00488857
-0.0101714
-0.0193229
-0.0319951
-0.0490227
-0.074007
-0.106758
-0.138652
-0.155115
-0.14128
-0.113654
-0.0832529
-0.05779
-0.0381092
-0.0255461
-0.0180268
-0.0157637
-0.0125292
-0.0119621
-0.0137212
-0.0207934
-0.0355915
-0.05517
-0.0755173
-0.0746708
-0.0656457
-0.0520394
-0.0314369
-0.017248
-4.7989e-05
0.00314502
-0.189229
-0.191238
-0.193729
-0.198562
-0.20545
-0.214441
-0.226142
-0.234975
-0.243283
-0.249385
-0.251731
-0.248976
-0.240351
-0.225852
-0.206329
-0.183243
-0.158255
-0.132898
-0.108405
-0.0856536
-0.0651894
-0.0472962
-0.03198
-0.0191206
-0.00873933
-0.00113646
0.00349294
0.00569634
0.00868996
0.00347944
-0.00164141
-0.0104676
-0.0226706
-0.0389313
-0.0630995
-0.0958039
-0.128133
-0.144436
-0.135255
-0.110345
-0.0815185
-0.0566326
-0.0368792
-0.0238522
-0.0156019
-0.0129411
-0.00971669
-0.00862663
-0.0104628
-0.0173869
-0.0333868
-0.0548795
-0.0773417
-0.0764941
-0.0666598
-0.0523122
-0.0314298
-0.0170821
0.000623613
0.00369762
-0.185164
-0.186422
-0.187967
-0.190116
-0.19357
-0.198653
-0.203788
-0.213406
-0.219735
-0.224121
-0.225982
-0.224177
-0.21797
-0.207101
-0.191861
-0.173052
-0.151797
-0.129341
-0.106853
-0.0852927
-0.0653455
-0.0474342
-0.0317194
-0.0182382
-0.00694743
0.00210276
0.00853278
0.0115094
0.00875915
0.0101512
0.00568392
-0.00247638
-0.0139734
-0.0293006
-0.0520833
-0.083441
-0.115256
-0.131496
-0.126061
-0.104471
-0.0776521
-0.0537733
-0.0345506
-0.0216234
-0.0130214
-0.0100748
-0.00688893
-0.00582343
-0.00758922
-0.0141239
-0.0309161
-0.0539065
-0.0783964
-0.077602
-0.0671033
-0.0520803
-0.0310636
-0.0167338
0.0013491
0.00426118
-0.178636
-0.182599
-0.183341
-0.183966
-0.186343
-0.190718
-0.196684
-0.201428
-0.205995
-0.20918
-0.209953
-0.20746
-0.201106
-0.190683
-0.176453
-0.159093
-0.139554
-0.118894
-0.0981134
-0.0780416
-0.0592767
-0.0422024
-0.0269772
-0.0136758
-0.00229211
0.0071602
0.0144102
0.0185847
0.0185958
0.0186259
0.0145282
0.00751671
-0.00257081
-0.0168092
-0.039554
-0.0727323
-0.107588
-0.126273
-0.120814
-0.0985561
-0.0722785
-0.0493254
-0.0309513
-0.0186351
-0.010292
-0.00736169
-0.00378528
-0.00221634
-0.00355205
-0.00974647
-0.0274718
-0.0523113
-0.0794808
-0.0791396
-0.0672911
-0.0515611
-0.0304185
-0.016274
0.00212759
0.00480192
-0.170445
-0.176408
-0.177151
-0.176667
-0.177676
-0.180494
-0.184167
-0.187751
-0.190721
-0.192237
-0.191613
-0.188269
-0.181773
-0.171978
-0.159084
-0.143605
-0.126264
-0.107878
-0.0892378
-0.0710264
-0.0537681
-0.0378239
-0.0233794
-0.0105757
0.000578108
0.0101258
0.0178202
0.0226866
0.0238607
0.0235778
0.0204145
0.0147167
0.00608764
-0.00697516
-0.0293975
-0.0633408
-0.0988291
-0.116958
-0.111272
-0.0900578
-0.0655656
-0.0444483
-0.0275022
-0.0159543
-0.00786808
-0.00496712
-0.00135334
8.59785e-05
-0.000803939
-0.00658129
-0.0246043
-0.0506763
-0.0796159
-0.0795592
-0.0665158
-0.0504315
-0.0294618
-0.0156229
0.00279051
0.00512948
-0.160574
-0.167891
-0.168986
-0.167852
-0.16769
-0.169205
-0.171644
-0.173976
-0.175479
-0.17566
-0.174088
-0.17035
-0.164119
-0.155242
-0.14381
-0.13016
-0.114818
-0.0984179
-0.0816078
-0.0649768
-0.0490017
-0.0340428
-0.0203017
-0.0079421
0.00296279
0.012407
0.0202388
0.0256606
0.0279749
0.027945
0.0253737
0.0206232
0.0128902
0.00033071
-0.0218337
-0.0546454
-0.0881053
-0.105375
-0.10029
-0.0809393
-0.0586877
-0.0395238
-0.0240144
-0.0132805
-0.00553392
-0.00267956
0.000901247
0.0022645
0.00149704
-0.00425466
-0.0224169
-0.0489458
-0.0786698
-0.0790775
-0.0650927
-0.0488264
-0.0282686
-0.0148296
0.00336407
0.00534926
-0.149992
-0.157845
-0.15935
-0.158047
-0.157225
-0.157835
-0.159247
-0.160509
-0.160988
-0.160309
-0.158164
-0.154253
-0.148313
-0.140198
-0.12994
-0.117778
-0.104111
-0.0894426
-0.0742974
-0.0591689
-0.0444676
-0.0305291
-0.0175579
-0.00572651
0.0048448
0.0140806
0.0219109
0.0277591
0.0309311
0.0315478
0.0298921
0.0262359
0.0194016
0.00730594
-0.0141727
-0.0450736
-0.0765061
-0.0928742
-0.0883234
-0.0711727
-0.0514398
-0.0343776
-0.0204322
-0.010623
-0.00329453
-0.000488898
0.00305064
0.00439645
0.00364857
-0.00211957
-0.020166
-0.0464886
-0.0766395
-0.0777148
-0.063069
-0.046739
-0.0268177
-0.0138753
0.00384455
0.00548397
-0.138841
-0.146879
-0.148823
-0.147648
-0.146484
-0.146416
-0.147037
-0.147543
-0.147339
-0.146086
-0.143559
-0.139555
-0.133887
-0.126436
-0.117211
-0.106375
-0.0942231
-0.0811366
-0.0675282
-0.0538045
-0.0403181
-0.0273796
-0.0151981
-0.00395128
0.00622333
0.0151913
0.0228954
0.0289291
0.0327122
0.0341407
0.0335804
0.0312829
0.0257833
0.0146466
-0.00590735
-0.0352221
-0.0645258
-0.0793347
-0.0755304
-0.0609559
-0.0440256
-0.0291637
-0.0168253
-0.00800546
-0.00115735
0.00159929
0.00508405
0.00640071
0.00566457
8.68196e-05
-0.0174237
-0.0430982
-0.0734047
-0.0752453
-0.0603559
-0.0441464
-0.0250955
-0.0127628
0.00422918
0.0055246
-0.127378
-0.135491
-0.137796
-0.136833
-0.135521
-0.135025
-0.135115
-0.1351
-0.134426
-0.132795
-0.13005
-0.126064
-0.120711
-0.113897
-0.105611
-0.0959594
-0.0851498
-0.0734726
-0.0612544
-0.0488316
-0.0365061
-0.0245566
-0.0131874
-0.00257859
0.0071296
0.0157696
0.023268
0.0293342
0.0335124
0.0356372
0.0360859
0.0351737
0.0312683
0.021357
0.0017598
-0.0257779
-0.0521996
-0.0651771
-0.0623631
-0.0506329
-0.0366356
-0.0239861
-0.0132394
-0.00544246
0.000871462
0.0035725
0.0069961
0.00828643
0.00754365
0.00237078
-0.014211
-0.0388009
-0.0687734
-0.0715017
-0.056895
-0.0410668
-0.0231069
-0.0114949
0.00451864
0.00546443
-0.116087
-0.124002
-0.12652
-0.125799
-0.124499
-0.123783
-0.123534
-0.123167
-0.122196
-0.120363
-0.117554
-0.11369
-0.108689
-0.102477
-0.0950369
-0.0864326
-0.0768145
-0.0664037
-0.0554569
-0.0442484
-0.0330329
-0.0220556
-0.0115096
-0.00157541
0.0076065
0.0158629
0.0231023
0.0290997
0.0334848
0.0361076
0.0373103
0.0374518
0.0348584
0.0261596
0.00805901
-0.0167748
-0.0396658
-0.0509035
-0.0493626
-0.0405588
-0.0294641
-0.0189625
-0.00973443
-0.00295128
0.00279062
0.00542735
0.00879301
0.0100733
0.00929115
0.00465348
-0.0106464
-0.0336001
-0.0626584
-0.0664016
-0.0526757
-0.0375461
-0.0208737
-0.0100778
0.00471789
0.00530581
-0.105101
-0.112598
-0.11523
-0.114767
-0.113579
-0.112779
-0.112334
-0.111763
-0.110641
-0.108743
-0.105983
-0.102315
-0.0976864
-0.0920461
-0.0853742
-0.0777115
-0.0691649
-0.0599007
-0.0501186
-0.0400404
-0.0298799
-0.0198511
-0.0101321
-0.000897242
0.00771298
0.015533
0.0224636
0.0283043
0.0327553
0.0356909
0.0373464
0.0380319
0.036217
0.0287705
0.0130479
-0.00817553
-0.0273693
-0.0372235
-0.0371288
-0.0310986
-0.0226959
-0.014197
-0.0063703
-0.000548745
0.00460437
0.00716941
0.0104861
0.0117809
0.0109274
0.00690822
-0.00675397
-0.0275455
-0.0551442
-0.0599647
-0.0477296
-0.0336571
-0.0184375
-0.00852206
0.0048387
0.00506108
-0.0944307
-0.101473
-0.104156
-0.103929
-0.102896
-0.102102
-0.101572
-0.100909
-0.0997424
-0.0978775
-0.0952464
-0.0918258
-0.087587
-0.0824953
-0.0765332
-0.0697255
-0.0621472
-0.0539229
-0.045208
-0.0361814
-0.0270214
-0.0179128
-0.00901642
-0.000496084
0.0075108
0.0148492
0.021416
0.027032
0.0314377
0.0345269
0.0364097
0.0372768
0.0358717
0.0297487
0.0169154
-0.00036604
-0.016135
-0.0249476
-0.0262126
-0.0225552
-0.0164775
-0.00977063
-0.0032042
0.00174432
0.00631516
0.00880719
0.0120889
0.0134389
0.0125132
0.00919609
-0.00253845
-0.0208251
-0.0464865
-0.0523397
-0.0421424
-0.0294985
-0.0158578
-0.00684283
0.00489997
0.00475434
-0.0842595
-0.0908044
-0.0934586
-0.093428
-0.0925628
-0.0918278
-0.0912878
-0.0906121
-0.0894781
-0.0877149
-0.0852701
-0.082135
-0.0782968
-0.0737333
-0.0684303
-0.0624025
-0.055703
-0.0484255
-0.0406906
-0.0326423
-0.024428
-0.016206
-0.00811953
-0.000319121
0.00706428
0.0138858
0.0200387
0.0253777
0.0296465
0.0327632
0.034739
0.0356378
0.0345052
0.0296401
0.0195964
0.00598898
-0.00679833
-0.0146884
-0.0169428
-0.015106
-0.0109042
-0.00573823
-0.000284644
0.003902
0.00791848
0.010343
0.0136082
0.0150897
0.0141556
0.0116071
0.00192285
-0.0137538
-0.0371002
-0.0438403
-0.0360668
-0.0251879
-0.0132078
-0.00506165
0.00493109
0.00442222
-0.0747103
-0.0806779
-0.08323
-0.083355
-0.0826602
-0.0820188
-0.0815183
-0.0808829
-0.0798328
-0.0782187
-0.0759983
-0.0731713
-0.0697356
-0.0656784
-0.0609888
-0.055676
-0.0497778
-0.0433647
-0.0365306
-0.0293908
-0.0220667
-0.0146928
-0.00739574
-0.000310792
0.00643953
0.0127202
0.0184254
0.0234278
0.0274928
0.0305482
0.0325347
0.0334197
0.0325133
0.0287074
0.0210039
0.0105056
0.000296717
-0.00660313
-0.00937033
-0.00879628
-0.00602064
-0.00213052
0.00235273
0.00589557
0.00940331
0.0117676
0.0150294
0.0167564
0.0159702
0.0142116
0.00648041
-0.00673576
-0.027545
-0.0349331
-0.0297183
-0.0208504
-0.0105664
-0.00321493
0.00497409
0.00411312
-0.0657431
-0.0711252
-0.0735423
-0.0737917
-0.0732601
-0.0727282
-0.0722954
-0.0717328
-0.0707984
-0.069361
-0.0673852
-0.0648755
-0.0618361
-0.0582611
-0.0541428
-0.049487
-0.0443209
-0.0386979
-0.0326909
-0.0263926
-0.0199027
-0.0133345
-0.00679844
-0.000415067
0.0057022
0.0114299
0.0166626
0.0212757
0.0250998
0.0280281
0.0299653
0.0308262
0.030127
0.0271739
0.021325
0.0133477
0.0053532
-0.000490355
-0.00336484
-0.00357869
-0.00183199
0.00104052
0.00468622
0.00769651
0.0107572
0.0130615
0.0163097
0.0183913
0.0180142
0.0170213
0.0109293
-0.000238365
-0.0184563
-0.0261569
-0.0233542
-0.0166075
-0.00800752
-0.00136333
0.00506881
0.00388078
-0.0573611
-0.0621969
-0.064461
-0.0648016
-0.0644142
-0.0639922
-0.0636402
-0.0631677
-0.062365
-0.0611168
-0.0593923
-0.0571981
-0.0545421
-0.0514228
-0.047835
-0.0437826
-0.0392854
-0.034384
-0.0291354
-0.0236139
-0.0179014
-0.0120929
-0.00628339
-0.00057969
0.00491577
0.010091
0.0148405
0.0190406
0.0225944
0.0253484
0.0271992
0.0280443
0.0275477
0.0252935
0.0209079
0.0149336
0.00878116
0.00398094
0.0012816
0.000643379
0.00168339
0.00377587
0.0067081
0.00927934
0.0119642
0.0142009
0.0173936
0.0198694
0.020151
0.0198497
0.0149528
0.00529011
-0.0103824
-0.0180115
-0.0172484
-0.0125706
-0.00559675
0.000407822
0.00523402
0.00376371
-0.049619
-0.0539244
-0.0560124
-0.0564129
-0.0561484
-0.055829
-0.0555616
-0.0551871
-0.054522
-0.0534642
-0.0519872
-0.0500983
-0.0478067
-0.0451137
-0.042016
-0.0385162
-0.0346289
-0.0303852
-0.0258299
-0.0210224
-0.01603
-0.0109318
-0.00580951
-0.000755599
0.00413876
0.00877249
0.0130472
0.0168531
0.0200965
0.022646
0.0243933
0.0252361
0.0249437
0.023279
0.0200492
0.0156477
0.0109924
0.00716023
0.00479366
0.00398748
0.00456719
0.00608427
0.00842229
0.0106272
0.012997
0.015155
0.0182348
0.0210513
0.0219557
0.0222046
0.0181139
0.00955433
-0.0036537
-0.0108479
-0.0116562
-0.00883616
-0.00339406
0.00199627
0.00545964
0.00375901
-0.0425004
-0.0462936
-0.0481946
-0.0486318
-0.0484737
-0.0482508
-0.0480672
-0.0477887
-0.047257
-0.0463825
-0.0451415
-0.0435408
-0.04159
-0.0392914
-0.0366433
-0.0336472
-0.0303139
-0.0266675
-0.0227431
-0.0185885
-0.0142586
-0.00981925
-0.0053397
-0.000899506
0.00342109
0.00753213
0.0113469
0.0147682
0.0176986
0.020034
0.0216735
0.0225254
0.0224341
0.0212721
0.0189548
0.0157758
0.0123287
0.00935748
0.00738546
0.00657425
0.00687381
0.00798212
0.00983758
0.0117323
0.0138258
0.0158793
0.0187802
0.0218639
0.0230568
0.0235479
0.0200641
0.0124943
0.00160783
-0.00486684
-0.00678076
-0.00548175
-0.00145363
0.00329594
0.00570284
0.00380928
-0.0359606
-0.0392864
-0.0410063
-0.0414641
-0.0413946
-0.0412552
-0.041151
-0.0409619
-0.0405544
-0.0398505
-0.0388286
-0.0374946
-0.0358573
-0.0339196
-0.0316803
-0.0291403
-0.0263078
-0.023201
-0.0198479
-0.0162866
-0.0125618
-0.00872804
-0.00484345
-0.000976375
0.00280416
0.00641956
0.00979298
0.0128391
0.0154702
0.0175966
0.0191313
0.0199987
0.0200949
0.0193569
0.0177616
0.0155282
0.0130527
0.0108127
0.00923967
0.00851888
0.00866549
0.00949345
0.0109652
0.012592
0.0144303
0.0163303
0.0189467
0.0223358
0.0231913
0.0236822
0.0207791
0.0142554
0.00542893
-0.000521987
-0.00275533
-0.00256376
0.000189233
0.00422579
0.00588302
0.0038206
-0.0299863
-0.0328903
-0.0344372
-0.0349047
-0.0349138
-0.0348573
-0.0348041
-0.0346899
-0.0343948
-0.033846
-0.0330231
-0.031931
-0.0305779
-0.0289664
-0.0270955
-0.0249656
-0.0225826
-0.0199605
-0.0171212
-0.0140953
-0.0109189
-0.00763688
-0.00429785
-0.000959435
0.0023199
0.00547122
0.00842833
0.0111183
0.0134649
0.0153926
0.016828
0.0177098
0.0179695
0.0175806
0.0165522
0.0150568
0.0133667
0.0117081
0.0105055
0.00992684
0.0100072
0.0106488
0.0118207
0.0132112
0.0148067
0.016494
0.0185876
0.0201575
0.0223833
0.0228599
0.0205178
0.0150838
0.00802004
0.00289553
0.000427091
-0.000116237
0.00152235
0.00477636
0.00590104
0.0037033
-0.0245556
-0.0270744
-0.0284535
-0.0289154
-0.0289802
-0.0289793
-0.0289882
-0.0289457
-0.0287522
-0.0283431
-0.0276988
-0.0268233
-0.0257242
-0.0244042
-0.0228621
-0.0210977
-0.0191152
-0.0169251
-0.0145447
-0.0119982
-0.00931481
-0.00653102
-0.00368682
-0.000830542
0.00198827
0.00471146
0.0072837
0.00963918
0.0117169
0.0134596
0.0147993
0.0156869
0.0160794
0.0159684
0.015374
0.0144413
0.0134574
0.0121777
0.0113067
0.0108921
0.0109626
0.0114838
0.012424
0.013605
0.0149709
0.0164369
0.0181645
0.0197328
0.021269
0.0215182
0.0196351
0.0152355
0.00962861
0.00529408
0.00281457
0.00184562
0.00255
0.00500257
0.005696
0.0034166
-0.0196296
-0.0218032
-0.0230268
-0.0234772
-0.0235878
-0.0236407
-0.0237031
-0.0237157
-0.0236063
-0.0233179
-0.0228306
-0.0221462
-0.0212713
-0.0202084
-0.0189566
-0.017515
-0.0158863
-0.0140784
-0.0121046
-0.00998395
-0.00773983
-0.00540166
-0.00300197
-0.000580775
0.00182123
0.00415459
0.00637217
0.00841909
0.0102436
0.0118175
0.0130611
0.0139421
0.0144328
0.0145311
0.0142497
0.0136634
0.0127815
0.0122536
0.0117404
0.0114989
0.0115925
0.0120377
0.0128007
0.0137956
0.0149457
0.0161929
0.0176038
0.0189219
0.0199682
0.0199778
0.0184369
0.0149376
0.0105115
0.00685781
0.00450306
0.00333252
0.00329886
0.00497879
0.00527463
0.00299107
-0.0151748
-0.0170443
-0.0181265
-0.0185614
-0.0187081
-0.0188032
-0.0189031
-0.0189621
-0.0189267
-0.0187431
-0.0183928
-0.0178753
-0.0171959
-0.0163574
-0.0153589
-0.0141995
-0.0128804
-0.0114076
-0.00979097
-0.00804543
-0.0061893
-0.0042461
-0.00224204
-0.00020937
0.00181885
0.00380158
0.00570038
0.00747263
0.00909033
0.0104728
0.0116143
0.0124733
0.013029
0.0132839
0.013247
0.012981
0.0125489
0.0122093
0.0119257
0.0118282
0.0119559
0.0123515
0.0129783
0.0138078
0.0147588
0.0157903
0.0169095
0.0179177
0.0186061
0.0184266
0.0171351
0.0143674
0.0108782
0.00780315
0.0055764
0.00439034
0.00381748
0.00479288
0.00471523
0.00250577
-0.011162
-0.0127644
-0.0137189
-0.014136
-0.0143114
-0.0144431
-0.0145808
-0.0146883
-0.0147019
-0.0145993
-0.0143623
-0.013987
-0.0134759
-0.0128308
-0.0120511
-0.0111357
-0.0100852
-0.00890337
-0.0075977
-0.00617951
-0.00466307
-0.00306694
-0.00141163
0.000276902
0.00197178
0.00364074
0.00525325
0.0067701
0.00816137
0.00939298
0.0104376
0.0112651
0.0118582
0.0122218
0.0123638
0.0123372
0.0121843
0.012039
0.0119275
0.0119435
0.0121054
0.0124652
0.0129853
0.0136689
0.014441
0.0152669
0.0161242
0.0168413
0.0172614
0.0169575
0.0158509
0.0136517
0.0108935
0.00831542
0.00630734
0.00509625
0.00416128
0.00452382
0.00411969
0.00203952
-0.00755791
-0.00892668
-0.00976655
-0.0101638
-0.0103599
-0.0105184
-0.0106814
-0.0108194
-0.0108871
-0.0108537
-0.0107113
-0.0104563
-0.0100889
-0.00960927
-0.00901689
-0.00831062
-0.00749055
-0.00655911
-0.00552164
-0.00438663
-0.003165
-0.00187101
-0.000520643
0.000865646
0.00226702
0.00365743
0.00501192
0.00630121
0.00749891
0.00857571
0.00951449
0.0102952
0.0109012
0.011333
0.0115978
0.0117321
0.011765
0.0117772
0.0117963
0.0118976
0.012087
0.0124169
0.0128518
0.0134078
0.014022
0.0146607
0.0152921
0.0157642
0.0159822
0.0156067
0.0146433
0.0128762
0.0106786
0.00852303
0.00670548
0.00551121
0.00437
0.00422556
0.0035646
0.00164499
-0.00433046
-0.00549689
-0.00623525
-0.00661216
-0.00682336
-0.00700274
-0.00718606
-0.00734998
-0.00745761
-0.00748352
-0.0074179
-0.00726182
-0.00701456
-0.00667485
-0.00624121
-0.00571245
-0.00508836
-0.00437034
-0.00356206
-0.00266974
-0.00170159
-0.000668362
0.00041776
0.00154107
0.00268529
0.00383005
0.00495609
0.00604018
0.00706183
0.0079979
0.00883116
0.00954916
0.0101397
0.0106049
0.0109428
0.0111808
0.0113345
0.0114596
0.0115727
0.0117335
0.0119411
0.0122429
0.0126075
0.0130531
0.01353
0.0140048
0.0144485
0.0147277
0.0147949
0.0143837
0.0135352
0.0120942
0.0103166
0.00851439
0.00686462
0.00570294
0.00447127
0.00393742
0.0030872
0.00133807
-0.0014505
-0.00244283
-0.00309201
-0.0034489
-0.0036706
-0.00386586
-0.00406452
-0.00424833
-0.00438757
-0.00446104
-0.0044598
-0.00438322
-0.00423424
-0.00401075
-0.00371012
-0.00333064
-0.00287169
-0.00233391
-0.00171971
-0.00103352
-0.000281379
0.000528736
0.00138774
0.00228385
0.00320462
0.0041345
0.00505855
0.0059586
0.00681893
0.00762214
0.00835375
0.00900311
0.00956096
0.0100263
0.0103978
0.0106931
0.0109199
0.0111164
0.0112904
0.0114877
0.0117032
0.0119762
0.0122808
0.0126317
0.0129917
0.0133285
0.0136197
0.0137529
0.0137094
0.0132854
0.0125303
0.011336
0.00986948
0.008352
0.00685604
0.00573994
0.00448416
0.00368227
0.00272505
0.0011125
0.00110967
0.000266374
-0.000304965
-0.00064254
-0.000871091
-0.00107792
-0.00128765
-0.00148616
-0.0016498
-0.00176134
-0.001813
-0.00180303
-0.00173191
-0.001602
-0.00141078
-0.00115557
-0.000834581
-0.000447698
3.50425e-06
0.000516063
0.00108573
0.00170663
0.00237205
0.00307334
0.00380124
0.00454412
0.00529053
0.00602675
0.00674053
0.00741856
0.00804973
0.00862459
0.00913479
0.00957916
0.00995451
0.0102728
0.0105357
0.0107699
0.0109769
0.0111905
0.0114037
0.0116462