/*--------------------------------*- C++ -*----------------------------------*\
| =========                 |                                                 |
| \\      /  F ield         | OpenFOAM: The Open Source CFD Toolbox           |
|  \\    /   O peration     | Version:  2512                                  |
|   \\  /    A nd           | Website:  www.openfoam.com                      |
|    \\/     M anipulation  |                                                 |
\*---------------------------------------------------------------------------*/
FoamFile
{
    version     2.0;
    format      ascii;
    arch        "LSB;label=32;scalar=64";
    class       volScalarField;
    location    "2";
    object      p;
}
// * * * * * * * * * * * * * * * * * * * * * * * * * * * * * * * * * * * * * //

dimensions      [0 2 -2 0 0 0 0];

internalField   nonuniform List<scalar> 
13248
(
-0.536778
-0.52813
-0.521601
-0.517417
-0.51408
-0.5088
-0.498249
-0.48001
-0.453569
-0.420326
-0.382848
-0.343906
-0.305785
-0.270007
-0.23737
-0.208129
-0.182206
-0.159347
-0.139228
-0.121506
-0.105838
-0.0919449
-0.07936
-0.0681417
-0.569189
-0.559485
-0.552039
-0.546747
-0.541631
-0.533669
-0.519702
-0.497867
-0.468332
-0.432983
-0.394499
-0.35545
-0.317772
-0.282646
-0.250625
-0.221827
-0.196125
-0.173274
-0.152985
-0.134967
-0.118948
-0.104708
-0.0919259
-0.0807993
-0.602939
-0.592199
-0.583845
-0.577242
-0.569819
-0.5584
-0.540232
-0.51423
-0.481318
-0.443789
-0.404305
-0.365138
-0.327843
-0.29328
-0.261788
-0.233378
-0.207889
-0.185082
-0.164697
-0.14648
-0.130198
-0.115649
-0.102576
-0.0908809
-0.638027
-0.626237
-0.61688
-0.608592
-0.598154
-0.582421
-0.559321
-0.52872
-0.49229
-0.452601
-0.412166
-0.372888
-0.335937
-0.301875
-0.270858
-0.242808
-0.217534
-0.194804
-0.174378
-0.156027
-0.139543
-0.12474
-0.111388
-0.0994033
-0.674098
-0.661236
-0.650687
-0.640205
-0.625988
-0.605188
-0.576667
-0.541318
-0.501449
-0.459733
-0.418414
-0.378996
-0.342288
-0.308602
-0.277946
-0.250174
-0.225075
-0.202417
-0.181971
-0.163524
-0.14688
-0.131855
-0.118266
-0.10599
-0.710487
-0.69655
-0.684542
-0.671248
-0.652469
-0.625966
-0.591745
-0.551697
-0.508584
-0.465014
-0.422883
-0.383299
-0.346752
-0.313345
-0.282972
-0.25543
-0.230489
-0.207914
-0.187481
-0.168986
-0.152238
-0.137062
-0.123305
-0.110825
-0.746284
-0.731286
-0.717483
-0.700699
-0.676632
-0.643991
-0.604038
-0.559532
-0.513481
-0.468279
-0.42543
-0.385671
-0.349221
-0.316018
-0.285865
-0.258518
-0.233727
-0.211253
-0.190873
-0.172384
-0.155598
-0.140348
-0.126499
-0.113872
-0.780359
-0.764332
-0.748353
-0.7274
-0.697461
-0.658482
-0.612993
-0.564418
-0.515801
-0.469215
-0.425764
-0.385853
-0.349481
-0.316454
-0.286506
-0.259358
-0.234742
-0.212411
-0.192141
-0.173726
-0.156983
-0.141749
-0.127894
-0.115207
-0.811415
-0.794403
-0.775857
-0.750137
-0.713962
-0.66873
-0.618129
-0.566008
-0.515262
-0.467578
-0.423676
-0.383678
-0.347409
-0.314573
-0.284851
-0.257933
-0.233538
-0.211409
-0.191317
-0.173054
-0.156439
-0.141312
-0.127535
-0.114877
-0.838044
-0.820092
-0.798607
-0.767683
-0.725187
-0.674075
-0.618984
-0.563937
-0.511538
-0.463066
-0.418896
-0.37892
-0.342826
-0.310241
-0.280805
-0.254184
-0.230082
-0.208232
-0.188401
-0.170379
-0.153983
-0.139056
-0.125441
-0.112913
-0.858804
-0.83994
-0.815192
-0.778802
-0.730152
-0.673725
-0.614857
-0.557522
-0.503948
-0.455011
-0.410792
-0.370995
-0.335201
-0.302982
-0.273941
-0.247724
-0.224022
-0.202561
-0.183101
-0.16543
-0.149367
-0.134748
-0.121388
-0.109107
-0.872387
-0.852652
-0.824384
-0.782381
-0.72782
-0.666637
-0.604634
-0.545581
-0.49128
-0.442221
-0.398223
-0.358834
-0.323547
-0.291883
-0.263418
-0.23778
-0.214647
-0.193736
-0.174804
-0.157639
-0.142062
-0.127895
-0.114937
-0.103085
-0.201433
-0.210032
-0.212696
-0.210987
-0.205235
-0.194385
-0.177651
-0.15502
-0.12728
-0.0959254
-0.0628931
-0.0302652
8.45379e-05
0.0267206
0.04875
0.065837
0.0781148
0.0860523
0.0903126
0.0916303
0.0907124
0.0882053
0.0845946
0.0803847
-0.208117
-0.216347
-0.218932
-0.217359
-0.211886
-0.201401
-0.185053
-0.162756
-0.135234
-0.103943
-0.0708065
-0.0379341
-0.00721766
0.0198662
0.0423897
0.0599893
0.072778
0.0812113
0.0859435
0.0877048
0.0871976
0.0850697
0.0817974
0.0778986
-0.22425
-0.231547
-0.233907
-0.232642
-0.227844
-0.218283
-0.202946
-0.181555
-0.154676
-0.123652
-0.0903809
-0.0570127
-0.0254967
0.0026008
0.0262702
0.0450804
0.0590957
0.0687384
0.0746395
0.0775131
0.0780476
0.0768857
0.074481
0.0713511
-0.24823
-0.254115
-0.256092
-0.255227
-0.251388
-0.243182
-0.229355
-0.20934
-0.18346
-0.152837
-0.11944
-0.0853679
-0.0527054
-0.0231493
0.00217081
0.0227283
0.0385195
0.0499204
0.0575293
0.0620361
0.0641075
0.0643751
0.0632629
0.0612803
-0.277876
-0.281996
-0.28341
-0.28292
-0.28015
-0.273523
-0.261509
-0.243162
-0.218473
-0.188443
-0.154869
-0.119968
-0.0859595
-0.054698
-0.0274534
-0.00485849
0.0130107
0.0264811
0.0361151
0.0425734
0.0464961
0.0484964
0.0489652
0.0483901
-0.310856
-0.313008
-0.313664
-0.313409
-0.31163
-0.306566
-0.296478
-0.279889
-0.256489
-0.227048
-0.193298
-0.157543
-0.122162
-0.0891744
-0.059988
-0.0353307
-0.0153406
0.00026666
0.0120186
0.0205437
0.0264508
0.0303271
0.0325273
0.033505
-0.345091
-0.345227
-0.34493
-0.344727
-0.343751
-0.340191
-0.331714
-0.316733
-0.294505
-0.265574
-0.231633
-0.195085
-0.158466
-0.123946
-0.0930368
-0.0665309
-0.044605
-0.0270052
-0.0132358
-0.0027037
0.0051645
0.0109226
0.014888
0.0174753
-0.379066
-0.37727
-0.375936
-0.375422
-0.374889
-0.372345
-0.365277
-0.351594
-0.330256
-0.301646
-0.267471
-0.230248
-0.192653
-0.156955
-0.124716
-0.096745
-0.0732261
-0.0539227
-0.0383689
-0.0260119
-0.0163195
-0.00877673
-0.00310479
0.00107974
-0.41197
-0.408417
-0.405949
-0.404916
-0.404465
-0.402507
-0.396283
-0.383352
-0.362433
-0.333839
-0.299348
-0.261603
-0.223367
-0.186936
-0.153848
-0.124872
-0.10017
-0.0795127
-0.0624631
-0.0485147
-0.0371839
-0.0280029
-0.020736
-0.0150096
-0.443674
-0.438586
-0.434976
-0.433249
-0.43253
-0.430638
-0.424587
-0.411698
-0.390584
-0.361618
-0.326712
-0.288615
-0.250104
-0.213404
-0.179949
-0.150422
-0.124941
-0.103272
-0.0850115
-0.0696996
-0.0569002
-0.0462051
-0.0374294
-0.030188
-0.474571
-0.46815
-0.463445
-0.460901
-0.459579
-0.457168
-0.450505
-0.436817
-0.414794
-0.385007
-0.349555
-0.311246
-0.272776
-0.236204
-0.202795
-0.173108
-0.147204
-0.124847
-0.105658
-0.08922
-0.0751242
-0.0630115
-0.0527021
-0.0438537
-0.505362
-0.497751
-0.49203
-0.488613
-0.486384
-0.482842
-0.474701
-0.45926
-0.435487
-0.404299
-0.368019
-0.329467
-0.291173
-0.254959
-0.22187
-0.192319
-0.1663
-0.143568
-0.123772
-0.106528
-0.0914448
-0.0781854
-0.0663899
-0.0557154
0.0747515
0.0682287
0.062228
0.0569592
0.0522509
0.0479732
0.0441016
0.0406805
0.0376725
0.0350233
0.0326876
0.0306389
0.028843
0.0272663
0.0258836
0.0246736
0.0236163
0.0226942
0.0218916
0.0211938
0.020588
0.0200626
0.019607
0.0192118
0.0188685
0.0185697
0.0183086
0.0180791
0.0178757
0.0176933
0.0175273
0.0173735
0.0172279
0.0170867
0.0169464
0.0168035
0.0166544
0.0164961
0.0163252
0.0161386
0.0159334
0.0157063
0.0154537
0.0151719
0.0148563
0.0145018
0.014103
0.0136538
0.0131473
0.0125757
0.0119306
0.0112022
0.0103802
0.00945246
0.00840859
0.00723005
0.00591758
0.00442981
0.0028018
0.000996277
0.0724947
0.0663389
0.0609097
0.0561104
0.0516632
0.0475041
0.0437383
0.040492
0.0375902
0.0350008
0.0326919
0.030668
0.0288935
0.027331
0.0259564
0.0247494
0.0236924
0.0227698
0.0219664
0.0212676
0.02066
0.0201322
0.0196739
0.0192754
0.0189287
0.0186263
0.0183617
0.0181286
0.0179216
0.0177356
0.017566
0.0174085
0.0172591
0.017114
0.0169698
0.016823
0.0166702
0.0165081
0.0163334
0.0161432
0.0159342
0.0157036
0.0154477
0.0151627
0.0148441
0.0144868
0.0140853
0.0136337
0.0131249
0.0125513
0.0119045
0.0111749
0.0103522
0.0094245
0.00838109
0.00720489
0.00589353
0.00441186
0.00278737
0.000982693
0.0665299
0.061355
0.0572874
0.0537197
0.0500129
0.0461823
0.0427087
0.0396864
0.0369591
0.0345894
0.032409
0.0304751
0.0287647
0.027251
0.0259129
0.0247313
0.0236919
0.022782
0.021988
0.0212964
0.0206943
0.0201705
0.0197145
0.0193173
0.0189707
0.018668
0.0184025
0.0181683
0.01796
0.0177726
0.0176015
0.0174424
0.0172911
0.0171438
0.016997
0.0168473
0.0166914
0.0165262
0.0163484
0.0161549
0.0159428
0.0157091
0.0154502
0.0151623
0.0148409
0.014481
0.014077
0.013623
0.013112
0.0125364
0.0118878
0.0111568
0.010333
0.00940487
0.0083613
0.00718669
0.00587544
0.0043987
0.00277615
0.000970463
0.0573672
0.0536734
0.0515825
0.0497186
0.0470903
0.0439396
0.0410039
0.0384462
0.0361211
0.0338316
0.0317837
0.0300245
0.0284601
0.0270358
0.0257552
0.0246169
0.0236135
0.0227326
0.0219601
0.0212839
0.0206933
0.0201785
0.0197296
0.0193375
0.0189946
0.0186942
0.0184302
0.0181969
0.0179892
0.0178022
0.0176314
0.0174725
0.0173213
0.017174
0.0170267
0.0168759
0.0167183
0.0165508
0.0163705
0.0161745
0.0159598
0.0157235
0.0154622
0.015172
0.0148482
0.014486
0.0140799
0.0136237
0.0131106
0.0125331
0.0118827
0.01115
0.0103249
0.00939586
0.00835145
0.00717749
0.00586521
0.00439185
0.00276931
0.000960386
0.0456213
0.0437728
0.044082
0.0442678
0.0430135
0.0408001
0.0385681
0.036574
0.0346633
0.0327533
0.0309951
0.0292398
0.0279375
0.026683
0.0254867
0.0244035
0.0234504
0.0226144
0.0218783
0.0212293
0.0206582
0.0201578
0.01972
0.0193365
0.0190002
0.0187048
0.0184445
0.018214
0.0180084
0.0178231
0.0176538
0.0174963
0.0173466
0.0172008
0.0170551
0.0169055
0.0167483
0.0165804
0.0163987
0.0162008
0.0159843
0.0157462
0.0154831
0.0151911
0.0148656
0.0145016
0.0140937
0.0136358
0.013121
0.0125417
0.0118897
0.0111554
0.0103287
0.00939835
0.00835248
0.00717825
0.00586378
0.00439212
0.00276751
0.000952943
0.0320352
0.0322753
0.035191
0.0374958
0.0377593
0.0367094
0.0354057
0.0341312
0.0327732
0.0313303
0.0299284
0.0286686
0.0271785
0.0261453
0.0250903
0.0240911
0.0232061
0.0224272
0.0217376
0.0211268
0.020586
0.0201083
0.0196871
0.0193159
0.0189889
0.0187007
0.0184461
0.0182201
0.0180179
0.0178354
0.0176684
0.0175131
0.0173656
0.0172221
0.0170789
0.0169321
0.0167777
0.0166118
0.0164309
0.0162327
0.0160151
0.0157758
0.0155116
0.0152184
0.0148918
0.0145267
0.0141176
0.0136584
0.0131423
0.0125617
0.0119082
0.0111724
0.0103441
0.00941218
0.00836439
0.00718905
0.0058714
0.00439975
0.00277098
0.000948479
0.0174021
0.0198736
0.0253342
0.0295755
0.0313595
0.0316884
0.0315228
0.0311
0.0304047
0.0295114
0.0285282
0.0275294
0.0265604
0.0254431
0.0245083
0.0236517
0.02288
0.0221793
0.0215438
0.0209755
0.0204714
0.0200249
0.0196284
0.0192753
0.0189615
0.0186831
0.0184361
0.0182161
0.0180188
0.0178401
0.0176763
0.0175237
0.0173787
0.0172378
0.0170974
0.0169539
0.0168033
0.0166415
0.0164642
0.016268
0.016051
0.0158114
0.0155467
0.015253
0.0149259
0.0145603
0.0141506
0.0136908
0.0131738
0.0125923
0.0119376
0.0112005
0.0103707
0.00943708
0.00838703
0.00720985
0.00588814
0.00441486
0.00277992
0.000947421
0.00244312
0.00714669
0.0147887
0.0207047
0.0239749
0.0258024
0.0269139
0.0274528
0.0275191
0.0272512
0.0267561
0.0261202
0.0253857
0.0245741
0.023733
0.0230183
0.0224515
0.0218709
0.0213059
0.0207862
0.0203197
0.0199063
0.0195394
0.019211
0.0189158
0.0186512
0.0184147
0.0182028
0.0180118
0.0178382
0.0176785
0.0175293
0.0173873
0.0172492
0.0171117
0.0169713
0.0168244
0.0166671
0.0164948
0.0163036
0.0160899
0.0158517
0.0155875
0.0152941
0.0149672
0.0146017
0.0141921
0.0137321
0.0132149
0.0126328
0.0119774
0.0112393
0.0104081
0.00947278
0.00842026
0.00724059
0.00591415
0.0044376
0.00279463
0.000950285
-0.0122134
-0.00547925
0.00385937
0.0111591
0.015913
0.0192593
0.0216641
0.0232205
0.0241236
0.0245564
0.0246227
0.0244276
0.0240609
0.0235629
0.0230425
0.0221763
0.0218893
0.0214805
0.0210129
0.0205607
0.0201409
0.019762
0.0194251
0.0191236
0.0188512
0.0186048
0.0183822
0.018181
0.0179982
0.017831
0.0176764
0.0175314
0.0173929
0.0172579
0.0171232
0.0169858
0.0168422
0.0166888
0.0165213
0.0163358
0.0161277
0.0158937
0.0156319
0.01534
0.0150142
0.0146497
0.0142408
0.0137813
0.0132645
0.0126825
0.0120269
0.0112882
0.0104558
0.00951886
0.00846379
0.00728111
0.00594946
0.00446801
0.0028154
0.000957599
-0.0259788
-0.0176111
-0.0071467
0.00122986
0.00739101
0.0122129
0.0158739
0.0184728
0.0202874
0.0214968
0.0221957
0.0225068
0.0225556
0.0224261
0.0222002
0.022093
0.0212794
0.0210018
0.0206442
0.0202885
0.0199353
0.019601
0.0192966
0.0190219
0.0187729
0.0185463
0.0183397
0.018151
0.0179781
0.0178187
0.0176703
0.0175303
0.0173958
0.0172643
0.0171327
0.0169982
0.0168576
0.0167076
0.0165443
0.0163638
0.016162
0.015934
0.0156768
0.0153882
0.015065
0.0147025
0.0142954
0.0138374
0.0133216
0.0127405
0.0120852
0.0113464
0.0105134
0.00957502
0.00851749
0.00733138
0.00599424
0.00450631
0.00284271
0.00096997
-0.0384432
-0.029157
-0.0183558
-0.00924867
-0.00183906
0.0043139
0.0091825
0.0128779
0.0156787
0.0177528
0.0191865
0.0201068
0.0206587
0.0209516
0.0210709
0.0210916
0.0209734
0.0205313
0.020204
0.0199623
0.0196851
0.0194058
0.0191412
0.0188971
0.0186738
0.0184692
0.018281
0.0181074
0.0179468
0.0177972
0.0176568
0.0175231
0.0173939
0.0172666
0.0171387
0.0170075
0.01687
0.0167231
0.0165637
0.0163884
0.0161928
0.0159717
0.0157206
0.015437
0.0151177
0.0147585
0.0143542
0.0138986
0.0133848
0.0128053
0.0121512
0.011413
0.0105798
0.00964046
0.00858077
0.007391
0.00604837
0.00455249
0.00287736
0.000988642
-0.0481141
-0.0388549
-0.0287558
-0.01945
-0.0112694
-0.00418224
0.00168442
0.00639216
0.0101891
0.0132042
0.0154692
0.017087
0.0182118
0.0189687
0.0194505
0.0197238
0.0198074
0.0197046
0.0194731
0.0194307
0.0192805
0.019098
0.0189035
0.0187119
0.0185293
0.018357
0.0181949
0.0180425
0.0178989
0.0177631
0.0176336
0.0175088
0.0173867
0.0172652
0.017142
0.0170149
0.0168811
0.0167381
0.0165837
0.0164145
0.0162255
0.0160108
0.0157657
0.0154871
0.0151721
0.0148167
0.0144156
0.0139628
0.0134517
0.0128742
0.0122218
0.0114848
0.010652
0.00971202
0.00865057
0.00745711
0.00610944
0.00460408
0.00291802
0.0010145
-0.049487
-0.0410339
-0.0312876
-0.02211
-0.0140101
-0.0068974
-0.000947859
0.00384686
0.00777364
0.0109859
0.0134987
0.0153906
0.0167923
0.017807
0.0185107
0.0189702
0.0192346
0.0193297
0.0194212
0.0192038
0.0190761
0.0189381
0.0187819
0.0186226
0.0184667
0.0183164
0.0181722
0.0180346
0.0179033
0.0177775
0.0176562
0.017538
0.0174213
0.0173043
0.0171851
0.0170615
0.0169313
0.0167925
0.016643
0.0164786
0.0162936
0.0160824
0.0158405
0.0155651
0.015253
0.0149
0.0145011
0.0140504
0.0135408
0.0129646
0.0123129
0.0115759
0.0107423
0.00980033
0.00873573
0.0075358
0.00618244
0.00466152
0.00296306
0.00104367
-0.0520693
-0.0433014
-0.0333265
-0.0242994
-0.016467
-0.00950498
-0.00363861
0.00108782
0.00506634
0.00847327
0.0112226
0.0133387
0.0149645
0.0162059
0.0171227
0.0177706
0.018199
0.0184487
0.0186033
0.0186291
0.018617
0.0185652
0.0184844
0.0183869
0.0182814
0.018172
0.0180613
0.0179511
0.0178421
0.0177345
0.0176281
0.017522
0.0174153
0.0173064
0.0171939
0.017076
0.0169509
0.0168167
0.0166712
0.0165095
0.0163261
0.0161164
0.0158764
0.015603
0.0152928
0.0149418
0.0145447
0.0140957
0.0135878
0.013013
0.0123626
0.0116265
0.0107934
0.00985103
0.00878537
0.00758204
0.00622575
0.00469439
0.00298849
0.00105793
-0.0524004
-0.0442578
-0.0346572
-0.0258944
-0.0183558
-0.0116113
-0.00589503
-0.00129705
0.00265921
0.00618138
0.00909744
0.0113801
0.0131846
0.0146195
0.0157269
0.0165518
0.017148
0.0175686
0.0178735
0.0180358
0.0181179
0.0181506
0.0181451
0.0181118
0.0180601
0.0179956
0.0179222
0.0178428
0.0177593
0.0176727
0.0175835
0.0174914
0.017396
0.0172962
0.017191
0.017079
0.0169585
0.0168276
0.0166836
0.0165219
0.0163383
0.0161286
0.0158892
0.0156165
0.0153071
0.0149567
0.0145602
0.0141117
0.0136043
0.0130301
0.0123801
0.0116443
0.0108113
0.00986867
0.00880257
0.00759737
0.00624
0.00470293
0.00299326
0.00106153
-0.0501295
-0.0439578
-0.0352607
-0.0268806
-0.0196752
-0.0132266
-0.00772244
-0.00329266
0.000578776
0.00414492
0.00717757
0.00958937
0.0115344
0.0131282
0.0144023
0.0153923
0.0161496
0.0167208
0.0171408
0.0174201
0.0176081
0.0177299
0.0178
0.0178309
0.0178334
0.0178146
0.0177794
0.0177319
0.0176748
0.0176102
0.0175389
0.0174616
0.017378
0.0172878
0.0171902
0.0170839
0.0169675
0.016839
0.0166958
0.0165344
0.0163509
0.0161417
0.0159029
0.0156308
0.0153218
0.0149718
0.0145755
0.014127
0.0136195
0.0130452
0.0123949
0.0116587
0.0108253
0.00988182
0.00881479
0.00760752
0.00624895
0.0047073
0.00299478
0.00106527
-0.0472376
-0.0427168
-0.0350308
-0.0272144
-0.0204335
-0.0143304
-0.00907602
-0.00485685
-0.00113852
0.00239585
0.00548769
0.00798345
0.0100255
0.0117404
0.0131531
0.0142841
0.0151759
0.0158712
0.0164041
0.0167996
0.0170901
0.0172992
0.0174443
0.0175397
0.017597
0.0176246
0.0176288
0.0176144
0.017585
0.0175434
0.0174913
0.0174296
0.0173588
0.017279
0.0171895
0.0170895
0.0169778
0.0168524
0.0167113
0.0165515
0.0163695
0.0161615
0.0159239
0.0156528
0.0153447
0.0149953
0.0145995
0.0141514
0.0136441
0.0130698
0.0124195
0.011683
0.010849
0.00990461
0.00883638
0.00762671
0.00626619
0.00471951
0.00300322
0.00107235
-0.0438156
-0.0404547
-0.0338688
-0.0268293
-0.0205889
-0.0148795
-0.00991944
-0.00596519
-0.00246629
0.000964612
0.00405491
0.00658664
0.0086826
0.0104787
0.011994
0.0132349
0.0142383
0.0150452
0.0156863
0.0161856
0.0165697
0.0168616
0.0170798
0.0172387
0.0173508
0.0174254
0.0174696
0.0174891
0.0174884
0.0174708
0.0174386
0.0173935
0.0173364
0.0172676
0.017187
0.0170941
0.0169878
0.0168665
0.0167285
0.0165711
0.016391
0.0161846
0.0159484
0.0156787
0.0153718
0.0150234
0.0146285
0.0141811
0.0136744
0.0131005
0.0124504
0.011714
0.0108797
0.00993448
0.00886503
0.00765287
0.00628978
0.00473774
0.00301597
0.00107987
-0.039547
-0.0373403
-0.0319313
-0.0257828
-0.0201613
-0.01489
-0.0102656
-0.00661969
-0.00339115
-0.000124987
0.00290536
0.00542531
0.00753218
0.00936758
0.0109488
0.0122718
0.0133659
0.0142667
0.0150003
0.0155895
0.0160579
0.0164269
0.0167142
0.0169344
0.0170999
0.0172209
0.0173051
0.0173589
0.0173873
0.0173943
0.0173828
0.0173548
0.0173119
0.0172548
0.0171837
0.0170983
0.0169979
0.0168813
0.0167467
0.0165919
0.0164137
0.016209
0.0159743
0.0157061
0.0154004
0.0150531
0.0146592
0.0142126
0.0137065
0.0131331
0.0124834
0.011747
0.0109125
0.00996656
0.00889583
0.00768112
0.00631504
0.00475754
0.00302903
0.00108634
-0.0349173
-0.0337313
-0.0294015
-0.0241469
-0.0191859
-0.0143913
-0.0101346
-0.00682739
-0.00390762
-0.000857217
0.00205987
0.0045213
0.00659696
0.00843221
0.0100448
0.0114206
0.0125794
0.0135515
0.01436
0.0150251
0.0155671
0.0160052
0.0163558
0.0166333
0.0168498
0.0170155
0.0171389
0.0172265
0.0172841
0.0173158
0.0173253
0.017315
0.0172867
0.0172417
0.0171804
0.017103
0.0170089
0.0168971
0.0167662
0.0166142
0.0164382
0.0162353
0.0160022
0.0157354
0.0154311
0.0150849
0.0146919
0.0142462
0.0137408
0.013168
0.0125186
0.0117823
0.0109475
0.0100007
0.00892858
0.00771121
0.00634174
0.00477862
0.00304262
0.00109258
-0.0302665
-0.029781
-0.0263797
-0.0219975
-0.017721
-0.0134272
-0.00955695
-0.00660712
-0.00402331
-0.00122866
0.00152955
0.00388983
0.00589554
0.00769387
0.00930323
0.0107004
0.0118963
0.0129168
0.0137815
0.0145067
0.0151094
0.0156065
0.0160131
0.0163423
0.0166058
0.0168137
0.0169744
0.0170948
0.0171808
0.0172371
0.0172675
0.017275
0.0172616
0.0172289
0.0171778
0.0171086
0.0170211
0.0169145
0.0167876
0.0166386
0.016465
0.0162642
0.0160328
0.0157676
0.0154647
0.0151197
0.0147278
0.0142829
0.0137783
0.0132061
0.0125571
0.0118209
0.0109859
0.0100383
0.00896456
0.00774441
0.00637114
0.0048021
0.00305789
0.0010992
-0.0255548
-0.0255957
-0.0230131
-0.0194533
-0.0158474
-0.0120543
-0.00857545
-0.00599101
-0.00375879
-0.00124819
0.00131503
0.00353821
0.00543973
0.00716707
0.00873991
0.0101279
0.0113342
0.0123797
0.0132802
0.0140482
0.0146973
0.015242
0.0156954
0.0160694
0.0163747
0.0166208
0.016816
0.0169672
0.0170803
0.0171603
0.0172112
0.0172361
0.0172375
0.0172173
0.0171765
0.0171157
0.017035
0.0169338
0.0168111
0.0166654
0.0164945
0.0162958
0.0160664
0.0158028
0.0155014
0.0151578
0.014767
0.0143232
0.0138195
0.0132479
0.0125994
0.0118635
0.0110282
0.0100797
0.00900434
0.00778126
0.00640378
0.00482842
0.00307517
0.00110631
-0.0208737
-0.0213397
-0.0194509
-0.0166261
-0.0136471
-0.010337
-0.00724328
-0.00502172
-0.00314498
-0.000934563
0.00140773
0.00346509
0.00523364
0.00686043
0.00836703
0.00971747
0.0109081
0.0119549
0.0128703
0.0136631
0.0143433
0.0149228
0.0154126
0.015823
0.0161635
0.0164429
0.0166687
0.0168479
0.016986
0.0170882
0.0171585
0.0172002
0.0172161
0.017208
0.0171774
0.017125
0.0170512
0.0169556
0.0168373
0.0166951
0.016527
0.0163306
0.0161032
0.0158414
0.0155416
0.0151994
0.0148099
0.0143672
0.0138645
0.0132937
0.0126458
0.0119101
0.0110747
0.0101253
0.00904823
0.00782205
0.00643996
0.00485777
0.00309458
0.00111403
-0.0163567
-0.0171181
-0.0157938
-0.0136123
-0.0112046
-0.00834577
-0.00561889
-0.0037473
-0.00221957
-0.000314527
0.00179102
0.00366173
0.0052747
0.00677677
0.00819167
0.00947912
0.0106294
0.0116544
0.0125644
0.0133638
0.0140593
0.0146599
0.0151747
0.0156121
0.0159801
0.0162865
0.0165382
0.0167415
0.0169018
0.017024
0.0171121
0.0171695
0.0171989
0.0172025
0.0171817
0.0171376
0.0170706
0.0169805
0.0168667
0.0167281
0.0165629
0.016369
0.0161436
0.0158837
0.0155855
0.0152448
0.0148567
0.0144153
0.0139136
0.0133439
0.0126967
0.0119613
0.0111258
0.0101756
0.00909665
0.0078672
0.00648008
0.00489049
0.00311639
0.00112257
-0.0120384
-0.0129916
-0.0121239
-0.0104975
-0.00859866
-0.00615033
-0.00376302
-0.00221986
-0.00102559
0.000578383
0.00244049
0.00411196
0.00555368
0.00691258
0.0082151
0.00941781
0.0105058
0.0114874
0.0123729
0.0131609
0.013856
0.0144641
0.0149916
0.0154454
0.0158322
0.0161585
0.0164303
0.0166531
0.0168319
0.0169713
0.017075
0.0171464
0.0171881
0.0172024
0.0171909
0.0171546
0.0170941
0.0170094
0.0169
0.016765
0.0166028
0.0164113
0.0161881
0.0159301
0.0156337
0.0152946
0.0149079
0.0144678
0.0139675
0.0133987
0.0127524
0.0120175
0.0111819
0.0102309
0.00915012
0.00791722
0.00652466
0.00492699
0.00314094
0.00113214
-0.00793348
-0.00900966
-0.00850841
-0.00735335
-0.00589884
-0.0038155
-0.00173514
-0.00049296
0.000390199
0.00170516
0.00332548
0.00479316
0.00605504
0.00725826
0.00843293
0.00953396
0.0105412
0.0114539
0.0123048
0.0130654
0.0137439
0.0143446
0.0148721
0.0153314
0.0157277
0.016066
0.0163512
0.0165881
0.0167811
0.0169341
0.0170506
0.0171338
0.0171862
0.0172099
0.0172066
0.0171774
0.0171229
0.0170432
0.0169381
0.0168065
0.0166472
0.0164582
0.0162372
0.0159811
0.0156865
0.015349
0.014964
0.0145253
0.0140263
0.0134588
0.0128135
0.0120793
0.0112437
0.010292
0.00920923
0.00797268
0.00657426
0.00496775
0.00316859
0.00114294
-0.0040608
-0.0052084
-0.00499759
-0.00423805
-0.00316493
-0.00139944
0.000409456
0.00138165
0.00198069
0.00302467
0.00441122
0.00567689
0.00675689
0.00779862
0.0088362
0.00982468
0.0107439
0.0116026
0.0123736
0.0130848
0.0137301
0.0143092
0.0148241
0.0152779
0.0156738
0.0160157
0.0163072
0.0165521
0.0167541
0.0169166
0.0170425
0.0171348
0.0171956
0.0172271
0.0172307
0.0172076
0.0171584
0.0170832
0.0169818
0.0168535
0.0166969
0.0165103
0.0162914
0.0160372
0.0157444
0.0154087
0.0150252
0.0145882
0.0140907
0.0135246
0.0128804
0.012147
0.0113117
0.0103593
0.0092746
0.00803422
0.00662951
0.00501332
0.00319976
0.00115519
-0.000430985
-0.00160947
-0.00162546
-0.00119422
-0.000444501
0.00104797
0.00262038
0.00335451
0.00369907
0.00449462
0.00566125
0.00673259
0.00763412
0.00851363
0.00940883
0.0102731
0.0110883
0.0118509
0.0125601
0.0132162
0.0138172
0.0143628
0.0148537
0.0152911
0.015677
0.0160138
0.016304
0.0165505
0.0167559
0.0169231
0.0170546
0.0171527
0.0172194
0.0172565
0.0172653
0.017247
0.017202
0.0171305
0.0170324
0.0169069
0.0167527
0.0165683
0.0163513
0.016099
0.0158079
0.015474
0.0150923
0.014657
0.0141612
0.0135967
0.0129539
0.0122215
0.0113866
0.0104336
0.00934694
0.00810255
0.00669112
0.00506435
0.00323492
0.00116912
0.00295352
0.00177519
0.00158488
0.00174629
0.00222312
0.00348363
0.00485335
0.00538169
0.00550293
0.00607543
0.00703967
0.0079286
0.00865962
0.00937978
0.0101326
0.0108732
0.0115747
0.0122412
0.0128711
0.0134607
0.0140069
0.0145085
0.0149648
0.0153759
0.0157425
0.0160657
0.0163469
0.0165881
0.0167912
0.0169581
0.0170907
0.017191
0.0172605
0.0173007
0.0173127
0.0172974
0.0172554
0.0171866
0.017091
0.0169676
0.0168155
0.0166329
0.0164177
0.0161671
0.0158777
0.0155456
0.0151657
0.0147322
0.0142382
0.0136755
0.0130343
0.0123031
0.0114689
0.0105155
0.00942703
0.00817849
0.00675991
0.00512157
0.00327465
0.00118501
0.00609995
0.00493598
0.00460778
0.00454551
0.00480191
0.00587158
0.00707121
0.00742514
0.0073545
0.00773041
0.00851166
0.00923271
0.00980462
0.0103747
0.0109867
0.0116002
0.0121903
0.0127572
0.0133003
0.0138153
0.0142983
0.0147469
0.0151596
0.0155354
0.015874
0.0161755
0.0164403
0.0166695
0.0168641
0.0170253
0.0171545
0.0172529
0.0173218
0.0173623
0.0173752
0.0173611
0.0173204
0.0172531
0.0171588
0.0170369
0.0168862
0.016705
0.0164913
0.0162422
0.0159544
0.015624
0.0152459
0.0148144
0.0143224
0.0137617
0.0131224
0.0123928
0.0115595
0.010606
0.00951575
0.00826294
0.0068368
0.00518581
0.00331959
0.00120317
0.00901292
0.00787757
0.00744587
0.00720492
0.00727707
0.00818749
0.00924457
0.00945233
0.0092188
0.0094238
0.0100424
0.0106118
0.0110378
0.0114669
0.0119477
0.0124397
0.0129186
0.0133848
0.0138379
0.0142734
0.014687
0.0150757
0.0154375
0.0157705
0.0160735
0.0163459
0.0165874
0.016798
0.0169782
0.0171283
0.0172493
0.0173417
0.0174064
0.017444
0.0174551
0.0174399
0.0173988
0.0173314
0.0172374
0.017116
0.016966
0.0167856
0.0165729
0.016325
0.0160387
0.0157098
0.0153336
0.0149041
0.0144143
0.0138559
0.0132188
0.0124911
0.0116591
0.0107058
0.00961403
0.00835692
0.00692283
0.00525806
0.00337051
0.00122397
0.0117008
0.0106018
0.0100913
0.00970559
0.00962965
0.0104101
0.0113491
0.0114364
0.0110675
0.0111266
0.011603
0.0120383
0.0123338
0.0126349
0.0129932
0.0133701
0.0137418
0.014109
0.0144717
0.0148256
0.0151662
0.0154904
0.0157957
0.0160798
0.0163411
0.0165781
0.0167899
0.016976
0.017136
0.01727
0.0173779
0.0174601
0.0175168
0.0175483
0.0175547
0.0175361
0.0174924
0.0174233
0.0173282
0.0172061
0.0170558
0.0168756
0.0166634
0.0164163
0.0161311
0.0158038
0.0154293
0.015002
0.0145146
0.0139587
0.0133241
0.0125988
0.0117685
0.0108159
0.00972292
0.00846155
0.00701919
0.00533946
0.00342832
0.00124784
0.0141729
0.0131139
0.012544
0.0120427
0.0118488
0.0125241
0.0133661
0.0133558
0.0128767
0.0128133
0.0131669
0.0134852
0.0136659
0.0138527
0.0140994
0.0143698
0.0146407
0.0149131
0.0151875
0.0154599
0.0157263
0.0159835
0.0162289
0.0164599
0.0166745
0.016871
0.0170479
0.0172042
0.0173391
0.017452
0.0175424
0.0176103
0.0176552
0.0176772
0.017676
0.0176514
0.017603
0.0175303
0.0174325
0.0173085
0.0171569
0.016976
0.0167636
0.0165168
0.0162325
0.0159064
0.0155338
0.0151086
0.0146237
0.0140707
0.0134391
0.0127166
0.0118887
0.0109372
0.00984352
0.00857808
0.00712723
0.00543132
0.00349412
0.00127531
0.0164391
0.0154212
0.0148069
0.0142142
0.013928
0.0145186
0.015281
0.015193
0.0146265
0.0144617
0.0147109
0.0149287
0.0150102
0.0150967
0.0152439
0.0154177
0.0155957
0.0157791
0.0159694
0.016163
0.0163561
0.0165458
0.0167296
0.0169049
0.0170697
0.0172219
0.0173598
0.0174821
0.0175875
0.017675
0.0177439
0.0177934
0.0178231
0.0178323
0.0178206
0.0177875
0.0177321
0.0176538
0.0175516
0.0174243
0.0172703
0.0170877
0.0168744
0.0166274
0.0163434
0.0160184
0.0156474
0.0152244
0.0147423
0.0141924
0.0135643
0.0128453
0.0120204
0.0110708
0.00997701
0.00870787
0.00724846
0.00553515
0.00356918
0.00130706
0.0185094
0.017532
0.0168846
0.0162209
0.0158639
0.0163866
0.0170833
0.0169347
0.0163009
0.016054
0.0162152
0.0163478
0.0163451
0.0163452
0.0164053
0.016493
0.0165871
0.0166891
0.0168009
0.0169198
0.0170423
0.0171659
0.0172884
0.0174073
0.0175206
0.0176261
0.0177222
0.0178072
0.0178796
0.0179383
0.0179821
0.01801
0.0180211
0.0180146
0.0179897
0.0179454
0.0178808
0.017795
0.0176868
0.0175546
0.0173969
0.0172116
0.0169964
0.0167485
0.0164645
0.0161401
0.0157706
0.0153499
0.0148707
0.0143244
0.0137003
0.0129854
0.0121643
0.0112175
0.0101246
0.00885234
0.00738456
0.00565271
0.00365504
0.0013439
0.020393
0.0194546
0.0187831
0.0180653
0.0176555
0.0181237
0.0187658
0.0185708
0.0178875
0.0175756
0.0176635
0.0177248
0.0176517
0.0175789
0.0175638
0.0175764
0.017596
0.0176248
0.0176651
0.0177148
0.0177709
0.0178314
0.0178943
0.0179575
0.0180191
0.0180771
0.0181298
0.0181754
0.0182126
0.0182398
0.0182557
0.0182592
0.018249
0.0182241
0.0181834
0.0181257
0.0180499
0.0179547
0.0178386
0.0177001
0.0175374
0.0173483
0.0171305
0.0168809
0.0165961
0.016272
0.0159038
0.0154852
0.0150092
0.0144668
0.0138473
0.0131374
0.0123212
0.0113783
0.0102874
0.00901299
0.00753737
0.00578599
0.00375355
0.00138687
0.0221001
0.0211984
0.0205094
0.0197519
0.0193044
0.0197283
0.0203236
0.0200943
0.0193773
0.0190151
0.0190424
0.0190447
0.0189139
0.0187805
0.0187018
0.0186498
0.0186047
0.0185689
0.0185453
0.0185321
0.0185271
0.0185287
0.0185351
0.0185447
0.0185557
0.0185666
0.0185755
0.018581
0.0185815
0.0185756
0.0185618
0.0185388
0.0185053
0.0184599
0.0184014
0.0183284
0.0182394
0.018133
0.0180076
0.0178614
0.0176924
0.0174984
0.0172768
0.0170246
0.0167385
0.0164143
0.0160469
0.0156305
0.0151578
0.0146197
0.0140055
0.0133015
0.0124914
0.0115539
0.0104665
0.00919127
0.00770885
0.00593723
0.0038669
0.00143726
0.0236396
0.0227722
0.0220713
0.0212861
0.0208137
0.0212005
0.0217544
0.0215004
0.0207633
0.0203639
0.0203414
0.0202952
0.0201181
0.0199353
0.0198037
0.0196971
0.0195967
0.0195049
0.0194251
0.019356
0.0192959
0.0192434
0.0191975
0.0191566
0.0191195
0.0190847
0.0190508
0.0190164
0.0189801
0.0189404
0.0188959
0.0188453
0.0187871
0.0187199
0.0186421
0.0185523
0.0184488
0.0183299
0.0181938
0.0180385
0.017862
0.0176618
0.0174355
0.0171799
0.0168916
0.0165665
0.0161998
0.0157853
0.015316
0.0147827
0.0141745
0.0134775
0.0126749
0.0117444
0.0106627
0.00938844
0.00790092
0.00610886
0.00399764
0.00149673
0.0250157
0.0241807
0.023473
0.0226718
0.0221858
0.0225411
0.0230565
0.0227861
0.0220416
0.0216164
0.0215533
0.0214676
0.0212541
0.0210321
0.0208573
0.0207053