/*--------------------------------*- C++ -*----------------------------------*\
| =========                 |                                                 |
| \\      /  F ield         | OpenFOAM: The Open Source CFD Toolbox           |
|  \\    /   O peration     | Version:  2512                                  |
|   \\  /    A nd           | Website:  www.openfoam.com                      |
|    \\/     M anipulation  |                                                 |
\*---------------------------------------------------------------------------*/
FoamFile
{
    version     2.0;
    format      ascii;
    arch        "LSB;label=32;scalar=64";
    class       volVectorField;
    location    "2";
    object      U;
}
// * * * * * * * * * * * * * * * * * * * * * * * * * * * * * * * * * * * * * //

dimensions      [0 1 -1 0 0 0 0];

internalField   nonuniform List<vector> 
13248
(
(-0.0305037 0.0325695 1.16083e-19)
(-0.0244404 0.0495004 0)
(0.04591 0.0330789 -2.11852e-19)
(0.168128 -0.010404 1.99516e-19)
(0.328095 -0.0722029 1.90793e-19)
(0.509009 -0.142509 0)
(0.692088 -0.211989 0)
(0.859632 -0.273035 4.27948e-19)
(0.998577 -0.320682 -1.68281e-20)
(1.10253 -0.352893 -3.4572e-19)
(1.17154 -0.370143 2.78693e-19)
(1.21026 -0.374594 -1.70686e-19)
(1.22558 -0.369188 0)
(1.22469 -0.356911 -2.10374e-19)
(1.2138 -0.34033 3.71096e-19)
(1.19762 -0.321416 -8.44306e-20)
(1.17935 -0.301539 -1.17315e-19)
(1.16097 -0.281582 1.10156e-19)
(1.14353 -0.26207 0)
(1.12749 -0.243306 0)
(1.11304 -0.22537 0)
(1.09989 -0.208562 0)
(1.08886 -0.192125 2.01104e-20)
(1.07591 -0.177276 5.56272e-20)
(-0.0230955 0.0231492 -3.54808e-19)
(0.00256502 0.0261483 2.40285e-19)
(0.096469 0.00205399 -2.60523e-21)
(0.243685 -0.0432734 -3.18571e-19)
(0.426532 -0.101547 -1.90585e-19)
(0.624228 -0.163667 -1.85477e-19)
(0.815031 -0.221608 -3.25236e-19)
(0.980622 -0.269578 3.10934e-19)
(1.10976 -0.304516 0)
(1.19929 -0.325908 9.7335e-21)
(1.25257 -0.335123 2.20097e-20)
(1.27677 -0.334558 1.75944e-19)
(1.28016 -0.326885 0)
(1.27028 -0.314526 0)
(1.25306 -0.299401 1.34026e-19)
(1.23261 -0.282884 -2.51043e-19)
(1.21147 -0.265879 1.26735e-19)
(1.19108 -0.248941 -1.19e-19)
(1.17211 -0.232392 -4.79764e-20)
(1.1548 -0.216407 -7.2101e-20)
(1.13917 -0.201045 -2.50957e-20)
(1.12508 -0.18651 -4.2446e-20)
(1.11277 -0.171866 7.22907e-20)
(1.09954 -0.161669 1.89528e-20)
(-0.0132806 0.014075 0)
(0.0364622 0.00421436 0)
(0.15726 -0.0258976 1.14149e-19)
(0.330682 -0.0708769 1.05018e-19)
(0.534609 -0.123163 -3.38192e-21)
(0.744194 -0.174906 -1.99761e-19)
(0.935856 -0.219985 0)
(1.09253 -0.254762 -1.51861e-19)
(1.2065 -0.278014 1.3733e-19)
(1.27868 -0.290397 2.60116e-21)
(1.31572 -0.293704 -2.0125e-19)
(1.32665 -0.290155 -1.62454e-19)
(1.32032 -0.281877 1.58217e-20)
(1.30392 -0.27062 -1.01182e-19)
(1.28262 -0.257672 2.6547e-19)
(1.25971 -0.243906 0)
(1.23707 -0.229874 -1.34703e-19)
(1.21566 -0.215914 6.54246e-20)
(1.19587 -0.202227 4.79371e-20)
(1.1778 -0.18893 0)
(1.1614 -0.176094 3.31333e-20)
(1.14655 -0.163817 -1.09115e-19)
(1.13326 -0.151857 1.02423e-19)
(1.1198 -0.143003 5.54609e-20)
(-0.000761474 0.00554445 -1.33715e-19)
(0.0775245 -0.0153786 -1.38957e-19)
(0.227947 -0.049127 1.22109e-19)
(0.427593 -0.0911664 0)
(0.649384 -0.1352 0)
(0.86509 -0.17524 -7.93408e-21)
(1.05111 -0.207439 0)
(1.19356 -0.230231 -4.66901e-19)
(1.28931 -0.243805 4.17498e-19)
(1.34342 -0.249438 -4.90293e-19)
(1.36518 -0.248887 1.01669e-19)
(1.36466 -0.243924 0)
(1.35057 -0.236052 1.40399e-19)
(1.32937 -0.226413 -2.50321e-19)
(1.30531 -0.215791 5.80076e-20)
(1.28088 -0.204696 1.23031e-19)
(1.2574 -0.193447 -1.64445e-20)
(1.23544 -0.182241 -1.35416e-19)
(1.21519 -0.171204 0)
(1.19666 -0.160419 0)
(1.17977 -0.149942 -3.80692e-20)
(1.1644 -0.139868 3.20144e-20)
(1.15049 -0.129931 9.88689e-20)
(1.13676 -0.122967 -9.28996e-20)
(0.0146973 -0.00218268 -1.45047e-19)
(0.125696 -0.0316705 -1.44234e-19)
(0.307479 -0.0660663 4.02504e-19)
(0.531851 -0.102316 -2.42456e-19)
(0.766817 -0.136097 2.28181e-19)
(0.982203 -0.16381 4.01715e-19)
(1.15652 -0.183941 -2.81628e-19)
(1.28067 -0.196612 -3.16322e-19)
(1.3566 -0.202849 2.29831e-20)
(1.39308 -0.204036 3.75733e-19)
(1.40125 -0.201554 0)
(1.39144 -0.19658 8.91706e-20)
(1.37166 -0.190006 0)
(1.34736 -0.182453 -1.21251e-19)
(1.32179 -0.174326 1.67102e-19)
(1.29673 -0.165887 -1.14958e-21)
(1.27299 -0.157306 -3.89571e-20)
(1.25089 -0.148698 6.37878e-20)
(1.23051 -0.14015 5.57017e-20)
(1.21178 -0.131726 -4.70639e-20)
(1.19462 -0.123484 3.80572e-20)
(1.17892 -0.115463 -3.20041e-20)
(1.16458 -0.107635 0)
(1.1508 -0.102094 -2.38414e-20)
(0.0331956 -0.008736 1.45026e-19)
(0.180506 -0.0436047 1.54015e-19)
(0.394126 -0.0752718 -1.35698e-19)
(0.640196 -0.103 2.53424e-19)
(0.882642 -0.125194 -2.38505e-19)
(1.09144 -0.140928 2.06481e-19)
(1.24931 -0.150701 -1.01095e-19)
(1.35295 -0.155689 2.39595e-19)
(1.40924 -0.157117 -1.49538e-19)
(1.42983 -0.156024 2.3546e-19)
(1.42674 -0.1532 -5.2783e-19)
(1.40986 -0.149209 1.89595e-19)
(1.38615 -0.144432 -1.45254e-19)
(1.35993 -0.139118 1.36448e-19)
(1.3336 -0.133433 1.04532e-19)
(1.30833 -0.127492 8.32747e-20)
(1.2846 -0.121384 -2.34062e-19)
(1.26256 -0.115181 1.40957e-19)
(1.24219 -0.108943 -5.56994e-20)
(1.22342 -0.102722 1.38094e-19)
(1.20616 -0.0965634 -4.45552e-20)
(1.19029 -0.090495 -9.96193e-20)
(1.17572 -0.0845757 9.02767e-20)
(1.16193 -0.0803459 2.38364e-20)
(0.0546606 -0.0136637 0)
(0.241032 -0.0500993 2.29375e-21)
(0.485572 -0.0755221 2.90027e-19)
(0.748991 -0.092436 -2.71483e-19)
(0.992794 -0.102553 -2.38001e-19)
(1.1895 -0.107495 4.35564e-19)
(1.32772 -0.109141 -1.99072e-19)
(1.41023 -0.108986 2.44273e-19)
(1.44818 -0.10791 -1.28638e-20)
(1.45512 -0.10632 -1.30197e-19)
(1.4431 -0.104362 2.54835e-19)
(1.42109 -0.102069 -3.70245e-19)
(1.39484 -0.0994401 0)
(1.36762 -0.096484 -6.53096e-20)
(1.34108 -0.0932233 -1.61228e-19)
(1.31594 -0.089695 5.24674e-20)
(1.29245 -0.0859445 3.56941e-21)
(1.27064 -0.0820193 -9.17924e-20)
(1.25045 -0.0779657 1.17357e-20)
(1.2318 -0.0738267 1.02964e-19)
(1.21459 -0.0696391 -4.09094e-20)
(1.19872 -0.0654283 -1.44501e-20)
(1.18408 -0.061325 4.82062e-20)
(1.17036 -0.0583119 0)
(0.0788307 -0.0164757 0)
(0.305909 -0.0501504 7.91518e-20)
(0.579061 -0.0659427 -3.80238e-19)
(0.854559 -0.0704477 1.36433e-19)
(1.0938 -0.0688938 -1.28409e-19)
(1.27416 -0.0649145 -1.12482e-19)
(1.39112 -0.060942 -1.87907e-19)
(1.45327 -0.0581012 9.93251e-20)
(1.47503 -0.0565238 7.97706e-20)
(1.47082 -0.0558555 0)
(1.45211 -0.0556393 1.54227e-19)
(1.42662 -0.0555023 -2.22176e-19)
(1.39889 -0.0552055 1.61918e-19)
(1.37128 -0.054627 6.53403e-20)
(1.34486 -0.053725 -5.05121e-20)
(1.32003 -0.0525043 -3.76943e-20)
(1.29689 -0.0509926 -3.20438e-20)
(1.27541 -0.0492261 1.05972e-19)
(1.25552 -0.0472425 0)
(1.2371 -0.0450777 4.68912e-20)
(1.22008 -0.0427635 3.55064e-20)
(1.20435 -0.0403344 -9.22534e-20)
(1.1898 -0.0379297 -5.69619e-20)
(1.17623 -0.0360817 5.35697e-20)
(0.105247 -0.0166937 -8.50239e-20)
(0.373378 -0.0429475 -3.00882e-21)
(0.671595 -0.0461078 7.7488e-20)
(0.953479 -0.0374459 2.12915e-19)
(1.18297 -0.0254227 5.75267e-20)
(1.34414 -0.0148092 -1.1401e-19)
(1.43969 -0.00772447 1.0274e-19)
(1.4832 -0.00436383 -8.4802e-20)
(1.49126 -0.00388218 1.45157e-19)
(1.47836 -0.00517042 5.66211e-20)
(1.45486 -0.00729092 -1.63734e-19)
(1.42717 -0.00961012 4.50697e-20)
(1.39873 -0.0117672 7.29344e-20)
(1.37116 -0.0135902 -3.62162e-20)
(1.34511 -0.0150185 0)
(1.32075 -0.0160489 4.71731e-20)
(1.29809 -0.0167041 7.62876e-20)
(1.27706 -0.0170164 1.00734e-20)
(1.25757 -0.0170195 -6.08689e-20)
(1.23951 -0.0167459 2.43385e-20)
(1.22279 -0.016229 0)
(1.20732 -0.0155135 -1.75086e-20)
(1.19299 -0.0147107 -1.49727e-20)
(1.17961 -0.014041 0)
(0.133254 -0.0139037 0)
(0.441374 -0.0279795 4.45556e-20)
(0.760132 -0.0161042 8.23629e-20)
(1.0428 0.00562496 -2.15811e-19)
(1.25844 0.026303 6.98211e-20)
(1.39903 0.0410909 0)
(1.47414 0.0489674 9.45307e-20)
(1.50133 0.051048 -1.31009e-19)
(1.49832 0.0492224 -7.24914e-20)
(1.47895 0.0452537 3.13009e-20)
(1.45227 0.0404097 -4.70909e-20)
(1.42339 0.0354533 1.15626e-19)
(1.39482 0.0307774 5.33479e-20)
(1.3676 0.026551 -3.87536e-20)
(1.34208 0.0228255 -5.45485e-21)
(1.31831 0.019597 -9.31406e-20)
(1.29623 0.0168392 4.15548e-20)
(1.27575 0.0145184 -3.56098e-22)
(1.25677 0.0126009 0)
(1.23918 0.0110532 -2.43624e-20)
(1.22288 0.00983534 0)
(1.20778 0.00889849 5.06308e-20)
(1.19378 0.00819151 -5.90777e-20)
(1.18068 0.00766307 2.63353e-20)
(0.162016 -0.00779752 -2.26967e-20)
(0.507636 -0.00509362 -1.11433e-19)
(0.841769 0.0234761 1.26013e-19)
(1.1201 0.0573948 7.239e-20)
(1.31901 0.0845337 -3.52487e-20)
(1.43884 0.101096 5.478e-20)
(1.4953 0.107778 -2.71768e-20)
(1.50874 0.107197 4.21439e-20)
(1.49713 0.102222 0)
(1.47322 0.0951108 8.80959e-20)
(1.44463 0.0873097 -5.25369e-21)
(1.41533 0.0796061 -6.79416e-20)
(1.38707 0.0723655 2.77751e-20)
(1.36045 0.0657259 -2.99189e-20)
(1.33564 0.0597169 -1.03808e-20)
(1.31259 0.0543212 1.27716e-20)
(1.2912 0.0495041 -9.41144e-21)
(1.27138 0.045227 -4.76622e-20)
(1.25302 0.0414522 2.92097e-20)
(1.23601 0.0381397 5.73647e-21)
(1.22024 0.0352387 4.85773e-21)
(1.20563 0.0327062 4.10957e-21)
(1.19205 0.0305604 0)
(1.17931 0.0287562 0)
(0.190647 0.00181146 2.27125e-20)
(0.569999 0.0255144 -2.28822e-20)
(0.914025 0.0716252 -4.1772e-20)
(1.1836 0.11624 0)
(1.36399 0.147507 -1.71683e-20)
(1.46379 0.163674 -1.48381e-20)
(1.50378 0.167563 -2.43931e-20)
(1.50604 0.163314 0)
(1.48806 0.154631 0)
(1.46119 0.144091 0)
(1.43173 0.133192 0)
(1.40262 0.122672 0)
(1.37502 0.112837 -1.76008e-20)
(1.34925 0.103779 7.99101e-21)
(1.32532 0.0955004 1.30921e-20)
(1.30314 0.0879661 5.92705e-21)
(1.28259 0.0811291 1.42919e-20)
(1.26356 0.0749418 0)
(1.24595 0.0693587 -3.15225e-21)
(1.22965 0.0643293 -2.78592e-21)
(1.21455 0.0597938 -4.86525e-21)
(1.20055 0.0557322 -4.11597e-21)
(1.18752 0.0522319 0)
(1.17528 0.0491131 2.71282e-21)
(-0.00840422 0.00288952 5.37386e-21)
(-0.034217 0.0046467 -5.76759e-21)
(-0.0718623 0.00368842 -1.10095e-20)
(-0.107094 0.00135544 0)
(-0.132843 -0.00154134 -1.39675e-20)
(-0.146181 -0.00453009 4.26007e-21)
(-0.14568 -0.00731692 -7.27112e-21)
(-0.131006 -0.00971423 0)
(-0.102763 -0.0116003 0)
(-0.0622771 -0.012893 0)
(-0.0114254 -0.0135516 0)
(0.0474883 -0.0135691 0)
(0.111991 -0.0129808 -4.60325e-22)
(0.179681 -0.0118512 3.3981e-22)
(0.248321 -0.0102704 -2.21912e-21)
(0.315972 -0.00834265 -4.51829e-21)
(0.381071 -0.00617652 -1.69633e-21)
(0.442459 -0.00387533 0)
(0.499365 -0.00152932 -1.71962e-21)
(0.55138 0.00078248 4.79644e-21)
(0.598353 0.00302162 2.96322e-21)
(0.640463 0.00509386 2.70875e-21)
(0.677796 0.00715611 0)
(0.711164 0.00866646 0)
(-0.0103145 0.0242743 -1.64962e-20)
(-0.0370447 0.0451173 2.86506e-20)
(-0.0734953 0.0476378 -1.1182e-20)
(-0.106481 0.0389405 -2.06197e-20)
(-0.129446 0.0235001 2.88507e-20)
(-0.139713 0.0041943 -1.64674e-20)
(-0.136028 -0.0169369 2.27566e-20)
(-0.118204 -0.0383026 1.29688e-20)
(-0.0869813 -0.0585589 0)
(-0.0438366 -0.0765689 -4.10732e-21)
(0.00921753 -0.0914382 4.12847e-21)
(0.0697746 -0.102594 3.64286e-21)
(0.135288 -0.109774 1.00051e-21)
(0.203336 -0.113031 -3.19891e-21)
(0.271711 -0.112695 2.59553e-22)
(0.33855 -0.109287 7.52937e-21)
(0.402398 -0.103444 -3.35846e-21)
(0.46222 -0.0958326 1.22212e-20)
(0.517369 -0.0870889 0)
(0.567559 -0.0777921 -3.17838e-21)
(0.612719 -0.0683515 -2.95947e-21)
(0.653143 -0.0593058 -2.70531e-21)
(0.688851 -0.0503293 0)
(0.721013 -0.0432438 0)
(-0.0141204 0.0435289 0)
(-0.0423342 0.0820084 6.34707e-20)
(-0.0756116 0.0880302 -2.37004e-20)
(-0.103139 0.0735914 2.07925e-20)
(-0.119495 0.0464448 -6.32795e-20)
(-0.122555 0.0117252 0)
(-0.111458 -0.0268297 -3.08102e-20)
(-0.0863514 -0.0662261 1.60186e-20)
(-0.0483075 -0.103891 -2.39228e-20)
(0.000868892 -0.137626 1.08172e-20)
(0.0588221 -0.165686 3.16168e-20)
(0.122888 -0.186959 -1.46011e-20)
(0.190392 -0.20093 -3.4942e-21)
(0.258874 -0.207709 4.30513e-21)
(0.326225 -0.207929 4.1384e-21)
(0.390783 -0.202584 -1.59454e-20)
(0.451368 -0.192863 8.89431e-21)
(0.507252 -0.180001 -1.25758e-21)
(0.558089 -0.165153 0)
(0.603868 -0.149354 9.88292e-21)
(0.644717 -0.133334 0)
(0.681161 -0.117998 1.00798e-20)
(0.713124 -0.102855 -3.48177e-20)
(0.74245 -0.0907792 7.92116e-22)
(-0.0192602 0.0591158 0)
(-0.0493374 0.112607 2.72363e-21)
(-0.077764 0.122039 2.74566e-20)
(-0.0970324 0.102861 -2.51999e-20)
(-0.103361 0.065438 2.27169e-20)
(-0.095465 0.0168928 1.2616e-19)
(-0.0731099 -0.0374387 -3.78106e-20)
(-0.0370004 -0.0931857 -3.40257e-20)
(0.0112402 -0.146539 5.23133e-20)
(0.0692583 -0.194231 -5.4643e-20)
(0.134182 -0.233728 2.09871e-20)
(0.202973 -0.263392 1.20375e-20)
(0.272793 -0.282554 0)
(0.341209 -0.291491 1.06194e-21)
(0.406339 -0.291238 0)
(0.466903 -0.283326 -1.62918e-21)
(0.522181 -0.269527 1.50904e-20)
(0.571927 -0.251625 -1.69815e-21)
(0.616242 -0.231244 -1.61752e-20)
(0.655501 -0.209788 -9.87475e-21)
(0.690095 -0.18823 0)
(0.720839 -0.167715 2.47216e-20)
(0.747518 -0.147606 -8.37183e-21)
(0.772805 -0.131488 0)
(-0.0249975 0.0700371 0)
(-0.0570474 0.134927 -8.99501e-20)
(-0.0793509 0.147392 -3.06689e-20)
(-0.0881436 0.124617 -5.39758e-20)
(-0.0816125 0.0787306 5.08244e-20)
(-0.0595729 0.0184713 -4.38893e-20)
(-0.0226661 -0.0493865 8.07222e-20)
(0.0275916 -0.119142 2.75554e-20)
(0.0887674 -0.185767 -9.36872e-20)
(0.157688 -0.24497 4.56799e-20)
(0.230818 -0.293468 -5.55826e-20)
(0.3047 -0.32921 1.0121e-19)
(0.376357 -0.351517 -4.54856e-20)
(0.443536 -0.360969 1.48648e-20)
(0.504796 -0.359104 1.48491e-20)
(0.559459 -0.348052 -5.7621e-21)
(0.607463 -0.330159 -5.57495e-21)
(0.649198 -0.3077 4.1446e-21)
(0.685306 -0.282673 0)
(0.716592 -0.256731 1.25855e-20)
(0.743718 -0.23099 1.33967e-20)
(0.767761 -0.206683 -1.87508e-20)
(0.788336 -0.18306 -2.45716e-20)
(0.808943 -0.164039 2.12807e-20)
(-0.0305644 0.0759389 0)
(-0.0643295 0.147912 -1.38644e-19)
(-0.0796101 0.162585 -3.09487e-21)
(-0.0763231 0.137232 1.20167e-19)
(-0.0547535 0.0848189 0)
(-0.0160285 0.0152783 0)
(0.0380781 -0.0633932 0)
(0.104935 -0.144236 -3.58394e-20)
(0.180987 -0.221088 7.44176e-21)
(0.262007 -0.288719 6.42466e-20)
(0.343655 -0.343206 -5.64014e-20)
(0.422055 -0.382292 8.56725e-21)
(0.494255 -0.40547 0)
(0.558437 -0.413769 -1.48569e-20)
(0.613875 -0.40932 1.01128e-20)
(0.660734 -0.394846 -2.67276e-20)
(0.699786 -0.373205 7.95754e-21)
(0.732148 -0.347043 -4.18751e-21)
(0.759029 -0.318586 -6.13006e-21)
(0.781628 -0.289592 9.15505e-21)
(0.800828 -0.261205 4.19577e-21)
(0.817877 -0.234602 -2.56951e-20)
(0.83219 -0.208971 1.5466e-20)
(0.847978 -0.188213 0)
(-0.0352956 0.0770893 7.58555e-20)
(-0.0700602 0.151501 7.10221e-20)
(-0.077635 0.167051 -7.33108e-20)
(-0.061134 0.139711 -1.31916e-19)
(-0.0229476 0.0825632 1.24199e-19)
(0.0343626 0.00626343 -1.14094e-19)
(0.107622 -0.0801867 1.62972e-19)
(0.192754 -0.168752 -3.62957e-20)
(0.284712 -0.252265 8.63412e-20)
(0.377999 -0.324712 0)
(0.467415 -0.381785 5.36017e-20)
(0.548809 -0.421271 -1.08599e-19)
(0.619549 -0.443054 6.22628e-20)
(0.678588 -0.448746 -5.847e-20)
(0.726217 -0.441092 0)
(0.763654 -0.423338 2.41321e-20)
(0.792607 -0.398701 2.95558e-20)
(0.814918 -0.370023 -2.3103e-20)
(0.832298 -0.339584 -7.77273e-21)
(0.846232 -0.309089 4.70741e-21)
(0.857725 -0.279614 -4.80316e-21)
(0.868057 -0.252148 -1.27048e-21)
(0.876445 -0.225914 4.71638e-22)
(0.887629 -0.204465 -2.0301e-21)
(-0.0387046 0.0742282 -7.58652e-20)
(-0.0731916 0.146509 2.47354e-19)
(-0.072413 0.16109 -7.9902e-20)
(-0.0418654 0.131879 1.43766e-19)
(0.0141616 0.0714983 -1.35349e-19)
(0.0914587 -0.00910782 6.29229e-21)
(0.18514 -0.100188 6.21555e-20)
(0.289289 -0.192846 2.14876e-19)
(0.397085 -0.2791 -1.40506e-20)
(0.501601 -0.352454 -8.34935e-20)
(0.596889 -0.408561 0)
(0.678855 -0.44557 -4.94075e-20)
(0.745605 -0.463967 9.31596e-20)
(0.797252 -0.46602 5.83036e-20)
(0.835364 -0.455017 -2.77451e-20)
(0.862324 -0.434557 5.31051e-21)
(0.880751 -0.408009 -1.007e-20)
(0.893104 -0.378196 2.14125e-20)
(0.90144 -0.347275 7.77415e-21)
(0.907362 -0.316766 -4.06104e-21)
(0.91189 -0.287606 7.10267e-21)
(0.916184 -0.260509 -4.58319e-21)
(0.919301 -0.234867 0)
(0.926301 -0.213554 2.03282e-21)
(-0.0405307 0.0683474 8.63416e-20)
(-0.0728929 0.134375 -8.48137e-20)
(-0.0627211 0.145874 8.55534e-20)
(-0.0172277 0.114511 0)
(0.057627 0.0520099 0)
(0.155839 -0.0306569 1.45531e-19)
(0.270466 -0.123257 -1.27573e-19)
(0.393345 -0.216248 1.13741e-19)
(0.515616 -0.301191 -5.13603e-19)
(0.628987 -0.371539 8.34135e-21)
(0.727128 -0.423333 7.80085e-20)
(0.80653 -0.455402 0)
(0.866546 -0.468977 -9.03996e-20)
(0.908794 -0.466938 1.5543e-19)
(0.936258 -0.452945 -9.32447e-20)
(0.952439 -0.430709 -1.02341e-19)
(0.960703 -0.403503 1.55426e-20)
(0.963903 -0.37393 6.57588e-20)
(0.964231 -0.343877 0)
(0.963236 -0.314596 0)
(0.961845 -0.286851 -7.10634e-21)
(0.96097 -0.261057 4.58565e-21)
(0.959637 -0.236936 -1.67892e-20)
(0.962933 -0.216287 1.57485e-20)
(-0.0406742 0.0604817 0)
(-0.0684767 0.116904 0)
(-0.0473246 0.123259 -2.62349e-19)
(0.0143699 0.0891614 8.61948e-20)
(0.109061 0.0253752 4.66222e-22)
(0.228732 -0.0572829 1.55882e-19)
(0.363966 -0.148331 0)
(0.504012 -0.23794 -1.27433e-19)
(0.637936 -0.317695 1.063e-19)
(0.756463 -0.381521 -1.89626e-19)
(0.853541 -0.426276 9.46141e-21)
(0.926916 -0.451699 1.26368e-19)
(0.977667 -0.459776 -1.65553e-20)
(1.00911 -0.453831 6.69177e-20)
(1.02559 -0.437636 -1.15811e-19)
(1.0315 -0.414746 0)
(1.03067 -0.388112 7.82578e-20)
(1.02606 -0.359959 -1.02842e-19)
(1.01977 -0.331817 2.87583e-20)
(1.01315 -0.304652 0)
(1.00696 -0.279039 1.75489e-20)
(1.00178 -0.255161 4.18338e-20)
(0.996841 -0.233168 -3.92679e-20)
(0.996777 -0.213357 -3.29883e-20)
(-0.039114 0.0515157 2.94122e-19)
(-0.0593614 0.09592 -4.05204e-19)
(-0.0249679 0.0954467 1.48735e-21)
(0.0546482 0.0581287 9.15798e-20)
(0.170245 -0.00612079 -1.70844e-19)
(0.311419 -0.0867415 -1.50862e-19)
(0.465849 -0.173275 2.8372e-19)
(0.620041 -0.256072 -1.78218e-20)
(0.76134 -0.327309 -2.40709e-19)
(0.880266 -0.381904 3.99097e-19)
(0.97193 -0.417857 -2.35362e-20)
(1.03601 -0.435883 -1.55065e-19)
(1.07561 -0.438578 0)
(1.0957 -0.429447 0)
(1.10171 -0.412089 -3.71675e-20)
(1.09857 -0.389659 -6.66497e-20)
(1.0902 -0.36463 -9.33525e-20)
(1.07941 -0.338763 8.76522e-20)
(1.06802 -0.313213 -2.87874e-20)
(1.05709 -0.288685 4.6674e-20)
(1.04717 -0.265556 -2.45537e-20)
(1.03845 -0.243941 2.33502e-20)
(1.03067 -0.22426 -6.83342e-20)
(1.02717 -0.205144 8.16664e-21)
(-0.0357877 0.0420847 1.02857e-19)
(-0.0449485 0.0730459 0)
(0.0056171 0.0647537 1.99958e-19)
(0.105301 0.0241575 -1.88322e-19)
(0.242782 -0.0395186 1.70986e-19)
(0.404741 -0.116048 0)
(0.575623 -0.19532 0)
(0.73942 -0.268398 -1.34521e-19)
(0.882606 -0.328625 1.54917e-20)
(0.996622 -0.372324 1.18467e-19)
(1.07868 -0.398771 -8.47861e-20)
(1.13086 -0.409551 1.63833e-19)
(1.15833 -0.407601 0)
(1.1674 -0.39631 1.97736e-19)
(1.16417 -0.378852 -3.4705e-19)
(1.15363 -0.357822 2.18243e-19)
(1.13948 -0.335139 1.06444e-19)
(1.12417 -0.312096 -9.99475e-20)
(1.10914 -0.2895 0)
(1.09514 -0.267833 0)
(1.0825 -0.247294 0)
(1.07105 -0.2281 0)
(1.06118 -0.210385 1.39831e-20)
(1.05315 -0.192371 -4.60022e-20)
(0.745332 0.0116741 1.37809e-21)
(0.778265 0.0145612 -1.40008e-21)
(0.805663 0.0169679 3.66235e-23)
(0.828577 0.0188314 0)
(0.848041 0.0202661 9.02745e-22)
(0.864829 0.0215181 -1.68426e-21)
(0.87939 0.0225213 6.21237e-23)
(0.892048 0.0232829 7.01968e-22)
(0.903129 0.0239482 0)
(0.91292 0.0246614 0)
(0.921597 0.0254306 3.10644e-23)
(0.929296 0.0261983 2.83151e-23)
(0.93615 0.026948 4.29113e-22)
(0.942265 0.027683 -3.91891e-22)
(0.947731 0.0284052 0)
(0.952625 0.0291194 0)
(0.957019 0.0298324 -2.96913e-22)
(0.960973 0.0305507 1.07546e-23)
(0.964538 0.0312792 2.53386e-22)
(0.967759 0.0320233 1.56128e-23)
(0.970673 0.0327881 0)
(0.973314 0.0335784 0)
(0.975711 0.0343982 0)
(0.977891 0.0352521 0)
(0.979877 0.0361448 0)
(0.981687 0.0370806 0)
(0.983339 0.0380644 -6.55523e-23)
(0.98485 0.0391009 1.06341e-22)
(0.986232 0.0401951 0)
(0.987499 0.0413521 0)
(0.988661 0.0425774 7.49746e-23)
(0.989727 0.043877 -7.28682e-23)
(0.990706 0.0452569 -3.49893e-23)
(0.991607 0.0467238 0)
(0.992437 0.0482846 0)
(0.993201 0.0499466 -6.23483e-23)
(0.993906 0.0517177 6.06064e-23)
(0.994558 0.0536066 0)
(0.995161 0.0556229 -5.55737e-23)
(0.99572 0.057777 8.08885e-23)
(0.996239 0.06008 -2.57796e-23)
(0.996721 0.0625441 0)
(0.997171 0.0651818 4.68505e-23)
(0.99759 0.0680068 -4.55573e-23)
(0.997983 0.0710336 0)
(0.998351 0.0742778 0)
(0.998697 0.0777558 1.89913e-23)
(0.999024 0.0814851 -5.47827e-23)
(0.999335 0.0854839 0)
(0.99963 0.089771 0)
(0.999912 0.0943657 1.41757e-23)
(1.00018 0.0992871 9.69668e-27)
(1.00044 0.104554 1.01377e-24)
(1.00069 0.110187 -1.01057e-23)
(1.00094 0.116183 0)
(1.00116 0.122656 0)
(1.0014 0.129146 0)
(1.00159 0.137502 0)
(1.00179 0.141843 0)
(1.00197 0.156432 0)
(0.753268 -0.0316015 1.32648e-22)
(0.784382 -0.0203469 4.99875e-21)
(0.810215 -0.0113413 -4.27655e-22)
(0.831816 -0.00445761 -4.28447e-21)
(0.850486 0.000853531 -5.73669e-23)
(0.866782 0.00518846 0)
(0.880856 0.00884434 2.83135e-21)
(0.893112 0.0118087 -5.39093e-21)
(0.903956 0.0142392 2.55878e-21)
(0.913633 0.0163553 -2.12469e-21)
(0.922228 0.018272 2.0342e-21)
(0.929854 0.0200133 -1.73807e-21)
(0.936655 0.0216038 1.69083e-21)
(0.942737 0.0230565 4.77642e-23)
(0.948182 0.024386 1.38052e-21)
(0.953065 0.0256154 -1.3417e-21)
(0.957453 0.0267693 1.19473e-21)
(0.961405 0.0278676 -1.12551e-21)
(0.964972 0.0289253 1.06652e-21)
(0.968196 0.0299547 -2.02535e-21)
(0.971117 0.030967 9.61501e-22)
(0.973766 0.0319723 5.61225e-23)
(0.976174 0.0329796 8.43432e-22)
(0.978365 0.0339977 -1.62354e-21)
(0.980363 0.0350345 7.81228e-22)
(0.982186 0.0360974 -4.63123e-23)
(0.983854 0.0371934 -7.26752e-22)
(0.98538 0.0383292 -1.29659e-23)
(0.986778 0.0395114 1.30764e-21)
(0.988062 0.0407463 -1.25751e-21)
(0.989242 0.0420404 6.07985e-22)
(0.990327 0.0434003 -7.29112e-23)
(0.991327 0.0448332 3.50605e-23)
(0.992249 0.0463468 -6.76985e-23)
(0.9931 0.0479488 0)
(0.993887 0.0496476 0)
(0.994616 0.0514517 2.40837e-22)
(0.995293 0.0533701 -1.75836e-22)
(0.995922 0.0554125 -1.66721e-22)
(0.996509 0.0575897 -2.42441e-23)
(0.997057 0.0599132 2.33756e-22)
(0.99757 0.0623953 -4.94878e-23)
(0.998051 0.0650491 0)
(0.998503 0.0678883 0)
(0.99893 0.0709277 0)
(0.999335 0.0741829 0)
(0.999718 0.0776706 -7.71408e-23)
(1.00008 0.0814083 3.63471e-23)
(1.00043 0.0854144 0)
(1.00077 0.0897079 0)
(1.00109 0.094308 0)
(1.00141 0.0992341 2.46897e-23)
(1.00171 0.104505 -1.98197e-24)
(1.002 0.110141 2.13143e-23)
(1.00229 0.11614 0)
(1.00255 0.122616 0)
(1.00282 0.129107 -1.07486e-23)
(1.00304 0.13747 -2.52433e-23)
(1.00329 0.141809 0)
(1.00346 0.15641 0)
(0.770748 -0.0716237 7.7252e-22)
(0.797751 -0.0530284 1.01175e-20)
(0.819876 -0.0382824 -8.67132e-21)
(0.838646 -0.0269258 8.12077e-21)
(0.855488 -0.0179756 5.77639e-23)
(0.870805 -0.01066 0)
(0.884207 -0.00463828 5.71435e-21)
(0.895724 0.000185735 -5.59194e-21)
(0.905927 0.00424061 -3.78429e-23)
(0.915148 0.00787134 -6.7522e-23)
(0.923441 0.0110173 -6.15774e-23)
(0.930864 0.0137531 -5.70108e-23)
(0.937521 0.0161814 3.25023e-21)
(0.943489 0.0183552 -3.20693e-21)
(0.948844 0.020305 0)
(0.953664 0.0220634 -8.20995e-23)
(0.958011 0.023665 2.4051e-21)
(0.961935 0.0251431 -2.37296e-21)
(0.965483 0.0265268 0)
(0.968695 0.027839 0)
(0.971608 0.029098 1.9451e-21)
(0.974256 0.0303181 -3.73315e-21)
(0.976664 0.0315123 3.43776e-21)
(0.978861 0.0326934 -8.26338e-23)
(0.980866 0.0338731 -3.07392e-21)
(0.982699 0.0350618 3.03214e-21)
(0.984378 0.036269 -2.77014e-21)
(0.985917 0.0375037 1.02456e-22)
(0.98733 0.0387741 1.32456e-21)
(0.988629 0.040088 0)
(0.989825 0.0414528 0)
(0.990927 0.042876 -4.37536e-22)
(0.991946 0.0443648 5.67711e-22)
(0.992888 0.0459272 -1.19188e-25)
(0.99376 0.0475717 -5.22418e-22)
(0.99457 0.0493076 5.07706e-22)
(0.995323 0.0511445 0)
(0.996024 0.0530924 -5.85063e-23)
(0.996679 0.0551614 -5.039e-22)
(0.997293 0.0573625 9.72953e-22)
(0.99787 0.0597071 -4.17648e-22)
(0.998413 0.0622081 -4.97225e-23)
(0.998926 0.0648788 4.71419e-22)
(0.999412 0.0677331 -3.65926e-22)
(0.999874 0.070786 -8.62441e-23)
(1.00031 0.0740534 -8.1812e-23)
(1.00074 0.0775521 7.73374e-23)
(1.00114 0.0812996 0)
(1.00153 0.0853146 0)
(1.00191 0.0896161 2.50018e-22)
(1.00227 0.0942235 -1.20019e-22)
(1.00263 0.0991562 1.06574e-22)
(1.00298 0.104433 -1.44068e-22)
(1.00331 0.110075 -1.65384e-22)
(1.00363 0.11608 3.89307e-23)
(1.00394 0.122561 -6.12944e-23)
(1.00425 0.129056 4.86716e-23)
(1.0045 0.137428 -2.07792e-23)
(1.00478 0.141768 0)
(1.00495 0.156387 0)
(0.795733 -0.106594 1.807e-20)
(0.81711 -0.0824326 -1.05038e-21)
(0.834186 -0.0631851 -1.62401e-20)
(0.849093 -0.0480569 1.22173e-22)
(0.863351 -0.0357793 0)
(0.876837 -0.0256359 0)
(0.888764 -0.0175129 1.11348e-20)
(0.899266 -0.0109954 -5.7777e-22)
(0.908917 -0.00549845 -1.44676e-20)
(0.917639 -0.000720133 3.4535e-22)
(0.925365 0.00355239 4.13513e-21)
(0.932367 0.00738205 3.41633e-21)
(0.93875 0.0106873 -3.42864e-21)
(0.944528 0.013575 0)
(0.949737 0.0161371 2.78852e-21)
(0.954441 0.0184295 -2.54435e-21)
(0.958699 0.0204934 0)
(0.96256 0.0223661 0)
(0.966064 0.0240837 -2.13371e-21)
(0.969248 0.0256803 6.07805e-23)
(0.972143 0.0271851 1.89493e-21)
(0.974777 0.0286197 1.8629e-21)
(0.977179 0.0300011 -1.86286e-21)
(0.979373 0.0313452 1.68878e-21)
(0.98138 0.0326667 -7.5943e-23)
(0.983219 0.0339794 -1.51935e-21)
(0.984906 0.0352956 -1.80403e-22)
(0.986456 0.0366265 1.08771e-25)
(0.987882 0.0379822 0)
(0.989195 0.0393726 -1.27255e-21)
(0.990406 0.0408065 1.31329e-21)
(0.991526 0.0422923 -7.397e-23)
(0.992561 0.0438384 0)
(0.993522 0.0454524 6.86318e-23)
(0.994414 0.0471427 -1.05409e-21)
(0.995246 0.0489181 1.9115e-21)
(0.996022 0.0507887 1.13248e-22)
(0.996748 0.0527658 -9.91398e-24)
(0.997429 0.0548609 -7.98911e-22)
(0.99807 0.0570857 -1.08829e-22)
(0.998676 0.0594518 8.29239e-22)
(0.999249 0.061972 -7.05934e-22)
(0.999794 0.0646599 1.01841e-25)
(1.00031 0.0675299 -3.60613e-22)
(1.00081 0.0705971 4.3713e-22)
(1.00129 0.0738776 5.70789e-22)
(1.00174 0.0773883 -1.59749e-22)
(1.00219 0.0811471 -2.86684e-22)
(1.00262 0.0851726 5.46025e-22)
(1.00304 0.089484 -3.86891e-22)
(1.00345 0.0941008 1.09902e-22)
(1.00385 0.0990427 -1.21724e-22)
(1.00423 0.104328 -1.03909e-22)
(1.00461 0.109979 2.50646e-22)
(1.00498 0.115992 -4.62332e-24)
(1.00533 0.122484 6.14765e-23)
(1.00567 0.128986 0)
(1.00595 0.137371 2.10599e-23)
(1.00627 0.141718 -2.94853e-23)
(1.00644 0.156361 0)
(0.825915 -0.135384 -1.47708e-20)
(0.840887 -0.10765 2.88048e-20)
(0.852136 -0.0855102 -1.37715e-20)
(0.862537 -0.0676419 -1.3402e-20)
(0.873624 -0.0526474 2.56403e-20)
(0.884808 -0.0400935 -7.32879e-22)
(0.894994 -0.0299263 -1.1289e-20)
(0.904125 -0.0216702 -9.77254e-21)
(0.912614 -0.0148062 9.57229e-21)
(0.920608 -0.00898149 0)
(0.927966 -0.0038181 7.58626e-21)
(0.934503 0.000835917 -1.43668e-20)
(0.940398 0.00509431 6.79933e-21)
(0.945849 0.00874073 0)
(0.950846 0.0119184 0)
(0.955393 0.0147309 -8.3515e-23)
(0.959527 0.0172458 4.88123e-21)
(0.96329 0.0195159 -4.74211e-21)
(0.966721 0.0215808 0)
(0.969854 0.0234743 -4.19768e-21)
(0.972715 0.0252307 7.80441e-21)
(0.975326 0.0268807 -7.39676e-21)
(0.977712 0.0284491 7.13795e-21)
(0.979897 0.0299566 -6.23001e-23)
(0.981901 0.0314209 -6.48773e-21)
(0.983742 0.0328581 3.172e-21)
(0.985434 0.0342829 9.13201e-23)
(0.986992 0.0357086 1.30663e-21)
(0.988429 0.0371478 -1.4625e-23)
(0.989755 0.0386117 -1.30115e-21)
(0.990982 0.0401111 -7.77788e-23)
(0.992117 0.041656 1.19368e-21)
(0.993171 0.0432563 -2.30904e-21)
(0.994149 0.0449207 1.25571e-21)
(0.995061 0.046658 0)
(0.995913 0.0484764 1.15507e-21)
(0.996711 0.0503846 -1.12082e-21)
(0.997461 0.0523931 8.29585e-22)
(0.998168 0.0545144 -1.0363e-21)
(0.998837 0.0567622 1.10072e-22)
(0.999471 0.0591494 0)
(1.00007 0.0616888 1.00956e-22)
(1.00065 0.0643942 -2.89156e-22)
(1.0012 0.0672801 0)
(1.00173 0.0703619 -8.64845e-22)
(1.00225 0.0736559 3.39386e-22)
(1.00274 0.0771794 -1.56205e-22)
(1.00323 0.0809503 -1.47038e-22)
(1.0037 0.0849875 0)
(1.00416 0.0893103 0)
(1.00461 0.0939384 3.45431e-22)
(1.00505 0.0988916 -5.35269e-22)
(1.00549 0.104189 2.97211e-22)
(1.00591 0.109851 -9.47474e-23)
(1.00632 0.115877 -1.56696e-22)
(1.00671 0.122381 -6.15352e-23)
(1.00708 0.128896 9.77941e-23)
(1.0074 0.137297 0)
(1.00776 0.141658 4.72959e-23)
(1.00794 0.156332 1.08439e-23)
(0.859047 -0.157714 -1.08351e-20)
(0.86746 -0.128459 1.08102e-20)
(0.872728 -0.105062 -9.95674e-23)
(0.878503 -0.085433 8.18807e-23)
(0.886121 -0.0682698 -9.59523e-23)
(0.894591 -0.0536758 8.952e-23)
(0.902663 -0.0417872 -1.50243e-22)
(0.91018 -0.0320743 0)
(0.917408 -0.0239231 1.33997e-22)
(0.924328 -0.0169437 -1.25411e-22)
(0.930869 -0.0109169 -1.17093e-22)
(0.937044 -0.00556029 1.12726e-22)
(0.942581 -0.000699099 0)
(0.947532 0.00378101 0)
(0.95219 0.00763996 -8.85248e-23)
(0.956509 0.010992 0)
(0.960483 0.0139507 7.76177e-23)
(0.964126 0.0166007 0)
(0.967462 0.0190038 4.22249e-21)
(0.970519 0.0212009 -8.22458e-21)
(0.973324 0.0232232 7.78319e-21)
(0.975898 0.0250992 -3.79164e-21)
(0.978261 0.0268592 -3.52902e-21)
(0.980431 0.028531 3.42706e-21)
(0.982426 0.0301383 3.31709e-21)
(0.984263 0.0317008 -3.2196e-21)
(0.985957 0.0332352 0)
(0.987521 0.0347567 -8.89449e-23)
(0.988966 0.0362794 0)
(0.990304 0.0378163 0)
(0.991545 0.0393794 -2.35822e-21)
(0.992696 0.0409806 2.4432e-21)
(0.993767 0.0426308 -1.46417e-22)
(0.994765 0.0443409 -1.40853e-22)
(0.995697 0.0461211 1.35785e-22)
(0.996569 0.0479808 1.04042e-21)
(0.997388 0.0499288 -1.01022e-21)
(0.998161 0.0519733 1.08223e-21)
(0.998893 0.0541243 -9.33608e-22)
(0.999588 0.056396 -2.22666e-22)
(1.00025 0.0588036 8.46911e-22)
(1.00089 0.061362 8.93221e-23)
(1.00149 0.0640848 -5.91278e-22)
(1.00208 0.0669868 0)
(1.00265 0.0700836 3.5271e-22)
(1.0032 0.0733916 -4.91967e-22)
(1.00373 0.0769284 6.398e-22)
(1.00425 0.0807122 1.47975e-22)
(1.00477 0.0847621 0)
(1.00527 0.0890975 -1.21715e-22)
(1.00577 0.0937385 2.43109e-22)
(1.00625 0.098705 -2.17889e-25)
(1.00673 0.104016 9.72186e-23)
(1.0072 0.109693 -1.62228e-22)
(1.00765 0.115734 1.57226e-22)
(1.00808 0.122255 0)
(1.0085 0.128787 -9.78397e-23)
(1.00884 0.137208 0)
(1.00924 0.141586 0)
(1.00944 0.156299 -1.43613e-23)