/*--------------------------------*- C++ -*----------------------------------*\
| =========                 |                                                 |
| \\      /  F ield         | OpenFOAM: The Open Source CFD Toolbox           |
|  \\    /   O peration     | Version:  2512                                  |
|   \\  /    A nd           | Website:  www.openfoam.com                      |
|    \\/     M anipulation  |                                                 |
\*---------------------------------------------------------------------------*/
FoamFile
{
    version     2.0;
    format      ascii;
    arch        "LSB;label=32;scalar=64";
    class       surfaceScalarField;
    location    "80.75";
    object      phi;
}
// * * * * * * * * * * * * * * * * * * * * * * * * * * * * * * * * * * * * * //

dimensions      [0 3 -1 0 0 0 0];

oriented        oriented;

internalField   nonuniform List<scalar> 
26232
(
0.000150679
0.000961028
-0.00111171
0.000750601
0.00168135
-0.00228127
0.0019362
0.00132079
-0.00250639
0.00384068
-7.9479e-05
-0.001825
0.00660285
-0.00249182
-0.00027034
0.010362
-0.00589306
0.00213389
0.0152466
-0.0102573
0.0053727
0.0213546
-0.0155405
0.00943252
0.0287305
-0.0216661
0.0142902
0.0373444
-0.0285146
0.0199007
0.0470781
-0.0359208
0.0261871
0.0577233
-0.0436801
0.0330349
0.0689932
-0.0515627
0.0402928
0.0805474
-0.059334
0.0477798
0.0920255
-0.0667759
0.0552977
0.103085
-0.0737066
0.0626475
0.113435
-0.079996
0.0696453
0.122869
-0.0855738
0.0761398
0.131278
-0.0904289
0.0820204
0.138649
-0.0946093
0.0872386
0.145052
-0.0981745
0.0917712
0.150596
-0.10129
0.0957455
0.155231
-0.103783
0.0991491
-0.10638
0.102637
0.158973
0.000179269
0.000781759
0.000916024
0.000944597
0.00238953
-0.000152713
0.00476835
-0.0024583
0.00821327
-0.00593675
0.0128668
-0.0105466
0.0188296
-0.0162201
0.0261333
-0.0228442
0.0347166
-0.0302493
0.0444116
-0.0382096
0.0549483
-0.0464575
0.0659766
-0.0547084
0.0771039
-0.0626899
0.0879401
-0.0701703
0.0981437
-0.0769795
0.107459
-0.0830215
0.115738
-0.0882755
0.122951
-0.0927869
0.129173
-0.0966506
0.134554
-0.0999899
0.139309
-0.10293
0.143631
-0.105611
0.147885
-0.108038
-0.11067
0.152175
0.000234405
0.000547354
0.00117064
8.36002e-06
0.00302265
-0.00200472
0.00598289
-0.00541854
0.0102158
-0.0101697
0.0158331
-0.0161639
0.0228607
-0.0232477
0.0312109
-0.0311944
0.0406696
-0.039708
0.0509078
-0.0484478
0.061517
-0.0570668
0.0720615
-0.0652529
0.082136
-0.0727644
0.0914165
-0.0794509
0.0996961
-0.0852591
0.106898
-0.0902235
0.113068
-0.0944451
0.118346
-0.0980648
0.12293
-0.101235
0.12704
-0.104099
0.13088
-0.106771
0.134621
-0.109352
0.138419
-0.111835
-0.114517
0.142266
0.000318358
0.000228996
0.00151943
-0.00119271
0.00383613
-0.00432143
0.00746355
-0.00904595
0.0125354
-0.0152415
0.0190855
-0.022714
0.027013
-0.0311752
0.0360685
-0.0402499
0.0458724
-0.049512
0.055965
-0.0585404
0.0658747
-0.0669765
0.0751884
-0.0745665
0.0836059
-0.0811819
0.0909694
-0.0868144
0.0972638
-0.0915534
0.102591
-0.0955511
0.107132
-0.0989857
0.111097
-0.10203
0.114694
-0.104832
0.118098
-0.107503
0.121446
-0.11012
0.124834
-0.112739
0.128354
-0.115355
-0.118169
0.132006
0.000428501
-0.000199504
0.00195022
-0.00271442
0.0047945
-0.00716571
0.0091264
-0.0133778
0.0150036
-0.0211187
0.0223312
-0.0300416
0.0308414
-0.0396854
0.0401157
-0.0495241
0.0496481
-0.0590444
0.0589324
-0.0678247
0.0675451
-0.0755891
0.0752036
-0.082225
0.0817883
-0.0877667
0.0873292
-0.0923553
0.0919658
-0.09619
0.095897
-0.0994823
0.0993337
-0.102422
0.102465
-0.105161
0.105441
-0.107808
0.108371
-0.110433
0.111331
-0.11308
0.114366
-0.115775
0.117525
-0.118514
-0.121415
0.120771
0.000559476
-0.00075898
0.00243992
-0.00459487
0.0058374
-0.0105632
0.0108455
-0.0183859
0.0173967
-0.02767
0.0252275
-0.0378723
0.0338951
-0.0483531
0.0428527
-0.0584818
0.0515546
-0.0677463
0.059556
-0.0758261
0.0665775
-0.0826106
0.0725212
-0.0881687
0.0774445
-0.09269
0.0815092
-0.0964199
0.0849229
-0.0996037
0.0878918
-0.102451
0.0905909
-0.105121
0.0931528
-0.107723
0.0956701
-0.110325
0.0982043
-0.112967
0.100796
-0.115671
0.103469
-0.118448
0.106251
-0.121296
-0.12428
0.109116
0.000704717
-0.0014637
0.00295898
-0.00684913
0.00688966
-0.0144939
0.0124735
-0.0239698
0.0194767
-0.0346731
0.027454
-0.0458496
0.0358243
-0.0567235
0.043995
-0.0666524
0.0514828
-0.0752341
0.0579903
-0.0823336
0.0634204
-0.0880408
0.067842
-0.0925903
0.0714277
-0.0962757
0.0743896
-0.0993819
0.0769307
-0.102145
0.0792171
-0.104738
0.0813708
-0.107275
0.0834741
-0.109827
0.0855799
-0.112431
0.0877218
-0.115109
0.0899209
-0.11787
0.0921905
-0.120717
0.0945445
-0.12365
-0.126695
0.0969593
0.000856633
-0.00232033
0.00347359
-0.00946608
0.00786889
-0.0188892
0.0138611
-0.029962
0.0210301
-0.0418421
0.0287747
-0.0535942
0.036449
-0.0643978
0.0435105
-0.0737139
0.0496169
-0.0813405
0.0546486
-0.0873652
0.0586686
-0.0920608
0.0618521
-0.0957737
0.0644143
-0.0988379
0.0665585
-0.101526
0.0684479
-0.104034
0.0701998
-0.106489
0.0718911
-0.108966
0.0735699
-0.111505
0.0752656
-0.114127
0.076997
-0.11684
0.0787761
-0.119649
0.0806116
-0.122553
0.0825115
-0.12555
-0.128644
0.0844612
0.00100648
-0.00332681
0.00394715
-0.0124068
0.00869273
-0.0236348
0.0148765
-0.0361458
0.0219027
-0.0488683
0.0290748
-0.0607663
0.0357704
-0.0710934
0.0415722
-0.0795157
0.0463092
-0.0860776
0.0500195
-0.0910755
0.052871
-0.0949124
0.0550815
-0.0979842
0.0568582
-0.100615
0.0583673
-0.103035
0.0597263
-0.105393
0.0610108
-0.107774
0.0622667
-0.110222
0.0635214
-0.11276
0.0647917
-0.115397
0.0660889
-0.118138
0.0674205
-0.120981
0.0687924
-0.123924
0.0702086
-0.126966
-0.130097
0.0716609
0.00114421
-0.00447102
0.00434246
-0.015605
0.0092876
-0.0285799
0.0154229
-0.042281
0.0220193
-0.0554647
0.028363
-0.06711
0.03393
-0.0766604
0.0384637
-0.0840494
0.0419512
-0.0895651
0.0445404
-0.0936647
0.0464479
-0.0968199
0.0478883
-0.0994246
0.0490356
-0.101762
0.0500128
-0.104012
0.0508983
-0.106279
0.0517383
-0.108614
0.0525597
-0.111044
0.0533784
-0.113579
0.0542048
-0.116224
0.0550461
-0.118979
0.0559077
-0.121842
0.0567937
-0.12481
0.057706
-0.127879
-0.131033
0.0586427
0.00125973
-0.00573075
0.00462669
-0.018972
0.00959902
-0.0335522
0.0154509
-0.0481329
0.0213843
-0.0613982
0.0267429
-0.0724686
0.0311452
-0.0810627
0.0344929
-0.0873971
0.0368926
-0.0919647
0.0385516
-0.0953237
0.0396922
-0.0979605
0.040501
-0.100233
0.0411117
-0.102373
0.0416096
-0.10451
0.0420442
-0.106713
0.0424431
-0.109013
0.0428223
-0.111423
0.0431917
-0.113948
0.0435583
-0.11659
0.0439272
-0.119348
0.0443022
-0.122217
0.0446855
-0.125194
0.0450775
-0.128271
-0.131435
0.0454792
0.0013469
-0.00707765
0.00477856
-0.0224036
0.0095998
-0.0383735
0.0149613
-0.0534944
0.0200681
-0.066505
0.024376
-0.0767765
0.0276574
-0.084344
0.0299443
-0.089684
0.0314178
-0.0934382
0.0323034
-0.0962093
0.0328033
-0.0984604
0.0330672
-0.100497
0.0331919
-0.102497
0.0332335
-0.104552
0.0332227
-0.106702
0.0331759
-0.108966
0.033103
-0.11135
0.0330106
-0.113856
0.032904
-0.116484
0.0327874
-0.119231
0.0326639
-0.122094
0.032535
-0.125065
0.0323997
-0.128135
0.0322614
-0.131297
-0.000271295
0.00112216
-0.000850862
-0.000935623
0.00231653
-0.0016522
-0.00190371
0.00280293
-0.00183484
-0.00311173
0.00279296
-0.00158495
-0.00451299
0.00245152
-0.00105025
-0.0060735
0.00189628
-0.000335765
-0.00776757
0.00119921
0.00049486
-0.00957547
0.000392434
0.00141546
-0.0114809
-0.00052126
0.00242666
-0.0134688
-0.00155887
0.00354681
-0.0155249
-0.00274626
0.00480239
-0.0176335
-0.00411269
0.0062213
-0.0197768
-0.00568507
0.00782835
-0.0219337
-0.00748582
0.00964268
-0.0240789
-0.00953104
0.0116762
-0.0261826
-0.0118287
0.0139324
-0.0282106
-0.0143763
0.0164043
-0.030125
-0.0171584
0.0190729
-0.0318867
-0.0201435
0.0219052
-0.0334585
-0.0232817
0.0248534
-0.0348093
-0.0265044
0.0278552
-0.0359184
-0.0297253
0.0308344
-0.036788
-0.032834
0.0337035
-0.0357028
-0.0374635
0.0363784
-0.000254143
0.0013763
-0.000888776
0.00295116
-0.00182606
0.00374022
-0.00300702
0.00397392
-0.00438566
0.00383015
-0.00592659
0.00343721
-0.00760291
0.00287552
-0.00939435
0.00218388
-0.0112847
0.00136909
-0.013261
0.000417431
-0.0153134
-0.000693858
-0.01743
-0.00199614
-0.0195981
-0.00351688
-0.0218026
-0.00528133
-0.0240246
-0.00730906
-0.0262411
-0.00961216
-0.0284248
-0.0121925
-0.0305447
-0.0150386
-0.032567
-0.0181212
-0.0344595
-0.0213892
-0.0361966
-0.0247672
-0.0377652
-0.0281567
-0.0391695
-0.0314297
-0.0344043
-0.040468
-0.000214632
0.00159093
-0.00076814
0.00350467
-0.00160123
0.00457331
-0.00266309
0.00503578
-0.00390953
0.00507659
-0.00530332
0.00483101
-0.00681422
0.00438641
-0.00841823
0.00378789
-0.0100969
0.00304778
-0.0118358
0.00215632
-0.013619
0.00108931
-0.0154377
-0.000177394
-0.0172792
-0.00167541
-0.0191286
-0.00343193
-0.0209691
-0.00546852
-0.0227812
-0.00780015
-0.0245418
-0.0104319
-0.0262247
-0.0133557
-0.0278003
-0.0165455
-0.0292371
-0.0199524
-0.0305074
-0.023497
-0.0315953
-0.0270688
-0.03249
-0.030535
-0.0336533
-0.033241
-0.000156289
0.00174722
-0.000583116
0.00393149
-0.00124484
0.00523503
-0.00210154
0.00589248
-0.00311185
0.0060869
-0.00423631
0.00595548
-0.00543952
0.00558961
-0.00669092
0.00503929
-0.00796471
0.00432157
-0.00923864
0.00343026
-0.0104942
0.00234489
-0.0117089
0.00103724
-0.0128661
-0.000518134
-0.0139461
-0.00235198
-0.0149271
-0.00448753
-0.015787
-0.00694021
-0.0165033
-0.00971559
-0.0170534
-0.0128056
-0.0174141
-0.0161848
-0.0175607
-0.0198058
-0.0174668
-0.0235908
-0.0171159
-0.0274198
-0.0165167
-0.0311342
-0.034648
-0.015522
-8.61661e-05
0.00183339
-0.000353974
0.0041993
-0.000792799
0.00567386
-0.00137469
0.00647437
-0.00206178
0.00677399
-0.00281226
0.00670595
-0.00358433
0.00636168
-0.0043385
0.00579347
-0.00503833
0.0050214
-0.00565008
0.00404201
-0.00614184
0.00283664
-0.00648189
0.0013773
-0.00663765
-0.000362378
-0.00657722
-0.00241241
-0.00626804
-0.00479671
-0.00567868
-0.00752957
-0.00478065
-0.0106136
-0.00355026
-0.014036
-0.00197046
-0.0177647
-3.09906e-05
-0.0217453
0.00227698
-0.0258988
0.00497607
-0.0301188
0.00807971
-0.0342378
-0.0379487
0.0113804
-1.34568e-05
0.00184684
-0.000108036
0.00429388
-0.000294952
0.00586078
-0.000556987
0.0067364
-0.000859642
0.00707665
-0.00115866
0.00700497
-0.00140539
0.0066084
-0.00155012
0.0059382
-0.00154377
0.00501505
-0.00133815
0.00383639
-0.000885563
0.00238406
-0.000138761
0.000630493
0.000951096
-0.00145223
0.00243287
-0.00389418
0.00435277
-0.00671661
0.00675382
-0.00993062
0.00967274
-0.0135325
0.0131364
-0.0174997
0.0171589
-0.0217872
0.0217401
-0.0263264
0.0268655
-0.0310243
0.0325191
-0.0357724
0.0386148
-0.0403335
-0.044808
0.0454741
5.24105e-05
0.00179443
0.000125404
0.00422089
0.000194002
0.00579218
0.000268303
0.0066621
0.00038096
0.00696399
0.000579103
0.00680683
0.000918494
0.00626901
0.00145954
0.00539715
0.00226493
0.00420966
0.00339847
0.00270285
0.00492485
0.000857672
0.00690825
-0.0013529
0.00941406
-0.00395804
0.0125035
-0.00698365
0.0162332
-0.0104463
0.0206507
-0.0143481
0.0257903
-0.0186722
0.0316691
-0.0233784
0.0382833
-0.0284014
0.0456076
-0.0336507
0.0535898
-0.0390065
0.0621825
-0.0443652
0.0712783
-0.0494293
-0.0546621
0.0811323
0.000103453
0.00169098
0.000321188
0.00400315
0.000625816
0.00548755
0.0010266
0.00626132
0.00155747
0.00643312
0.00227
0.0060943
0.00322794
0.00531107
0.00450308
0.00412201
0.00617227
0.00254048
0.0083152
0.00055992
0.0110134
-0.00184051
0.0143461
-0.00468567
0.0183891
-0.00800098
0.0232089
-0.0118035
0.0288586
-0.0160959
0.0353712
-0.0208607
0.0427548
-0.0260557
0.0509877
-0.0316114
0.0600176
-0.0374312
0.0697621
-0.0433952
0.0801153
-0.0493597
0.090961
-0.0552108
0.102148
-0.0606165
-0.0662854
0.113772
0.000135355
0.00155563
0.000464649
0.00367386
0.000971288
0.00498091
0.00167167
0.00556094
0.00260621
0.00549858
0.00383437
0.00486614
0.0054303
0.00371514
0.00747891
0.0020734
0.0100712
-5.18109e-05
0.013304
-0.00267285
0.0172694
-0.00580592
0.0220548
-0.00947105
0.0277334
-0.0136796
0.0343575
-0.0184275
0.0419497
-0.0236882
0.050497
-0.029408
0.0599455
-0.0355042
0.0702
-0.0418659
0.0811274
-0.0483586
0.0925626
-0.0548304
0.104331
-0.0611279
0.116235
-0.0671149
0.12815
-0.0725313
-0.077999
0.139863
0.000148533
0.00140709
0.000556021
0.00326637
0.00122972
0.00430721
0.00220213
0.00458853
0.00352703
0.00417368
0.00527712
0.00311606
0.00754085
0.0014514
0.010418
-0.000803772
0.0140154
-0.00364923
0.0184362
-0.0070936
0.0237757
-0.0111454
0.0301083
-0.0158037
0.0374776
-0.0210489
0.0458855
-0.0268355
0.0552849
-0.0330876
0.0655756
-0.0396987
0.0766062
-0.0465349
0.0881826
-0.0534422
0.100081
-0.0602571
0.112067
-0.0668168
0.123918
-0.0729784
0.135415
-0.0786122
0.146484
-0.0835997
-0.0882411
0.156726
0.000148757
0.00125834
0.000612727
0.0028024
0.00143396
0.00348598
0.0026699
0.00335258
0.00439542
0.00244816
0.00670247
0.000809016
0.00969737
-0.0015435
0.013494
-0.00460042
0.0182042
-0.00835937
0.0239252
-0.0128147
0.0307262
-0.0179463
0.0386327
-0.0237103
0.0476152
-0.0300314
0.0575807
-0.0368009
0.0683717
-0.0438786
0.0797734
-0.0511004
0.0915274
-0.0582889
0.103354
-0.0652685
0.114974
-0.0718775
0.126147
-0.0779897
0.136676
-0.0835079
0.146466
-0.0884014
0.155484
-0.0926179
-0.0962068
0.163449
0.00014663
0.000667755
0.00164734
0.00317492
0.00535274
0.00829565
0.0121249
0.016957
0.0228878
0.0299738
0.0382146
0.0475393
0.0578006
0.0687795
0.0801986
0.0917457
0.103102
0.113973
0.124116
0.133365
0.141629
0.148973
0.155504
0.161934
-0.0362249
-0.0539818
0.0527432
-0.0342178
-0.0578211
0.055814
-0.0313534
-0.0601627
0.0572982
-0.0275058
-0.0605834
0.0567359
-0.0225783
-0.0584841
0.0535566
-0.0165145
-0.0532995
0.0472357
-0.00935217
-0.0445487
0.0373864
-0.00122873
-0.0319125
0.0237891
0.00796096
-0.0154837
0.00629398
0.0177118
0.00451406
-0.0142649
0.0276177
0.0278187
-0.0377246
0.0374432
0.0527354
-0.0625609
0.0470101
0.0772749
-0.0868418
0.0556748
0.099884
-0.108549
0.0626163
0.119083
-0.126024
0.0669351
0.134396
-0.138714
0.0680675
0.146564
-0.147696
0.0665714
0.156476
-0.15498
0.0646281
0.162969
-0.161025
0.0653024
0.161465
-0.162139
0.0706436
0.145796
-0.151137
0.0803832
0.112351
-0.122091
0.0928669
0.0621627
-0.0746465
0.106311
0.000698314
-0.0141425
0.119326
-0.0625091
0.0494944
0.130329
-0.116603
0.1056
0.138062
-0.154224
0.146491
0.142199
-0.175392
0.171255
0.14355
-0.183953
0.182602
0.142463
-0.184347
0.185434
0.137859
-0.18424
0.188844
0.129476
-0.191343
0.199727
0.120346
-0.200184
0.209313
0.115382
-0.188352
0.193316
0.11727
-0.136589
0.134701
0.12479
-0.0495835
0.0420637
0.134469
0.046172
-0.0558509
0.143533
0.126794
-0.135858
0.150531
0.177664
-0.184662
0.153889
0.205626
-0.208984
0.15175
0.226316
-0.224177
0.14451
0.252476
-0.245236
0.135993
0.262587
-0.254069
0.131224
0.224894
-0.220125
0.132451
0.1297
-0.130927
0.138464
0.000579556
-0.00659268
0.146195
-0.107721
0.0999908
0.150989
-0.189572
0.184777
0.149456
-0.226388
0.22792
0.142636
-0.27299
0.27981
0.135532
-0.271509
0.278614
0.133912
-0.232836
0.234455
0.137595
-0.12312
0.119437
0.142139
0.0294629
-0.0340077
0.142668
0.126985
-0.127514
0.138728
0.294795
-0.290855
0.135275
0.285362
-0.281909
0.134021
0.31908
-0.317826
0.132779
0.188571
-0.187329
-0.0731862
0.0749884
-0.0409336
-0.0535163
-0.0407925
-0.0579621
-0.0398985
-0.0610567
-0.03806
-0.062422
-0.03507
-0.0614741
-0.0307419
-0.0576277
-0.0249516
-0.0503389
-0.0176583
-0.0392059
-0.0090257
-0.0241162
0.000776618
-0.00528826
0.012182
0.0164133
0.0232944
0.0416231
0.0343192
0.0662501
0.0444327
0.0897705
0.0528372
0.110678
0.0588092
0.128424
0.0622496
0.143123
0.0642201
0.154505
0.0668779
0.160311
0.0723897
0.155953
0.0814311
0.136754
0.0929289
0.100854
0.105312
0.0497796
0.117372
-0.0113616
0.12818
-0.0733171
0.136648
-0.125072
0.141945
-0.15952
0.14392
-0.177367
0.14347
-0.183504
0.141273
-0.182149
0.136258
-0.179225
0.127488
-0.182574
0.117406
-0.190101
0.111254
-0.1822
0.112539
-0.137874
0.12035
-0.0573945
0.131147
0.0353749
0.141795
0.116147
0.150352
0.169107
0.15483
0.201148
0.15345
0.227695
0.146955
0.258971
0.139188
0.270354
0.134729
0.229353
0.135446
0.128982
0.140312
-0.00428644
0.146891
-0.114299
0.151037
-0.193718
0.149216
-0.224567
0.142281
-0.266055
0.135173
-0.264401
0.133678
-0.231341
0.137486
-0.126929
0.141957
0.0249921
0.142568
0.126375
0.138656
0.298707
0.135246
0.288771
0.134112
0.320214
0.132994
0.189689
-0.0714751
-0.0352992
-0.0514582
-0.0370509
-0.0562103
-0.038256
-0.0598516
-0.0386984
-0.0619796
-0.0381016
-0.0620709
-0.0361641
-0.0595652
-0.0326059
-0.0538971
-0.0272204
-0.0445915
-0.0199572
-0.0313794
-0.0109275
-0.0143179
-0.000747024
0.00623279
0.0113938
0.0294823
0.0233442
0.0542996
0.0348025
0.0783123
0.0449351
0.100546
0.0532067
0.120152
0.0598075
0.136523
0.0658806
0.148432
0.0731092
0.153082
0.0826519
0.14641
0.0942262
0.12518
0.106419
0.0886604
0.117969
0.0382294
0.128224
-0.0216162
0.136619
-0.0817125
0.142447
-0.1309
0.145315
-0.162388
0.145288
-0.177339
0.143224
-0.18144
0.140038
-0.178963
0.134852
-0.174039
0.126109
-0.173831
0.115387
-0.179379
0.107973
-0.174786
0.108313
-0.138214
0.116096
-0.0651777
0.127803
0.0236684
0.139931
0.104019
0.150002
0.159035
0.155656
0.195495
0.155216
0.228134
0.149666
0.264521
0.142727
0.277292
0.13853
0.23355
0.138647
0.128866
0.142274
-0.00791338
0.147612
-0.119637
0.151101
-0.197208
0.149063
-0.222529
0.142064
-0.259055
0.134941
-0.257278
0.133532
-0.229931
0.137455
-0.130852
0.141881
0.0205662
0.14261
0.125646
0.138716
0.302601
0.135314
0.292174
0.134334
0.321194
0.133398
0.190625
-0.069872
-0.0189617
-0.0480184
-0.0224004
-0.0527716
-0.0256674
-0.0565845
-0.0284108
-0.0592362
-0.0303439
-0.0601378
-0.0310991
-0.05881
-0.030292
-0.0547042
-0.0275705
-0.0473131
-0.0227028
-0.0362471
-0.0156896
-0.0213311
-0.00646461
-0.00299216
0.00423623
0.0187814
0.01641
0.0421258
0.0288056
0.0659167
0.0406299
0.0887214
0.0514348
0.109347
0.0614196
0.126538
0.0714341
0.138417
0.082493
0.142023
0.0949203
0.133983
0.10785
0.112251
0.119869
0.0766411
0.13012
0.027978
0.138395
-0.0298909
0.144386
-0.0877039
0.147631
-0.134144
0.148137
-0.162894
0.14627
-0.175471
0.142791
-0.177961
0.138693
-0.174866
0.133459
-0.168805
0.125144
-0.165516
0.114241
-0.168476
0.105649
-0.166193
0.104707
-0.137272
0.112067
-0.0725376
0.124437
0.0112984
0.137901
0.0905547
0.149423
0.147513
0.156311
0.188606
0.156991
0.227455
0.152557
0.268956
0.146498
0.283351
0.142502
0.237546
0.141962
0.129406
0.144307
-0.0102585
0.148342
-0.123672
0.151159
-0.200025
0.148964
-0.220334
0.14194
-0.252031
0.134785
-0.250124
0.133423
-0.228569
0.137466
-0.134896
0.141894
0.0161384
0.142786
0.124755
0.138908
0.306478
0.135482
0.295599
0.134689
0.321987
0.133994
0.191321
-0.0683956
0.00686474
-0.0435028
0.0017272
-0.0476341
-0.00311166
-0.0517456
-0.00782811
-0.0545198
-0.0120854
-0.0558804
-0.0154681
-0.0554273
-0.0175089
-0.0526634
-0.0177452
-0.0470767
-0.0158066
-0.0381856
-0.0114546
-0.0256831
-0.00476843
-0.00967837
0.00462798
0.00938501
0.0159572
0.0307966
0.0284843
0.0533896
0.0413981
0.0758075
0.0542306
0.0965149
0.0669812
0.113787
0.0800424
0.125356
0.093775
0.128291
0.107888
0.11987
0.121228
0.0989103
0.132518
0.0653514
0.141273
0.0192227
0.147589
-0.0362068
0.151269
-0.0913836
0.152034
-0.134909
0.150278
-0.161139
0.146745
-0.171938
0.142096
-0.173312
0.137211
-0.169981
0.131978
-0.163572
0.124382
-0.15792
0.113812
-0.157906
0.104322
-0.156703
0.101868
-0.134818
0.108392
-0.0790611
0.121078
-0.00138842
0.135659
0.0759738
0.148532
0.134641
0.156713
0.180426
0.158683
0.225484
0.155515
0.272124
0.150351
0.288515
0.146507
0.241391
0.145289
0.130623
0.146366
-0.0113355
0.149055
-0.126361
0.151179
-0.202148
0.148885
-0.21804
0.141876
-0.245021
0.13466
-0.242908
0.133297
-0.227206
0.137481
-0.13908
0.141974
0.0116452
0.143083
0.123646
0.139232
0.310329
0.135755
0.299076
0.13518
0.322562
0.13478
0.191721
-0.0670669
0.0403155
-0.0383442
0.0348495
-0.0421681
0.0287892
-0.0456853
0.0224567
-0.0481872
0.016075
-0.0494987
0.0100456
-0.0493979
0.00490964
-0.0475274
0.00126141
-0.0434285
-0.000154785
-0.0367694
0.00147033
-0.0273082
0.00608765
-0.0142957
0.0135573
0.00191537
0.0231103
0.0212436
0.0347118
0.0417881
0.0476783
0.062841
0.0614674
0.0827258
0.0758002
0.0994544
0.090594
0.110562
0.105666
0.113219
0.120329
0.105207
0.133354
0.0858857
0.143685
0.0550197
0.151071
0.0118367
0.155598
-0.0407336
0.157073
-0.0928581
0.155489
-0.133325
0.151645
-0.157294
0.146633
-0.166927
0.14106
-0.16774
0.135539
-0.16446
0.13029
-0.158323
0.123576
-0.151206
0.113842
-0.148173
0.103903
-0.146763
0.0999064
-0.130822
0.105189
-0.0843437
0.117745
-0.0139445
0.133146
0.0605731
0.147229
0.120557
0.156748
0.170907
0.160165
0.222067
0.158392
0.273898
0.154138
0.292769
0.150398
0.245131
0.148519
0.132503
0.148395
-0.0112114
0.149723
-0.12769
0.151126
-0.203552
0.148789
-0.215703
0.141838
-0.23807
0.134526
-0.235595
0.133103
-0.225783
0.137453
-0.143429
0.142091
0.00700712
0.143485
0.122253
0.139684
0.31413
0.136136
0.302624
0.135804
0.322895
0.135757
0.191769
-0.0659073
0.0758187
-0.0330306
0.0702202
-0.0365696
0.0641014
-0.0395666
0.0574936
-0.0415794
0.050559
-0.0425642
0.0435454
-0.0423844
0.0368559
-0.0408379
0.0311043
-0.0376769
0.026977
-0.0326422
0.0250426
-0.0253738
0.025918
-0.0151711
0.030151
-0.00231754
0.0370565
0.0143381
0.046758
0.0320866
0.0586725
0.0509265
0.0721999
0.0691984
0.0868074
0.0848468
0.102007
0.0953629
0.117206
0.0980193
0.131483
0.0909308
0.143654
0.0737143
0.152927
0.045747
0.15912
0.00564339
0.162093
-0.0437065
0.161554
-0.092319
0.15784
-0.129612
0.15215
-0.151604
0.145865
-0.160641
0.139603
-0.161478
0.133636
-0.158492
0.12833
-0.153018
0.122494
-0.14537
0.114002
-0.139681
0.104188
-0.136949
0.0988147
-0.125449
0.102525
-0.0880535
0.114464
-0.0258841
0.130299
0.0447378
0.145407
0.10545
0.156286
0.160028
0.161299
0.217053
0.161045
0.274152
0.157712
0.296102
0.154042
0.2488
0.151548
0.134997
0.150329
-0.0099933
0.150314
-0.127674
0.150965
-0.204203
0.148633
-0.213372
0.141797
-0.231233
0.134357
-0.228156
0.132797
-0.224223
0.137332
-0.147964
0.142209
0.0021299
0.143971
0.120491
0.140262
0.317838
0.136628
0.306258
0.136564
0.322958
0.136922
0.191411
-0.0649402
0.108384
-0.0276425
0.10279
-0.0309759
0.0968154
-0.0335922
0.0904627
-0.0352266
0.0838367
-0.0359382
0.077013
-0.0355607
0.0701183
-0.0339432
0.0634898
-0.0310484
0.0576638
-0.0268162
0.0532981
-0.0210081
0.0512266
-0.0130996
0.0519552
-0.00304615
0.0558686
0.0104246
0.0629444
0.0250108
0.0728569
0.0410141
0.0850396
0.0570157
0.0987858
0.0711006
0.113302
0.0808464
0.127709
0.0836122
0.140966
0.0776738
0.152013
0.0626674
0.160226
0.0375344
0.165418
0.000451442
0.166956
-0.0452447
0.164565
-0.0899283
0.158966
-0.124012
0.151728
-0.144366
0.144402
-0.153316
0.13765
-0.154726
0.13144
-0.152282
0.126063
-0.147641
0.120965
-0.140272
0.113939
-0.132654
0.10485
-0.127861
0.0984802
-0.119079
0.100409
-0.0899818
0.111222
-0.0366976
0.127058
0.0289014
0.142966
0.0895425
0.155199
0.147795
0.161918
0.210334
0.163291
0.272779
0.16091
0.298483
0.157307
0.252404
0.154274
0.13803
0.1521
-0.00781868
0.150791
-0.126366
0.150655
-0.204067
0.148369
-0.211086
0.141719
-0.224584
0.134133
-0.220569
0.132345
-0.222435
0.137069
-0.152689
0.142289
-0.00308991
0.144517
0.118263
0.14096
0.321395
0.137234
0.309984
0.137462
0.32273
0.138276
0.190597
-0.0641904
0.13446
-0.0222388
0.128877
-0.0253937
0.122968
-0.0276828
0.116878
-0.0291365
0.110772
-0.029832
0.104685
-0.029474
0.0986166
-0.0278748
0.0926482
-0.02508
0.0869927
-0.0211606
0.0820404
-0.0160558
0.0784294
-0.00948866
0.0768757
-0.00149238
0.0778254
0.00947488
0.0818889
0.0209473
0.0890741
0.0338289
0.0990026
0.0470872
0.110948
0.0591554
0.123948
0.0678465
0.13693
0.0706295
0.148798
0.0658066
0.158616
0.0528491
0.165838
0.0303124
0.16999
-0.00370059
0.170114
-0.0453691
0.165973
-0.0857873
0.158734
-0.116772
0.150273
-0.135905
0.142163
-0.145206
0.135087
-0.14765
0.128826
-0.146021
0.123425
-0.142239
0.118862
-0.135709
0.113322
-0.127115
0.105484
-0.120023
0.098655
-0.112249
0.0987697
-0.0900965
0.108022
-0.0459494
0.123376
0.0135466
0.139814
0.0731052
0.153352
0.134256
0.161892
0.201794
0.165028
0.269644
0.163629
0.299882
0.160097
0.255936
0.156602
0.141525
0.153633
-0.00484966
0.151108
-0.123841
0.150149
-0.203108
0.147938
-0.208875
0.141572
-0.218218
0.133848
-0.212845
0.131721
-0.220307
0.13662
-0.157588
0.14229
-0.00875972
0.145094
0.115459
0.14177
0.324719
0.13796
0.313794
0.1385
0.32219
0.139818
0.189279
-0.0636801
0.151612
-0.0171254
0.146223
-0.0200041
0.140492
-0.0219517
0.134738
-0.0233827
0.129159
-0.0242536
0.123816
-0.0241303
0.118776
-0.0228355
0.114081
-0.0203841
0.109734
-0.0168145
0.105835
-0.0121559
0.102648
-0.00630238
0.100274
0.000881552
0.0999783
0.00977099
0.101884
0.0190412
0.106467
0.0292466
0.113713
0.0398414
0.123184
0.0496841
0.134016
0.0570146
0.1451
0.0595449
0.155313
0.0555943
0.16381
0.0443516
0.170013
0.0241091
0.17296
-0.0066471
0.171505
-0.0439142
0.16567
-0.0799525
0.157043
-0.108145
0.147685
-0.126547
0.139052
-0.136572
0.131788
-0.140387
0.125635
-0.139868
0.120323
-0.136927
0.11611
-0.131496
0.111895
-0.1229
0.105672
-0.1138
0.0990174
-0.105595
0.0975185
-0.0885976
0.104847
-0.0532776
0.119231
-0.000837969
0.135886
0.0564504
0.150632
0.119509
0.161014
0.191413
0.165992
0.264665
0.165688
0.300186
0.162307
0.259318
0.158481
0.145351
0.154876
-0.00124452
0.15124
-0.120206
0.149423
-0.201291
0.147294
-0.206745
0.141326
-0.21225
0.133509
-0.205029
0.130924
-0.217722
0.135941
-0.162605
0.142168
-0.0149868
0.145671
0.111956
0.142681
0.327709
0.13881
0.317665
0.139683
0.321317
0.141547
0.187415
-0.0634306
0.159037
-0.0127132
0.154089
-0.0150552
0.148789
-0.0166523
0.143592
-0.0181859
0.138634
-0.0192959
0.134034
-0.0195301
0.12996
-0.0187613
0.126486
-0.0169097
0.123608
-0.0139365
0.121333
-0.00988092
0.119791
-0.0047612
0.118969
0.00170399
0.118865
0.00987514
0.120036
0.01787
0.123121
0.0261612
0.128303
0.0346598
0.135415
0.0425722
0.143871
0.0485587
0.152769
0.0506466
0.161116
0.0472478
0.168114
0.0373535
0.172809
0.0194138
0.174376
-0.00821388
0.171243
-0.0407818
0.163909
-0.0726182
0.154264
-0.0985006
0.14438
-0.116663
0.135495
-0.127687
0.12814
-0.133033
0.122144
-0.133872
0.117006
-0.131788
0.112964
-0.127455
0.109722
-0.119658
0.105214
-0.109292
0.099328
-0.0997088
0.0965913
-0.0858609
0.101735
-0.0584208
0.114633
-0.0137367
0.131109
0.0399749
0.146963
0.103655
0.159328
0.179048
0.166335
0.257659
0.167136
0.299384
0.163898
0.262555
0.159942
0.149307
0.155869
0.00282851
0.151252
-0.115589
0.14855
-0.198589
0.146457
-0.204653
0.140986
-0.206778
0.13314
-0.197184
0.13
-0.214582
0.135018
-0.167623
0.141879
-0.0218474
0.146204
0.107631
0.143678
0.330234
0.139784
0.321559
0.141016
0.320086
0.143462
0.184969
-0.0634629
0.15862
-0.00939948
0.154365
-0.0108
0.150018
-0.0123055
0.145721
-0.0138888
0.141548
-0.0151227
0.1377
-0.0156816
0.134353
-0.0154152
0.131669
-0.0142254
0.129754
-0.0120213
0.128608
-0.00873441
0.128165
-0.00431873
0.128462
0.00140701
0.129995
0.00834226
0.132334
0.0155311
0.135551
0.0229437
0.139968
0.030243
0.145681
0.0368597
0.152409
0.0418304
0.159465
0.0435905
0.166024
0.0406892
0.171353
0.0320241
0.174635
0.0161316
0.174015
-0.00759364
0.169125
-0.0358919
0.160692
-0.064185
0.150675
-0.088483
0.14083
-0.106818
0.132069
-0.118926
0.124762
-0.125726
0.1189
-0.12801
0.113949
-0.126837
0.109933
-0.123438
0.107203
-0.116927
0.104201
-0.10629
0.0994938
-0.0950021
0.0960208
-0.0823879
0.0989958
-0.0613959
0.109842
-0.0245829
0.125601
0.0242164
0.142022
0.087233
0.156126
0.164944
0.165341
0.248444
0.167541
0.297185
0.164729
0.265367
0.160828
0.153208
0.156568
0.00708857
0.151102
-0.110123
0.147591
-0.195078
0.145476
-0.202537
0.140564
-0.201866
0.132743
-0.189363
0.129015
-0.210854
0.13393
-0.172539
0.141428
-0.0293446
0.146672
0.102387
0.144751
0.332155
0.140886
0.325424
0.142504
0.318468
0.145571
0.181902
-0.063796
0.190037
-0.00582877
-0.193608
0.187092
-0.00785443
0.184061
-0.009275
0.180746
-0.0105738
0.177186
-0.0115621
0.173493
-0.0119886
0.169769
-0.011692
0.166104
-0.0105599
0.162582
-0.00849952
0.159293
-0.00544526
0.156347
-0.00137252
0.153961
0.00379242
0.152386
0.00991707
0.151521
0.0163964
0.151578
0.0228871
0.152862
0.0289587
0.155704
0.0340175
0.160352
0.0371822
0.16674
0.0372026
0.174481
0.0329487
0.182997
0.0235077
0.191011
0.00811719
0.196857
-0.0134393
0.199033
-0.0380672
0.19725
-0.0624027
0.192266
-0.0834985
0.185224
-0.0997761
0.177114
-0.110815
0.168682
-0.117295
0.160529
-0.119857
0.152668
-0.118976
0.14502
-0.11579
0.138178
-0.110086
0.131629
-0.0997408
0.123546
-0.0869186
0.114774
-0.0736159
0.109676
-0.0562976
0.111351
-0.0262588
0.117597
0.0179711
0.124471
0.0803587
0.12966
0.159755
0.133363
0.244742
0.13753
0.293018
0.144994
0.257903
0.1549
0.143301
0.161649
0.000340137
0.162687
-0.111161
0.15996
-0.192351
0.155561
-0.198138
0.148442
-0.194747
0.138833
-0.179753
0.132071
-0.204092
0.131022
-0.17149
0.13267
-0.0309926
0.132785
0.102272
0.129521
0.335419
0.126946
0.327999
0.130068
0.315346
0.13445
0.17752
-0.0634278
0.200039
-0.00325532
-0.202612
0.197383
-0.00519829
0.194739
-0.00663169
0.191885
-0.00771911
0.188825
-0.00850221
0.185669
-0.00883219
0.182523
-0.00854633
0.179489
-0.00752581
0.176677
-0.00568778
0.174216
-0.002984
0.172223
0.000620454
0.17087
0.00514512
0.170346
0.0104411
0.170681
0.0160616
0.171958
0.0216098
0.174311
0.0266061
0.17789
0.0304379
0.18278
0.0322923
0.188829
0.031154
0.195611
0.0261666
0.202462
0.0166571
0.20839
0.00218846
0.211854
-0.0169026
0.21204
-0.0382539
0.208886
-0.059248
0.203018
-0.0776309
0.195415
-0.0921733
0.186999
-0.102399
0.1784
-0.108695
0.170129
-0.111586
0.162281
-0.111129
0.154586
-0.108095
0.147522
-0.103022
0.141206
-0.0934244
0.133906
-0.0796188
0.125248
-0.0649579
0.118936
-0.0499853
0.118878
-0.0262004
0.124367
0.0124811
0.131472
0.0732547
0.137583
0.153643
0.142517
0.239808
0.148187
0.287348
0.157129
0.248961
0.167989
0.132441
0.175113
-0.00678343
0.175476
-0.111524
0.171608
-0.188484
0.16628
-0.19281
0.158702
-0.187169
0.148495
-0.169546
0.140866
-0.196463
0.139442
-0.170066
0.141173
-0.0327235
0.141716
0.101729
0.138622
0.338513
0.135977
0.330644