/*--------------------------------*- C++ -*----------------------------------*\
| =========                 |                                                 |
| \\      /  F ield         | OpenFOAM: The Open Source CFD Toolbox           |
|  \\    /   O peration     | Version:  2512                                  |
|   \\  /    A nd           | Website:  www.openfoam.com                      |
|    \\/     M anipulation  |                                                 |
\*---------------------------------------------------------------------------*/
FoamFile
{
    version     2.0;
    format      ascii;
    arch        "LSB;label=32;scalar=64";
    class       volVectorField;
    location    "37";
    object      U;
}
// * * * * * * * * * * * * * * * * * * * * * * * * * * * * * * * * * * * * * //

dimensions      [0 1 -1 0 0 0 0];

internalField   nonuniform List<vector> 
13248
(
(-0.0124704 0.0115746 5.90033e-20)
(-0.0239783 0.0246587 0)
(-0.023043 0.0315625 -1.11526e-19)
(-0.0105694 0.034302 1.0506e-19)
(0.0128351 0.0344995 9.84603e-20)
(0.0467451 0.0334391 0)
(0.0908115 0.0321007 0)
(0.14465 0.0312207 2.37374e-19)
(0.207713 0.0313382 -1.27042e-21)
(0.279164 0.032818 -2.07181e-19)
(0.357797 0.0358617 1.91682e-19)
(0.442004 0.0405139 -1.19785e-19)
(0.529814 0.0466709 0)
(0.61899 0.0540962 -2.04258e-19)
(0.707167 0.0624449 3.80857e-19)
(0.792016 0.0712964 -9.00228e-20)
(0.871402 0.0801966 -1.61054e-19)
(0.943521 0.0886796 1.51188e-19)
(1.00703 0.096387 0)
(1.06099 0.102783 0)
(1.10542 0.108214 0)
(1.1393 0.110793 0)
(1.16667 0.114671 4.74525e-20)
(1.18117 0.110058 1.75398e-19)
(-0.0122949 0.010174 -1.78327e-19)
(-0.0202917 0.020386 1.21617e-19)
(-0.0127346 0.0252015 -1.06588e-21)
(0.00910275 0.0267031 -1.60746e-19)
(0.0443812 0.0265775 -9.83547e-20)
(0.0924352 0.0261627 -9.30523e-20)
(0.152547 0.0264491 -1.70867e-19)
(0.223765 0.0281364 1.61555e-19)
(0.304732 0.0316658 0)
(0.393585 0.0372322 8.13213e-22)
(0.487938 0.0447928 1.75449e-21)
(0.584987 0.0540868 1.19847e-19)
(0.68169 0.0646702 0)
(0.775005 0.0759694 0)
(0.862138 0.0873459 1.39842e-19)
(0.940757 0.0981654 -2.62597e-19)
(1.00915 0.107862 1.57757e-19)
(1.06634 0.115987 -1.48101e-19)
(1.11203 0.122251 -6.60595e-20)
(1.14672 0.12649 -1.20923e-19)
(1.17118 0.128849 -5.1826e-20)
(1.18732 0.128988 -9.75868e-20)
(1.19601 0.128889 1.41454e-19)
(1.1993 0.123892 4.16353e-20)
(-0.0112583 0.00841662 0)
(-0.0135517 0.0153641 0)
(0.00323335 0.0181902 5.68713e-20)
(0.0373223 0.0189576 5.23702e-20)
(0.0874752 0.0193647 -1.30342e-21)
(0.152523 0.0207549 -9.60652e-20)
(0.230989 0.0240494 0)
(0.320858 0.0297802 -8.03029e-20)
(0.419445 0.0381152 7.54116e-20)
(0.523412 0.0488754 5.35963e-22)
(0.628961 0.0615742 -1.28716e-19)
(0.732145 0.0754894 -1.17992e-19)
(0.829238 0.0897619 2.03186e-21)
(0.917079 0.103509 -9.80087e-20)
(0.99334 0.115932 2.34708e-19)
(1.05667 0.126403 0)
(1.10672 0.134519 -1.53979e-19)
(1.14407 0.140118 7.43127e-20)
(1.17004 0.143282 6.59959e-20)
(1.18643 0.144211 0)
(1.19536 0.143423 5.49343e-20)
(1.19883 0.140917 -1.93368e-19)
(1.19846 0.138413 1.81519e-19)
(1.1973 0.13278 1.18665e-19)
(-0.00903263 0.00632545 -6.33143e-20)
(-0.00288912 0.00982025 -6.5475e-20)
(0.0261482 0.0110876 5.9091e-20)
(0.0756082 0.0120157 0)
(0.143553 0.0142043 0)
(0.227866 0.018884 -2.04977e-21)
(0.325752 0.0267309 0)
(0.433549 0.0378801 -2.45218e-19)
(0.546793 0.0519719 2.27787e-19)
(0.66053 0.0682268 -2.81256e-19)
(0.769799 0.0855726 6.4424e-20)
(0.870178 0.102813 0)
(0.958237 0.118806 1.07807e-19)
(1.03183 0.132614 -1.99925e-19)
(1.09018 0.143609 4.74049e-20)
(1.13377 0.151508 1.23219e-19)
(1.16411 0.156361 -4.6455e-21)
(1.18338 0.158475 -1.38468e-19)
(1.19405 0.158331 0)
(1.19856 0.156457 0)
(1.19906 0.15346 -5.08764e-20)
(1.19717 0.149499 4.61519e-20)
(1.1942 0.145963 1.68479e-19)
(1.19094 0.140057 -1.58142e-19)
(-0.00524546 0.00397347 -6.69327e-20)
(0.0125886 0.00412205 -6.65364e-20)
(0.0571743 0.00465063 1.87108e-19)
(0.125061 0.00704181 -1.13278e-19)
(0.213152 0.0126029 1.0663e-19)
(0.317771 0.0222268 1.93436e-19)
(0.434159 0.0360583 -1.36725e-19)
(0.556549 0.0535261 -1.6641e-19)
(0.678631 0.0734865 3.19694e-21)
(0.794273 0.0944362 2.1291e-19)
(0.898281 0.114777 0)
(0.986985 0.133081 5.90533e-20)
(1.05852 0.148288 0)
(1.1128 0.159813 -9.70021e-20)
(1.15122 0.16755 1.3634e-19)
(1.17619 0.171792 1.06002e-21)
(1.1906 0.173095 -3.63403e-20)
(1.19737 0.172133 6.80592e-20)
(1.19908 0.169573 5.95323e-20)
(1.19776 0.165983 -5.38726e-20)
(1.19483 0.161823 5.08641e-20)
(1.19121 0.157255 -4.61406e-20)
(1.18731 0.153098 0)
(1.18389 0.147203 -3.61895e-20)
(0.000486591 0.00151093 6.69232e-20)
(0.0336928 -0.00117346 7.03265e-20)
(0.0971621 -0.000128299 -6.27074e-20)
(0.186072 0.00540209 1.16704e-19)
(0.295549 0.0161221 -1.09848e-19)
(0.419666 0.0322358 9.92008e-20)
(0.551207 0.052982 -4.76719e-20)
(0.682271 0.0767844 1.24974e-19)
(0.805307 0.101603 -7.87093e-20)
(0.914161 0.125344 1.39981e-19)
(1.00483 0.146231 -3.23645e-19)
(1.07572 0.163067 1.19301e-19)
(1.12745 0.175333 -1.04977e-19)
(1.16231 0.183123 9.86007e-20)
(1.18353 0.186986 8.59511e-20)
(1.19461 0.187717 7.60563e-20)
(1.19876 0.186161 -2.12129e-19)
(1.1986 0.183074 1.31822e-19)
(1.19604 0.17905 -5.95341e-20)
(1.19232 0.174505 1.57459e-19)
(1.18817 0.16971 -5.06902e-20)
(1.18396 0.164764 -1.26713e-19)
(1.1799 0.160117 1.1746e-19)
(1.17624 0.154267 3.61765e-20)
(0.00851569 -0.000820145 0)
(0.0610279 -0.0053074 6.29736e-22)
(0.146441 -0.0020502 1.31464e-19)
(0.25806 0.00855327 -1.23266e-19)
(0.388541 0.026161 -1.10923e-19)
(0.529151 0.0498359 2.06146e-19)
(0.670176 0.0775511 -9.5728e-20)
(0.802285 0.106604 1.27762e-19)
(0.918009 0.13425 -2.59608e-21)
(1.01275 0.158247 -7.26375e-20)
(1.08503 0.177198 1.59208e-19)
(1.1361 0.190619 -2.35576e-19)
(1.16909 0.19881 0)
(1.18798 0.202581 -4.6732e-20)
(1.19684 0.202961 -1.2544e-19)
(1.19915 0.200962 3.94416e-20)
(1.1976 0.197428 1.33801e-21)
(1.19402 0.192985 -8.86736e-20)
(1.18957 0.188047 4.6428e-21)
(1.18488 0.182871 1.02988e-19)
(1.18027 0.1776 -4.65675e-20)
(1.1759 0.172313 -1.84329e-20)
(1.17177 0.167201 5.5452e-20)
(1.16801 0.161349 0)
(0.0191138 -0.00268506 0)
(0.0948587 -0.00734743 3.57018e-20)
(0.204633 0.000198197 -1.72102e-19)
(0.339311 0.017863 6.24438e-20)
(0.488489 0.0437059 -5.8771e-20)
(0.640506 0.0751983 -5.3779e-20)
(0.783849 0.108878 -9.50217e-20)
(0.909193 0.141134 4.73922e-20)
(1.01085 0.169043 4.11911e-20)
(1.08715 0.190852 0)
(1.13979 0.206043 9.49183e-20)
(1.17265 0.215093 -1.4192e-19)
(1.19051 0.21908 1.05632e-19)
(1.19802 0.219289 4.67551e-20)
(1.19902 0.216923 -3.87736e-20)
(1.19634 0.212941 -3.2752e-20)
(1.19186 0.208027 -3.07648e-20)
(1.18669 0.202621 9.13095e-20)
(1.18144 0.196985 0)
(1.1764 0.191268 4.69295e-20)
(1.17167 0.18555 4.03279e-20)
(1.16726 0.179883 -9.9151e-20)
(1.16313 0.174302 -6.94711e-20)
(1.15931 0.168417 6.41192e-20)
(0.0324206 -0.00367228 -3.89157e-20)
(0.13499 -0.00626057 -1.60767e-21)
(0.270529 0.00789552 3.50773e-20)
(0.426993 0.0343936 9.80869e-20)
(0.590695 0.069124 2.85456e-20)
(0.747628 0.107693 -5.52148e-20)
(0.885942 0.145396 5.03328e-20)
(0.998129 0.178297 -4.41466e-20)
(1.08174 0.204012 7.94922e-20)
(1.13861 0.221827 3.39724e-20)
(1.17332 0.232341 -9.65572e-20)
(1.19148 0.236913 2.85029e-20)
(1.19844 0.237128 4.89476e-20)
(1.19855 0.234435 -2.40445e-20)
(1.19493 0.229961 0)
(1.18959 0.224489 3.62676e-20)
(1.18368 0.218508 6.18535e-20)
(1.17781 0.212303 1.09448e-20)
(1.17224 0.206031 -5.18957e-20)
(1.16709 0.199774 2.1918e-20)
(1.16234 0.19358 0)
(1.15794 0.187473 -1.75431e-20)
(1.15383 0.181421 -1.68846e-20)
(1.14995 0.175421 0)
(0.0483904 -0.00332356 0)
(0.180677 -0.00101872 2.0433e-20)
(0.342073 0.0221125 3.77423e-20)
(0.51739 0.0587159 -1.00306e-19)
(0.690054 0.102089 3.24977e-20)
(0.845076 0.146063 0)
(0.972164 0.185291 4.8874e-20)
(1.06722 0.216321 -6.83006e-20)
(1.13171 0.237947 -3.97862e-20)
(1.17071 0.250766 1.79671e-20)
(1.19074 0.256421 -2.90231e-20)
(1.19806 0.256868 7.03274e-20)
(1.19773 0.253887 3.53676e-20)
(1.19335 0.24885 -2.45056e-20)
(1.18718 0.242693 -2.20899e-21)
(1.18049 0.235991 -6.78175e-20)
(1.17392 0.229067 3.09438e-20)
(1.16777 0.222095 -8.38509e-22)
(1.16212 0.215165 0)
(1.15696 0.208326 -2.1941e-20)
(1.15226 0.201606 0)
(1.14792 0.194998 5.06247e-20)
(1.14386 0.188481 -6.06243e-20)
(1.13997 0.182274 2.77753e-20)
(0.0667484 -0.00117305 -1.07566e-20)
(0.230592 0.00928844 -5.156e-20)
(0.416474 0.043562 5.87496e-20)
(0.606309 0.0908113 3.44338e-20)
(0.781784 0.141661 -1.6403e-20)
(0.928825 0.188716 2.76737e-20)
(1.04049 0.226886 -1.34022e-20)
(1.11698 0.253979 2.23649e-20)
(1.16351 0.270333 0)
(1.18752 0.277828 5.08751e-20)
(1.19642 0.278868 -2.07738e-21)
(1.19627 0.275688 -4.11138e-20)
(1.19137 0.270016 1.76297e-20)
(1.18442 0.263021 -1.99447e-20)
(1.17691 0.255413 -7.62056e-21)
(1.16959 0.247583 8.79892e-21)
(1.16277 0.239735 -6.79921e-21)
(1.15656 0.231969 -3.7263e-20)
(1.15094 0.224337 2.28341e-20)
(1.14588 0.21687 4.69772e-21)
(1.14128 0.209574 4.16593e-21)
(1.13705 0.202425 3.70002e-21)
(1.13308 0.195459 0)
(1.12921 0.188933 0)
(0.0870375 0.00321941 1.0764e-20)
(0.282993 0.0253625 -1.07322e-20)
(0.490598 0.0724943 -1.95928e-20)
(0.689728 0.130069 0)
(0.862106 0.18647 -8.16493e-21)
(0.996562 0.234028 -7.39463e-21)
(1.09072 0.268865 -1.26433e-20)
(1.14919 0.290582 0)
(1.18017 0.301121 0)
(1.19244 0.303391 0)
(1.19339 0.300232 0)
(1.18837 0.293889 0)
(1.18076 0.285889 -1.10635e-20)
(1.17244 0.277154 5.03653e-21)
(1.16433 0.268188 8.7838e-21)
(1.1568 0.259242 4.12032e-21)
(1.14998 0.250435 1.01975e-20)
(1.14386 0.241825 0)
(1.1384 0.233439 -2.46578e-21)
(1.13352 0.225292 -2.39019e-21)
(1.12912 0.217374 -4.17258e-21)
(1.12509 0.20966 -3.70595e-21)
(1.12128 0.20226 0)
(1.11754 0.195296 2.70759e-21)
(-0.00104238 -0.00337844 6.35738e-21)
(-0.00546919 -0.00853429 -6.60468e-21)
(-0.0137289 -0.0125148 -1.25143e-20)
(-0.023965 -0.0154833 0)
(-0.0351359 -0.0176313 -1.67651e-20)
(-0.0466974 -0.0191604 5.266e-21)
(-0.0582696 -0.0202547 -9.9389e-21)
(-0.0695896 -0.0210651 0)
(-0.0804914 -0.0217018 0)
(-0.0908758 -0.0222323 0)
(-0.100685 -0.0226859 0)
(-0.109887 -0.0230613 0)
(-0.118461 -0.0233346 1.68009e-23)
(-0.126395 -0.0234674 -6.51323e-21)
(-0.133676 -0.023412 1.22077e-20)
(-0.140296 -0.0231151 1.72051e-20)
(-0.146246 -0.0225192 5.34755e-21)
(-0.151527 -0.021563 0)
(-0.156157 -0.0201811 4.73979e-21)
(-0.160182 -0.0183049 -1.32755e-20)
(-0.163673 -0.015865 -8.25412e-21)
(-0.166721 -0.0127875 -7.71433e-21)
(-0.169502 -0.00897028 0)
(-0.172482 -0.00431778 0)
(-0.00117362 0.000166261 -1.91038e-20)
(-0.00574685 -0.000159337 3.29817e-20)
(-0.014055 -0.000969417 -1.24304e-20)
(-0.0242547 -0.00194306 -2.36595e-20)
(-0.0353095 -0.00294254 3.34396e-20)
(-0.0466769 -0.00393196 -2.107e-20)
(-0.0579787 -0.00491515 2.97543e-20)
(-0.0689538 -0.00590947 1.87079e-20)
(-0.079438 -0.00692971 0)
(-0.0893336 -0.00797855 -1.66012e-20)
(-0.0985841 -0.00904373 -2.89707e-23)
(-0.107157 -0.0100995 1.46707e-20)
(-0.115031 -0.0111098 2.06838e-20)
(-0.122192 -0.0120312 2.58946e-20)
(-0.128625 -0.0128139 -1.22169e-20)
(-0.134312 -0.0134015 -3.42607e-20)
(-0.139237 -0.0137279 1.06095e-20)
(-0.143388 -0.0137133 -3.99651e-20)
(-0.146763 -0.0132595 0)
(-0.149388 -0.0122459 8.81453e-21)
(-0.151308 -0.010532 8.24336e-21)
(-0.152549 -0.00795506 7.70413e-21)
(-0.153223 -0.00430412 0)
(-0.154137 0.000606211 0)
(-0.0016943 0.0035729 0)
(-0.00681314 0.00790505 6.61729e-20)
(-0.0152016 0.010159 -2.4966e-20)
(-0.0251648 0.0111062 2.36608e-20)
(-0.0357458 0.0112003 -6.69627e-20)
(-0.0464438 0.0107095 0)
(-0.0569084 0.00980725 -3.97275e-20)
(-0.066897 0.008608 1.86758e-20)
(-0.0762571 0.00719063 -3.52451e-20)
(-0.0848974 0.00561579 1.65899e-20)
(-0.0927648 0.00393571 9.34815e-20)
(-0.0998274 0.00219864 -4.39027e-20)
(-0.106064 0.000450727 -6.87239e-20)
(-0.111456 -0.00126258 -2.57168e-20)
(-0.115983 -0.00289433 1.01326e-22)
(-0.119622 -0.00439209 9.06242e-20)
(-0.122342 -0.00569193 -4.24848e-20)
(-0.124112 -0.00670984 1.41306e-22)
(-0.124898 -0.00733079 0)
(-0.124691 -0.00739714 -3.43641e-20)
(-0.123496 -0.00669887 0)
(-0.121239 -0.00496173 -2.98801e-20)
(-0.117834 -0.00182119 1.11374e-19)
(-0.114448 0.00309084 -3.02497e-22)
(-0.00255285 0.00664083 0)
(-0.00857405 0.0152157 1.59218e-22)
(-0.0170802 0.0202938 2.52026e-20)
(-0.0266309 0.0230198 -2.38276e-20)
(-0.0364095 0.0241233 2.22667e-20)
(-0.045991 0.024084 1.26785e-19)
(-0.0550764 0.0232401 -3.97606e-20)
(-0.0634571 0.0218298 -3.75424e-20)
(-0.0710012 0.0200211 7.05418e-20)
(-0.0776284 0.0179354 -9.94511e-20)
(-0.0832905 0.0156639 3.11811e-20)
(-0.0879563 0.0132768 2.9296e-20)
(-0.0916027 0.0108302 0)
(-0.094208 0.00837062 2.57661e-20)
(-0.0957474 0.00593936 0)
(-0.0961908 0.00357816 4.51085e-20)
(-0.0955006 0.00133653 -8.41342e-20)
(-0.0936294 -0.000717671 2.02572e-20)
(-0.0905208 -0.00248297 7.36771e-20)
(-0.0861271 -0.00380142 3.43321e-20)
(-0.0804255 -0.00442276 0)
(-0.0732827 -0.0039638 -8.823e-20)
(-0.0642386 -0.00185278 2.78718e-20)
(-0.0543218 0.00273476 0)
(-0.00367027 0.00922123 0)
(-0.0108797 0.0214271 -8.0155e-20)
(-0.0195395 0.028966 -2.54925e-20)
(-0.0285273 0.033253 -4.77645e-20)
(-0.0372071 0.0352389 4.49764e-20)
(-0.0452555 0.035583 -4.23165e-20)
(-0.0524432 0.0347677 7.99274e-20)
(-0.0586081 0.0331425 3.75602e-20)
(-0.0636456 0.0309566 -1.06024e-19)
(-0.0674892 0.0283889 6.64676e-20)
(-0.0700947 0.0255681 -9.3606e-20)
(-0.0714291 0.0225877 2.05184e-19)
(-0.0714636 0.0195161 -1.10032e-19)
(-0.0701689 0.0164039 5.15292e-20)
(-0.0675125 0.0132899 1.44374e-19)
(-0.0634574 0.010207 -4.55441e-20)
(-0.0579606 0.00718775 -4.25689e-20)
(-0.0509709 0.00427387 -3.95317e-20)
(-0.0424249 0.00152907 0)
(-0.0322491 -0.000936482 -6.74004e-20)
(-0.0204178 -0.00293326 -6.16607e-20)
(-0.00692894 -0.00408966 8.82779e-20)
(0.00902359 -0.00346629 1.06834e-19)
(0.0277473 0.000624383 -1.00364e-19)
(-0.00495528 0.0112292 0)
(-0.013546 0.0263153 -1.08182e-19)
(-0.0223765 0.0358423 -3.55617e-22)
(-0.0306605 0.0413913 9.60778e-20)
(-0.0379605 0.044075 0)
(-0.0440697 0.0446964 0)
(-0.0488402 0.0438576 0)
(-0.0521638 0.0420025 -3.76642e-20)
(-0.053966 0.0394522 3.32366e-23)
(-0.0541929 0.036437 6.67486e-20)
(-0.0528001 0.0331221 -9.36819e-20)
(-0.0497457 0.0296253 9.74009e-23)
(-0.0449867 0.0260313 0)
(-0.0384766 0.0224008 -5.15077e-20)
(-0.0301659 0.0187787 4.79571e-20)
(-0.0200039 0.0152001 -1.35295e-19)
(-0.00793829 0.0116931 1.67601e-19)
(0.00608221 0.00828522 3.79683e-20)
(0.0221081 0.00501019 -1.56388e-21)
(0.0401808 0.00191426 -1.35656e-19)
(0.0603034 -0.000921942 -6.22665e-20)
(0.0824832 -0.00325115 2.00635e-19)
(0.107434 -0.00405092 -1.33377e-19)
(0.137783 -0.000877543 0)
(-0.00631953 0.012644 5.30546e-20)
(-0.0163756 0.0297817 5.41973e-20)
(-0.0253444 0.0407347 -5.172e-20)
(-0.0327554 0.0471659 -9.70068e-20)
(-0.0383677 0.050298 9.13416e-20)
(-0.0420947 0.0510433 -8.59513e-20)
(-0.043873 0.050098 1.21429e-19)
(-0.0436484 0.0479824 -3.76255e-20)
(-0.0413738 0.0450775 7.14145e-20)
(-0.0370013 0.0416591 0)
(-0.0304772 0.0379259 6.28198e-20)
(-0.0217402 0.0340215 -1.1814e-19)
(-0.0107221 0.0300502 1.10126e-19)
(0.00265015 0.0260898 -1.03436e-19)
(0.0184511 0.0222003 0)
(0.0367475 0.0184289 9.00036e-20)
(0.0575941 0.0148171 1.66975e-19)
(0.0810295 0.0114036 -1.56789e-19)
(0.107069 0.00822563 -7.23627e-20)
(0.135697 0.00531994 -6.62898e-20)
(0.166821 0.00272113 1.8737e-19)
(0.200446 0.00050536 5.59337e-20)
(0.235611 -0.000908773 -5.35629e-20)
(0.282934 0.00203154 4.79098e-20)
(-0.0076883 0.013498 -5.30618e-20)
(-0.01917 0.0318373 1.65792e-19)
(-0.0281501 0.0435927 -5.22407e-20)
(-0.0344306 0.050458 9.79203e-20)
(-0.0379507 0.0537309 -9.22009e-20)
(-0.0387369 0.0544038 4.10431e-22)
(-0.0368038 0.0532446 4.09001e-20)
(-0.0321433 0.0508329 1.53208e-19)
(-0.0247245 0.0475979 -2.87166e-22)
(-0.0144944 0.0438543 -6.73113e-20)
(-0.00137904 0.0398326 0)
(0.0147106 0.0357028 -5.89307e-20)
(0.0338708 0.0315928 1.10776e-19)
(0.0561948 0.027602 1.03058e-19)
(0.0817611 0.0238104 -4.85396e-20)
(0.110623 0.0202869 -3.14595e-23)
(0.142794 0.0170953 -4.19104e-20)
(0.178236 0.0142943 7.77622e-20)
(0.216845 0.0119397 7.2347e-20)
(0.258474 0.0100934 -6.70123e-20)
(0.30266 0.00875125 6.16423e-20)
(0.350319 0.00823467 -5.67302e-20)
(0.395036 0.00747705 0)
(0.46354 0.0124059 -4.78401e-20)
(-0.00900305 0.0138572 5.41685e-20)
(-0.0217274 0.0325707 -5.55064e-20)
(-0.0304376 0.0444767 5.29653e-20)
(-0.0351608 0.0512885 0)
(-0.0359927 0.0543608 0)
(-0.0330573 0.054748 8.80047e-20)
(-0.0264311 0.0532716 -8.21126e-20)
(-0.0161357 0.0505569 7.69336e-20)
(-0.0021424 0.0470725 -3.60743e-19)
(0.0156173 0.0431675 2.27727e-22)
(0.0372386 0.0391032 6.33583e-20)
(0.0628257 0.0350777 0)
(0.0924718 0.0312448 -1.10422e-19)
(0.126237 0.0277275 2.06789e-19)
(0.164127 0.0246272 -1.45044e-19)
(0.206073 0.0220305 -2.23928e-19)
(0.251914 0.0200113 1.65958e-21)
(0.301386 0.0186336 1.55871e-19)
(0.354099 0.0179454 0)
(0.409703 0.0180547 0)
(0.466771 0.0186853 -6.1635e-20)
(0.528487 0.0210972 5.67221e-20)
(0.579737 0.0217018 -2.05189e-19)
(0.66701 0.0302956 1.92583e-19)
(-0.010214 0.0137971 0)
(-0.0238226 0.0321072 0)
(-0.0317552 0.0435236 -1.59508e-19)
(-0.0342306 0.0497989 5.07133e-20)
(-0.0314755 0.0523421 3.28432e-22)
(-0.0236923 0.0522614 8.91191e-20)
(-0.0109986 0.0504223 0)
(0.00657125 0.0474879 -7.76504e-20)
(0.0290491 0.0439608 7.23199e-20)
(0.0565069 0.0402225 -1.35625e-19)
(0.089024 0.0365646 3.09065e-22)
(0.126651 0.033212 1.18321e-19)
(0.169372 0.0303402 -6.73461e-22)
(0.21707 0.0280854 1.02295e-19)
(0.269498 0.0265515 -1.4536e-19)
(0.32626 0.0258129 0)
(0.386803 0.0259164 1.65718e-19)
(0.450429 0.0268844 -2.33043e-19)
(0.516256 0.0286851 7.12756e-20)
(0.583632 0.0314585 0)
(0.650075 0.0344743 6.07257e-20)
(0.720419 0.0399307 2.22873e-19)
(0.77409 0.0420299 -2.09159e-19)
(0.867266 0.0538377 -2.37125e-19)
(-0.0112637 0.0133794 1.67289e-19)
(-0.0251743 0.0305716 -2.30256e-19)
(-0.0315145 0.0409161 3.9737e-22)
(-0.030691 0.046236 5.12892e-20)
(-0.0230444 0.0480041 -9.56801e-20)
(-0.00883382 0.0473845 -8.86423e-20)
(0.0117931 0.0452831 1.66205e-19)
(0.0387844 0.0423967 -1.34433e-21)
(0.0721431 0.0392595 -1.46159e-19)
(0.111872 0.0362806 2.7209e-19)
(0.157915 0.0337725 -9.03168e-22)
(0.210097 0.0319703 -1.19202e-19)
(0.26807 0.0310426 0)
(0.331286 0.0310981 0)
(0.398973 0.0321881 -4.81327e-20)
(0.470146 0.0343085 -8.90472e-20)
(0.54364 0.0374037 -1.64704e-19)
(0.618155 0.0413705 1.54604e-19)
(0.692295 0.0460469 -7.13009e-20)
(0.764878 0.0513927 1.29906e-19)
(0.833606 0.0566742 -6.30501e-20)
(0.901555 0.0635983 1.08248e-19)
(0.952882 0.0668969 -2.57696e-19)
(1.03247 0.0788551 4.71047e-20)
(-0.0120606 0.0126351 5.65316e-20)
(-0.0253973 0.0280629 0)
(-0.0289443 0.0368593 1.09682e-19)
(-0.0233244 0.0409448 -1.03325e-19)
(-0.00899207 0.0418673 9.57671e-20)
(0.0137382 0.040848 0)
(0.0446692 0.0388321 0)
(0.0836711 0.0365441 -7.8255e-20)
(0.130601 0.0345374 1.03072e-21)
(0.185209 0.0332267 6.90389e-20)
(0.247053 0.0329098 -6.34109e-20)
(0.315432 0.0337785 1.1946e-19)
(0.389343 0.0359241 0)
(0.467489 0.0393422 2.051e-19)
(0.548318 0.0439376 -3.82968e-19)
(0.630091 0.0495338 2.67849e-19)
(0.710986 0.0558903 1.63207e-19)
(0.789192 0.0627039 -1.53203e-19)
(0.863062 0.0696981 0)
(0.931056 0.0764443 0)
(0.992182 0.0828528 0)
(1.04599 0.0885127 0)
(1.08865 0.0925608 5.07891e-20)
(1.13845 0.0994586 -1.85516e-19)
(-0.176798 0.0018879 -4.79484e-21)
(-0.182366 0.00979923 4.81689e-21)
(-0.187637 0.0190028 -1.43417e-22)
(-0.192842 0.0294853 0)
(-0.197976 0.0411301 -4.36201e-21)
(-0.203004 0.0537669 8.46551e-21)
(-0.207891 0.0671425 -1.67054e-23)
(-0.212585 0.0809052 -3.97671e-21)
(-0.217007 0.0945965 0)
(-0.221054 0.107644 0)
(-0.22458 0.119353 -2.24969e-22)
(-0.227393 0.128906 -2.19446e-22)
(-0.229233 0.135383 -3.6285e-21)
(-0.229776 0.137804 3.31816e-21)
(-0.228634 0.135191 0)
(-0.225377 0.126648 0)
(-0.219576 0.11147 3.07615e-21)
(-0.210841 0.0892617 -1.06761e-23)
(-0.198807 0.0600616 -2.70754e-21)
(-0.183178 0.0246325 -1.79138e-22)
(-0.164443 -0.0156067 0)
(-0.143095 -0.0586767 0)
(-0.119832 -0.101566 0)
(-0.095723 -0.1411 0)
(-0.0717317 -0.174078 0)
(-0.0488979 -0.197342 0)
(-0.027401 -0.209036 3.18012e-22)
(-0.0055761 -0.207711 -5.23223e-22)
(0.0197633 -0.192547 0)
(0.0523607 -0.164165 0)
(0.095178 -0.124726 -6.64223e-23)
(0.148511 -0.0785597 6.45519e-23)
(0.209622 -0.0314909 -1.5718e-23)
(0.274045 0.0113869 0)
(0.336702 0.0455126 0)
(0.394029 0.0692605 -1.1238e-22)
(0.443621 0.0823025 1.09235e-22)
(0.485602 0.0863972 0)
(0.52108 0.0827099 -1.20143e-22)
(0.55267 0.0735774 1.73957e-22)
(0.582494 0.0599245 -5.27004e-23)
(0.612385 0.0442119 0)
(0.64256 0.0272049 8.39731e-23)
(0.672699 0.0116211 -8.16532e-23)
(0.701323 -0.00235244 0)
(0.727815 -0.0125304 0)
(0.750909 -0.0199023 2.56665e-23)
(0.771569 -0.0229511 -7.20391e-23)
(0.788976 -0.0236237 0)
(0.805927 -0.0206232 0)
(0.82057 -0.0163621 1.40817e-23)
(0.837206 -0.00969628 1.34018e-25)
(0.850801 -0.00327169 1.71202e-24)
(0.868103 0.00380978 -8.092e-24)
(0.879413 0.00932639 0)
(0.89672 0.0142237 0)
(0.904014 0.0173374 0)
(0.921012 0.0194562 0)
(0.923955 0.0204451 0)
(0.94142 0.0207137 0)
(-0.157201 0.00739095 -4.52264e-22)
(-0.162186 0.0149934 -1.8696e-20)
(-0.16643 0.0238364 2.37458e-22)
(-0.170494 0.034009 1.73235e-20)
(-0.174365 0.04534 2.61668e-22)
(-0.177942 0.0576501 0)
(-0.181132 0.0706747 -1.57194e-20)
(-0.183818 0.0840444 3.10434e-20)
(-0.185847 0.0972791 -1.53227e-20)
(-0.187037 0.109779 1.47573e-20)
(-0.187172 0.120819 -1.4119e-20)
(-0.185997 0.12954 1.39499e-20)
(-0.183211 0.134985 -1.35579e-20)
(-0.178472 0.136143 -4.30492e-22)
(-0.171429 0.132018 -1.35494e-20)
(-0.161754 0.121723 1.31676e-20)
(-0.149182 0.104598 -1.3119e-20)
(-0.133578 0.0803455 1.23376e-20)
(-0.114796 0.0490276 -1.25541e-20)
(-0.0928274 0.0116475 2.39644e-20)
(-0.0683617 -0.0302253 -1.14351e-20)
(-0.0420624 -0.0743318 -6.69911e-22)
(-0.0148725 -0.11767 -8.81974e-21)
(0.0118155 -0.156849 1.60788e-20)
(0.0366572 -0.188516 -7.29623e-21)
(0.0578919 -0.210217 3.40744e-22)
(0.0743045 -0.220495 3.64915e-21)
(0.086652 -0.218708 -9.18638e-22)
(0.0975913 -0.204983 -3.83408e-21)
(0.111292 -0.179731 2.20581e-21)
(0.132628 -0.144475 -7.37026e-22)
(0.164529 -0.102106 -2.20205e-23)
(0.207024 -0.0572631 1.57498e-23)
(0.257179 -0.0147791 -9.39944e-23)
(0.310662 0.0208967 0)
(0.363416 0.0475052 0)
(0.412768 0.0637837 5.04568e-22)
(0.457884 0.0707607 -3.65166e-22)
(0.499439 0.069161 -3.54327e-22)
(0.53883 0.0612677 -3.62214e-23)
(0.577406 0.0482433 4.80203e-22)
(0.61547 0.0329478 -9.09928e-23)
(0.652615 0.0164635 0)
(0.687597 0.00175717 0)
(0.719141 -0.0110456 0)
(0.746479 -0.0198662 0)
(0.769004 -0.0259615 -1.05065e-22)
(0.787725 -0.0279002 4.71212e-23)
(0.802446 -0.0278021 0)
(0.816019 -0.0242848 0)
(0.827153 -0.0198425 0)
(0.840362 -0.0130119 2.2348e-23)
(0.850979 -0.00659791 -3.38307e-24)
(0.866075 0.000729113 1.75915e-23)
(0.875731 0.00632676 0)
(0.892441 0.011617 0)
(0.899212 0.014888 -7.4284e-24)
(0.916748 0.0173909 -1.76368e-23)
(0.919635 0.0185093 0)
(0.938147 0.0189693 0)
(-0.114614 0.0104062 6.19532e-23)
(-0.118699 0.0176884 -3.69235e-20)
(-0.121373 0.0260713 3.59527e-20)
(-0.123622 0.0358377 -3.36294e-20)
(-0.12554 0.0467547 -2.63458e-22)
(-0.126953 0.0586328 0)
(-0.127726 0.0711931 -3.15857e-20)
(-0.127698 0.0840471 3.09372e-20)
(-0.126666 0.0966935 2.35119e-22)
(-0.1244 0.108506 4.53583e-22)
(-0.120654 0.118723 4.47726e-22)
(-0.115157 0.126461 4.43632e-22)
(-0.10761 0.13077 -2.84868e-20)
(-0.0977077 0.130626 2.81176e-20)
(-0.0851665 0.125045 0)
(-0.0697687 0.113162 8.79682e-22)
(-0.0513828 0.0943601 -2.77426e-20)
(-0.0301273 0.0684009 2.73707e-20)
(-0.00607307 0.0356005 0)
(0.0206369 -0.00302799 0)
(0.0494932 -0.0460105 -2.42686e-20)
(0.079583 -0.0908177 4.5562e-20)
(0.109899 -0.134294 -3.9504e-20)
(0.139059 -0.172778 2.91247e-21)
(0.16533 -0.202709 2.77867e-20)
(0.18674 -0.221972 -2.26275e-20)
(0.201699 -0.229365 1.6072e-20)
(0.209848 -0.225153 -2.5877e-21)
(0.212563 -0.210556 -4.4763e-21)
(0.213112 -0.186702 0)
(0.21676 -0.154883 0)
(0.22827 -0.11684 -4.09038e-22)
(0.250629 -0.0757861 4.67668e-22)
(0.283345 -0.0355236 -2.11012e-23)
(0.323997 -0.000383939 -1.01833e-21)
(0.368851 0.0270789 9.89613e-22)
(0.415226 0.0449917 0)
(0.461275 0.0536519 -1.25786e-22)
(0.506921 0.05338 -1.04914e-21)
(0.551962 0.0464207 1.96805e-21)
(0.596699 0.0341409 -8.25892e-22)
(0.639954 0.0197024 -8.1614e-23)
(0.680877 0.00437792 7.7583e-22)
(0.717681 -0.00878463 -6.01528e-22)
(0.749488 -0.0198722 -1.27532e-22)
(0.77562 -0.0269503 -1.14995e-22)
(0.796113 -0.0314774 1.0533e-22)
(0.812 -0.0321103 0)
(0.823533 -0.0311207 0)
(0.833435 -0.0270312 2.78001e-22)
(0.84083 -0.0224256 -1.31281e-22)
(0.850238 -0.0155128 1.05177e-22)
(0.857439 -0.00925552 -1.31175e-22)
(0.869643 -0.00187061 -1.38885e-22)
(0.877059 0.00364635 3.24232e-23)
(0.892351 0.00919239 -4.61604e-23)
(0.898131 0.0125021 3.49776e-23)
(0.915427 0.0153247 -1.49511e-23)
(0.918037 0.0165271 0)
(0.936853 0.0171591 0)
(-0.0506874 0.0106744 -7.49359e-20)
(-0.0540858 0.0177219 1.28973e-21)
(-0.0553557 0.0254534 6.97994e-20)
(-0.0557222 0.0345986 -5.35308e-22)
(-0.0555796 0.0449295 0)
(-0.0546987 0.0562172 0)
(-0.0529168 0.0681513 -6.2395e-20)
(-0.0500547 0.0803291 -8.82172e-22)
(-0.045897 0.0922404 8.91412e-20)
(-0.0402094 0.103246 6.54949e-24)
(-0.0327545 0.112576 -2.90375e-20)
(-0.0232523 0.11936 -2.81909e-20)
(-0.0114363 0.122629 2.82657e-20)
(0.0029229 0.12138 0)
(0.0200323 0.114652 -2.92175e-20)
(0.040003 0.101607 2.65917e-20)
(0.0628519 0.081647 0)
(0.0884327 0.0545397 0)
(0.116472 0.0207555 2.78334e-20)
(0.146437 -0.0186692 -4.50723e-22)
(0.178052 -0.062231 -2.50536e-20)
(0.210485 -0.107427 -2.32431e-20)
(0.242663 -0.150891 2.32128e-20)
(0.273168 -0.188745 -1.71696e-20)
(0.300237 -0.217256 3.2627e-21)
(0.321915 -0.233951 1.29554e-20)
(0.336696 -0.237957 1.05318e-21)
(0.343864 -0.230257 5.5927e-26)
(0.343905 -0.213012 0)
(0.33863 -0.188353 7.15387e-22)
(0.332147 -0.158072 -6.90892e-22)
(0.329302 -0.123491 -5.04855e-23)
(0.334912 -0.0866416 0)
(0.350979 -0.0500363 1.16367e-22)
(0.37759 -0.0172174 -2.22452e-21)
(0.412289 0.00916595 4.09253e-21)
(0.452934 0.0270174 2.39118e-22)
(0.496874 0.0361182 -8.18004e-23)
(0.543222 0.0364423 -1.69124e-21)
(0.590227 0.0301867 -2.16636e-22)
(0.637133 0.0188151 1.4586e-21)
(0.681617 0.00561423 -1.24355e-21)
(0.722574 -0.00788372 -7.07671e-24)
(0.758034 -0.0190969 -5.37672e-22)
(0.787577 -0.0281747 6.5068e-22)
(0.810776 -0.0333279 7.79436e-22)
(0.828162 -0.0361934 -2.2385e-22)
(0.840759 -0.0354758 -3.52095e-22)
(0.849061 -0.0335655 6.53074e-22)
(0.855523 -0.0288851 -4.45592e-22)
(0.85949 -0.0241234 1.09147e-22)
(0.86529 -0.0171779 -1.34807e-22)
(0.869146 -0.0111742 -1.0357e-22)
(0.878216 -0.00386637 2.13602e-22)
(0.883144 0.00140655 -6.81658e-24)
(0.896412 0.00706588 4.71823e-23)
(0.900878 0.0102954 0)
(0.917201 0.0133526 1.51355e-23)
(0.919355 0.0145874 -1.8783e-23)
(0.937704 0.0153552 0)
(0.0351483 0.00872707 7.47553e-20)
(0.0316708 0.0156832 -1.45026e-19)
(0.0304563 0.0226268 6.95375e-20)
(0.031098 0.0307894 6.70437e-20)
(0.0325695 0.0402475 -1.30634e-19)
(0.0350162 0.0507153 5.0035e-22)
(0.0386551 0.0618227 6.18497e-20)
(0.0436921 0.0731636 6.04325e-20)
(0.0503381 0.0842378 -5.92015e-20)
(0.0588095 0.0944031 0)
(0.069319 0.102888 -5.88848e-20)
(0.0820743 0.108826 1.162e-19)
(0.0972778 0.111246 -5.73122e-20)
(0.115111 0.109183 0)
(0.135695 0.101705 0)
(0.159054 0.0879947 9.21512e-22)
(0.185119 0.0674699 -6.02874e-20)
(0.213707 0.0399362 5.85642e-20)
(0.244445 0.00563785 0)
(0.276744 -0.0342451 5.73029e-20)
(0.31023 -0.0780865 -1.05812e-19)
(0.344038 -0.123396 9.74446e-20)
(0.377014 -0.166697 -8.82636e-20)
(0.407631 -0.203901 5.41161e-21)
(0.434097 -0.23104 6.22813e-20)
(0.45463 -0.245462 -2.76495e-20)
(0.468169 -0.246518 -5.36757e-22)
(0.474406 -0.235564 -4.23266e-21)
(0.473855 -0.215284 2.10833e-21)
(0.467491 -0.188567 2.28296e-21)
(0.45787 -0.15796 -4.1892e-24)
(0.448475 -0.125092 1.51173e-21)
(0.444058 -0.0915288 -3.49211e-21)
(0.447955 -0.058788 2.2374e-21)
(0.46242 -0.0293805 0)
(0.486737 -0.0054197 2.54329e-21)
(0.519815 0.0109606 -2.46732e-21)
(0.558791 0.0194631 1.69284e-21)
(0.602188 0.0197813 -2.11484e-21)
(0.647139 0.0140011 1.98617e-22)
(0.692033 0.00377632 0)
(0.733945 -0.0077155 1.61943e-22)
(0.771573 -0.0192476 -4.41512e-22)
(0.803032 -0.0283853 0)
(0.82841 -0.0353989 -1.18914e-21)
(0.847522 -0.038672 4.75913e-22)
(0.861204 -0.0399688 -2.04215e-22)
(0.870451 -0.0379955 -1.80378e-22)
(0.875816 -0.0352253 0)
(0.879412 -0.029979 0)
(0.880632 -0.0250639 3.57916e-22)
(0.883449 -0.0181022 -5.31857e-22)
(0.884474 -0.0123967 2.82038e-22)
(0.890597 -0.00523987 -8.70404e-23)
(0.893141 -0.000337228 -1.31407e-22)
(0.90408 0.00530949 -4.7227e-23)
(0.907108 0.00835691 7.0379e-23)
(0.921874 0.0115552 0)
(0.923468 0.0127723 3.10637e-23)
(0.940651 0.013628 9.20413e-24)
(0.146545 0.00675083 7.52605e-20)
(0.142374 0.0133596 -7.46716e-20)
(0.138915 0.0192667 5.50833e-22)
(0.138454 0.0260758 -5.2382e-22)
(0.139575 0.0342886 5.13338e-22)
(0.141927 0.0435902 -4.97935e-22)
(0.145788 0.0535602 9.56185e-22)
(0.15145 0.0638113 0)
(0.159118 0.0738715 -9.22211e-22)
(0.168967 0.0831024 9.14142e-22)
(0.181173 0.0907229 9.11798e-22)
(0.195896 0.0958599 -9.20873e-22)
(0.213271 0.0975848 0)
(0.2334 0.0949526 0)
(0.256324 0.0870508 9.42966e-22)
(0.281986 0.0730697 0)
(0.310267 0.0523977 -9.57374e-22)
(0.340884 0.0248231 0)
(0.373498 -0.00941279 -5.80728e-20)
(0.407494 -0.0491203 1.13843e-19)
(0.442191 -0.0928028 -1.07731e-19)
(0.476639 -0.137861 5.21392e-20)
(0.509484 -0.180695 4.27104e-20)
(0.53897 -0.217048 -4.1473e-20)
(0.56325 -0.242804 -2.97337e-20)
(0.580785 -0.255258 2.86807e-20)
(0.591114 -0.254003 0)
(0.594707 -0.24064 3.85978e-22)
(0.592739 -0.218049 0)
(0.586246 -0.189404 0)
(0.576887 -0.157736 -1.24654e-21)
(0.5666 -0.125178 1.20496e-21)
(0.558783 -0.0934446 -2.19614e-22)
(0.556502 -0.0636611 -2.7516e-22)
(0.562938 -0.0375753 2.84407e-22)
(0.578791 -0.016511 2.25027e-21)
(0.604132 -0.00237422 -2.18492e-21)
(0.636495 0.00461304 2.12771e-21)
(0.674175 0.00452445 -1.82414e-21)
(0.713911 -0.000557207 -3.90785e-22)
(0.75359 -0.00952101 1.35666e-21)