/*--------------------------------*- C++ -*----------------------------------*\
| =========                 |                                                 |
| \\      /  F ield         | OpenFOAM: The Open Source CFD Toolbox           |
|  \\    /   O peration     | Version:  2512                                  |
|   \\  /    A nd           | Website:  www.openfoam.com                      |
|    \\/     M anipulation  |                                                 |
\*---------------------------------------------------------------------------*/
FoamFile
{
    version     2.0;
    format      ascii;
    arch        "LSB;label=32;scalar=64";
    class       surfaceScalarField;
    location    "70";
    object      phi;
}
// * * * * * * * * * * * * * * * * * * * * * * * * * * * * * * * * * * * * * //

dimensions      [0 3 -1 0 0 0 0];

oriented        oriented;

internalField   nonuniform List<scalar> 
26232
(
8.57766e-05
0.0010028
-0.00108858
0.000546037
0.00189474
-0.002355
0.00154875
0.00180131
-0.00280402
0.00324615
0.000756614
-0.00245402
0.00578792
-0.00122299
-0.00131878
0.00932245
-0.00413015
0.000595622
0.0139896
-0.00795666
0.00328951
0.0199056
-0.012681
0.00676503
0.0271434
-0.0182555
0.0110177
0.0357114
-0.0245957
0.0160278
0.0455362
-0.0315758
0.0217509
0.0564548
-0.0390307
0.0281121
0.0682171
-0.0467655
0.0350032
0.0805019
-0.0545699
0.0422852
0.0929425
-0.0622351
0.0497945
0.10516
-0.0695718
0.0573539
0.116802
-0.076426
0.0647847
0.127571
-0.082691
0.0719219
0.137261
-0.0883116
0.0786218
0.145759
-0.093296
0.0847971
0.15306
-0.0976592
0.0903583
0.159193
-0.101572
0.0954398
0.164065
-0.104746
0.0998734
-0.108176
0.104645
0.167597
0.00012052
0.000882284
0.00072196
0.0012933
0.00201009
0.000513187
0.00417215
-0.00140545
0.0073849
-0.00443574
0.0118071
-0.00855233
0.0175613
-0.0137109
0.0247099
-0.0198296
0.0332303
-0.0267759
0.0429983
-0.0343637
0.0537849
-0.0423624
0.0652696
-0.0505154
0.0770692
-0.0585652
0.0887772
-0.0662779
0.100008
-0.0734656
0.110437
-0.0800014
0.119837
-0.0858259
0.128092
-0.0909459
0.135204
-0.0954235
0.141268
-0.0993596
0.146475
-0.102867
0.150989
-0.106086
0.155242
-0.108998
-0.112158
0.159223
0.000184281
0.000698003
0.000997837
0.000479749
0.00267566
-0.00116464
0.00542916
-0.00415894
0.00944274
-0.00844933
0.0148529
-0.0139625
0.0217184
-0.0205764
0.0299918
-0.028103
0.0395024
-0.0362865
0.0499595
-0.0448209
0.0609785
-0.0533814
0.072125
-0.0616619
0.0829688
-0.0694089
0.0931365
-0.0764457
0.102355
-0.0826838
0.110474
-0.0881205
0.117473
-0.0928252
0.123444
-0.0969165
0.128556
-0.100536
0.133022
-0.103825
0.137053
-0.106899
0.140837
-0.10987
0.144545
-0.112707
-0.115783
0.14817
0.000275786
0.000422217
0.00136796
-0.000612421
0.00352703
-0.00332371
0.00696817
-0.00760008
0.0118507
-0.0133319
0.0182423
-0.020354
0.0260834
-0.0284176
0.0351686
-0.0371882
0.0451552
-0.0462731
0.0556034
-0.0552691
0.0660375
-0.0638155
0.0760144
-0.0716388
0.0851833
-0.0785777
0.0933244
-0.0845867
0.100361
-0.0897209
0.106348
-0.0941072
0.111434
-0.0979106
0.115818
-0.101301
0.119711
-0.104429
0.123298
-0.107412
0.12673
-0.110331
0.130106
-0.113246
0.133539
-0.116139
-0.119253
0.137009
0.000390885
3.1332e-05
0.00181527
-0.00203681
0.0045198
-0.00602825
0.00869301
-0.0117733
0.0144251
-0.019064
0.0216626
-0.0275915
0.030182
-0.036937
0.0396015
-0.0466077
0.0494339
-0.0561055
0.0591662
-0.0650013
0.0683431
-0.0729924
0.0766327
-0.0799285
0.0838599
-0.0858049
0.0900045
-0.0907313
0.0951705
-0.0948869
0.0995388
-0.0984756
0.103317
-0.101689
0.106701
-0.104685
0.10985
-0.107578
0.112882
-0.110444
0.115877
-0.113327
0.118886
-0.116255
0.121963
-0.119216
-0.122349
0.125059
0.000524302
-0.00049297
0.00231718
-0.00382968
0.00559442
-0.00930549
0.0104787
-0.0166576
0.0169418
-0.025527
0.0247641
-0.0354138
0.033541
-0.0457139
0.042745
-0.0558117
0.051824
-0.0651845
0.0603024
-0.0734797
0.0678542
-0.0805442
0.0743319
-0.0864062
0.0797519
-0.0912249
0.0842493
-0.0952287
0.0880213
-0.0986588
0.0912748
-0.101729
0.0941919
-0.104606
0.0969133
-0.107406
0.0995378
-0.110202
0.102131
-0.113036
0.104735
-0.115931
0.107376
-0.118896
0.110086
-0.121926
-0.125094
0.11283
0.000671269
-0.00116424
0.00284765
-0.00600606
0.00668116
-0.013139
0.0121837
-0.0221602
0.0191643
-0.0325076
0.027217
-0.0434665
0.0357833
-0.0542802
0.0442669
-0.0642954
0.0521568
-0.0730744
0.0591124
-0.0804353
0.0649923
-0.0864241
0.06983
-0.0912439
0.0737772
-0.0951721
0.0770394
-0.0984909
0.0798221
-0.101442
0.0822987
-0.104206
0.0845981
-0.106906
0.0868081
-0.109616
0.0889846
-0.112379
0.0911624
-0.115214
0.0933635
-0.118132
0.0956016
-0.121134
0.0978925
-0.124217
-0.12741
0.100208
0.000825244
-0.00198948
0.00337619
-0.00855701
0.00770219
-0.017465
0.0136616
-0.0281196
0.0208749
-0.0397208
0.0287679
-0.0513596
0.036697
-0.0622092
0.0440962
-0.0716946
0.0505844
-0.0795626
0.0560011
-0.085852
0.0603775
-0.0908005
0.0638705
-0.0947369
0.0666905
-0.0979921
0.069044
-0.100844
0.0711013
-0.103499
0.0729861
-0.10609
0.0747803
-0.1087
0.0765344
-0.11137
0.078279
-0.114123
0.0800329
-0.116968
0.0818085
-0.119908
0.0836143
-0.12294
0.0854599
-0.126062
-0.129278
0.0873286
0.000978304
-0.00296779
0.00386803
-0.0114467
0.00857649
-0.0221735
0.0147776
-0.0343207
0.0219079
-0.0468512
0.0292808
-0.0587324
0.0362574
-0.0691859
0.0423862
-0.0778234
0.0474581
-0.0846345
0.0514804
-0.0898743
0.054604
-0.0939241
0.0570415
-0.0971744
0.0590036
-0.0999542
0.0606629
-0.102504
0.0621436
-0.104979
0.0635258
-0.107473
0.0648581
-0.110032
0.0661686
-0.112681
0.0674742
-0.115429
0.0687861
-0.11828
0.0701117
-0.121233
0.0714572
-0.124285
0.0728272
-0.127432
-0.130664
0.0742127
0.00112073
-0.00408851
0.00428613
-0.0146121
0.00922853
-0.0271159
0.0154278
-0.04052
0.0221742
-0.0535976
0.0287468
-0.065305
0.0345934
-0.0750324
0.0394216
-0.0826516
0.043188
-0.0884009
0.0460223
-0.0927086
0.0481352
-0.096037
0.0497437
-0.0987829
0.051028
-0.101239
0.0521177
-0.103593
0.0530958
-0.105958
0.0540113
-0.108388
0.0548919
-0.110913
0.0557536
-0.113542
0.0566067
-0.116282
0.0574581
-0.119132
0.0583132
-0.122088
0.0591762
-0.125148
0.0600496
-0.128305
-0.131546
0.0609311
0.00124233
-0.00533085
0.00459658
-0.0179664
0.00959977
-0.0321191
0.0155543
-0.0464745
0.0216668
-0.05971
0.0272608
-0.0708991
0.0319227
-0.0796943
0.0355233
-0.0862522
0.0381488
-0.0910264
0.0399984
-0.0945583
0.0412954
-0.097334
0.042232
-0.0997194
0.0429482
-0.101955
0.0435341
-0.104179
0.0440424
-0.106466
0.0445019
-0.108848
0.0449287
-0.111339
0.0453326
-0.113946
0.0457204
-0.11667
0.046097
-0.119508
0.0464663
-0.122458
0.0468308
-0.125513
0.0471906
-0.128665
-0.131902
0.0475469
0.0013366
-0.00666745
0.00477631
-0.0214061
0.00965851
-0.0370012
0.0151507
-0.0519668
0.0204494
-0.0650087
0.0249837
-0.0754333
0.0284953
-0.0832059
0.0309935
-0.0887504
0.0326479
-0.0926808
0.0336827
-0.0955932
0.0343045
-0.0979557
0.0346691
-0.100084
0.0348783
-0.102164
0.0349919
-0.104293
0.0350419
-0.106516
0.0350454
-0.108851
0.0350121
-0.111306
0.0349484
-0.113883
0.0348594
-0.116581
0.0347493
-0.119398
0.0346215
-0.12233
0.0344778
-0.125369
0.0343174
-0.128505
0.0341435
-0.131728
-0.000199601
0.00164455
-0.00144495
-0.000710852
0.00393841
-0.00342716
-0.00147837
0.00553577
-0.00476825
-0.00245651
0.00658662
-0.00560849
-0.00360699
0.00722298
-0.00607249
-0.00489878
0.00755953
-0.00626775
-0.00630764
0.00768795
-0.0062791
-0.00781521
0.00767342
-0.00616584
-0.0094078
0.00755481
-0.00596222
-0.0110749
0.00734765
-0.00568051
-0.012808
0.00704872
-0.00531569
-0.0145987
0.00664118
-0.00485043
-0.0164382
0.00609907
-0.00425958
-0.0183156
0.00539097
-0.00351361
-0.0202172
0.00448262
-0.00258095
-0.0221279
0.00333887
-0.00142825
-0.024025
0.00192592
-2.87892e-05
-0.0258628
0.000199285
0.00163855
-0.0276468
-0.00181617
0.00360011
-0.0293319
-0.00418482
0.00586996
-0.0308951
-0.00688793
0.00845112
-0.0323236
-0.00990936
0.0113379
-0.0336329
-0.0132119
0.0145212
-0.0167206
-0.034896
0.0179837
-0.000148666
0.00179322
-0.000548034
0.00433778
-0.0011668
0.00615454
-0.00197404
0.00739386
-0.00293935
0.00818829
-0.00403459
0.00865477
-0.0052351
0.00888846
-0.0065203
0.00895862
-0.0078736
0.0089081
-0.0092818
0.00875585
-0.0107342
0.00850114
-0.0122215
0.00812849
-0.0137345
0.00761207
-0.015263
0.00691941
-0.0167943
0.00601399
-0.018313
0.00485749
-0.0197979
0.00341089
-0.0212306
0.00163196
-0.0225671
-0.000479713
-0.0237898
-0.00296211
-0.0248634
-0.00581426
-0.0257648
-0.00900796
-0.0264965
-0.0124802
-0.0160764
-0.0271407
-8.76093e-05
0.00188083
-0.000348704
0.00459888
-0.000776992
0.00658283
-0.00135649
0.00797336
-0.00206462
0.00889642
-0.00287562
0.00946577
-0.00376332
0.00977616
-0.00470307
0.00989837
-0.00567276
0.00987779
-0.00665312
0.00973621
-0.00762733
0.00947535
-0.00858024
0.0090814
-0.00949735
0.00852919
-0.0103637
0.00778577
-0.0111629
0.00681319
-0.0118761
0.00557069
-0.0124816
0.00401642
-0.0129578
0.00210811
-0.0132606
-0.000176897
-0.0133625
-0.00286027
-0.0132213
-0.00595545
-0.012799
-0.00943017
-0.01207
-0.0132093
-0.0171378
-0.0110085
-2.27865e-05
0.00190361
-0.000131441
0.00470753
-0.000342462
0.00679385
-0.000653397
0.0082843
-0.00104874
0.00929176
-0.00150469
0.00992172
-0.00199291
0.0102644
-0.00248349
0.0103889
-0.00294694
0.0103412
-0.0033552
0.0101445
-0.00368186
0.00980201
-0.00390177
0.0093013
-0.00399029
0.00861771
-0.00392251
0.00771799
-0.00367236
0.00656304
-0.00321223
0.00511056
-0.00251292
0.00331711
-0.00154059
0.00113578
-0.000267642
-0.00144985
0.00135485
-0.00448276
0.00336773
-0.00796833
0.00582254
-0.011885
0.00876911
-0.0161559
-0.0206041
0.0122354
3.85425e-05
0.00186507
8.08984e-05
0.00466518
9.39363e-05
0.00678081
6.98241e-05
0.00830841
1.8466e-05
0.00934312
-3.74914e-05
0.00997768
-6.72755e-05
0.0102942
-3.54674e-05
0.0103571
9.55382e-05
0.0102102
0.000363946
0.00987606
0.00080784
0.00935812
0.00146516
0.00864398
0.00237417
0.0077087
0.00357398
0.00651818
0.00510485
0.00503216
0.00700837
0.00320704
0.00932756
0.000997929
0.0120978
-0.00163447
0.0153722
-0.00472425
0.0191848
-0.0082954
0.0235699
-0.0123534
0.028566
-0.0168811
0.0341742
-0.021764
-0.0270552
0.0406253
8.90007e-05
0.00177607
0.000264919
0.00448926
0.000486753
0.00655897
0.000741933
0.00805323
0.00103779
0.00904726
0.00139663
0.00961884
0.00185177
0.00983903
0.00244408
0.00976483
0.00321923
0.00943508
0.00422588
0.0088694
0.00551464
0.00806936
0.00713769
0.00702093
0.00914865
0.00569774
0.0116024
0.00406441
0.0145568
0.00207781
0.0180685
-0.000304693
0.022194
-0.00312753
0.0269872
-0.00642766
0.0324961
-0.0102332
0.0387573
-0.0145566
0.0457873
-0.0193834
0.0536109
-0.0247048
0.0621487
-0.0303018
-0.0366176
0.0717112
0.00012295
0.00165312
0.000401657
0.00421055
0.000798294
0.00616234
0.0013022
0.00754932
0.00192204
0.00842743
0.0026821
0.00885878
0.00361927
0.00890185
0.00478022
0.00860388
0.00621901
0.00799629
0.0079953
0.00709311
0.0101731
0.00589155
0.0128199
0.00437411
0.0160069
0.00251079
0.019802
0.000269267
0.0242854
-0.00240561
0.029524
-0.0055432
0.0355824
-0.009186
0.0425157
-0.013361
0.0503614
-0.0180789
0.0591356
-0.0233307
0.0688169
-0.0290647
0.0793832
-0.0352711
0.0906534
-0.041572
-0.0488825
0.102918
0.000137425
0.0015157
0.000480703
0.00386727
0.00100672
0.00563632
0.0017143
0.00684174
0.00261865
0.00752308
0.00374969
0.00772774
0.00515058
0.00750096
0.00687605
0.00687841
0.00899066
0.00588169
0.0115672
0.00451662
0.0146851
0.00277365
0.0184273
0.000631823
0.0228828
-0.00194468
0.0281411
-0.00498902
0.0342768
-0.00854128
0.0413651
-0.0126315
0.0494588
-0.0172797
0.0585853
-0.0224875
0.0687383
-0.0282319
0.0798704
-0.0344628
0.0918898
-0.0410841
0.10467
-0.0480513
0.117982
-0.0548844
-0.0627401
0.13184
0.00013334
0.00138236
0.000504342
0.00349627
0.00111535
0.00502531
0.00198234
0.00597475
0.00313339
0.00637203
0.00460961
0.00625153
0.00646556
0.00564501
0.00876885
0.00457512
0.0115989
0.00305163
0.0150449
0.00107067
0.0192031
-0.00138456
0.0241739
-0.00433896
0.0300513
-0.00782216
0.0369233
-0.011861
0.0448561
-0.0164741
0.0538894
-0.0216648
0.0640244
-0.0274146
0.0752153
-0.0336785
0.0873648
-0.0403814
0.100318
-0.0474162
0.11388
-0.0546457
0.127784
-0.0619551
0.141834
-0.0689349
-0.0765095
0.155604
0.000116056
0.0012663
0.000489669
0.00312266
0.0011574
0.00435757
0.00215973
0.00497242
0.00354488
0.00498689
0.00537245
0.00442396
0.00771548
0.00330198
0.0106608
0.00162982
0.0143066
-0.000594165
0.0187594
-0.00338211
0.0241258
-0.00675102
0.0305055
-0.0107186
0.0379789
-0.0152956
0.0465967
-0.0204787
0.0563667
-0.0262442
0.0672445
-0.0325426
0.0791263
-0.0392964
0.0918478
-0.0463999
0.105188
-0.0537214
0.118881
-0.0611095
0.132634
-0.0683986
0.146115
-0.0754362
0.159149
-0.0819684
-0.0884249
0.171064
9.50847e-05
0.00117122
0.000467569
0.00275017
0.00119416
0.00363098
0.00234641
0.00382017
0.00400014
0.00333316
0.00624111
0.00218298
0.00916692
0.000376171
0.0128869
-0.0020902
0.0175153
-0.00522256
0.0231625
-0.0090293
0.0299233
-0.0135118
0.0378617
-0.018657
0.0469965
-0.0244304
0.0572883
-0.0307706
0.068631
-0.0375869
0.0808492
-0.0447608
0.0937028
-0.0521501
0.106901
-0.059598
0.120119
-0.0669397
0.133039
-0.0740295
0.145355
-0.080714
0.156858
-0.0869399
0.167391
-0.0925007
-0.0975406
0.176506
8.26355e-05
0.000477804
0.00130477
0.00267092
0.0046853
0.0074639
0.0111296
0.0158044
0.0215996
0.0285981
0.0368372
0.0462923
0.0568651
0.0683797
0.0805873
0.0931805
0.105815
0.118139
0.129821
0.140589
0.150233
0.158733
0.166106
0.17321
-0.0351835
-0.0297307
0.0300181
-0.0351943
-0.0372608
0.0372717
-0.0348521
-0.0452931
0.0449509
-0.0341023
-0.0535081
0.0527582
-0.0328602
-0.0615586
0.0603166
-0.0310023
-0.0689915
0.0671336
-0.0283677
-0.0752336
0.0725991
-0.0247595
-0.0795907
0.0759825
-0.019985
-0.0812628
0.0764883
-0.0138801
-0.0793668
0.0732619
-0.00638275
-0.0730459
0.0655485
0.00254844
-0.0616616
0.0527304
0.0127564
-0.0448399
0.0346319
0.0236897
-0.022339
0.0114057
0.0349598
0.00471527
-0.0159854
0.0463053
0.0349472
-0.0462926
0.0574495
0.0658971
-0.0770414
0.0677691
0.0949642
-0.105284
0.0763982
0.119589
-0.128218
0.0823282
0.138475
-0.144405
0.0845624
0.152492
-0.154726
0.0827858
0.16418
-0.162404
0.0784905
0.174708
-0.170412
0.0751438
0.180026
-0.176679
0.0762778
0.171033
-0.172167
0.0829837
0.139628
-0.146334
0.0938623
0.0848964
-0.0957749
0.106898
0.0139442
-0.0269798
0.119934
-0.0597201
0.046684
0.130968
-0.122219
0.111186
0.138432
-0.165578
0.158114
0.14235
-0.190233
0.186315
0.14351
-0.199492
0.198332
0.141153
-0.200351
0.202708
0.134044
-0.205514
0.212623
0.124051
-0.218318
0.22831
0.116438
-0.218393
0.226006
0.115466
-0.176635
0.177607
0.120987
-0.0873826
0.081862
0.129798
0.0230359
-0.0318474
0.138977
0.121623
-0.130802
0.146329
0.186661
-0.194013
0.149107
0.224619
-0.227398
0.145397
0.255004
-0.251294
0.136832
0.285478
-0.276913
0.128426
0.284057
-0.275651
0.125139
0.217149
-0.213862
0.128393
0.0889823
-0.0922356
0.135704
-0.0552599
0.0479481
0.141897
-0.160748
0.154556
0.14226
-0.240628
0.240265
0.136888
-0.284208
0.289581
0.129572
-0.320306
0.327621
0.125295
-0.267394
0.271671
0.125405
-0.172072
0.171962
0.129037
-0.0218458
0.0182133
0.131278
0.132053
-0.134294
0.127985
0.200168
-0.196875
0.123076
0.329837
-0.324928
0.188256
-0.187646
-0.0281027
-0.0287687
-0.0290296
-0.036334
-0.0298229
-0.0444997
-0.0304584
-0.0528726
-0.0308837
-0.0611334
-0.030994
-0.0688812
-0.0306262
-0.0756014
-0.0295328
-0.0806841
-0.0273903
-0.0834052
-0.0238509
-0.0829062
-0.0186138
-0.078283
-0.0114993
-0.0687761
-0.00264281
-0.0536964
0.00846511
-0.0334469
0.0206669
-0.00748652
0.0332093
0.0224048
0.0458315
0.0532749
0.0577148
0.0830809
0.0678515
0.109452
0.0751428
0.131184
0.0788005
0.148834
0.0791397
0.163841
0.0782098
0.175638
0.0791589
0.179077
0.0842003
0.165992
0.0931442
0.130684
0.104355
0.0736859
0.116277
0.00202167
0.127383
-0.0708254
0.136202
-0.131039
0.141513
-0.170888
0.143404
-0.192124
0.143028
-0.199116
0.140004
-0.197327
0.132643
-0.198153
0.122003
-0.207678
0.113258
-0.209647
0.111438
-0.174815
0.116995
-0.0929395
0.126805
0.0132251
0.137492
0.110937
0.146206
0.177947
0.149886
0.22094
0.146802
0.258088
0.138862
0.293418
0.130955
0.291964
0.127609
0.220494
0.130122
0.0864693
0.136521
-0.061659
0.142222
-0.166448
0.142307
-0.240714
0.136811
-0.278712
0.12966
-0.313155
0.125707
-0.263441
0.126023
-0.172388
0.12928
-0.0251021
0.131056
0.130277
0.127214
0.20401
0.121865
0.335186
0.188844
-0.0122492
-0.0275281
-0.0137956
-0.0347875
-0.0154651
-0.0428302
-0.0172506
-0.0510871
-0.019148
-0.059236
-0.0211244
-0.0669048
-0.0230404
-0.0736854
-0.0246339
-0.0790906
-0.0255046
-0.0825345
-0.025157
-0.0832538
-0.0231301
-0.0803099
-0.0188942
-0.073012
-0.012144
-0.0604466
-0.0032335
-0.0423574
0.00861673
-0.0193368
0.0215029
0.00951858
0.0350657
0.0397122
0.0481821
0.0699644
0.059708
0.0979265
0.0685742
0.122318
0.0742978
0.143111
0.0776351
0.160504
0.0806903
0.172582
0.0858524
0.173914
0.0940738
0.15777
0.104385
0.120373
0.115304
0.062767
0.125656
-0.00833004
0.134585
-0.0797544
0.141032
-0.137486
0.14421
-0.174067
0.144226
-0.192141
0.142403
-0.197292
0.138834
-0.193757
0.131541
-0.19086
0.120606
-0.196743
0.110824
-0.199864
0.107959
-0.171951
0.113312
-0.0982932
0.12393
0.00260804
0.135987
0.0988788
0.146006
0.167928
0.15065
0.216296
0.148356
0.260382
0.14121
0.300564
0.133893
0.299281
0.130467
0.22392
0.132124
0.084812
0.13747
-0.0670049
0.142622
-0.171601
0.142477
-0.240569
0.136876
-0.273111
0.129863
-0.306141
0.126232
-0.259811
0.126776
-0.172931
0.129643
-0.0279695
0.130957
0.128963
0.126625
0.208343
0.120851
0.34096
0.189412
0.011035
-0.0263277
0.0092543
-0.0330068
0.00710797
-0.0406838
0.00454578
-0.0485249
0.00149458
-0.0561848
-0.00199889
-0.0634114
-0.00585075
-0.0698335
-0.00985682
-0.0750846
-0.0136299
-0.0787614
-0.0165727
-0.0803111
-0.0183128
-0.0785699
-0.0178072
-0.0735176
-0.0145187
-0.063735
-0.00830965
-0.0485665
0.000590947
-0.0282373
0.0129292
-0.00281967
0.026393
0.0262484
0.0401047
0.0562527
0.0528118
0.0852193
0.0634827
0.111647
0.0718184
0.134775
0.0786606
0.153662
0.0857494
0.165494
0.0945693
0.165094
0.105084
0.147255
0.115957
0.1095
0.126048
0.0526767
0.134675
-0.0169574
0.141337
-0.0864162
0.14538
-0.141529
0.146477
-0.175164
0.144793
-0.190457
0.141621
-0.19412
0.13754
-0.189677
0.130566
-0.183886
0.119759
-0.185937
0.109176
-0.189281
0.105123
-0.167897
0.109988
-0.103158
0.121169
-0.00857301
0.134433
0.0856149
0.145687
0.156674
0.151362
0.21062
0.150021
0.261723
0.143822
0.306763
0.137159
0.305944
0.13363
0.227449
0.13436
0.0840826
0.13854
-0.0711852
0.143077
-0.176138
0.142744
-0.240236
0.137057
-0.267423
0.130127
-0.299212
0.126797
-0.25648
0.127595
-0.17373
0.130099
-0.0304728
0.130973
0.128088
0.126213
0.213103
0.120058
0.347115
0.18995
0.0391489
-0.0248513
0.0374642
-0.0313222
0.0352917
-0.0385113
0.0324727
-0.0457059
0.0289349
-0.052647
0.0246163
-0.0590928
0.0194965
-0.0647137
0.0136328
-0.0692208
0.00721778
-0.0723464
0.000757859
-0.0738511
-0.00410865
-0.0737033
-0.00741448
-0.0702118
-0.00815337
-0.0629961
-0.00571332
-0.0510065
-0.000203635
-0.033747
0.00969638
-0.0127197
0.0218609
0.0140839
0.0352519
0.0428617
0.0486178
0.0718535
0.0609358
0.0993287
0.0718995
0.123811
0.0821214
0.14344
0.092752
0.154863
0.104425
0.153421
0.116403
0.135277
0.127236
0.0986673
0.136128
0.0437843
0.142991
-0.0238208
0.147442
-0.0908666
0.149122
-0.143209
0.148196
-0.174238
0.145011
-0.187272
0.140655
-0.189764
0.136083
-0.185105
0.12959
-0.177393
0.119321
-0.175668
0.108278
-0.178238
0.103014
-0.162633
0.107114
-0.107258
0.118533
-0.0199915
0.132788
0.0713597
0.145188
0.144274
0.151959
0.203849
0.151731
0.261952
0.14661
0.311885
0.140637
0.311917
0.136999
0.231087
0.136766
0.0843158
0.139716
-0.0741358
0.14356
-0.179981
0.143079
-0.239755
0.137332
-0.261676
0.130419
-0.292298
0.127338
-0.2534
0.128419
-0.17481
0.130617
-0.0326715
0.13109
0.127616
0.125969
0.218224
0.119505
0.353579
0.190438
0.0701602
-0.0233004
0.0683915
-0.0295534
0.0660953
-0.0362151
0.0630956
-0.0427062
0.0593549
-0.0489063
0.0548237
-0.0545616
0.0494246
-0.0593146
0.0431084
-0.0629047
0.0359476
-0.0651855
0.028218
-0.0661216
0.0201551
-0.0656404
0.0130361
-0.0630927
0.00796284
-0.0579229
0.00611874
-0.0491624
0.00833159
-0.0359599
0.014021
-0.0184091
0.0235067
0.00459812
0.0353731
0.0309953
0.048493
0.0587336
0.0617945
0.0860271
0.0747749
0.110831
0.0876313
0.130583
0.100873
0.141621
0.114434
0.13986
0.127144
0.122568
0.137576
0.0882348
0.145276
0.0360846
0.150399
-0.0289432
0.152736
-0.0932044
0.15214
-0.142613
0.149284
-0.171382
0.144798
-0.182786
0.139465
-0.184431
0.134409
-0.180049
0.12846
-0.171443
0.119095
-0.166303
0.108009
-0.167152
0.101628
-0.156252
0.104699
-0.110329
0.116025
-0.0313178
0.130991
0.0563941
0.144427
0.130838
0.152359
0.195916
0.153388
0.260923
0.149457
0.315816
0.144179
0.317195
0.140431
0.234835
0.139281
0.0854662
0.140972
-0.0758274
0.144043
-0.183052
0.143444
-0.239156
0.137678
-0.255911
0.130711
-0.285331
0.127807
-0.250496
0.129188
-0.176191
0.13117
-0.0346536
0.13129
0.127496
0.125886
0.223629
0.119207
0.360257
0.190851
0.101082
-0.0214643
0.0989586
-0.0274298
0.0962713
-0.0335278
0.0928919
-0.0393268
0.0888511
-0.0448656
0.0841553
-0.0498658
0.0787625
-0.0539218
0.072618
-0.0567602
0.0656608
-0.0582284
0.057842
-0.0583029
0.0492537
-0.057052
0.0405586
-0.0543977
0.032757
-0.0501214
0.0271013
-0.0435067
0.024782
-0.0336406
0.0261827
-0.0198098
0.0320882
-0.00130731
0.0413006
0.0217829
0.0530986
0.0469357
0.0663538
0.0727719
0.0803052
0.0968796
0.0946776
0.116211
0.109386
0.126913
0.123827
0.125419
0.136592
0.109803
0.146415
0.0784118
0.153052
0.0294476
0.156651
-0.0325426
0.157016
-0.0935694
0.154309
-0.139906
0.149671
-0.166743
0.144075
-0.17719
0.138005
-0.178362
0.132496
-0.17454
0.127043
-0.165991
0.118853
-0.158113
0.10818
-0.156479
0.100869
-0.148942
0.102711
-0.112171
0.11359
-0.0421972
0.128958
0.0410263
0.143305
0.116491
0.152457
0.186764
0.154889
0.25849
0.152236
0.31847
0.14764
0.321791
0.143789
0.238686
0.14181
0.0874445
0.142272
-0.0762893
0.1445
-0.18528
0.143798
-0.238454
0.138068
-0.250181
0.130988
-0.278252
0.128169
-0.247677
0.129856
-0.177878
0.131729
-0.0365261
0.131559
0.127665
0.125955
0.229233
0.119171
0.367042
0.191157
0.129429
-0.0190534
0.126688
-0.0246885
0.123312
-0.0301523
0.119276
-0.0352906
0.114694
-0.040283
0.109611
-0.0447837
0.104056
-0.0483661
0.098066
-0.0507703
0.0916378
-0.0518002
0.0846702
-0.0513353
0.0770288
-0.0494106
0.0687949
-0.0461637
0.0604087
-0.0417352
0.0528166
-0.0359145
0.0472878
-0.0281119
0.044925
-0.017447
0.0467187
-0.00310099
0.0526249
0.0158768
0.0621141
0.0374464
0.0742137
0.0606723
0.0879645
0.0831288
0.102658
0.101518
0.11771
0.11186
0.132133
0.110996
0.144431
0.0975048
0.153531
0.069312
0.159261
0.0237173
0.161531
-0.0348119
0.160111
-0.0921497
0.155521
-0.135315
0.149301
-0.160523
0.142774
-0.170664
0.136213
-0.171801
0.130323
-0.16865
0.125244
-0.160911
0.118365
-0.151234
0.108553
-0.146668
0.100601
-0.14099
0.101067
-0.112636
0.111137
-0.0522672
0.126592
0.0255711
0.141718
0.101365
0.152137
0.176345
0.156095
0.254533
0.154793
0.319771
0.15088
0.325704
0.146958
0.242609
0.144257
0.0901458
0.143573
-0.0756062
0.144899
-0.186605
0.144099
-0.237654
0.138467
-0.244548
0.131239
-0.271024
0.128404
-0.244842
0.130381
-0.179856
0.132261
-0.038406
0.131881
0.128045
0.126168
0.234946
0.119393
0.373816
0.191318
0.152516
-0.0159657
0.149017
-0.0211894
0.144812
-0.0259477
0.140028
-0.0305064
0.134828
-0.0350828
0.12926
-0.0392155
0.123402
-0.0425082
0.117379
-0.0447474
0.11129
-0.0457111
0.105148
-0.0451933
0.098859
-0.0431221
0.0922787
-0.0395834
0.0853337
-0.0347902
0.0782968
-0.0288776
0.0719231
-0.0217382
0.0673471
-0.012871
0.0658551
-0.00160892
0.068194
0.0135378
0.0746346
0.0310059
0.0845767
0.0507302
0.0970417
0.0706638
0.110989
0.08757
0.125432
0.0974174
0.13912
0.0973082
0.15059
0.0860346
0.158967
0.0609349
0.163923
0.0187622
0.164977
-0.0358664
0.161889
-0.0890618
0.155638
-0.129064
0.148081
-0.152966
0.140795
-0.163378
0.133967
-0.164973
0.127831
-0.162514
0.122976
-0.156056
0.117401
-0.145659
0.108854
-0.138121
0.10064
-0.132776
0.0996593
-0.111655
0.10856
-0.0611679
0.123786
0.0103453
0.139552
0.0855986
0.151283
0.164614
0.156912
0.248903
0.157042
0.319642
0.153786
0.32896
0.149807
0.246587
0.146549
0.0934044
0.14482
-0.073878
0.145204
-0.186989
0.144295
-0.236745
0.138835
-0.239088
0.131455
-0.263643
0.128507
-0.241895
0.130732
-0.182081
0.13274
-0.0404136
0.132242
0.128543
0.126513
0.240675
0.119868
0.380462
0.191299
0.16759
-0.0124918
0.163498
-0.017097
0.15865
-0.0211003
0.153355
-0.0252111
0.147745
-0.029473
0.141855
-0.0333255
0.135812
-0.0364647
0.129784
-0.0387197
0.123922
-0.0398492
0.118345
-0.0396159
0.113114
-0.0378917
0.108169
-0.0346386
0.103309
-0.0299299
0.0983902
-0.0239586
0.0935207
-0.0168687
0.089206
-0.00855634
0.0861743
0.00142276
0.0861198
0.0135924
0.0895645
0.0275611
0.0967224
0.0435723
0.106992
0.0603946
0.119287
0.0752749
0.132364
0.0843397
0.144807
0.0848659
0.155255
0.075586
0.162971
0.0532188
0.167174
0.0145597
0.166993
-0.0356858
0.16227
-0.0843388
0.154558
-0.121352
0.145929
-0.144337
0.13805
-0.155499
0.131142
-0.158065
0.124945
-0.156317
0.120192
-0.151303
0.115781
-0.141248
0.108809
-0.13115
0.100794
-0.12476
0.098404
-0.109266
0.105784
-0.0685478
0.120447
-0.00431826
0.136706
0.0693402
0.149765
0.151555
0.15715
0.241519
0.158784
0.318007
0.15623
0.331514
0.15228
0.250537
0.148609
0.0970757
0.145975
-0.071244
0.145396
-0.18641
0.144351
-0.235701
0.139138
-0.233875
0.13164
-0.256145
0.128492
-0.238746
0.130891
-0.18448
0.133138
-0.0426605
0.132632
0.129049
0.126983
0.246324
0.120581
0.386864
0.191066
0.173218
-0.00920294
0.168971
-0.0128508
0.163987
-0.0161158
0.158666
-0.01989
0.153035
-0.0238427
0.147155
-0.0274454
0.141193
-0.0305023
0.135329
-0.0328558
0.129756
-0.0342763
0.124695
-0.0345543
0.120313
-0.0335106
0.116635
-0.0309606
0.113543
-0.0268373
0.11083
-0.0212458
0.10832
-0.0143582
0.106115
-0.00635187
0.104277
0.00326057
0.103555
0.0143145
0.105283
0.0258337
0.110027
0.0388284
0.117759
0.0526624
0.12776
0.0652733
0.138848
0.0732518
0.149637
0.0740771
0.158949
0.0662741
0.165957
0.0462107
0.169258
0.0112586
0.167775
-0.0342025
0.161499
-0.0780626
0.152588
-0.112441
0.143209
-0.134958
0.13491
-0.1472
0.128015
-0.151169
0.121908
-0.150211
0.117138
-0.146533
0.11358
-0.137689
0.1083
-0.12587
0.100957
-0.117418
0.0973162
-0.105624
0.102817
-0.0740482
0.116525
-0.0180266
0.133066
0.0527996
0.147531
0.13709
0.15686
0.23219
0.160086
0.314781
0.15818
0.33342
0.154333
0.254385
0.150452
0.100956
0.147069
-0.0678612
0.145526
-0.184866
0.144295
-0.23447
0.139375
-0.228955
0.131819
-0.248589
0.128399
-0.235327
0.130864
-0.186945
0.133431
-0.0452276
0.133038
0.129443
0.127565
0.251797
0.121521
0.392908
0.190575
0.170451
-0.00644444
0.166478
-0.00887759
0.162109
-0.0117467
0.157371
-0.0151519
0.152254
-0.0187262
0.14694
-0.0221314
0.141599
-0.0251611
0.136385
-0.0276414
0.131475
-0.0293667
0.127047
-0.0301262
0.123258
-0.0297212
0.120267
-0.0279695
0.118176
-0.0247464
0.116926
-0.0199965
0.116313
-0.0137446
0.116035
-0.00607434
0.116194
0.00310199
0.11723
0.0132784
0.119171
0.0238925
0.122889
0.0351106
0.128828
0.0467231
0.136733
0.057369
0.145744
0.0642399
0.154746
0.0650755
0.162734
0.058286
0.168503
0.0404415
0.17071
0.00905175
0.167227
-0.0307197
0.159536
-0.0703718
0.14992
-0.102825
0.140313
-0.12535
0.131876
-0.138763
0.125041
-0.144335
0.119104
-0.144273
0.114228
-0.141656
0.111098
-0.134559
0.107369
-0.122142
0.101082
-0.111131
0.096495
-0.101038
0.0999714
-0.0775246
0.112186
-0.030241
0.128599
0.0363865
0.144166
0.121523
0.155492
0.220864
0.160543
0.30973
0.159443
0.33452
0.155865
0.257962
0.152041
0.104781
0.14805
-0.0638703
0.145615
-0.182431
0.144161
-0.233016
0.139543
-0.224337
0.131992
-0.241039
0.128258
-0.231593
0.130694
-0.189381
0.13362
-0.0481539
0.13346
0.129603
0.128262
0.256995
0.122681
0.398489
0.189782
0.198543
-0.00376373
-0.201224
0.196512
-0.00684663
0.194324
-0.00955853
0.191714
-0.0125424
0.188647
-0.0156588
0.185156
-0.0186407
0.181284
-0.021289
0.177072
-0.0234289
0.172588
-0.0248825
0.167928
-0.0254665
0.163205
-0.0249981
0.158541
-0.0233059
0.154047
-0.0202525
0.149798
-0.0157469
0.145829
-0.00977557
0.142246
-0.00249192
0.139028
0.00631982
0.136339
0.0159673
0.134353
0.0258787
0.133696
0.0357678
0.135148
0.0452707
0.139367
0.0531503
0.146394
0.0572131
0.155743
0.0557266
0.166941
0.0470874
0.178758
0.0286249
0.188343
-0.000533416
0.19339
-0.0357671
0.193092
-0.0700731
0.188564
-0.0982966
0.181304
-0.118091
0.172693
-0.130152
0.163989
-0.135631
0.155389
-0.135674
0.146935
-0.133202
0.139659
-0.127282
0.132667
-0.11515
0.12349
-0.101954
0.113768
-0.0913153
0.108969
-0.0727255
0.111617
-0.032889
0.118007
0.0299961
0.123855
0.115675
0.127324
0.217394
0.129609
0.307445
0.133742
0.330387
0.14184
0.249864
0.150319
0.096302
0.154591
-0.0681428
0.154585
-0.182425
0.151583
-0.230014
0.144954
-0.217708
0.135433
-0.231517
0.128361
-0.224522
0.125945
-0.186964
0.1241
-0.0463088
0.121087
0.132616
0.115276
0.262806
0.111601
0.402165
0.188291
0.208242
-0.00184726
-0.210158
0.206214
-0.00481919
0.204184
-0.0075279
0.201809
-0.0101677
0.198994
-0.012844
0.19578
-0.0154266
0.192217
-0.0177256
0.188355
-0.0195674
0.184266
-0.0207932
0.180044
-0.0212448
0.175808
-0.0207614
0.171686
-0.0191844
0.167814
-0.0163804
0.16433
-0.012263
0.161355
-0.00680046
0.158896
-3.25995e-05
0.157158
0.0080573
0.156151
0.0169743
0.155947
0.0260831
0.156855
0.0348597
0.159403
0.0427222
0.164074
0.0484797
0.170897
0.0503901
0.179526
0.0470981
0.189355
0.0372576
0.198923
0.0190577
0.205867
-0.00747735
0.208373
-0.0382736
0.206179
-0.0678787
0.200285
-0.0924025
0.192128
-0.109934
0.182933
-0.120957
0.173844
-0.126542
0.165134
-0.126964
0.156504
-0.124572
0.14887
-0.119648
0.142107
-0.108386
0.133599
-0.0934464
0.123614
-0.0813311
0.117374
-0.0664853
0.118551
-0.0340662
0.124674
0.0238739
0.131092
0.109257
0.135564
0.212922
0.139007
0.304002
0.144526
0.324868
0.153975
0.240415
0.163384
0.0868931
0.167574
-0.0723321
0.166627
-0.181478
0.162611
-0.225998
0.155256
-0.210353
0.144994
-0.221255
0.13714
-0.216668
0.134213