/*--------------------------------*- C++ -*----------------------------------*\
| =========                 |                                                 |
| \\      /  F ield         | OpenFOAM: The Open Source CFD Toolbox           |
|  \\    /   O peration     | Version:  2512                                  |
|   \\  /    A nd           | Website:  www.openfoam.com                      |
|    \\/     M anipulation  |                                                 |
\*---------------------------------------------------------------------------*/
FoamFile
{
    version     2.0;
    format      ascii;
    arch        "LSB;label=32;scalar=64";
    class       volScalarField;
    location    "99";
    object      p;
}
// * * * * * * * * * * * * * * * * * * * * * * * * * * * * * * * * * * * * * //

dimensions      [0 2 -2 0 0 0 0];

internalField   nonuniform List<scalar> 
13248
(
-0.303985
-0.303159
-0.30125
-0.298463
-0.294997
-0.290975
-0.286508
-0.281711
-0.276705
-0.27161
-0.266546
-0.261622
-0.256928
-0.252526
-0.248448
-0.244686
-0.241196
-0.237908
-0.234723
-0.231561
-0.228234
-0.224787
-0.22046
-0.215848
-0.311584
-0.30986
-0.307243
-0.303899
-0.299977
-0.295601
-0.290864
-0.285846
-0.280621
-0.275263
-0.26984
-0.264416
-0.259042
-0.253754
-0.248565
-0.243469
-0.238441
-0.233446
-0.228435
-0.223355
-0.218115
-0.212659
-0.206722
-0.200825
-0.32092
-0.318108
-0.314626
-0.310597
-0.306112
-0.30128
-0.296159
-0.290774
-0.285135
-0.279256
-0.273161
-0.266884
-0.260468
-0.253961
-0.247406
-0.24084
-0.234292
-0.227781
-0.221305
-0.214856
-0.208368
-0.20184
-0.195078
-0.188515
-0.331961
-0.3279
-0.323427
-0.318611
-0.313456
-0.308037
-0.302354
-0.296356
-0.289982
-0.283202
-0.276024
-0.2685
-0.260714
-0.252765
-0.244757
-0.236783
-0.228914
-0.221197
-0.213647
-0.206254
-0.198978
-0.191812
-0.18462
-0.177842
-0.344714
-0.339276
-0.333724
-0.328039
-0.322101
-0.315916
-0.309403
-0.30243
-0.294893
-0.286761
-0.278089
-0.268997
-0.259647
-0.250208
-0.240833
-0.23164
-0.222708
-0.214076
-0.205745
-0.197698
-0.189897
-0.182321
-0.174882
-0.167881
-0.359168
-0.352261
-0.345579
-0.338956
-0.332088
-0.324873
-0.317143
-0.308718
-0.299512
-0.289574
-0.279064
-0.268207
-0.257243
-0.246387
-0.2358
-0.22559
-0.215809
-0.206469
-0.197553
-0.189027
-0.180851
-0.17299
-0.165382
-0.15823
-0.375218
-0.366791
-0.358953
-0.351306
-0.343283
-0.334653
-0.325196
-0.314766
-0.303392
-0.291276
-0.278719
-0.266044
-0.253534
-0.2414
-0.229775
-0.218724
-0.208259
-0.198363
-0.188996
-0.180112
-0.171665
-0.163607
-0.1559
-0.148633
-0.392581
-0.382639
-0.373625
-0.364809
-0.355294
-0.344742
-0.332972
-0.319993
-0.306046
-0.291527
-0.276869
-0.262443
-0.248523
-0.235271
-0.222763
-0.211012
-0.19999
-0.189648
-0.179932
-0.170782
-0.162143
-0.153966
-0.146217
-0.138891
-0.410747
-0.399357
-0.389137
-0.378917
-0.367458
-0.354397
-0.339738
-0.323773
-0.307017
-0.290048
-0.273372
-0.257348
-0.242186
-0.227977
-0.214728
-0.202399
-0.190926
-0.180237
-0.17026
-0.160925
-0.152171
-0.143944
-0.136207
-0.128876
-0.428952
-0.416239
-0.404745
-0.392789
-0.378848
-0.362696
-0.344692
-0.325501
-0.305906
-0.286604
-0.268098
-0.250675
-0.234454
-0.219441
-0.20558
-0.192786
-0.180964
-0.170021
-0.15987
-0.150431
-0.141633
-0.133421
-0.125734
-0.118452
-0.446197
-0.432317
-0.41942
-0.405307
-0.388328
-0.368604
-0.346988
-0.324542
-0.302251
-0.280844
-0.260748
-0.242143
-0.225046
-0.209384
-0.195044
-0.181903
-0.169841
-0.158747
-0.14852
-0.139068
-0.130314
-0.12219
-0.114605
-0.107447
-0.461335
-0.446487
-0.432028
-0.415296
-0.394752
-0.371082
-0.345729
-0.320122
-0.295359
-0.272111
-0.250682
-0.231125
-0.213352
-0.197217
-0.182558
-0.169218
-0.157054
-0.145937
-0.135756
-0.126409
-0.117813
-0.109889
-0.102518
-0.0956423
-0.327534
-0.330077
-0.331531
-0.332369
-0.333004
-0.333536
-0.333997
-0.334397
-0.334718
-0.334933
-0.335005
-0.334894
-0.334563
-0.333987
-0.333153
-0.33207
-0.330774
-0.329335
-0.327863
-0.326514
-0.325476
-0.324947
-0.325171
-0.326566
-0.319178
-0.321482
-0.322691
-0.32322
-0.323436
-0.323433
-0.323248
-0.322901
-0.322394
-0.321717
-0.32086
-0.319821
-0.318608
-0.31725
-0.3158
-0.314341
-0.31299
-0.311896
-0.311245
-0.311255
-0.312161
-0.314181
-0.317521
-0.322687
-0.312181
-0.314134
-0.315051
-0.315265
-0.315084
-0.314588
-0.313818
-0.312803
-0.311561
-0.310106
-0.308454
-0.306634
-0.304695
-0.302712
-0.300792
-0.299073
-0.297726
-0.296955
-0.296989
-0.298075
-0.300456
-0.304337
-0.309828
-0.317463
-0.3064
-0.307964
-0.308574
-0.308483
-0.307929
-0.306979
-0.305675
-0.304058
-0.302162
-0.300022
-0.297681
-0.295198
-0.292654
-0.290161
-0.287865
-0.285942
-0.284591
-0.284054
-0.28457
-0.286388
-0.289745
-0.294825
-0.301658
-0.310492
-0.301661
-0.302867
-0.303189
-0.302806
-0.3019
-0.300523
-0.298722
-0.296546
-0.294049
-0.291287
-0.288332
-0.285267
-0.282199
-0.279268
-0.276643
-0.274523
-0.27313
-0.272704
-0.273487
-0.275715
-0.279591
-0.285273
-0.292858
-0.301886
-0.297824
-0.298755
-0.298825
-0.298166
-0.296919
-0.295129
-0.292846
-0.290135
-0.28707
-0.28372
-0.280198
-0.276602
-0.273065
-0.269744
-0.266825
-0.264516
-0.263046
-0.262649
-0.263553
-0.265969
-0.270069
-0.275893
-0.283838
-0.292325
-0.294839
-0.2956
-0.295461
-0.294536
-0.29295
-0.290752
-0.287998
-0.284768
-0.281158
-0.277268
-0.273221
-0.269146
-0.265198
-0.26155
-0.258398
-0.255955
-0.254445
-0.254091
-0.255091
-0.257613
-0.261831
-0.267491
-0.275583
-0.282939
-0.292777
-0.293455
-0.293137
-0.291949
-0.290029
-0.287432
-0.284229
-0.28052
-0.276417
-0.27205
-0.267559
-0.263102
-0.258849
-0.254989
-0.251726
-0.24927
-0.247833
-0.24761
-0.248774
-0.251392
-0.255677
-0.260917
-0.268846
-0.274649
-0.291828
-0.292452
-0.291959
-0.290507
-0.288261
-0.285295
-0.281696
-0.277582
-0.273086
-0.268357
-0.26356
-0.25887
-0.254472
-0.250564
-0.247347
-0.245016
-0.243751
-0.2437
-0.244976
-0.247534
-0.25161
-0.25614
-0.263193
-0.267381
-0.292254
-0.292774
-0.292074
-0.290347
-0.287795
-0.284509
-0.280597
-0.276189
-0.271435
-0.2665
-0.261561
-0.256802
-0.252412
-0.248579
-0.245481
-0.243277
-0.242094
-0.24201
-0.243068
-0.245158
-0.248424
-0.251937
-0.257254
-0.259952
-0.294319
-0.294602
-0.293619
-0.29159
-0.288745
-0.285193
-0.28105
-0.276457
-0.27157
-0.266555
-0.261589
-0.25685
-0.25251
-0.248728
-0.245638
-0.243342
-0.241895
-0.241303
-0.241524
-0.242463
-0.244106
-0.246082
-0.249134
-0.250561
-0.298212
-0.298056
-0.296683
-0.29428
-0.291137
-0.28734
-0.283015
-0.278299
-0.27334
-0.268294
-0.263318
-0.258564
-0.25417
-0.250248
-0.246877
-0.244094
-0.241886
-0.240199
-0.238926
-0.237984
-0.237217
-0.2367
-0.236606
-0.236721
-0.330043
-0.336296
-0.345114
-0.355975
-0.367857
-0.379069
-0.387333
-0.389809
-0.385621
-0.37131
-0.346091
-0.310872
-0.269053
-0.225915
-0.186902
-0.155932
-0.134716
-0.12323
-0.121157
-0.128768
-0.145267
-0.165844
-0.181432
-0.18313
-0.16851
-0.143245
-0.116206
-0.0940682
-0.0798358
-0.0734716
-0.0735578
-0.0803589
-0.0958002
-0.1178
-0.136374
-0.139637
-0.125839
-0.102828
-0.0813898
-0.0665971
-0.0579763
-0.0556583
-0.0611297
-0.0713975
-0.0769356
-0.0722692
-0.0623882
-0.0526873
-0.0456289
-0.0427488
-0.0435276
-0.0456536
-0.045001
-0.0402072
-0.0355787
-0.0290301
-0.019674
-0.0150244
-0.0105117
-0.00458353
-0.331884
-0.344098
-0.358783
-0.375041
-0.391531
-0.40637
-0.417317
-0.422155
-0.416866
-0.40086
-0.372712
-0.333341
-0.286476
-0.237925
-0.193579
-0.157569
-0.131647
-0.115674
-0.109034
-0.111658
-0.12309
-0.139792
-0.154108
-0.157632
-0.147267
-0.127281
-0.105179
-0.0872011
-0.0764883
-0.0731356
-0.0759151
-0.0856103
-0.104305
-0.129224
-0.149336
-0.151816
-0.135777
-0.109691
-0.0851119
-0.0674829
-0.0565089
-0.0518507
-0.0547836
-0.0628672
-0.0673109
-0.0637537
-0.0561363
-0.0492651
-0.0445167
-0.044082
-0.0473312
-0.0509074
-0.0507637
-0.044468
-0.0385836
-0.0304358
-0.0193821
-0.0136548
-0.00828968
-0.00345642
-0.33097
-0.34756
-0.366028
-0.385728
-0.405131
-0.42221
-0.434732
-0.440096
-0.435421
-0.418765
-0.388959
-0.34702
-0.296912
-0.244778
-0.196765
-0.157114
-0.127465
-0.107567
-0.0965943
-0.0942481
-0.100433
-0.112826
-0.125333
-0.130472
-0.124067
-0.109331
-0.0922409
-0.0785884
-0.0715703
-0.0713273
-0.0768451
-0.0893551
-0.111013
-0.138517
-0.160077
-0.162148
-0.144187
-0.115433
-0.0880688
-0.0678729
-0.0547562
-0.0479743
-0.0485452
-0.0545596
-0.057932
-0.0553525
-0.0497935
-0.0456089
-0.0431443
-0.0452811
-0.0511601
-0.05624
-0.0565258
-0.0485932
-0.0413745
-0.0317206
-0.0190883
-0.0123263
-0.00613376
-0.00237104
-0.3267
-0.345787
-0.366213
-0.387636
-0.408517
-0.426679
-0.440003
-0.446046
-0.441824
-0.425116
-0.394776
-0.351865
-0.300439
-0.246735
-0.19695
-0.155203
-0.122989
-0.0999809
-0.0852834
-0.078383
-0.079326
-0.0869907
-0.0969359
-0.102735
-0.0999092
-0.0901138
-0.077852
-0.0684785
-0.0651156
-0.0678779
-0.0759684
-0.0909867
-0.115208
-0.145042
-0.16811
-0.170245
-0.150857
-0.119921
-0.0902179
-0.067814
-0.0528145
-0.044173
-0.0426261
-0.0467327
-0.0490407
-0.0472585
-0.043474
-0.0417742
-0.0415095
-0.0462847
-0.0549141
-0.061556
-0.06221
-0.0525353
-0.0439172
-0.0328556
-0.0187865
-0.0110522
-0.00405904
-0.00133392
-0.31922
-0.339279
-0.360212
-0.382015
-0.403221
-0.421795
-0.43529
-0.44149
-0.437498
-0.421098
-0.391138
-0.34874
-0.297942
-0.244772
-0.195078
-0.152678
-0.118965
-0.0936521
-0.0758718
-0.0650387
-0.0611528
-0.063906
-0.0705758
-0.0760782
-0.0759261
-0.0703582
-0.0624733
-0.0571109
-0.0571278
-0.0626262
-0.0729868
-0.0901095
-0.11647
-0.148352
-0.173014
-0.175756
-0.155628
-0.123109
-0.0915792
-0.0673775
-0.0507844
-0.0405596
-0.0371613
-0.0395599
-0.0408398
-0.039641
-0.03729
-0.0378104
-0.0396015
-0.0470225
-0.0584761
-0.0667326
-0.0677143
-0.0562386
-0.0461792
-0.0338162
-0.0184711
-0.0098433
-0.00207832
-0.000350404
-0.309718
-0.329538
-0.349792
-0.370838
-0.391222
-0.40966
-0.422733
-0.428337
-0.424269
-0.408377
-0.37956
-0.339015
-0.2906
-0.239825
-0.191884
-0.150134
-0.115886
-0.0890205
-0.0688182
-0.054701
-0.0466053
-0.0446498
-0.0475434
-0.0517604
-0.0534533
-0.050792
-0.0466311
-0.0447881
-0.0477392
-0.0556018
-0.0678716
-0.0866417
-0.114621
-0.148221
-0.174531
-0.178462
-0.158399
-0.124974
-0.0921784
-0.0666189
-0.0487359
-0.0372027
-0.032226
-0.0331416
-0.0334735
-0.0327148
-0.0313455
-0.033764
-0.0374142
-0.0474205
-0.0617123
-0.0716284
-0.0729295
-0.0596524
-0.0481349
-0.0345786
-0.0181337
-0.00870732
-0.000201255
0.000576613
-0.299802
-0.318218
-0.336652
-0.35609
-0.375208
-0.391425
-0.403574
-0.408317
-0.404076
-0.388888
-0.361937
-0.324458
-0.279903
-0.232993
-0.188088
-0.14803
-0.114051
-0.0862804
-0.0642702
-0.0475282
-0.0359312
-0.0297405
-0.0286761
-0.0306655
-0.0325269
-0.0320951
-0.0309851
-0.0319844
-0.0372908
-0.0470475
-0.060784
-0.0806716
-0.109678
-0.144604
-0.172604
-0.178282
-0.15912
-0.125513
-0.0920407
-0.0655736
-0.0467127
-0.034135
-0.02784
-0.0275002
-0.0269975
-0.0263742
-0.0257292
-0.0296889
-0.034952
-0.0474047
-0.0644863
-0.0761002
-0.077746
-0.0627311
-0.0497638
-0.0351268
-0.0177663
-0.0076456
0.0015664
0.00144679
-0.29016
-0.305864
-0.321467
-0.338597
-0.355729
-0.369985
-0.379573
-0.383075
-0.378651
-0.364534
-0.34022
-0.306835
-0.267221
-0.225156
-0.184119
-0.146479
-0.113421
-0.0853199
-0.0620638
-0.0433373
-0.0289843
-0.0192394
-0.0143531
-0.0134968
-0.0144399
-0.0151607
-0.0161985
-0.0192358
-0.0262217
-0.0373021
-0.0520116
-0.0724977
-0.101919
-0.137703
-0.167434
-0.175296
-0.157774
-0.124737
-0.0911896
-0.0642641
-0.0447419
-0.0313715
-0.0239971
-0.0226141
-0.0214075
-0.0207927
-0.0205268
-0.0256422
-0.0322349
-0.0469127
-0.0666709
-0.0800125
-0.0820477
-0.065428
-0.0510517
-0.0354589
-0.0173709
-0.00666171
0.00322323
0.00226242
-0.28004
-0.291653
-0.304253
-0.319706
-0.333151
-0.344399
-0.351709
-0.354233
-0.349885
-0.33739
-0.31642
-0.287824
-0.253724
-0.216934
-0.180134
-0.14531
-0.113647
-0.0857288
-0.0617499
-0.0416328
-0.0252477
-0.0127327
-0.00448781
-0.000533966
0.000240707
-0.000586991
-0.00269401
-0.00698642
-0.014961
-0.026746
-0.0418918
-0.0624483
-0.0918373
-0.128091
-0.159431
-0.169805
-0.154494
-0.122781
-0.0897707
-0.0628218
-0.0429334
-0.0289819
-0.0207112
-0.0184645
-0.0166819
-0.0159794
-0.0157953
-0.021686
-0.0292849
-0.0458932
-0.0681605
-0.0832389
-0.0857162
-0.0677177
-0.0520003
-0.0355861
-0.0169631
-0.00577804
0.00476589
0.0030285
-0.268175
-0.275159
-0.284984
-0.296347
-0.307594
-0.31608
-0.322168
-0.324127
-0.320386
-0.31011
-0.292948
-0.269395
-0.240863
-0.209317
-0.176772
-0.144918
-0.11496
-0.0876474
-0.0633932
-0.0423477
-0.024482
-0.00986215
0.00115218
0.00813518
0.0112699
0.0114108
0.00927778
0.00449461
-0.00383881
-0.0157625
-0.0309095
-0.051238
-0.0801274
-0.116295
-0.149072
-0.16228
-0.149559
-0.119949
-0.0881321
-0.0615405
-0.0415151
-0.027117
-0.0180215
-0.0150071
-0.0128053
-0.0119741
-0.0115758
-0.0178515
-0.0261679
-0.044341
-0.0688519
-0.0856671
-0.088657
-0.0695846
-0.0526313
-0.0355086
-0.0165433
-0.00501566
0.00617926
0.00375095
-0.254159
-0.258218
-0.266072
-0.274143
-0.281479
-0.288343
-0.293539
-0.295342
-0.292761
-0.285077
-0.271861
-0.253274
-0.230114
-0.203635
-0.175293
-0.146492
-0.118419
-0.0919612
-0.0677122
-0.0460197
-0.027009
-0.0107453
0.00252434
0.0123148
0.0182531
0.0204968
0.0192189
0.0148437
0.00685315
-0.00458409
-0.0191731
-0.038847
-0.0672608
-0.103618
-0.137164
-0.154697
-0.142745
-0.115947
-0.0860662
-0.0601863
-0.0402676
-0.0256071
-0.0157733
-0.0120063
-0.00954608
-0.00874626
-0.00807343
-0.0142447
-0.0228515
-0.0421571
-0.0687784
-0.087246
-0.090727
-0.0709225
-0.0529176
-0.0351559
-0.0160433
-0.00431747
0.00746645
0.00443423
-0.239028
-0.243336
-0.248433
-0.251917
-0.256757
-0.261619
-0.265321
-0.266688
-0.264904
-0.259285
-0.249358
-0.235007
-0.216533
-0.194633
-0.170296
-0.144653
-0.118812
-0.0937238
-0.0701153
-0.0484858
-0.0291159
-0.0121698
0.00222386
0.0138489
0.0223233
0.0269576
0.0268557
0.0237297
0.0164624
0.00586724
-0.00797389
-0.0267801
-0.0540372
-0.0892783
-0.122682
-0.138605
-0.131959
-0.108914
-0.0815472
-0.0568919
-0.0376591
-0.0233018
-0.0132604
-0.00898853
-0.00633052
-0.00568275
-0.00493946
-0.0109644
-0.0196853
-0.0395134
-0.0677205
-0.0878156
-0.0918596
-0.0714915
-0.0526834
-0.0343877
-0.0153351
-0.00354412
0.0087218
0.00509608
-0.225499
-0.234997
-0.238584
-0.240831
-0.242362
-0.245269
-0.247792
-0.248303
-0.245909
-0.24006
-0.230405
-0.216867
-0.199702
-0.179499
-0.157095
-0.133454
-0.10953
-0.0861511
-0.0639505
-0.0433731
-0.0246875
-0.00807214
0.00634359
0.0184042
0.0278643
0.0340989
0.0370175
0.0339384
0.0277654
0.0185972
0.00608417
-0.0120925
-0.0404348
-0.0787301
-0.11539
-0.135575
-0.124831
-0.101508
-0.0750985
-0.0516965
-0.0335697
-0.0199525
-0.0103064
-0.00605099
-0.00322322
-0.00230766
0.00169235
-0.00646706
-0.0151624
-0.0356663
-0.0661694
-0.0884639
-0.0937214
-0.0717846
-0.0519525
-0.0333502
-0.0145059
-0.0027243
0.00994893
0.00572192
-0.210183
-0.222079
-0.225295
-0.225034
-0.225327
-0.226766
-0.227965
-0.227406
-0.224232
-0.218056
-0.208703
-0.196166
-0.180649
-0.162592
-0.14263
-0.121512
-0.099994
-0.0787592
-0.0583595
-0.0392104
-0.0215899
-0.00570873
0.00832551
0.0204277
0.0303968
0.0375216
0.0406577
0.0396001
0.0350329
0.0275811
0.0165943
-0.000821794
-0.0298756
-0.0695635
-0.106005
-0.11981
-0.113115
-0.0914948
-0.067415
-0.0461417
-0.02958
-0.0169907
-0.00779506
-0.00352662
-0.000729193
-4.81951e-05
-0.000352731
-0.00355752
-0.011716
-0.0323899
-0.0644288
-0.0880017
-0.0934061
-0.0712096
-0.0505615
-0.0319587
-0.0135739
-0.00190816
0.0108952
0.00615782
-0.194297
-0.206972
-0.210267
-0.209268
-0.208378
-0.208504
-0.208599
-0.207289
-0.203746
-0.197666
-0.188974
-0.177678
-0.163895
-0.147913
-0.130187
-0.111297
-0.0918644
-0.072479
-0.0536411
-0.0357531
-0.0190982
-0.00389807
0.0097051
0.0215955
0.0316355
0.0393063
0.0434058
0.0435365
0.0402769
0.0341701
0.0241653
0.00686112
-0.0225014
-0.0609472
-0.0944181
-0.107119
-0.100406
-0.0810968
-0.0597206
-0.0406537
-0.0256174
-0.0140553
-0.00536624
-0.00116588
0.00159562
0.0021295
0.00243439
-0.0012018
-0.0091991
-0.0298881
-0.0624037
-0.0862522
-0.0922175
-0.0699914
-0.0487262
-0.0302986
-0.012537
-0.00109011
0.0116894
0.00649563
-0.17914
-0.191265
-0.194689
-0.193493
-0.19185
-0.191058
-0.1904
-0.188648
-0.184998
-0.17917
-0.171129
-0.160899
-0.148563
-0.134321
-0.118516
-0.101605
-0.0840937
-0.0664788
-0.0491925
-0.0326024
-0.0169833
-0.00255867
0.0105021
0.0220338
0.031933
0.0397479
0.0446471
0.0459308
0.044021
0.0392589
0.030222
0.0132027
-0.015529
-0.0515773
-0.0819069
-0.093294
-0.0869372
-0.0702339
-0.0517756
-0.0350419
-0.021598
-0.0111368
-0.00303017
0.0010387
0.00379898
0.004304
0.00508862
0.00109632
-0.00686468
-0.0272356
-0.0594689
-0.0833354
-0.0899343
-0.0680587
-0.0464715
-0.0283457
-0.0113725
-0.000283093
0.0123342
0.0067564
-0.163984
-0.17541
-0.178929
-0.17779
-0.175828
-0.174494
-0.173332
-0.171299
-0.167658
-0.162137
-0.15472
-0.145456
-0.13442
-0.121754
-0.107706
-0.0926232
-0.0769054
-0.0609623
-0.0451671
-0.029855
-0.0152929
-0.00170614
0.0107253
0.0217976
0.031395
0.0391529
0.0444718
0.0466568
0.0459283
0.0424678
0.0346144
0.0185349
-0.00866245
-0.0417707
-0.0685337
-0.0783129
-0.072946
-0.0592074
-0.0438341
-0.0294812
-0.0176191
-0.00826912
-0.000793424
0.00308957
0.00587523
0.00641069
0.0075113
0.00343203
-0.00432394
-0.023899
-0.0554733
-0.0792036
-0.0863108
-0.0652969
-0.0437722
-0.026113
-0.0100782
0.000498928
0.0128088
0.00692488
-0.149003
-0.15987
-0.163407
-0.162406
-0.160367
-0.158745
-0.157274
-0.155098
-0.151565
-0.146417
-0.139642
-0.131299
-0.121455
-0.110214
-0.0977495
-0.0843224
-0.0702488
-0.0558689
-0.0415037
-0.0274539
-0.0139702
-0.00127683
0.0104443
0.0209711
0.0301635
0.037718
0.0431675
0.0459026
0.0460061
0.04354
0.0367859
0.022128
-0.00250445
-0.0315949
-0.0543444
-0.0628567
-0.0590749
-0.0484407
-0.0360993
-0.0240687
-0.0137382
-0.00547392
0.00134054
0.00498891
0.00780902
0.00843535
0.00974949
0.00579457
-0.0015371
-0.0199276
-0.0504582
-0.0737291
-0.0812548
-0.061633
-0.0406347
-0.0236318
-0.0086574
0.00124539
0.0130934
0.00698302
-0.134835
-0.144906
-0.148331
-0.14749
-0.145513
-0.14379
-0.142185
-0.139998
-0.136659
-0.131932
-0.125801
-0.118327
-0.109571
-0.0996097
-0.0885702
-0.0766476
-0.0640905
-0.051178
-0.0381829
-0.0253709
-0.0129734
-0.00120927
0.00973961
0.0196528
0.0283638
0.035605
0.0409944
0.0440136
0.0446206
0.0427563
0.0368638
0.024053
0.00306873
-0.0211844
-0.0401118
-0.0479129
-0.0459904
-0.03831
-0.0287615
-0.018906
-0.0100222
-0.00278033
0.00336694
0.00674897
0.00959737
0.0103809
0.0118376
0.00816418
0.00139518
-0.0154836
-0.0444342
-0.066909
-0.0747914
-0.0570406
-0.0370843
-0.0209484
-0.00712359
0.00195033
0.0131753
0.00692001
-0.121406
-0.13054
-0.133816
-0.133174
-0.131356
-0.129664
-0.128054
-0.125952
-0.122865
-0.118579
-0.113078
-0.10642
-0.0986597
-0.0898593
-0.080111
-0.0695611
-0.0584029
-0.0468635
-0.0351728
-0.023564
-0.0122478
-0.00143279
0.00870102
0.017943
0.0261119
0.0329623
0.0381716
0.0413012
0.0422043
0.0407329
0.035664
0.0250292
0.00810351
-0.0113796
-0.0270411
-0.0344367
-0.0342476
-0.0291179
-0.0219779
-0.0140723
-0.00652464
-0.00021825
0.00528013
0.00838802
0.011248
0.0122538
0.0138037
0.0105333
0.0044363
-0.0106076
-0.0374728
-0.0588868
-0.0670435
-0.0515513
-0.0331671
-0.0181237
-0.00550096
0.00261646
0.0130522
0.00673372
-0.108584
-0.116899
-0.120034
-0.119585
-0.117968
-0.116384
-0.114852
-0.112898
-0.110098
-0.10626
-0.10137
-0.095477
-0.0886347
-0.0808918
-0.0723167
-0.063019
-0.0531487
-0.0428896
-0.0324346
-0.0219867
-0.0117351
-0.00187454
0.00742098
0.0159518
0.0235337
0.029939
0.0348886
0.0380176
0.0391193
0.0380142
0.033835
0.0253505
0.0121177
-0.00320593
-0.0160793
-0.0230377
-0.0241564
-0.0210336
-0.0158519
-0.00962512
-0.00328644
0.00218034
0.00707021
0.00991808
0.0127719
0.0140621
0.0156911
0.0129435
0.00764663
-0.00532564
-0.0297699
-0.049923
-0.0582457
-0.0452722
-0.0289495
-0.0152285
-0.00382332
0.00326186
0.0127388
0.00643382
-0.0965926
-0.104125
-0.107074
-0.106781
-0.105371
-0.103941
-0.102541
-0.100778
-0.0982858
-0.0948937
-0.0905874
-0.0854124
-0.0794155
-0.0726373
-0.065129
-0.0569735
-0.0482871
-0.0392184
-0.0299281
-0.0205911
-0.0113754
-0.00245918
0.00599114
0.0137896
0.0207579
0.0266841
0.0313244
0.034381
0.0356296
0.0348896
0.0315704
0.0249362
0.0147397
0.00286414
-0.00754463
-0.0138574
-0.0157654
-0.0141008
-0.0104366
-0.00560286
-0.000335985
0.00438422
0.00872457
0.0113401
0.0141729
0.0157985
0.0175702
0.0154835
0.0110907
0.000249636
-0.0216342
-0.0403888
-0.048752
-0.0383963
-0.024518
-0.0123356
-0.00213243
0.00392479
0.0122716
0.00604818
-0.0855087
-0.0922138
-0.0949347
-0.0947799
-0.0935888
-0.0923374
-0.0910999
-0.0895492
-0.0873697
-0.0844108
-0.0806575
-0.0761499
-0.0709298
-0.0650311
-0.0584929
-0.0513784
-0.0437781
-0.0358115
-0.0276119
-0.0193286
-0.0111094
-0.003115
0.00450066
0.0115645
0.017909
0.0233395
0.0276432
0.0305774
0.0319252
0.0315174
0.0289642
0.0238542
0.0160952
0.00702499
-0.00124065
-0.00673677
-0.00896825
-0.00827766
-0.00574395
-0.00202794
0.0023093
0.00636635
0.0102275
0.0126497
0.0154465
0.0174211
0.0194843
0.0182246
0.0147835
0.0059212
-0.0134795
-0.030757
-0.0390159
-0.0311975
-0.0199784
-0.00951011
-0.000473181
0.00466119
0.0117123
0.00562723
-0.0752075
-0.0811407
-0.0836414
-0.0836084
-0.0826334
-0.0815691
-0.0805049
-0.0791719
-0.0772986
-0.0747515
-0.0715147
-0.0676231
-0.0631137
-0.0580153
-0.052358
-0.0461902
-0.0395823
-0.0326306
-0.0254451
-0.0181522
-0.0108811
-0.00377389
0.00303041
0.00937401
0.0150999
0.020033
0.0239889
0.0267683
0.0281757
0.0280658
0.0261882
0.0223353
0.0165153
0.00968095
0.00325879
-0.00135067
-0.0035753
-0.00347931
-0.00175635
0.00108968
0.00464065
0.00811013
0.0115568
0.013837
0.0165841
0.0188614
0.0213737
0.0211032
0.0186058
0.0113834
-0.00579855
-0.0215349
-0.0295162
-0.0240054
-0.015455
-0.00680565
0.00111348
0.00553042
0.0111442
0.0052432
-0.0656908
-0.070939
-0.0732181
-0.0732451
-0.0724998
-0.0716216
-0.0707298
-0.0696089
-0.0680257
-0.0658618
-0.0631013
-0.0597736
-0.0559109
-0.0515377
-0.0466776
-0.0413674
-0.0356625
-0.0296397
-0.0233897
-0.0170193
-0.0106391
-0.00437395
0.00165206
0.00729968
0.0124268
0.0168749
0.0204851
0.0230942
0.0245362
0.0246937
0.0234061
0.0205855
0.0162962
0.0112374
0.00638296
0.00263765
0.000617647
0.000400353
0.00156577
0.00375206
0.00665432
0.0096122
0.0126899
0.0148761
0.0175651
0.0200569
0.0230538
0.023782
0.0221207
0.0161426
0.000954429
-0.0131299
-0.0206425
-0.017168
-0.011088
-0.00426574
0.00259517
0.00656889
0.0106476
0.00498124
-0.0570063
-0.0616337
-0.0637373
-0.0639326
-0.0632466
-0.0624938
-0.0617514
-0.0608238
-0.0595067
-0.0576932
-0.0553664
-0.0525501
-0.049272
-0.0455524
-0.04141
-0.0368731
-0.0319848
-0.0268066
-0.021413
-0.0158929
-0.0103402
-0.00486369
0.000427518
0.00541306
0.00996876
0.0139531
0.0172302
0.0196651
0.0211244
0.0215142
0.0207312
0.0187591
0.0156834
0.0120111
0.00839109
0.00549775
0.00380284
0.00347117
0.0042748
0.00597365
0.00835099
0.0108742
0.0136153
0.0157303
0.0183393
0.020952
0.024294
0.0257605
0.0246698
0.0196353
0.00647601
-0.00581857
-0.0128897
-0.0110091
-0.00702025
-0.00192526
0.00393993
0.00775867
0.0102872
0.00490402
-0.0490622
-0.0530892
-0.0549666
-0.0551746
-0.0546826
-0.0540954
-0.0535094
-0.0527674
-0.051695
-0.0501993
-0.0482634
-0.0459067
-0.0431527
-0.0400184
-0.0365184
-0.0326744
-0.0285199
-0.024104
-0.0194873
-0.0147433
-0.0099515
-0.00520426
-0.000594731
0.00377153
0.00778793
0.011333
0.014295
0.0165588
0.018019
0.0186015
0.018244
0.0169656
0.0148484
0.0122513
0.00957645
0.0074793
0.00616036
0.00584497
0.00643123
0.00777884
0.00973803
0.0118982
0.0143276
0.0163692
0.0188525
0.0214688
0.024907
0.026665
0.0258331
0.0215659
0.0106167
0.000199663
-0.00635757
-0.00574894
-0.00337611
0.000195797
0.00510585
0.00897241
0.0101047
0.00502256
-0.041808
-0.0453031
-0.0469801
-0.0472294
-0.0468776
-0.0464279
-0.0459782
-0.0454011
-0.0445482
-0.0433367
-0.0417493
-0.0398018
-0.0375138
-0.0348996
-0.0319705
-0.028743
-0.0252431
-0.0215098
-0.0175917
-0.0135494
-0.0094491
-0.00536764
-0.00138402
0.00241008
0.0059251
0.00906097
0.011727
0.0138231
0.0152676
0.016004
0.0159951
0.0152704
0.0139073
0.0121614
0.0103067
0.00881324
0.00785552
0.0076289
0.00809898
0.00919933
0.0108286
0.0126879
0.0148265
0.0167689
0.01907
0.0215564
0.0248339
0.0264528
0.025711
0.0220894
0.0133722
0.0048036
-0.00114816
-0.00148893
-0.000246286
0.00209115
0.00605118
0.00997297
0.0100704
0.00527871
-0.0352237
-0.0382486
-0.0397434
-0.0400233
-0.0397791
-0.0394455
-0.0391162
-0.0386871
-0.0380283
-0.0370666
-0.0357859
-0.0341986
-0.032321
-0.0301649
-0.0277391
-0.0250559
-0.0221352
-0.0190077
-0.0157122
-0.0122979
-0.00881875
-0.00533865
-0.00192458
0.00134654
0.00440313
0.00716117
0.0095501
0.0114813
0.0128937
0.0137434
0.0140085
0.0137182
0.012938
0.0118583
0.0106549
0.00966101
0.0090267
0.00892159
0.00934186
0.010272
0.0116412
0.0132502
0.0151173
0.0169237
0.0189881
0.0212025
0.023613
0.025365
0.0247133
0.0216375
0.0149073
0.00804195
0.00280071
0.00180228
0.00232011
0.00374661
0.00674616
0.0105397
0.0100495
0.00551276
-0.029272
-0.0318763
-0.0332012
-0.0334996
-0.0333505
-0.0331228
-0.0328947
-0.0325888
-0.0320956
-0.0313502
-0.0303363
-0.0290629
-0.0275434
-0.0257872
-0.0238012
-0.0215943
-0.0191818
-0.0165872
-0.0138414
-0.0109835
-0.00805725
-0.00511522
-0.0022118
0.000589007
0.00322743
0.00563368
0.00776667
0.009537
0.0109003
0.0118233
0.0122926
0.0123329
0.0119956
0.0114234
0.0107271
0.0101414
0.00978769
0.00981184
0.0102219
0.0110361
0.0121999
0.0135978
0.0152105
0.0168497
0.0186553
0.0205636
0.0225019
0.0238442
0.0232515
0.0206497
0.0155254
0.0101226
0.00566444
0.00425363
0.00431686
0.00512461
0.0071742
0.0105725
0.0098504
0.00551961
-0.0238999
-0.0261339
-0.0273054
-0.0276157
-0.0275461
-0.0274064
-0.0272665
-0.0270641
-0.026711
-0.0261504
-0.0253659
-0.0243633
-0.023153
-0.0217427
-0.0201376
-0.0183441
-0.0163733
-0.0142434
-0.0119783
-0.00960903
-0.00717017
-0.00470402
-0.00225378
0.000128408
0.00239561
0.00450378
0.00637023
0.00797706
0.00927459
0.0102333
0.0108441
0.0111259
0.0111181
0.0109132
0.0106083
0.0103498
0.0102318
0.0103774
0.0107977
0.0115317
0.0125324
0.0137482
0.0151272
0.0165782
0.0181188
0.0196819
0.0211964
0.0221459
0.0216074
0.0194312
0.0155402
0.0113223
0.00764044
0.00601753
0.00577366
0.00617837
0.00733589
0.0100962
0.00930597
0.00517629
-0.0190638
-0.0209754
-0.0220095
-0.0223255
-0.022321
-0.0222561
-0.0221916
-0.0220748
-0.0218374
-0.0214319
-0.020842
-0.0200704
-0.0191246
-0.0180107
-0.0167324
-0.0152941
-0.0137041
-0.0119758
-0.0101275
-0.00818326
-0.00617016
-0.00412167
-0.00207171
-6.18883e-05
0.00186733
0.00367206
0.00531265
0.00676872
0.00799107
0.00895394
0.00965186
0.0101014
0.0103317
0.0104005
0.0103751
0.0103663
0.0104363
0.0106858
0.0111234
0.0117992
0.0126682
0.0137245
0.0148938
0.0161482
0.0174318
0.0186919
0.0198156
0.0204365
0.0199498
0.0181505
0.0151884
0.0118906
0.00891559
0.00723928
0.0067549
0.00688198
0.00727715
0.00922545
0.00804952
0.00451213
-0.014724
-0.016355
-0.017266
-0.0175823
-0.0176306
-0.0176277
-0.0176266
-0.0175846
-0.0174412
-0.0171623
-0.0167341
-0.0161569
-0.0154351
-0.0145726
-0.0135722
-0.0124366
-0.0111717
-0.00978713
-0.00829694
-0.00671938
-0.00507516
-0.00339009
-0.00169067
-9.15821e-06
0.00162399
0.00317129
0.00460946
0.00588533
0.00701822
0.00795775
0.00869917
0.00925446
0.00963929
0.00990139
0.0100786
0.0102534
0.0104652
0.0107959
0.0112486
0.0118775
0.0126382
0.0135529
0.014537
0.0155972
0.0166431
0.0176332
0.0184418
0.0188082
0.018367
0.0168922
0.0146277
0.012029
0.00964571
0.00803272
0.00734451
0.00725465
0.00707158
0.00819641
0.00696608
0.00373737
-0.0108393
-0.0122271
-0.0130287
-0.0133418
-0.0134324
-0.01348
-0.0135302
-0.0135493
-0.0134874
-0.0133117
-0.0130151
-0.0125975
-0.0120623
-0.0114111
-0.010645
-0.00976531
-0.00877577
-0.0076833
-0.00649812
-0.00523398
-0.0039066
-0.00253544
-0.00114064
0.000252656
0.00162147
0.00293834
0.00418204
0.00532655
0.00633695
0.00722027
0.00796625
0.00857587
0.00905713
0.00944305
0.00975718
0.0100585
0.0103701
0.0107575
0.0112179
0.0118043
0.0124737
0.0132615
0.0140839
0.0149624
0.0157975
0.0165557
0.017122
0.0173031
0.0169019
0.0156973
0.0139539
0.0118853
0.0099639
0.00848329
0.0076318
0.00735011
0.00677768
0.00716291
0.00590862
0.00299913
-0.00737054
-0.00854936
-0.00925475
-0.00956182
-0.00968591
-0.00977405
-0.00986514
-0.00993294
-0.00993715
-0.00985
-0.00965997
-0.00937044
-0.00898807
-0.00851218
-0.0079416
-0.00727608
-0.00651776
-0.00567124
-0.00474388
-0.00374574
-0.00268843
-0.00158655
-0.000455265
0.00068663
0.00182179
0.00292868
0.00398944
0.00498269
0.00589381
0.00671243
0.00743279
0.00805569
0.00858444
0.00904082
0.00943809
0.00981806
0.0101926
0.0106127
0.0110711
0.0116154
0.0122053
0.0128796
0.0135623
0.0142771
0.0149325
0.0154981
0.0158822
0.0159347
0.0155693
0.0145824
0.0132224
0.0115604
0.00998411
0.00865822
0.00770119
0.0072381
0.006435
0.00622575
0.00494851
0.00237217
-0.00428273
-0.00528265
-0.00590366
-0.00620281
-0.00635274
-0.00647289
-0.00659596
-0.00670161
-0.00675728
-0.0067404
-0.0066422
-0.00646264
-0.00620261
-0.00586584
-0.00545458
-0.00496613
-0.00440029
-0.00375924
-0.00304798
-0.00227377
-0.00144509
-0.000572636
0.000332426
0.00125622
0.00218564
0.00310428
0.00399859
0.00485277
0.00565588
0.00639735
0.00707162
0.00767781
0.00821656
0.00870177
0.00913973
0.00955976
0.00996592
0.010397
0.0108428
0.011343
0.0118619
0.012435
0.0129978
0.0135703
0.0140762
0.0144864
0.0147352
0.0147025
0.0143672
0.0135525
0.0124706
0.0111215
0.00979589
0.00860207
0.00756862
0.00698587
0.00606405
0.00543063
0.00412961
0.00187556
-0.00154296
-0.0023903
-0.00293761
-0.00322752
-0.00339696
-0.00354194
-0.00368958
-0.00382428
-0.00392009
-0.00395866
-0.00393259
-0.00384114
-0.00368561
-0.00346678
-0.00318296
-0.00283588
-0.00242671
-0.00195541
-0.00142398
-0.000836944
-0.000200467
0.000477935
0.0011901
0.00192577
0.00267537
0.00342706
0.00417051
0.00489352
0.00558738
0.00624345
0.00685636
0.00742411
0.0079452
0.00842806
0.00887423
0.00930375
0.009716
0.0101394
0.0105622
0.0110162
0.0114702
0.0119531
0.0124135
0.0128653
0.0132481
0.0135359
0.0136851