/*--------------------------------*- C++ -*----------------------------------*\
| =========                 |                                                 |
| \\      /  F ield         | OpenFOAM: The Open Source CFD Toolbox           |
|  \\    /   O peration     | Version:  2512                                  |
|   \\  /    A nd           | Website:  www.openfoam.com                      |
|    \\/     M anipulation  |                                                 |
\*---------------------------------------------------------------------------*/
FoamFile
{
    version     2.0;
    format      ascii;
    arch        "LSB;label=32;scalar=64";
    class       volScalarField;
    location    "18.25";
    object      p;
}
// * * * * * * * * * * * * * * * * * * * * * * * * * * * * * * * * * * * * * //

dimensions      [0 2 -2 0 0 0 0];

internalField   nonuniform List<scalar> 
13248
(
-0.309984
-0.308526
-0.306427
-0.303867
-0.301056
-0.298191
-0.29543
-0.292873
-0.290574
-0.288547
-0.286767
-0.285179
-0.283703
-0.282246
-0.280705
-0.278982
-0.276986
-0.274643
-0.27189
-0.26872
-0.265015
-0.260964
-0.255808
-0.25051
-0.316945
-0.314864
-0.312152
-0.308999
-0.305612
-0.302207
-0.298926
-0.295852
-0.293011
-0.290378
-0.287892
-0.285466
-0.282998
-0.280386
-0.277537
-0.274375
-0.270845
-0.266916
-0.262575
-0.257821
-0.252635
-0.247043
-0.240852
-0.234775
-0.325437
-0.322526
-0.319073
-0.315254
-0.311246
-0.307253
-0.303399
-0.299722
-0.2962
-0.292764
-0.28932
-0.285763
-0.282
-0.277957
-0.273584
-0.268865
-0.263803
-0.258427
-0.252766
-0.24686
-0.2407
-0.234354
-0.227687
-0.221218
-0.335591
-0.331647
-0.327329
-0.32277
-0.318077
-0.313422
-0.308878
-0.304422
-0.299974
-0.29543
-0.290688
-0.285668
-0.280325
-0.274652
-0.268673
-0.262438
-0.256008
-0.249441
-0.242786
-0.236075
-0.22931
-0.222536
-0.215646
-0.209168
-0.347472
-0.342315
-0.337025
-0.331654
-0.326191
-0.320742
-0.315307
-0.309792
-0.304074
-0.298048
-0.291656
-0.28489
-0.277793
-0.270443
-0.262932
-0.255354
-0.247788
-0.240289
-0.232889
-0.225602
-0.21842
-0.211357
-0.204348
-0.197757
-0.361072
-0.354555
-0.348215
-0.34196
-0.335604
-0.32915
-0.322512
-0.315545
-0.30813
-0.300227
-0.291876
-0.283183
-0.274287
-0.265331
-0.256442
-0.247717
-0.239218
-0.230974
-0.222991
-0.215257
-0.207756
-0.200475
-0.193367
-0.186686
-0.376274
-0.368305
-0.360861
-0.353634
-0.346191
-0.338408
-0.330135
-0.321233
-0.311672
-0.301546
-0.291038
-0.280366
-0.269737
-0.259321
-0.249234
-0.239543
-0.230272
-0.22142
-0.212963
-0.204873
-0.197117
-0.189665
-0.182488
-0.175719
-0.392807
-0.383357
-0.374773
-0.366441
-0.357616
-0.348057
-0.337621
-0.32628
-0.314181
-0.301605
-0.288875
-0.276288
-0.26407
-0.252366
-0.241251
-0.230743
-0.220828
-0.211469
-0.202623
-0.194244
-0.186287
-0.178712
-0.171497
-0.164668
-0.410202
-0.39931
-0.389551
-0.379905
-0.369292
-0.357417
-0.344267
-0.330049
-0.315157
-0.300061
-0.285182
-0.270834
-0.257209
-0.244395
-0.232406
-0.221212
-0.210759
-0.200986
-0.191828
-0.183226
-0.175124
-0.167479
-0.16026
-0.153407
-0.427757
-0.415526
-0.40453
-0.393271
-0.380368
-0.365613
-0.349282
-0.331912
-0.31416
-0.296634
-0.279786
-0.263886
-0.249051
-0.235297
-0.222577
-0.210817
-0.199929
-0.18983
-0.180439
-0.171683
-0.163499
-0.155835
-0.148642
-0.141807
-0.44454
-0.431113
-0.418767
-0.405501
-0.389771
-0.371642
-0.35182
-0.331218
-0.31071
-0.290964
-0.272385
-0.255159
-0.239312
-0.224784
-0.211474
-0.199269
-0.188056
-0.17773
-0.168197
-0.159372
-0.151182
-0.143568
-0.136446
-0.129698
-0.45947
-0.445036
-0.431196
-0.415485
-0.396398
-0.374483
-0.350992
-0.327202
-0.304127
-0.28241
-0.262359
-0.244042
-0.22739
-0.212272
-0.198536
-0.186034
-0.174631
-0.164204
-0.154646
-0.145863
-0.137775
-0.130309
-0.123354
-0.116839
-0.271563
-0.274233
-0.27596
-0.277201
-0.27836
-0.279549
-0.280826
-0.282228
-0.283776
-0.285475
-0.287323
-0.289315
-0.29144
-0.293687
-0.296047
-0.298501
-0.301034
-0.30363
-0.306274
-0.308951
-0.311637
-0.314322
-0.317079
-0.320048
-0.272203
-0.2747
-0.276325
-0.277504
-0.278611
-0.279754
-0.280988
-0.282349
-0.283857
-0.285518
-0.28733
-0.289289
-0.291387
-0.293617
-0.295967
-0.298425
-0.300978
-0.303611
-0.306311
-0.309068
-0.311859
-0.314645
-0.317499
-0.320802
-0.273952
-0.276104
-0.277528
-0.278583
-0.279591
-0.280648
-0.281805
-0.283095
-0.284537
-0.286135
-0.287889
-0.289795
-0.291849
-0.294043
-0.296368
-0.298816
-0.301372
-0.304022
-0.306751
-0.309551
-0.312402
-0.315222
-0.318011
-0.321508
-0.276546
-0.278235
-0.279378
-0.280249
-0.281103
-0.282021
-0.28305
-0.284219
-0.285544
-0.287029
-0.288675
-0.290479
-0.292436
-0.294542
-0.296791
-0.299172
-0.301673
-0.304279
-0.306969
-0.309732
-0.312556
-0.315355
-0.317958
-0.321034
-0.279666
-0.28084
-0.28165
-0.282281
-0.282918
-0.283631
-0.28446
-0.285434
-0.286567
-0.287864
-0.289325
-0.290949
-0.292732
-0.294672
-0.296762
-0.298995
-0.301359
-0.303839
-0.30641
-0.309051
-0.311745
-0.314425
-0.316869
-0.319511
-0.283006
-0.283681
-0.284136
-0.284477
-0.284832
-0.28526
-0.285805
-0.286495
-0.287345
-0.288362
-0.289548
-0.290902
-0.292424
-0.294111
-0.295959
-0.297962
-0.300109
-0.302384
-0.304764
-0.307219
-0.309712
-0.312191
-0.31454
-0.316284
-0.286343
-0.286589
-0.28669
-0.286701
-0.286708
-0.286775
-0.286948
-0.287262
-0.287738
-0.288387
-0.289214
-0.290221
-0.29141
-0.292778
-0.294324
-0.296041
-0.297919
-0.299937
-0.302073
-0.304287
-0.30655
-0.308692
-0.311102
-0.311575
-0.289585
-0.289493
-0.289259
-0.288908
-0.288512
-0.288147
-0.287873
-0.287736
-0.287766
-0.287981
-0.288393
-0.289007
-0.289826
-0.29085
-0.292071
-0.293485
-0.295077
-0.296825
-0.298694
-0.300621
-0.30263
-0.304236
-0.306758
-0.305932
-0.292772
-0.292439
-0.291886
-0.291146
-0.290305
-0.289459
-0.288688
-0.288054
-0.287599
-0.287352
-0.28733
-0.287542
-0.287991
-0.288672
-0.289579
-0.290692
-0.291986
-0.293425
-0.29497
-0.29651
-0.298189
-0.299134
-0.301515
-0.299806
-0.296098
-0.295573
-0.294701
-0.29355
-0.292237
-0.290883
-0.289595
-0.288451
-0.287508
-0.286805
-0.286361
-0.286185
-0.286275
-0.286614
-0.287179
-0.287934
-0.288835
-0.289828
-0.290869
-0.29183
-0.292924
-0.293245
-0.294993
-0.293009
-0.299852
-0.299122
-0.297905
-0.296315
-0.294507
-0.292636
-0.290831
-0.289187
-0.287771
-0.286624
-0.285766
-0.285195
-0.284892
-0.284821
-0.284932
-0.285162
-0.285443
-0.285702
-0.285879
-0.285903
-0.285909
-0.285495
-0.286105
-0.284233
-0.304375
-0.303353
-0.301733
-0.299664
-0.297343
-0.294953
-0.29264
-0.290511
-0.288636
-0.28705
-0.285757
-0.284736
-0.28394
-0.283304
-0.282748
-0.282182
-0.281514
-0.280659
-0.279536
-0.278126
-0.276389
-0.274479
-0.272892
-0.271101
-0.323641
-0.326995
-0.329592
-0.330951
-0.330643
-0.328166
-0.322966
-0.31452
-0.302503
-0.286689
-0.266725
-0.242589
-0.214512
-0.183038
-0.14905
-0.113746
-0.0786817
-0.0453127
-0.0149755
0.0110651
0.0322053
0.0478579
0.0585952
0.0649267
0.0676369
0.0675651
0.0654875
0.0621634
0.0580578
0.0535884
0.0490365
0.0446278
0.0404116
0.0364846
0.0328518
0.0295337
0.026531
0.0238267
0.0213983
0.0192106
0.0172366
0.0154427
0.0138099
0.0123185
0.0109633
0.00973535
0.00862835
0.00763386
0.00673799
0.00593278
0.0052008
0.00453807
0.00392226
0.0033595
0.00281641
0.00231338
0.00180218
0.0013188
0.000795165
0.000289281
-0.325437
-0.329375
-0.332623
-0.33469
-0.335135
-0.333403
-0.328898
-0.321052
-0.309661
-0.294135
-0.27433
-0.250142
-0.221775
-0.189779
-0.155089
-0.118792
-0.0827164
-0.0482475
-0.0170729
0.00970389
0.0313253
0.0474365
0.0584147
0.0648852
0.067679
0.0676601
0.0656495
0.0622688
0.0581411
0.053651
0.0490502
0.0446686
0.0404562
0.0365446
0.032915
0.0295962
0.0265908
0.0238847
0.0214551
0.0192685
0.0172931
0.0154989
0.0138607
0.0123653
0.0110033
0.00977044
0.00865817
0.00765963
0.00676005
0.00595166
0.00521736
0.00455165
0.00393494
0.00336896
0.00282598
0.00231942
0.00180914
0.00132128
0.000799457
0.000287189
-0.327852
-0.33244
-0.336409
-0.339303
-0.340654
-0.339863
-0.336264
-0.329421
-0.318884
-0.304025
-0.28473
-0.260802
-0.23243
-0.200153
-0.164961
-0.127317
-0.090354
-0.0549016
-0.022646
0.00511523
0.027561
0.044407
0.0559706
0.0629168
0.0661041
0.0664206
0.0646673
0.0615325
0.0576047
0.0532851
0.0488824
0.0444287
0.0402344
0.0363471
0.0327675
0.0295041
0.0265353
0.0238565
0.0214416
0.0192677
0.0173023
0.015518
0.013883
0.0123907
0.0110274
0.00979385
0.00867941
0.00767911
0.00677738
0.00596698
0.00523116
0.00456311
0.00394595
0.00337715
0.00283456
0.00232476
0.00181558
0.0013235
0.000803592
0.000285115
-0.329765
-0.334569
-0.339238
-0.342986
-0.345217
-0.345436
-0.342823
-0.337225
-0.327897
-0.313401
-0.295046
-0.27176
-0.243788
-0.2116
-0.176106
-0.138469
-0.100676
-0.0643113
-0.0310956
-0.00236831
0.0210158
0.0387735
0.0511857
0.0589123
0.0628109
0.0637698
0.0625641
0.0598854
0.0563185
0.0522816
0.0480734
0.0438713
0.0398653
0.0360624
0.0325065
0.0292634
0.0263451
0.0237315
0.021362
0.0192137
0.0172685
0.0155026
0.0138787
0.0123959
0.0110367
0.00980644
0.00869289
0.00769301
0.00679065
0.00597935
0.00524274
0.00457295
0.00395567
0.00338446
0.00284239
0.0023297
0.00182166
0.0013257
0.000807609
0.000283211
-0.328982
-0.334925
-0.339843
-0.344206
-0.347309
-0.348465
-0.347075
-0.342363
-0.333943
-0.321139
-0.303766
-0.28149
-0.25438
-0.222846
-0.18772
-0.150271
-0.11229
-0.0755205
-0.0416953
-0.0122094
0.0120496
0.0307774
0.0442081
0.0529557
0.0578421
0.0597201
0.0593342
0.0573408
0.0543313
0.050744
0.046891
0.0429742
0.0391588
0.0354958
0.0321238
0.0290146
0.0261334
0.0234728
0.021196
0.019105
0.0171947
0.0154542
0.0138485
0.0123811
0.011031
0.00980794
0.00869841
0.00770113
0.00679973
0.00598866
0.005252
0.00458112
0.00396402
0.00339089
0.00284942
0.00233429
0.0018273
0.00132796
0.000811439
0.000281575
-0.32634
-0.332971
-0.337873
-0.34254
-0.346305
-0.34824
-0.347759
-0.344144
-0.336885
-0.325413
-0.309373
-0.288474
-0.262704
-0.232406
-0.198343
-0.161734
-0.124238
-0.0876345
-0.0536617
-0.0237378
0.00122696
0.0208924
0.0354249
0.0453543
0.0514265
0.0544353
0.0550953
0.0539919
0.0517115
0.048713
0.0453253
0.0417756
0.0382397
0.0348167
0.0315993
0.0285968
0.0258446
0.0233499
0.0209879
0.0189411
0.017085
0.0153762
0.0137947
0.012347
0.0110106
0.00979834
0.00869584
0.00770327
0.0068044
0.00599472
0.00525876
0.00458751
0.00397087
0.0033964
0.00285551
0.00233849
0.0018324
0.00133028
0.000814989
0.000280317
-0.32186
-0.328809
-0.333512
-0.338168
-0.342264
-0.344717
-0.344913
-0.342254
-0.336141
-0.325996
-0.311394
-0.292048
-0.267933
-0.239371
-0.207009
-0.171936
-0.135639
-0.0998298
-0.0662166
-0.0362243
-0.0107811
0.00972336
0.0253628
0.036552
0.043924
0.0481963
0.0500438
0.0499834
0.0485636
0.0462621
0.0434317
0.0403248
0.037132
0.0339782
0.0309551
0.0281096
0.0254656
0.0230111
0.0207618
0.0187313
0.0169349
0.0152698
0.0137199
0.0122954
0.0109765
0.00977813
0.00868538
0.00769946
0.00680461
0.00599746
0.00526292
0.00459206
0.0039761
0.00340093
0.00286058
0.00234231
0.00183686
0.00133272
0.000818172
0.000279571
-0.315796
-0.32251
-0.326824
-0.331311
-0.335444
-0.338102
-0.338742
-0.336813
-0.331686
-0.3228
-0.309706
-0.29208
-0.269845
-0.243269
-0.213023
-0.180122
-0.145753
-0.111395
-0.0786621
-0.0489805
-0.0233119
-0.00211304
0.0145716
0.0270201
0.0357295
0.0413188
0.0444061
0.0454806
0.0450104
0.0434797
0.0412707
0.0386607
0.0358568
0.0330063
0.0302134
0.0275417
0.0250235
0.0226811
0.0205137
0.0185374
0.0167473
0.0151291
0.0136255
0.0122277
0.0109298
0.00974798
0.00866736
0.00768983
0.00680038
0.00599685
0.00526439
0.00459471
0.0039796
0.00340446
0.00286452
0.00234575
0.00184058
0.00133533
0.000820903
0.000279501
-0.308274
-0.313782
-0.317598
-0.321908
-0.325793
-0.328366
-0.329326
-0.327989
-0.323711
-0.316003
-0.304422
-0.288618
-0.268482
-0.244208
-0.216359
-0.185891
-0.153965
-0.121658
-0.0903159
-0.0613271
-0.0357053
-0.014001
0.00359987
0.0172235
0.0272241
0.0341016
0.0384103
0.0406462
0.0411831
0.0404685
0.0389133
0.0368293
0.0344437
0.0319225
0.0293828
0.0269045
0.0245345
0.0223064
0.0202287
0.0183028
0.0165508
0.0149762
0.0135161
0.0121459
0.0108716
0.00970868
0.00864224
0.00767465
0.00679185
0.00599297
0.00526321
0.00459551
0.00398136
0.00340702
0.00286729
0.00234883
0.0018435
0.00133815
0.000823119
0.00028031
-0.298993
-0.302494
-0.306115
-0.310229
-0.313369
-0.315616
-0.316829
-0.315997
-0.312503
-0.305964
-0.295944
-0.282076
-0.264218
-0.242488
-0.217324
-0.189528
-0.160185
-0.130277
-0.100755
-0.072846
-0.0475745
-0.0255961
-0.0072587
0.00739904
0.0185878
0.0266819
0.032157
0.0355113
0.0371042
0.0372764
0.0364225
0.0348905
0.0329403
0.0307614
0.0284878
0.0262151
0.0240031
0.0218961
0.01991
0.0180632
0.0163277
0.0147951
0.013386
0.0120494
0.0108036
0.00966181
0.00861119
0.00765481
0.00677968
0.00598626
0.00525965
0.00459465
0.00398145
0.00340867
0.00286884
0.00235156
0.00184551
0.00134122
0.000824756
0.000282268
-0.287059
-0.289199
-0.293063
-0.296616
-0.299312
-0.301394
-0.302731
-0.302339
-0.299667
-0.29435
-0.285945
-0.274091
-0.258633
-0.239613
-0.217328
-0.192384
-0.165671
-0.138207
-0.110737
-0.0842066
-0.0595512
-0.0374859
-0.0185227
-0.00288313
0.00948542
0.018824
0.0255016
0.0299449
0.0325665
0.0337087
0.0336666
0.0327759
0.031322
0.0295252
0.0275442
0.0254943
0.0234516
0.0214727
0.0195847
0.0178115
0.0161541
0.014632
0.0131926
0.0119298
0.0107262
0.00960807
0.00857444
0.00762991
0.00676319
0.00597595
0.00525287
0.00459135
0.00397909
0.00340881
0.00286852
0.00235353
0.00184615
0.0013443
0.000825528
0.0002857
-0.273235
-0.276372
-0.279416
-0.28109
-0.282788
-0.28472
-0.285573
-0.285364
-0.28341
-0.27933
-0.272623
-0.262929
-0.250065
-0.233983
-0.214832
-0.193007
-0.169135
-0.144017
-0.118484
-0.0934354
-0.0697388
-0.0480057
-0.0288118
-0.0125206
0.000771061
0.0111715
0.0189361
0.0244115
0.0279484
0.0298871
0.0305867
0.0303419
0.0294217
0.0280536
0.0264116
0.0246256
0.0227872
0.0209645
0.0191975
0.0175175
0.0159338
0.0144419
0.0131097
0.011793
0.0106285
0.00953558
0.00852155
0.00759105
0.00673509
0.00595618
0.00523826
0.00458225
0.00397157
0.0034057
0.00286495
0.00235394
0.00184466
0.00134708
0.000824906
0.000290925
-0.25908
-0.26719
-0.269194
-0.269707
-0.271019
-0.272815
-0.273729
-0.272752
-0.270523
-0.266543
-0.260179
-0.251081
-0.239082
-0.22414
-0.206385
-0.186168
-0.164046
-0.140742
-0.117012
-0.0936235
-0.0713327
-0.0507606
-0.032425
-0.0166674
-0.00361127
0.0068009
0.0147615
0.020555
0.024502
0.0269105
0.0280685
0.0282418
0.0276909
0.026638
0.025261
0.0236924
0.0220343
0.0203548
0.0187055
0.0171177
0.0156122
0.0141957
0.012872
0.0116615
0.0105201
0.00945143
0.00846008
0.00754608
0.00670332
0.00593418
0.00522273
0.00457348
0.0039646
0.00340403
0.00286275
0.00235611
0.00184433
0.00135128
0.000824249
0.000297473
-0.243917
-0.254807
-0.257146
-0.256544
-0.256528
-0.257213
-0.257479
-0.256693
-0.254377
-0.250255
-0.243993
-0.235335
-0.224139
-0.210376
-0.19417
-0.175818
-0.155786
-0.134672
-0.113118
-0.0917778
-0.0713071
-0.0522683
-0.0351165
-0.0201735
-0.00759038
0.00263985
0.010647
0.0166508
0.0209125
0.0236878
0.0252284
0.0257835
0.0255946
0.0248709
0.0237842
0.0224661
0.0210204
0.0195188
0.0180175
0.0165515
0.0151458
0.0138098
0.0125535
0.0113957
0.0103099
0.00928781
0.00833098
0.00744595
0.00662513
0.00587393
0.00517586
0.00453797
0.0039368
0.00338382
0.00284692
0.00234552
0.00183591
0.00134726
0.000820227
0.000299945
-0.22846
-0.240478
-0.243281
-0.242153
-0.241265
-0.241333
-0.241421
-0.240534
-0.23807
-0.233867
-0.227803
-0.219705
-0.209434
-0.196954
-0.182359
-0.165885
-0.147903
-0.128893
-0.109399
-0.089987
-0.071224
-0.0536167
-0.0375827
-0.0234324
-0.0113378
-0.00133281
0.0066614
0.0128071
0.0173119
0.0203945
0.0222804
0.0231955
0.0233583
0.0229621
0.0221701
0.0211113
0.0198891
0.0185782
0.0172375
0.0159057
0.0146109
0.0133679
0.0121941
0.0110967
0.0100609
0.00908436
0.00816572
0.0073134
0.00651884
0.00578945
0.00510858
0.00448503
0.00389479
0.0033514
0.0028215
0.00232674
0.00182162
0.00133831
0.000813767
0.00030027
-0.213438
-0.225258
-0.22846
-0.2274
-0.226173
-0.225874
-0.225722
-0.22467
-0.222154
-0.218052
-0.212319
-0.204841
-0.195497
-0.184242
-0.171143
-0.156387
-0.14027
-0.123187
-0.105598
-0.0879884
-0.0708466
-0.0546227
-0.0396975
-0.0263638
-0.0148033
-0.00508078
0.00283908
0.00906814
0.0137682
0.0171232
0.019329
0.0205842
0.0210842
0.0210064
0.0205049
0.0197043
0.0187074
0.0175903
0.0164141
0.015221
0.0140427
0.012899
0.0118087
0.0107747
0.00979234
0.00886392
0.00798599
0.00716816
0.00640174
0.00569574
0.0050335
0.00442564
0.00384741
0.00331469
0.00279258
0.00230535
0.0018053
0.00132807
0.000806716
0.000299845
-0.198314
-0.20975
-0.213345
-0.212603
-0.211315
-0.210743
-0.210342
-0.209195
-0.20676
-0.202887
-0.197552
-0.190693
-0.182224
-0.172104
-0.160379
-0.147195
-0.132793
-0.117495
-0.101685
-0.0857734
-0.0701773
-0.0552917
-0.0414607
-0.0289575
-0.017967
-0.00857726
-0.000788828
0.00546843
0.0103158
0.0139024
0.0163935
0.0179607
0.0187776
0.0190049
0.0187866
0.0182416
0.0174704
0.0165496
0.0155419
0.0144922
0.0134356
0.0123952
0.011389
0.0104244
0.00950131
0.00862468
0.00779031
0.00700941
0.00627326
0.00559255
0.00495054
0.00435982
0.00379476
0.00327384
0.00276034
0.00228152
0.00178715
0.00131662
0.000799143
0.000298686
-0.183369
-0.194458
-0.198303
-0.197883
-0.196652
-0.195927
-0.195376
-0.194232
-0.191954
-0.18837
-0.183465
-0.177219
-0.169582
-0.160521
-0.150067
-0.138332
-0.125509
-0.111861
-0.0977018
-0.0833765
-0.0692403
-0.055637
-0.0428743
-0.0312049
-0.0208117
-0.0117989
-0.00419473
0.00203659
0.00698019
0.0107522
0.0134886
0.0153358
0.0164455
0.0169616
0.0170164
0.016722
0.0161755
0.0154525
0.0146167
0.0137148
0.0127842
0.0118505
0.0109332
0.0100441
0.00918465
0.00836297
0.0075751
0.00683387
0.00613045
0.00547724
0.00485743
0.00428558
0.0037352
0.00322738
0.00272364
0.0022542
0.00176646
0.00130326
0.000790675
0.000296638
-0.169115
-0.179584
-0.183494
-0.183358
-0.18227
-0.181522
-0.180941
-0.179844
-0.177757
-0.174493
-0.170041
-0.164406
-0.157564
-0.149494
-0.140214
-0.129809
-0.118433
-0.106298
-0.0936599
-0.0808083
-0.0680436
-0.0556623
-0.0439369
-0.0330985
-0.023324
-0.0147266
-0.00735536
-0.00120262
0.00378551
0.00769528
0.0106356
0.0127285
0.0141042
0.0148896
0.0152046
0.0151533
0.014828
0.0143025
0.0136403
0.0128892
0.0120882
0.0112656
0.0104423
0.00963291
0.00884057
0.00807716
0.00733884
0.00664006
0.00597191
0.00534853
0.00475298
0.00420185
0.0036678
0.00317449
0.00268182
0.0022228
0.00174282
0.00128763
0.000781143
0.000293735
-0.155473
-0.165171
-0.169057
-0.169185
-0.168291
-0.167605
-0.167041
-0.166042
-0.164174
-0.161256
-0.15727
-0.152237
-0.146153
-0.139004
-0.130803
-0.121614
-0.111558
-0.100806
-0.0895668
-0.0780803
-0.0665994
-0.0553778
-0.0446543
-0.0346381
-0.0254964
-0.0173462
-0.0102515
-0.00422688
0.000755563
0.00475565
0.0078573
0.0101595
0.0117719
0.0128042
0.0133634
0.0135447
0.0134347
0.0131044
0.0126159
0.0120174
0.011349
0.0106412
0.00991543
0.00918923
0.00846812
0.00776633
0.0070806
0.00642704
0.00579675
0.00520555
0.00463644
0.00410792
0.00359195
0.00311463
0.00263444
0.00218695
0.00171598
0.00126952
0.000770464
0.000290068
-0.142368
-0.151347
-0.155163
-0.155513
-0.15482
-0.154235
-0.153737
-0.152862
-0.151226
-0.148659
-0.14514
-0.140691
-0.135321
-0.129025
-0.121813
-0.113734
-0.10488
-0.0953899
-0.0854335
-0.0752077
-0.0649238
-0.0547976
-0.0450364
-0.035827
-0.0273251
-0.0196475
-0.0128673
-0.0070161
-0.00208716
0.00195653
0.00517631
0.00764978
0.00946695
0.0107209
0.0115056
0.0119064
0.0120035
0.0118637
0.0115473
0.0111019
0.010568
0.00997741
0.0093523
0.00871316
0.00806663
0.00742962
0.00679943
0.00619385
0.00560403
0.0050474
0.00450694
0.00400301
0.00350699
0.00304719
0.00258105
0.00214624
0.00168566
0.00124872
0.000758511
0.000285699
-0.129986
-0.13824
-0.141913
-0.142431
-0.141926
-0.141458
-0.141054
-0.140323
-0.138925
-0.136704
-0.133636
-0.129744
-0.125044
-0.119535
-0.113227
-0.106157
-0.098397
-0.090056
-0.0812722
-0.0722065
-0.0630346
-0.0539381
-0.0450956
-0.0366723
-0.0288109
-0.0216241
-0.0151905
-0.0095532
-0.00472247
-0.000680456
0.00261431
0.00521997
0.00720837
0.00865658
0.0096453
0.0102499
0.0105432
0.0105873
0.0104393
0.0101458
0.00974684
0.00927522
0.00875341
0.00820435
0.00763546
0.00706624
0.00649443
0.00593954
0.00539277
0.00487312
0.00436362
0.00388629
0.00341219
0.00297152
0.00252109
0.00210019
0.00165151
0.00122499
0.000745109
0.000280663
-0.118396
-0.125874
-0.129348
-0.12999
-0.129658
-0.129314
-0.129016
-0.128436
-0.127274
-0.125385
-0.122745
-0.119377
-0.115298
-0.110513
-0.10503
-0.0988761
-0.0921075
-0.0848102
-0.0770954
-0.0690939
-0.0609507
-0.0528179
-0.0448478
-0.037185
-0.0299583
-0.0232742
-0.0172126
-0.0118245
-0.00713292
-0.00313554
0.000192021
0.00289066
0.00501556
0.00662866
0.00779777
0.00858801
0.00906417
0.00928299
0.00929784
0.00915351
0.00888861
0.00853657
0.00811979
0.00766303
0.00717439
0.00667569
0.00616494
0.00566331
0.00516215
0.00468185
0.00420563
0.00375695
0.00330683
0.00288695
0.00245403
0.00204834
0.00161316
0.0011981
0.000730054
0.000274979
-0.10752
-0.114253
-0.117507
-0.11824
-0.118061
-0.117837
-0.117644
-0.11721
-0.116275
-0.114698
-0.112458
-0.109575
-0.106069
-0.101945
-0.0972103
-0.0918852
-0.0860128
-0.0796605
-0.072917
-0.0658883
-0.0586931
-0.051458
-0.0443118
-0.0373795
-0.0307759
-0.0245998
-0.0189294
-0.0138202
-0.00930412
-0.0053912
-0.00207124
0.000681692
0.00290782
0.00465514
0.00597905
0.00693446
0.00757792
0.00796022
0.00813028
0.00813035
0.00799719
0.0077641
0.00745299
0.00709012
0.00668386
0.0062579
0.00581059
0.00536462
0.0049115
0.00447286
0.00403224
0.00361426
0.00319021
0.00279286
0.0023793
0.00199023
0.00157023
0.0011678
0.00071314
0.000268651
-0.097359
-0.103403
-0.106425
-0.107213
-0.107163
-0.107048
-0.106959
-0.106668
-0.105929
-0.104637
-0.102764
-0.100327
-0.0973427
-0.0938185
-0.0897596
-0.0851812
-0.080116
-0.0746164
-0.0687525
-0.0626098
-0.0562846
-0.0498816
-0.0435089
-0.0372735
-0.0312763
-0.0256072
-0.0203408
-0.0155342
-0.0112251
-0.00743267
-0.00415819
-0.00138839
0.000903881
0.002754
0.00420571
0.00530398
0.00609705
0.00662941
0.006945
0.00708294
0.00707751
0.00696135
0.00675538
0.00648714
0.00616476
0.00581322
0.00543134
0.00504317
0.00464037
0.00424556
0.00384281
0.00345755
0.00306172
0.00268865
0.00229637
0.00192542
0.00152233
0.00113386
0.00069416
0.000261662
-0.0879451
-0.0933299
-0.0961051
-0.0969183
-0.0969716
-0.096952
-0.0969524
-0.0967778
-0.0962242
-0.0951916
-0.0936544
-0.0916217
-0.089109
-0.0861244
-0.0826723
-0.0787635
-0.0744222
-0.0696888
-0.0646185
-0.0592792
-0.0537491
-0.0481137
-0.0424629
-0.0368876
-0.0314754
-0.0263066
-0.021451
-0.0169647
-0.0128886
-0.0092484
-0.00605413
-0.00330287
-0.000978648
0.000942734
0.00249437
0.00371178
0.00463498
0.00530201
0.00575146
0.00601889
0.00613552
0.00613282
0.00603041
0.00585637
0.00561838
0.00534237
0.00502756
0.004699
0.00434854
0.0039996
0.00363687
0.00328631
0.00292078
0.00257379
0.00220474
0.0018535
0.00146909
0.00109607
0.000672918
0.000253981
-0.0792483
-0.0840095
-0.0865345
-0.0873509
-0.0874878
-0.0875479
-0.0876241
-0.0875559
-0.0871664
-0.0863631
-0.0851214
-0.0834491
-0.0813582
-0.0788556
-0.0759446
-0.0726328
-0.0689378
-0.0648899
-0.0605323
-0.0559186
-0.0511115
-0.0461804
-0.0411995
-0.0362452
-0.0313924
-0.0267122
-0.0222681
-0.0181139
-0.0142915
-0.0108305
-0.00774735
-0.00504736
-0.00272382
-0.000762125
0.000861274
0.00217315
0.0032056
0.00399026
0.0045601
0.00494683
0.00517821
0.00528399
0.00528213
0.00520075
0.00504685
0.00484676
0.00460006
0.00433251
0.00403613
0.00373484
0.00341413
0.00310015
0.00276695
0.00244785
0.00210394
0.00177412
0.00141015
0.00105422
0.000649238
0.000245565
-0.0712234
-0.0754153
-0.0776989
-0.0785023
-0.0787038
-0.0788297
-0.0789695
-0.0789913
-0.0787448
-0.0781394
-0.0771561
-0.0758001
-0.0740819
-0.072006
-0.0695742
-0.0667913
-0.0636699
-0.0602324
-0.0565118
-0.0525502
-0.0483972
-0.0441089
-0.0397459
-0.0353715
-0.0310495
-0.0268415
-0.0228044
-0.0189884
-0.0154346
-0.0121747
-0.0092295
-0.00661027
-0.0043178
-0.00234552
-0.000678209
0.000703046
0.00182292
0.00270683
0.0033821
0.00387632
0.00421345
0.00442125
0.00451548
0.00452405
0.00445306
0.00432835
0.00415021
0.00394456
0.0037036
0.00345145
0.00317453
0.00289888
0.00259992
0.0023105
0.00199362
0.00168696
0.0013452
0.0010081
0.000622969
0.000236365
-0.063849
-0.0675242
-0.0695763
-0.0703534
-0.0706027
-0.0707809
-0.0709732
-0.0710698
-0.0709357
-0.0704968
-0.0697385
-0.068662
-0.0672713
-0.0655698
-0.063559
-0.0612416
-0.0586262
-0.0557291
-0.052575
-0.0491963
-0.0456321
-0.0419272
-0.0381305
-0.034294
-0.0304713
-0.0267151
-0.0230757
-0.0195986
-0.016323
-0.013281
-0.0104959
-0.00798317
-0.00574935
-0.00379435
-0.00210998
-0.000684269
0.000500686
0.00146448
0.00222895
0.00281747
0.00324998
0.00355191
0.00373641
0.00383074
0.00384025
0.00378963
0.0036799
0.00353651
0.00335183
0.00314996
0.00291828
0.00268252
0.00241955
0.00216156
0.00187349
0.00159179
0.001274
0.000957554
0.000593991
0.000226337
-0.0570981
-0.0603029
-0.0621352
-0.0628769
-0.0631599
-0.0633781
-0.0636093
-0.0637628
-0.0637251
-0.0634295
-0.0628624
-0.0620232
-0.0609156
-0.0595402
-0.0578966
-0.0559862
-0.0538144
-0.0513928
-0.0487394
-0.045879
-0.0428418
-0.0396631
-0.0363821
-0.033041
-0.0296842
-0.0263564
-0.0231009
-0.0199585
-0.0169656
-0.0141531
-0.0115455
-0.00916104
-0.0070102
-0.00509791
-0.00342177
-0.00197568
-0.000747832
0.000275994
0.00111238
0.0017807
0.00229687
0.00268381
0.00295158
0.00312606
0.00320957
0.00323374
0.0031917
0.00311026
0.00298216
0.00283126
0.00264593
0.00245138
0.00222591
0.00200099
0.00174344
0.00148847
0.0011964
0.000902447
0.000562219
0.000215443
-0.0509302
-0.053712
-0.0553399
-0.0560408
-0.0563465
-0.0565942
-0.0568547
-0.0570539
-0.057096
-0.056923
-0.056512
-0.0558729
-0.0550064
-0.0539108
-0.0525845
-0.051027
-0.0492414
-0.0472355
-0.0450223
-0.0426199
-0.0400515
-0.0373445
-0.03453
-0.0316419
-0.0287163
-0.0257905
-0.0229017
-0.0200855
-0.0173747
-0.0147985
-0.0123813
-0.0101424
-0.00809527
-0.00624831
-0.00460368
-0.00316005
-0.00191079
-0.00084644
4.44872e-05
0.00077736
0.00136405
0.00182515
0.00216795
0.00241671
0.0025722
0.00266551
0.00268897
0.00266836
0.00259646
0.00249672
0.0023584
0.00220606
0.00201935
0.00182898
0.00160349
0.00137697
0.00111233
0.00084271
0.000527607
0.00020366
-0.0453082
-0.0477139
-0.0491544
-0.0498114
-0.0501306
-0.0503987
-0.0506793
-0.0509115
-0.0510143
-0.050936
-0.0506586
-0.0501887
-0.0495276
-0.0486723
-0.0476187
-0.0463652
-0.0449134
-0.0432685
-0.0414395
-0.0394394
-0.0372854
-0.0349986
-0.0326031
-0.0301259
-0.0275962
-0.0250446
-0.0225021
-0.0199997
-0.0175661
-0.0152284
-0.0130096
-0.0109295
-0.00900275
-0.00724048
-0.00564812
-0.00422815
-0.00297824
-0.00189277
-0.000964563
-0.000181909
0.000462544
0.000986377
0.00139399
0.00170878
0.00193044
0.00208919
0.00217552
0.00221389
0.00219713
0.00214814
0.002057
0.00194751
0.0018005
0.00164593
0.00145389
0.0012574
0.00102184
0.000778351
0.000490152
0.00019098
-0.0401986
-0.042271
-0.0435408
-0.0441529
-0.0444785
-0.0447598
-0.0450527
-0.0453079
-0.0454574
-0.0454574
-0.0452926
-0.0449606
-0.0444701
-0.0438164
-0.0429943
-0.0420006
-0.0408354
-0.0395017
-0.0380057
-0.0363565
-0.0345665
-0.0326514
-0.0306297
-0.0285226
-0.0263532
-0.0241464
-0.0219278
-0.0197235
-0.0175586
-0.0154572
-0.0134405
-0.0115278
-0.0097343
-0.00807246
-0.00655008
-0.00517247
-0.0039409
-0.00285314
-0.00190577
-0.0010897
-0.000400758
0.000175832
0.000639765
0.00101151
0.00128888
0.00150979
0.00165593
0.00175058
0.00178709
0.00178781
0.00174346
0.00167704
0.00157031
0.00145252
0.00129511
0.00113008
0.000925131
0.000709468
0.000449909
0.000177418
-0.0355665
-0.037345
-0.0384608
-0.0390284
-0.0393549
-0.0396433
-0.0399425
-0.0402125
-0.0403963
-0.0404563
-0.0403779
-0.0401595
-0.0398137
-0.0393299
-0.0387038
-0.037931
-0.0370102
-0.0359431
-0.0347338
-0.0333885
-0.031916
-0.0303274
-0.0286368
-0.0268603
-0.0250163
-0.0231243
-0.0212054
-0.0192812
-0.017373
-0.0155019
-0.013687
-0.0119464
-0.010295
-0.00874575
-0.00730788
-0.00598859
-0.00479179
-0.00371782
-0.00276698
-0.00193347
-0.00121644
-0.000601767
-9.2099e-05
0.000329477
0.000653183
0.000935088
0.00113653
0.00128332
0.00137015
0.00141873
0.00142016
0.00139646
0.00133016
0.00124977
0.00112788
0.000995496
0.000822549
0.000636276
0.000406992
0.000163005
-0.0313786
-0.0328998
-0.0338779
-0.0344026
-0.0347262
-0.0350176
-0.0353187
-0.0355977
-0.0358077
-0.0359174
-0.0359148
-0.0357979
-0.0355586
-0.0352092
-0.034744
-0.0341558
-0.0334413
-0.0326006
-0.0316362
-0.030552
-0.0293541
-0.0280502
-0.0266505
-0.0251672
-0.0236142
-0.0220071
-0.0203627
-0.0186985
-0.0170324
-0.0153825
-0.0137655
-0.0121977
-0.0106935
-0.00926548
-0.00792354
-0.00667598
-0.00552864
-0.00448358
-0.00354328
-0.0027035
-0.00196775
-0.00132603
-0.000784085
-0.000328015
-3.92678e-06
0.000370382
0.000621715
0.000815156
0.00094895
0.00104322
0.00108913
0.00110753
0.00108152
0.00103886
0.000953124
0.00085436
0.00071461
0.000559116
0.000361605
0.000147795
-0.027599
-0.0288958
-0.0297514
-0.0302354
-0.0305529
-0.0308432
-0.0311419
-0.0314235
-0.0316494
-0.0317935
-0.0318448
-0.031801
-0.031662
-0.0314275
-0.0310972
-0.0306638
-0.0301232
-0.0294745
-0.0287187
-0.0278579
-0.0268961
-0.0258388
-0.024693
-0.0234675
-0.022173
-0.0208213
-0.0194258
-0.0180005
-0.01656
-0.0151194
-0.0136933
-0.012296
-0.0109405
-0.00963897
-0.00840128
-0.00723617
-0.00615091
-0.00514862
-0.00423439
-0.00340534
-0.0026647
-0.00199959
-0.00141826
-0.000897618
-0.000410709
-0.000141977
0.000125324
0.000356158
0.000531452
0.000667614
0.000755326
0.000814032
0.000827233
0.000821902
0.000772378
0.000707772
0.000602097
0.000478473
0.000314075
0.000131931
-0.0242128
-0.0253159
-0.0260636
-0.0265095
-0.0268191
-0.0271057
-0.0273992
-0.0276793
-0.0279148
-0.0280844
-0.028179
-0.028197
-0.0281375
-0.0279967
-0.0277713
-0.0274618
-0.027066
-0.0265786
-0.0259977
-0.0253251
-0.024564
-0.023718
-0.0227917
-0.0217913
-0.0207243
-0.0195997
-0.0184278
-0.0172195
-0.0159866
-0.0147413
-0.013496
-0.012263
-0.0110541
-0.00988006
-0.00875068
-0.00767455
-0.00665975
-0.00571019
-0.00483248
-0.00402495
-0.00329686
-0.00263833
-0.00205363
-0.00152103