/*--------------------------------*- C++ -*----------------------------------*\
| =========                 |                                                 |
| \\      /  F ield         | OpenFOAM: The Open Source CFD Toolbox           |
|  \\    /   O peration     | Version:  2512                                  |
|   \\  /    A nd           | Website:  www.openfoam.com                      |
|    \\/     M anipulation  |                                                 |
\*---------------------------------------------------------------------------*/
FoamFile
{
    version     2.0;
    format      ascii;
    arch        "LSB;label=32;scalar=64";
    class       surfaceScalarField;
    location    "80.25";
    object      phi;
}
// * * * * * * * * * * * * * * * * * * * * * * * * * * * * * * * * * * * * * //

dimensions      [0 3 -1 0 0 0 0];

oriented        oriented;

internalField   nonuniform List<scalar> 
26232
(
0.000155203
0.00094379
-0.00109899
0.000746924
0.00162684
-0.00221856
0.00190121
0.00123292
-0.00238721
0.00374689
-0.000188941
-0.00165674
0.00642077
-0.00260406
-6.98186e-05
0.0100616
-0.00598475
0.00234389
0.0147978
-0.0103019
0.00556576
0.0207281
-0.0155103
0.00957999
0.0278997
-0.0215337
0.0143621
0.0362884
-0.0282552
0.0198664
0.0457857
-0.0355136
0.0260163
0.0561967
-0.0431099
0.0326988
0.0672521
-0.0508216
0.0397663
0.0786307
-0.0584219
0.0470433
0.0899913
-0.0657003
0.0543397
0.101007
-0.0724817
0.0614655
0.111401
-0.0786406
0.0682468
0.120969
-0.0841091
0.0745415
0.129598
-0.0888754
0.0802463
0.137267
-0.0929848
0.0853156
0.144032
-0.0964945
0.0897298
0.149995
-0.0995618
0.0935984
0.155115
-0.102047
0.0969277
-0.104591
0.100291
0.159416
0.00018527
0.00075852
0.000919465
0.00089264
0.00237024
-0.000217856
0.00469937
-0.00251807
0.00806407
-0.00596876
0.0126051
-0.0105258
0.018424
-0.0161208
0.0255562
-0.0226424
0.0339478
-0.0299254
0.0434428
-0.0377501
0.053786
-0.0458567
0.0646445
-0.0539685
0.075643
-0.0618201
0.0864064
-0.0691853
0.0966031
-0.075897
0.105981
-0.0818597
0.114391
-0.0870505
0.121793
-0.0915108
0.128248
-0.0953311
0.133895
-0.0986311
0.138934
-0.101534
0.143553
-0.104181
0.148087
-0.106581
-0.109175
0.152671
0.000238424
0.000520097
0.00117
-3.89408e-05
0.00299761
-0.00204546
0.00590656
-0.00542701
0.0100575
-0.0101197
0.0155618
-0.0160301
0.0224491
-0.0230082
0.0306403
-0.0308336
0.0399337
-0.0392188
0.050016
-0.0478325
0.0604951
-0.0563359
0.0709498
-0.0644231
0.0809851
-0.0718554
0.0902816
-0.0784818
0.0986305
-0.0842458
0.105947
-0.0891767
0.112267
-0.0933699
0.117718
-0.0969616
0.122488
-0.100102
0.12679
-0.102933
0.130828
-0.105572
0.134771
-0.108124
0.138779
-0.110589
-0.113251
0.142854
0.000318695
0.000201401
0.00150877
-0.00122901
0.00379391
-0.0043306
0.00736325
-0.00899636
0.0123485
-0.015105
0.0187865
-0.022468
0.0265843
-0.0308059
0.0355052
-0.0397545
0.0451851
-0.0488987
0.0551793
-0.0578266
0.0650282
-0.0661847
0.074325
-0.07372
0.0827699
-0.0803003
0.0901997
-0.0859116
0.09659
-0.090636
0.102033
-0.0946196
0.106699
-0.0980364
0.110796
-0.101058
0.114527
-0.103833
0.11807
-0.106476
0.121565
-0.109067
0.125107
-0.111666
0.128788
-0.11427
-0.117074
0.132611
0.000424952
-0.000223551
0.00192826
-0.00273232
0.00473259
-0.00713494
0.00899957
-0.0132633
0.0147882
-0.0208937
0.0220107
-0.0296905
0.0304112
-0.0392065
0.0395859
-0.0489291
0.0490428
-0.0583557
0.0582857
-0.0670695
0.0668947
-0.0747937
0.0745849
-0.0814102
0.0812295
-0.086945
0.0868492
-0.0915313
0.0915749
-0.0953617
0.0955996
-0.0986443
0.0991318
-0.101569
0.102361
-0.104287
0.105439
-0.106911
0.108479
-0.109515
0.111556
-0.112144
0.114717
-0.114827
0.118008
-0.117562
-0.120463
0.121397
0.000552652
-0.000776204
0.00240818
-0.00458785
0.00575885
-0.0104856
0.0106982
-0.0182027
0.0171643
-0.0273597
0.0249041
-0.0374303
0.0334894
-0.0477917
0.0423864
-0.0578261
0.051058
-0.0670273
0.059062
-0.0750735
0.0661151
-0.0818468
0.0721116
-0.0874066
0.0771002
-0.0919336
0.0812355
-0.0956665
0.0847209
-0.0988472
0.0877619
-0.101685
0.0905344
-0.104341
0.0931734
-0.106926
0.0957735
-0.109511
0.0983973
-0.112139
0.101085
-0.114832
0.103862
-0.117604
0.106753
-0.120453
-0.123442
0.109733
0.000695409
-0.00147161
0.00291996
-0.0068124
0.00679979
-0.0143654
0.0123154
-0.0237183
0.0192424
-0.0342867
0.0271488
-0.0453368
0.0354668
-0.0561097
0.0436121
-0.0659714
0.0511038
-0.074519
0.0576401
-0.0816098
0.0631162
-0.087323
0.0675929
-0.0918833
0.0712363
-0.0955771
0.0742555
-0.0986857
0.076853
-0.101445
0.0791964
-0.104029
0.0814096
-0.106554
0.083577
-0.109094
0.0857526
-0.111687
0.0879704
-0.114357
0.0902515
-0.117113
0.0926084
-0.11996
0.095054
-0.122899
-0.125953
0.0975648
0.000845545
-0.00231716
0.00342986
-0.00939672
0.00777341
-0.018709
0.0137023
-0.0296472
0.0208087
-0.0413931
0.0285047
-0.0530328
0.0361541
-0.0637591
0.0432171
-0.0730344
0.0493477
-0.0806497
0.054419
-0.0866811
0.0584863
-0.0913902
0.0617185
-0.0951155
0.0643282
-0.0981868
0.0665183
-0.100876
0.0684535
-0.10338
0.0702526
-0.105828
0.0719946
-0.108296
0.0737285
-0.110827
0.0754844
-0.113443
0.077281
-0.116153
0.0791299
-0.118962
0.0810389
-0.121869
0.0830151
-0.124875
-0.127981
0.0850431
0.000994191
-0.00331135
0.00390108
-0.0123036
0.00859701
-0.0234049
0.0147259
-0.0357762
0.0217056
-0.0483727
0.0288503
-0.0601776
0.0355425
-0.0704512
0.0413625
-0.0788544
0.0461329
-0.08542
0.0498838
-0.090432
0.0527776
-0.094284
0.0550288
-0.0973667
0.0568443
-0.100002
0.0583912
-0.102423
0.0597887
-0.104777
0.0611141
-0.107153
0.0624144
-0.109597
0.0637175
-0.112131
0.0650403
-0.114766
0.0663938
-0.117507
0.0677851
-0.120353
0.0692192
-0.123304
0.0706994
-0.126355
-0.129499
0.0722168
0.00113125
-0.0044426
0.00429622
-0.0154686
0.00919635
-0.0283051
0.0152875
-0.0418674
0.0218534
-0.0549386
0.0281874
-0.0665116
0.0337655
-0.0760293
0.0383258
-0.0834147
0.0418482
-0.0889424
0.0444745
-0.0930583
0.0464179
-0.0962275
0.047892
-0.0988408
0.0490716
-0.101182
0.0500812
-0.103432
0.0510005
-0.105697
0.0518769
-0.10803
0.0527377
-0.110457
0.0535992
-0.112992
0.0544715
-0.115638
0.0553616
-0.118397
0.0562743
-0.121266
0.0572129
-0.124242
0.0581788
-0.127321
-0.130489
0.0591689
0.00124662
-0.00568922
0.00458225
-0.0188042
0.00951605
-0.0332388
0.0153354
-0.0476867
0.0212525
-0.0608557
0.0266142
-0.0718732
0.0310358
-0.0804509
0.0344126
-0.0867915
0.0368449
-0.0913747
0.0385362
-0.0947496
0.039707
-0.0973982
0.0405442
-0.0996781
0.0411828
-0.10182
0.0417092
-0.103959
0.0421741
-0.106162
0.0426058
-0.108461
0.0430202
-0.110872
0.0434275
-0.113399
0.0438343
-0.116045
0.0442455
-0.118808
0.0446643
-0.121685
0.0450925
-0.12467
0.0455296
-0.127758
-0.130935
0.0459759
0.00133412
-0.00702334
0.00473758
-0.0222077
0.00952778
-0.038029
0.0148678
-0.0530268
0.0199696
-0.0659575
0.0242889
-0.0761925
0.0275931
-0.0837551
0.0299083
-0.0891067
0.0314109
-0.0928773
0.0323241
-0.0956628
0.0328496
-0.0979238
0.0331381
-0.0999666
0.0332875
-0.10197
0.033355
-0.104026
0.0333717
-0.106178
0.0333544
-0.108444
0.0333131
-0.11083
0.0332542
-0.11334
0.0331828
-0.115974
0.0331028
-0.118728
0.0330169
-0.121599
0.0329262
-0.12458
0.0328292
-0.127661
0.0327284
-0.130834
-0.000275783
0.000635248
-0.000359465
-0.000947177
0.00109832
-0.000426928
-0.00192233
0.00102743
-5.22764e-05
-0.00313668
0.000604469
0.000609882
-0.00454328
-3.55306e-05
0.00144213
-0.00610727
-0.000804883
0.00236888
-0.00780187
-0.00165868
0.00335328
-0.0096055
-0.00258573
0.00438935
-0.0114996
-0.00359781
0.00549188
-0.0134672
-0.00471844
0.00668607
-0.015492
-0.0059745
0.00799925
-0.0175567
-0.0073905
0.00945523
-0.0196424
-0.00898555
0.0110712
-0.0217271
-0.0107718
0.0128566
-0.0237854
-0.0127536
0.0148119
-0.0257877
-0.0149261
0.0169284
-0.0277006
-0.0172738
0.0191867
-0.0294881
-0.0197681
0.0215555
-0.0311135
-0.0223648
0.0239903
-0.0325428
-0.0250036
0.0264329
-0.0337478
-0.0276083
0.0288133
-0.0347097
-0.0300875
0.0310494
-0.0354315
-0.0323258
0.0330476
-0.0341999
-0.0359553
0.0347237
-0.000278817
0.000914065
-0.000964547
0.00178405
-0.00196715
0.00203003
-0.00322104
0.00185836
-0.00467679
0.00142022
-0.00629716
0.00081549
-0.00805383
9.79926e-05
-0.00992602
-0.000713538
-0.0118967
-0.00162713
-0.0139526
-0.00266251
-0.0160815
-0.0038456
-0.0182711
-0.00520093
-0.0205076
-0.00674909
-0.0227744
-0.00850493
-0.0250517
-0.0104763
-0.0273154
-0.0126624
-0.0295374
-0.0150519
-0.0316861
-0.0176194
-0.0337283
-0.0203226
-0.035633
-0.023099
-0.0373767
-0.0258646
-0.038948
-0.0285162
-0.0403507
-0.0309231
-0.032918
-0.0416326
-0.000258107
0.00117217
-0.000904338
0.00243028
-0.0018585
0.00298419
-0.00305784
0.0030577
-0.00445181
0.00281419
-0.00600044
0.00236411
-0.00767304
0.0017706
-0.00944529
0.00105871
-0.0112987
0.000226271
-0.0132207
-0.000740454
-0.0151984
-0.00186799
-0.0172199
-0.00317941
-0.0192725
-0.00469646
-0.0213413
-0.00643608
-0.0234086
-0.00840901
-0.0254531
-0.010618
-0.0274494
-0.0130555
-0.0293683
-0.0157005
-0.0311761
-0.0185148
-0.0328375
-0.0214375
-0.0343222
-0.0243799
-0.035611
-0.0272274
-0.0366887
-0.0298454
-0.0319988
-0.037608
-0.000214895
0.00138707
-0.00076938
0.00298477
-0.00160039
0.00381521
-0.00265165
0.00410895
-0.00387288
0.00403543
-0.00522087
0.0037121
-0.0066597
0.00320942
-0.00816025
0.00255926
-0.0096997
0.00176572
-0.0112558
0.000815641
-0.012813
-0.000310739
-0.0143545
-0.00163799
-0.0158621
-0.00318887
-0.0173168
-0.00498138
-0.0186979
-0.00702783
-0.0199833
-0.00933264
-0.0211488
-0.0118899
-0.0221684
-0.014681
-0.0230126
-0.0176706
-0.0236473
-0.0208028
-0.0240358
-0.0239913
-0.024152
-0.0271112
-0.0239706
-0.0300269
-0.0326977
-0.0232716
-0.000154335
0.0015414
-0.000574073
0.00340451
-0.00121775
0.00445888
-0.0020381
0.0049293
-0.00298618
0.00498351
-0.00401513
0.00474105
-0.00508231
0.00427661
-0.00615
0.00362695
-0.00718494
0.00280066
-0.00815726
0.00178797
-0.00903573
0.000567729
-0.00979504
-0.000878688
-0.0104048
-0.00257908
-0.0108352
-0.00455103
-0.0110559
-0.0068071
-0.0110376
-0.00935095
-0.0107533
-0.0121742
-0.0101789
-0.0152553
-0.00929429
-0.0185553
-0.00808099
-0.0220161
-0.00651543
-0.0255569
-0.00456231
-0.0290643
-0.00223069
-0.0323585
-0.0350773
0.000148835
-8.44163e-05
0.00162582
-0.000341702
0.00366179
-0.000752246
0.00486943
-0.00127841
0.00545546
-0.00187298
0.00557808
-0.00248514
0.00535321
-0.00306424
0.00485571
-0.00356158
0.00412429
-0.00393076
0.00316984
-0.00412697
0.00198418
-0.00410664
0.000547398
-0.00382389
-0.00116144
-0.00323405
-0.00316892
-0.0022918
-0.00549328
-0.000953022
-0.00814588
0.000823005
-0.011127
0.00307172
-0.0144229
0.00581861
-0.0180022
0.00907869
-0.0218154
0.0128558
-0.0257933
0.0171465
-0.0298475
0.0219534
-0.0338713
0.0272458
-0.0376508
-0.041228
0.0333966
-1.45177e-05
0.00164034
-0.000100279
0.00374755
-0.000255167
0.00502431
-0.000449261
0.00564955
-0.000636415
0.00576523
-0.000761447
0.00547825
-0.000764905
0.00485916
-0.000585827
0.00394522
-0.000162962
0.00274697
0.000565119
0.0012561
0.00165974
-0.000547223
0.00318446
-0.00268617
0.00520003
-0.00518448
0.00776597
-0.00805921
0.010937
-0.0113169
0.0147596
-0.0149496
0.0192684
-0.0189317
0.0244831
-0.0232169
0.0304059
-0.0277382
0.0370209
-0.0324083
0.0442914
-0.037118
0.0521968
-0.0417767
0.0606518
-0.0461058
-0.0505606
0.0699844
4.66139e-05
0.00159372
0.000122994
0.00367117
0.000222731
0.00492458
0.000372337
0.00549995
0.000619053
0.00551851
0.00102355
0.00507375
0.00165487
0.00422784
0.00258708
0.00301301
0.00389718
0.00143688
0.0056637
-0.000510422
0.00796514
-0.00284866
0.0108793
-0.00560028
0.0144788
-0.00878402
0.0188284
-0.0124089
0.0239801
-0.0164686
0.0299681
-0.0209376
0.0368045
-0.0257681
0.0444766
-0.0308891
0.0529458
-0.0362073
0.0621502
-0.0416127
0.0720066
-0.0469745
0.0824373
-0.0522073
0.0933053
-0.0569738
-0.062077
0.104822
9.25765e-05
0.00150115
0.000308006
0.00345574
0.000643041
0.00458954
0.00112747
0.00501552
0.00181352
0.00483246
0.00276978
0.00411748
0.00407652
0.0029211
0.00582182
0.00126771
0.00809835
-0.000839655
0.0110001
-0.00341222
0.0146186
-0.00646714
0.019038
-0.0100196
0.0243291
-0.0140751
0.0305428
-0.0186226
0.0377035
-0.0236292
0.0458032
-0.0290373
0.0547987
-0.0347636
0.0646111
-0.0407015
0.0751302
-0.0467264
0.0862196
-0.0527021
0.0977351
-0.05849
0.10952
-0.0639923
0.121455
-0.0689087
-0.0740665
0.133444
0.000121351
0.00137979
0.000447511
0.00312958
0.000991163
0.00404589
0.00179353
0.00421315
0.00291757
0.00370842
0.00444385
0.00259121
0.00646639
0.000898553
0.00908816
-0.00135406
0.0124155
-0.00416696
0.0165515
-0.00754822
0.0215885
-0.0115042
0.0275989
-0.0160301
0.0346255
-0.0211017
0.0426726
-0.0266697
0.0517
-0.0326566
0.0616201
-0.0389573
0.0723001
-0.0454436
0.0835702
-0.0519716
0.0952354
-0.0583916
0.107091
-0.0645574
0.118943
-0.0703422
0.130596
-0.0756453
0.141992
-0.0803053
-0.0848459
0.152772
0.00013599
0.0012438
0.00055025
0.00271532
0.00128322
0.00331292
0.00239618
0.00310019
0.00396965
0.00213496
0.00610074
0.000460117
0.00889981
-0.00190052
0.012482
-0.00493625
0.016959
-0.00864393
0.022427
-0.0130163
0.0289541
-0.0180313
0.036567
-0.0236429
0.0452401
-0.0297748
0.0548898
-0.0363194
0.0653733
-0.0431402
0.0764959
-0.05008
0.0880239
-0.0569716
0.099704
-0.0636517
0.111284
-0.0699718
0.122543
-0.0758166
0.133302
-0.0811006
0.143451
-0.0857946
0.152983
-0.0898372
-0.0933895
0.161527
0.000144811
0.000641577
0.00156728
0.00301073
0.00507587
0.00787988
0.0115451
0.0161889
0.021907
0.0287572
0.0367422
0.0457982
0.0557896
0.0665135
0.0777131
0.0890986
0.100374
0.111264
0.121538
0.131037
0.139666
0.14747
0.154561
0.161462
-0.0344366
-0.0502833
0.0487647
-0.0321629
-0.0517125
0.0494388
-0.0290709
-0.0513223
0.0482303
-0.0250634
-0.0487391
0.0447315
-0.0200868
-0.0434653
0.0384887
-0.014102
-0.0350933
0.0291086
-0.00717666
-0.0233743
0.0164489
0.000554241
-0.00825642
0.000525515
0.00906276
0.00979721
-0.0183057
0.0179418
0.0306162
-0.0394953
0.0267476
0.0531779
-0.0619837
0.0351858
0.0757093
-0.0841474
0.0427763
0.0966537
-0.104244
0.04875
0.115028
-0.121001
0.0523997
0.130401
-0.13405
0.053563
0.142952
-0.144116
0.0532165
0.152523
-0.152177
0.05357
0.157119
-0.157472
0.0570971
0.152511
-0.156038
0.0649446
0.134204
-0.142051
0.0763244
0.100274
-0.111654
0.0896071
0.0522099
-0.0654927
0.103359
-0.00545721
-0.00829454
0.116445
-0.0648796
0.0517934
0.127506
-0.116185
0.105124
0.135357
-0.152297
0.144446
0.139632
-0.17277
0.168495
0.141068
-0.181166
0.17973
0.140108
-0.181584
0.182544
0.135771
-0.180904
0.18524
0.127632
-0.186821
0.19496
0.118411
-0.195849
0.205071
0.113018
-0.187895
0.193287
0.114476
-0.142392
0.140934
0.121944
-0.0611853
0.0537174
0.131968
0.033091
-0.0431148
0.141484
0.114827
-0.124344
0.148948
0.17071
-0.178174
0.153267
0.199478
-0.203796
0.152663
0.218955
-0.218352
0.146567
0.241656
-0.235559
0.137922
0.261066
-0.252421
0.131666
0.240699
-0.234443
0.131103
0.162499
-0.161937
0.135916
0.0423219
-0.0471347
0.143454
-0.0796272
0.0720891
0.150011
-0.163052
0.156494
0.151304
-0.220557
0.219264
0.146166
-0.24742
0.252559
0.138194
-0.282708
0.29068
0.133184
-0.249493
0.254503
0.134862
-0.177615
0.175937
0.140046
-0.0427929
0.0376095
0.143429
0.098912
-0.102295
0.141754
0.192147
-0.190472
0.137056
0.332767
-0.328069
0.134512
0.280237
-0.277692
0.13407
0.286912
-0.286471
0.132925
0.100251
-0.0991059
-0.129993
0.131807
-0.0416493
-0.0502666
-0.040983
-0.0523789
-0.0395261
-0.0527792
-0.0371125
-0.0511526
-0.0335763
-0.0470015
-0.0287861
-0.0398835
-0.022685
-0.0294754
-0.0152794
-0.015662
-0.00683737
0.00135514
0.00249705
0.0212818
0.012683
0.0429919
0.0222644
0.0661279
0.0312213
0.0876968
0.0387715
0.107477
0.0445178
0.124654
0.0487222
0.138748
0.0525881
0.148658
0.0579331
0.151774
0.0661646
0.144279
0.077268
0.1231
0.0899295
0.0876125
0.102827
0.0393128
0.115037
-0.0176675
0.125842
-0.0756852
0.134299
-0.124642
0.139634
-0.157633
0.14168
-0.174816
0.14125
-0.180736
0.139103
-0.179436
0.134324
-0.176125
0.125822
-0.178319
0.115638
-0.185664
0.108913
-0.18117
0.109577
-0.143055
0.11717
-0.0687781
0.128192
0.0220683
0.139251
0.103768
0.148379
0.161583
0.153985
0.193871
0.154224
0.218716
0.148873
0.247007
0.141052
0.268887
0.135343
0.246409
0.134562
0.16328
0.13839
0.0384941
0.144623
-0.0858604
0.150227
-0.168655
0.151087
-0.221417
0.145752
-0.242084
0.137721
-0.274678
0.132779
-0.244551
0.134637
-0.179473
0.139915
-0.0480705
0.143277
0.0955494
0.14174
0.193684
0.137052
0.337455
0.134564
0.282724
0.134291
0.287185
0.133315
0.101228
-0.128283
-0.039112
-0.0487626
-0.0401192
-0.0513716
-0.0404315
-0.0524668
-0.0398713
-0.0517128
-0.0382022
-0.0486706
-0.0351968
-0.0428889
-0.0306742
-0.033998
-0.0245476
-0.0217885
-0.0167783
-0.00641417
-0.00782871
0.0123322
0.0020005
0.0331627
0.012641
0.0554874
0.0230179
0.0773199
0.0325819
0.0979135
0.0411002
0.116136
0.0489439
0.130904
0.0571318
0.14047
0.0668382
0.142067
0.0785399
0.132578
0.09151
0.11013
0.104389
0.0747335
0.116174
0.0275273
0.126445
-0.0279384
0.13478
-0.08402
0.140541
-0.130402
0.143372
-0.160464
0.143352
-0.174796
0.141261
-0.178645
0.138056
-0.176231
0.133063
-0.171131
0.124631
-0.169888
0.113851
-0.174885
0.105779
-0.173098
0.105278
-0.142554
0.112637
-0.0761371
0.124412
0.0102936
0.136895
0.091285
0.147634
0.150844
0.154551
0.186954
0.155788
0.217479
0.151398
0.251397
0.144519
0.275765
0.139323
0.251605
0.138234
0.164369
0.140987
0.0357417
0.145832
-0.0907055
0.150438
-0.173262
0.150917
-0.221896
0.145466
-0.236633
0.137408
-0.266619
0.132503
-0.239647
0.134498
-0.181468
0.139872
-0.0534448
0.143246
0.0921756
0.141868
0.195062
0.137165
0.342159
0.13471
0.285179
0.134658
0.287236
0.133903
0.101983
-0.126684
-0.026283
-0.0457512
-0.0289486
-0.048706
-0.0310405
-0.050375
-0.0323791
-0.0503742
-0.0327046
-0.048345
-0.0317389
-0.0438547
-0.0292159
-0.036521
-0.0249377
-0.0260667
-0.0188702
-0.0124817
-0.0108459
0.00430794
-0.00183209
0.0241489
0.00905496
0.0446003
0.0204351
0.0659398
0.0318742
0.0864744
0.0430862
0.104924
0.054293
0.119698
0.0660808
0.128682
0.0789502
0.129198
0.0927269
0.118801
0.106379
0.0964774
0.118632
0.0624815
0.128882
0.0172769
0.137089
-0.036145
0.142983
-0.0899139
0.146123
-0.133543
0.146528
-0.160869
0.144608
-0.172876
0.141073
-0.17511
0.136903
-0.172061
0.1318
-0.166029
0.123835
-0.161923
0.112981
-0.16403
0.103715
-0.163832
0.101721
-0.14056
0.108402
-0.0828183
0.120638
-0.00194241
0.134386
0.0775369
0.146652
0.138578
0.154905
0.178701
0.157298
0.215087
0.154063
0.254632
0.148207
0.281622
0.143478
0.256334
0.142003
0.165844
0.143644
0.0341009
0.147059
-0.0941205
0.150628
-0.176831
0.150761
-0.222029
0.145267
-0.231139
0.1372
-0.258552
0.1323
-0.234747
0.134399
-0.183567
0.139891
-0.058937
0.143323
0.088744
0.142133
0.196251
0.1374
0.346892
0.134955
0.287624
0.135172
0.287019
0.134689
0.102467
-0.125206
-0.00373237
-0.04187
-0.00797752
-0.0444609
-0.0117933
-0.0465592
-0.0150112
-0.0471564
-0.0173482
-0.046008
-0.0184783
-0.0427245
-0.0180956
-0.0369037
-0.0159549
-0.0282073
-0.0119431
-0.0164935
-0.00553854
-0.00209661
0.00278775
0.0158226
0.0130857
0.0343024
0.0247584
0.054267
0.0372772
0.0739556
0.0503257
0.0918754
0.0638618
0.106161
0.0779967
0.114547
0.0926704
0.114524
0.107291
0.10418
0.120713
0.0830557
0.131876
0.051319
0.140493
0.00865994
0.14668
-0.0423324
0.150235
-0.0934687
0.150865
-0.134173
0.148956
-0.15896
0.145314
-0.169234
0.140595
-0.170391
0.135609
-0.167076
0.130434
-0.160853
0.123203
-0.154692
0.112828
-0.153656
0.10274
-0.153744
0.0990865
-0.136906
0.104621
-0.0883531
0.116916
-0.014237
0.131693
0.0627596
0.145354
0.124917
0.154959
0.169096
0.15866
0.211386
0.156757
0.256535
0.151978
0.286401
0.147642
0.260669
0.145754
0.167733
0.146286
0.0335685
0.148274
-0.0961086
0.15077
-0.179327
0.150587
-0.221846
0.14512
-0.225672
0.137053
-0.250485
0.132114
-0.229808
0.134289
-0.185742
0.139938
-0.0645864
0.143489
0.0851934
0.142528
0.197212
0.137762
0.351658
0.135303
0.290083
0.135835
0.286488
0.13567
0.102632
-0.12386
0.0280396
-0.036513
0.0225651
-0.0389864
0.0170421
-0.0410361
0.0118013
-0.0419156
0.00714535
-0.0413521
0.00350234
-0.0390815
0.00134927
-0.0347506
0.00123069
-0.0280888
0.00359898
-0.0188618
0.00830503
-0.00680266
0.0155376
0.00859004
0.024502
0.025338
0.035488
0.043281
0.048014
0.0614297
0.0616961
0.0781933
0.0762291
0.0916285
0.0913136
0.0994626
0.106482
0.0993556
0.120914
0.0897477
0.133511
0.0704585
0.143469
0.041361
0.150613
0.00151684
0.154997
-0.0467167
0.156325
-0.0947972
0.154581
-0.132429
0.150552
-0.15493
0.145386
-0.164068
0.139735
-0.16474
0.134115
-0.161456
0.12885
-0.155588
0.122472
-0.148314
0.113087
-0.144271
0.102729
-0.143386
0.0974475
-0.131625
0.101451
-0.0923565
0.113304
-0.0260901
0.128776
0.0472873
0.14364
0.110053
0.154597
0.158139
0.15975
0.206232
0.159331
0.256954
0.155673
0.290059
0.151677
0.264666
0.14936
0.17005
0.14883
0.034098
0.149442
-0.0967204
0.150831
-0.180716
0.150354
-0.221369
0.144987
-0.220304
0.136926
-0.242425
0.131894
-0.224776
0.134111
-0.187959
0.139972
-0.0704468
0.143719
0.0814462
0.143042
0.197889
0.138254
0.356446
0.13576
0.292578
0.136642
0.285606
0.136846
0.102428
-0.122659
0.0642747
-0.0308033
0.0584231
-0.0331348
0.0523327
-0.0349457
0.046172
-0.0357549
0.0402417
-0.0354218
0.0349359
-0.0337758
0.030747
-0.0305617
0.0281716
-0.0255134
0.0276466
-0.0183368
0.0295291
-0.00868522
0.0342158
0.00390333
0.0412614
0.0182924
0.0507521
0.0337903
0.0623156
0.0498662
0.0755141
0.0649948
0.0898404
0.0773021
0.104693
0.0846098
0.119339
0.0847098
0.132859
0.0762279
0.144277
0.0590407
0.152999
0.0326383
0.158916
-0.00440035
0.161706
-0.0495057
0.160996
-0.0940879
0.157103
-0.128536
0.151219
-0.149046
0.144754
-0.157603
0.138405
-0.158391
0.132365
-0.155416
0.126989
-0.150212
0.121409
-0.142735
0.113386
-0.136247
0.103409
-0.133409
0.0968017
-0.125018
0.0989455
-0.0945002
0.109878
-0.0370225
0.12559
0.0315751
0.141407
0.094236
0.153684
0.145863
0.160419
0.199496
0.161638
0.255736
0.159149
0.292548
0.155447
0.268368
0.1527
0.172797
0.151206
0.0355926
0.150524
-0.0960387
0.150782
-0.180974
0.15002
-0.220607
0.144829
-0.215113
0.136788
-0.234383
0.131598
-0.219586
0.133811
-0.190172
0.139944
-0.0765795
0.143983
0.0774068
0.143662
0.19821
0.138877
0.361231
0.136329
0.295126
0.137595
0.28434
0.138212
0.101811
-0.121618
0.099091
-0.0250725
0.0932704
-0.0273142
0.0872294
-0.0289047
0.0809956
-0.0295211
0.0747433
-0.0291695
0.0686989
-0.0277314
0.0632007
-0.0250635
0.0587243
-0.021037
0.0558142
-0.0154267
0.055017
-0.00788805
0.0568668
0.00205353
0.0613768
0.0137825
0.0686371
0.02653
0.0783915
0.0401117
0.0901827
0.0532036
0.103367
0.0641174
0.117144
0.0708333
0.130613
0.0712402
0.142834
0.0640075
0.152977
0.0488979
0.160576
0.0250386
0.16539
-0.00921356
0.166696
-0.0508117
0.164096
-0.0914884
0.158305
-0.122744
0.150885
-0.141627
0.143383
-0.150101
0.136535
-0.151543
0.130288
-0.149168
0.124821
-0.144745
0.119863
-0.137777
0.113349
-0.129734
0.104393
-0.124453
0.0969804
-0.117605
0.0971551
-0.0946749
0.106631
-0.0464981
0.122087
0.0161189
0.13856
0.0777627
0.152096
0.132327
0.160504
0.191088
0.163481
0.252758
0.162231
0.293798
0.158815
0.271783
0.155653
0.175959
0.153343
0.037902
0.151472
-0.0941677
0.150587
-0.180088
0.149536
-0.219557
0.144603
-0.21018
0.136611
-0.226391
0.131197
-0.214173
0.13334
-0.192315
0.139804
-0.0830427
0.144246
0.0729641
0.14437
0.198086
0.13963
0.365971
0.137017
0.297739
0.138697
0.28266
0.139764
0.100745
-0.120754
0.127855
-0.0194836
0.122214
-0.0216725
0.116396
-0.0230873
0.110507
-0.0236315
0.104686
-0.0233484
0.0990092
-0.0220549
0.0935992
-0.0196534
0.0887239
-0.0161617
0.0848001
-0.0115028
0.0823848
-0.00547278
0.0818383
0.00260007
0.0836834
0.0119373
0.0882407
0.0219727
0.0954834
0.032869
0.105067
0.0436201
0.11634
0.0528443
0.128415
0.0587583
0.140299
0.0593561
0.151038
0.053269
0.1599
0.040036
0.166435
0.0185035
0.170101
-0.0128803
0.169879
-0.0505892
0.165483
-0.0870923
0.158056
-0.115318
0.149449
-0.13302
0.141194
-0.141846
0.134015
-0.144364
0.127744
-0.142897
0.122272
-0.139274
0.117731
-0.133236
0.112647
-0.12465
0.10521
-0.117015
0.0976738
-0.110069
0.0960005
-0.0930016
0.103577
-0.0540746
0.11823
0.00146578
0.135015
0.0609779
0.149698
0.117644
0.159857
0.180929
0.16475
0.247865
0.164816
0.293732
0.161691
0.274908
0.158149
0.179501
0.155145
0.0409066
0.152228
-0.0912513
0.150202
-0.178062
0.148844
-0.218198
0.144258
-0.205594
0.136376
-0.218509
0.130677
-0.208474
0.132654
-0.194293
0.139503
-0.0898914
0.144468
0.0679988
0.145144
0.19741
0.140511
0.370605
0.137834
0.300416
0.139948
0.280545
0.141503
0.0991901
-0.12008
0.147622
-0.014334
0.142346
-0.0163959
0.13687
-0.0176114
0.131468
-0.0182298
0.126326
-0.0182064
0.121495
-0.0172243
0.117017
-0.0151752
0.112981
-0.012126
0.109549
-0.00807058
0.106988
-0.00291119
0.105567
0.00402037
0.105965
0.0115394
0.108412
0.0195254
0.11319
0.0280918
0.120202
0.0366073
0.129027
0.0440196
0.1389
0.0488856
0.148849
0.0494066
0.157917
0.0442013
0.165424
0.0325291
0.170793
0.0131347
0.17308
-0.0151671
0.171144
-0.0486532
0.16503
-0.0809786
0.156255
-0.106543
0.146807
-0.123571
0.13808
-0.133119
0.130717
-0.137
0.124558
-0.136738
0.119223
-0.133939
0.114948
-0.12896
0.111045
-0.120747
0.105396
-0.111366
0.0984656
-0.103139
0.0953375
-0.0898735
0.100723
-0.0594599
0.114016
-0.0118277
0.130716
0.0442786
0.14639
0.10197
0.158288
0.169031
0.165161
0.240992
0.166668
0.292226
0.163951
0.277625
0.160115
0.183336
0.156574
0.0444483
0.152756
-0.0874334
0.14961
-0.174916
0.147905
-0.216493
0.143744
-0.201434
0.136072
-0.210837
0.13005
-0.202452
0.13173
-0.195973
0.138985
-0.0971471
0.144609
0.0623757
0.145959
0.196059
0.141513
0.375051
0.138785
0.303143
0.141352
0.277978
0.143422
0.0971197
-0.119611
0.157184
-0.00999144
0.15248
-0.0116918
0.147554
-0.0126857
0.142836
-0.0135113
0.13848
-0.0138502
0.134561
-0.0133061
0.131165
-0.0117788
0.128349
-0.00930952
0.12619
-0.00591175
0.124975
-0.0016967
0.124419
0.00457642
0.124705
0.0112532
0.126317
0.0179134
0.129626
0.024783
0.134692
0.031542
0.141289
0.0374219
0.148893
0.0412823
0.15673
0.0415696
0.163955
0.0369761
0.169875
0.0266085
0.173524
0.00948569
0.174274
-0.0159167
0.170577
-0.044956
0.163001
-0.073403
0.153296
-0.0968376
0.143399
-0.113675
0.134488
-0.124208
0.127055
-0.129568
0.121037
-0.130719
0.115923
-0.128825
0.111795
-0.124833
0.108673
-0.117625
0.104762
-0.107455
0.099037
-0.0974139
0.0950424
-0.0858789
0.0981173
-0.0625347
0.109501
-0.0232109
0.125614
0.0281648
0.142081
0.0855031
0.15581
0.155302
0.164873
0.231929
0.167906
0.289192
0.165564
0.279967
0.161601
0.187299
0.15765
0.0483994
0.153112
-0.0828953
0.148894
-0.170698
0.146774
-0.214373
0.143068
-0.197728
0.13572
-0.203488
0.129359
-0.196091
0.130588
-0.197201
0.138208
-0.104767
0.144613
0.0559703
0.146778
0.193894
0.142623
0.379206
0.139877
0.30589
0.142911
0.274944
0.145518
0.0945129
-0.119359
0.158296
-0.00682629
0.154387
-0.00778251
0.150455
-0.00875304
0.146663
-0.00971929
0.14309
-0.010278
0.139922
-0.0101375
0.137335
-0.0091923
0.135427
-0.00740172
0.134204
-0.00468818
0.13357
-0.00106291
0.134096
0.00405016
0.135653
0.00969699
0.138008
0.0155582
0.14124
0.021551
0.145513
0.0272687
0.150809
0.0321261
0.156816
0.0352753
0.162924
0.0354618
0.168413
0.0314869
0.172585
0.0224363
0.174897
0.00717326
0.173332
-0.0143511
0.167979
-0.0396029
0.159458
-0.0648828
0.149523
-0.0869018
0.139762
-0.103914
0.13105
-0.115496
0.123712
-0.12223
0.11781
-0.124816
0.112907
-0.123922
0.108835
-0.120762
0.106041
-0.114831
0.103499
-0.104913
0.0992893
-0.0932039
0.0950751
-0.0816648
0.0960417
-0.0635013
0.104992
-0.0321616
0.119922
0.0132351
0.136564
0.068861
0.151727
0.140139
0.163043
0.220613
0.167916
0.284319
0.166291
0.281593
0.162397
0.191193
0.158378
0.052418
0.153222
-0.0777394
0.148091
-0.165566
0.145533
-0.211815
0.142254
-0.19445
0.135331
-0.196565
0.128625
-0.189385
0.129321
-0.197898
0.137205
-0.112651
0.144475
0.0487002
0.147583
0.190787
0.143844
0.382945
0.141116
0.308617
0.144628
0.271432
0.147796
0.0913455
-0.119332
0.188277
-0.00340561
-0.191697
0.185394
-0.00489944
0.182491
-0.00585069
0.179383
-0.00661119
0.176114
-0.00700847
0.172803
-0.00682731
0.169553
-0.00594205
0.166429
-0.00427774
0.163505
-0.00176423
0.160909
0.00153323
0.159064
0.0058956
0.157915
0.0108453
0.157479
0.0159944
0.157964
0.0210664
0.159598
0.0256346
0.1626
0.0291241
0.167105
0.0307704
0.173002
0.0295646
0.179921
0.024568
0.187262
0.0150953
0.193868
0.00056747
0.198399
-0.0188821
0.199633
-0.0408372
0.19738
-0.0626293
0.192282
-0.0818045
0.185307
-0.0969384
0.177337
-0.107526
0.169017
-0.11391
0.160898
-0.116698
0.153114
-0.116139
0.145502
-0.113149
0.138518
-0.107847
0.132132
-0.098527
0.124622
-0.0856936
0.115709
-0.0727521
0.109095
-0.0568866
0.108754
-0.0318206
0.114065
0.00792382
0.121153
0.0617733
0.127013
0.134279
0.13133
0.216295
0.135459
0.280191
0.142144
0.274907
0.152201
0.181136
0.161004
0.0436152
0.164321
-0.0810568
0.162146
-0.163392
0.157995
-0.207664
0.152068
-0.188523
0.14324
-0.187736
0.13421
-0.180355
0.130448
-0.194135
0.131586
-0.113789
0.133111
0.0471753
0.132095
0.191802
0.128556
0.386485
0.12784
0.309333
0.132913
0.266358
0.136953
0.0873064
-0.118193
0.198594
-0.000985218
-0.201014
0.196127
-0.0024321
0.193693
-0.0034166
0.191117
-0.00403571
0.188425
-0.00431612
0.185729
-0.0041319
0.183139
-0.00335183
0.180769
-0.00190779
0.178717
0.000287502
0.177063
0.00318722
0.176088
0.00687099
0.175867
0.0110664
0.176447
0.0154144
0.177915
0.019598
0.180367
0.0231831
0.18388
0.0256111
0.188456
0.026194
0.193903
0.0241175
0.199802
0.0186694
0.205519
0.00937787
0.210206
-0.00411916
0.212609
-0.0212849
0.212107
-0.0403355
0.20867
-0.0591917
0.202819
-0.0759542
0.195365
-0.0894843
0.187132
-0.0992927
0.178686
-0.105465
0.170474
-0.108485
0.162698
-0.108363
0.155109
-0.105561
0.147939
-0.100677
0.141628
-0.0922162
0.134884
-0.0789488
0.126467
-0.0643358
0.118942
-0.049361
0.11673
-0.0296095
0.120814
0.00383975
0.127813
0.054775
0.13445
0.127642
0.139989
0.210757
0.145664
0.274516
0.15403
0.266541
0.165211
0.169955
0.174629
0.0341972
0.177544
-0.0839722
0.174286
-0.160134
0.169022
-0.202399
0.162446
-0.181947
0.153216
-0.178506
0.143435
-0.170574
0.13893
-0.189631
0.139974
-0.114833
0.141791
0.0453582
0.14118
0.192413
0.137803