/*--------------------------------*- C++ -*----------------------------------*\
| =========                 |                                                 |
| \\      /  F ield         | OpenFOAM: The Open Source CFD Toolbox           |
|  \\    /   O peration     | Version:  2512                                  |
|   \\  /    A nd           | Website:  www.openfoam.com                      |
|    \\/     M anipulation  |                                                 |
\*---------------------------------------------------------------------------*/
FoamFile
{
    version     2.0;
    format      ascii;
    arch        "LSB;label=32;scalar=64";
    class       surfaceScalarField;
    location    "168.75";
    object      phi;
}
// * * * * * * * * * * * * * * * * * * * * * * * * * * * * * * * * * * * * * //

dimensions      [0 3 -1 0 0 0 0];

oriented        oriented;

internalField   nonuniform List<scalar> 
26232
(
-2.39599e-05
0.00109283
-0.00106887
0.000221351
0.00207964
-0.00232495
0.000985407
0.00205376
-0.00281782
0.00248735
0.00105865
-0.00256059
0.00493225
-0.000901724
-0.00154318
0.00851303
-0.00384109
0.000260312
0.0134039
-0.00777242
0.00288158
0.0197421
-0.0126895
0.00635128
0.0276064
-0.0185494
0.010685
0.0369933
-0.0252611
0.0158742
0.0477982
-0.0326821
0.0218773
0.0598075
-0.0406235
0.0286142
0.0727052
-0.0488633
0.0359656
0.0860935
-0.0571648
0.0437765
0.0995257
-0.0652972
0.051865
0.112548
-0.0730561
0.0600334
0.124747
-0.0802808
0.0680819
0.135789
-0.0868685
0.0758269
0.14546
-0.0927778
0.083107
0.153667
-0.0980407
0.0898334
0.160466
-0.102695
0.0958959
0.165914
-0.106962
0.101515
0.169978
-0.110463
0.106398
-0.114509
0.111869
0.172618
4.79881e-05
0.00104484
0.000507315
0.00162031
0.00165167
0.000909407
0.00372853
-0.00101821
0.00696593
-0.00413912
0.011562
-0.00843721
0.0176637
-0.013874
0.0253377
-0.0203635
0.0345442
-0.0277559
0.0451195
-0.0358364
0.0567762
-0.0443389
0.0691237
-0.052971
0.0817058
-0.0614454
0.0940504
-0.0695094
0.105723
-0.0769696
0.116375
-0.0837078
0.125779
-0.0896856
0.13385
-0.0949395
0.140637
-0.0995641
0.146284
-0.103688
0.151034
-0.107445
0.155046
-0.110975
0.158825
-0.114241
-0.11786
0.162176
0.000147345
0.000897491
0.000896223
0.000871432
0.00253343
-0.000727797
0.00532022
-0.003805
0.00948206
-0.00830096
0.0151817
-0.0141368
0.0224835
-0.0211759
0.0313217
-0.0292016
0.0414831
-0.0379173
0.0526166
-0.0469699
0.0642691
-0.0559913
0.075942
-0.0646439
0.0871569
-0.0726603
0.0975166
-0.0798692
0.106751
-0.0862041
0.11474
-0.0916962
0.121506
-0.096452
0.12719
-0.100623
0.132
-0.104374
0.136167
-0.107856
0.139897
-0.111175
0.143356
-0.114434
0.146678
-0.117563
-0.120992
0.14981
0.00026654
0.000630951
0.00135904
-0.00022107
0.00356659
-0.00293534
0.00714177
-0.00738019
0.0122704
-0.0134296
0.0190278
-0.0208942
0.0273373
-0.0294855
0.0369516
-0.0388159
0.0474685
-0.0484342
0.0583837
-0.0578851
0.0691669
-0.0667744
0.0793421
-0.0748192
0.0885538
-0.081872
0.0966042
-0.0879196
0.103458
-0.0930576
0.109214
-0.0974523
0.11406
-0.101298
0.118218
-0.104781
0.121898
-0.108054
0.125269
-0.111226
0.128459
-0.114365
0.131539
-0.117515
0.134619
-0.120643
-0.124024
0.137651
0.000400082
0.00023087
0.00187285
-0.00169384
0.00469346
-0.00575595
0.00907478
-0.0117615
0.0151161
-0.0194709
0.0227495
-0.0285276
0.0317118
-0.0384478
0.0415634
-0.0486676
0.0517559
-0.0586266
0.0617282
-0.0678574
0.0710032
-0.0760495
0.0792563
-0.0830722
0.0863435
-0.0889593
0.0922883
-0.0938644
0.0972363
-0.0980056
0.101397
-0.101613
0.104988
-0.104889
0.108199
-0.107992
0.111172
-0.111028
0.114007
-0.114061
0.116768
-0.117126
0.119494
-0.120241
0.122236
-0.123386
-0.126708
0.12492
0.000545662
-0.000314792
0.0024207
-0.00356888
0.00586175
-0.009197
0.0110017
-0.0169014
0.0178016
-0.0262708
0.0260054
-0.0367314
0.0351526
-0.0475949
0.0446555
-0.0581705
0.0539171
-0.0678882
0.0624449
-0.0763852
0.069926
-0.0835305
0.0762476
-0.0893938
0.0814688
-0.0941805
0.0857615
-0.0981571
0.089345
-0.101589
0.0924319
-0.1047
0.0951967
-0.107654
0.0977659
-0.110561
0.100223
-0.113485
0.102621
-0.116459
0.104993
-0.119498
0.107359
-0.122606
0.109746
-0.125774
-0.129076
0.112114
0.00070128
-0.00101607
0.00298423
-0.00585183
0.00701302
-0.0132258
0.0127941
-0.0226826
0.0201055
-0.0335822
0.0284878
-0.0451138
0.037322
-0.0564291
0.0459658
-0.0668142
0.0538907
-0.0758131
0.0607699
-0.0832644
0.0664965
-0.0892571
0.0711446
-0.094042
0.0748997
-0.0979355
0.0779862
-0.101244
0.0806138
-0.104217
0.0829493
-0.107035
0.0851099
-0.109815
0.0871707
-0.112622
0.0891772
-0.115492
0.0911562
-0.118438
0.0931244
-0.121466
0.0950925
-0.124574
0.097076
-0.127757
-0.131041
0.0990413
0.000862657
-0.00187873
0.00353778
-0.00852696
0.0080762
-0.0177642
0.0143139
-0.0289203
0.021823
-0.0410913
0.0299685
-0.0532593
0.0380561
-0.0645168
0.0454977
-0.0742558
0.0519216
-0.0822371
0.0571993
-0.0885421
0.0614004
-0.0934581
0.0647136
-0.0973552
0.0673676
-0.10059
0.0695737
-0.10345
0.071497
-0.10614
0.0732516
-0.10879
0.0749089
-0.111472
0.0765109
-0.114224
0.0780813
-0.117062
0.079635
-0.119992
0.0811817
-0.123013
0.0827294
-0.126122
0.0842872
-0.129315
-0.132592
0.0858378
0.00102226
-0.00290099
0.00404762
-0.0115523
0.00897189
-0.0226885
0.0154303
-0.0353787
0.0228008
-0.0484617
0.0303404
-0.0607988
0.0373791
-0.0715555
0.043467
-0.0803437
0.0484218
-0.0871918
0.0522865
-0.0924068
0.0552433
-0.0964149
0.0575236
-0.0996356
0.0593444
-0.10241
0.0608752
-0.10498
0.0622321
-0.107497
0.0634869
-0.110044
0.0646805
-0.112666
0.0658358
-0.115379
0.066966
-0.118192
0.0680801
-0.121106
0.0691847
-0.124117
0.0702854
-0.127222
0.0713872
-0.130417
-0.133686
0.072482
0.00116993
-0.00407092
0.00447584
-0.0148582
0.00962445
-0.0278371
0.0160443
-0.0417986
0.0229657
-0.0553831
0.0296254
-0.0674585
0.0354612
-0.0773912
0.0401994
-0.085082
0.043829
-0.0908215
0.0465106
-0.0950884
0.0484752
-0.0983795
0.0499481
-0.101109
0.0511086
-0.103571
0.0520801
-0.105952
0.0529384
-0.108355
0.0537262
-0.110832
0.0544666
-0.113406
0.0551725
-0.116085
0.0558522
-0.118872
0.0565118
-0.121766
0.0571563
-0.124762
0.0577903
-0.127856
0.058417
-0.131043
-0.134306
0.0590361
0.00129488
-0.0053658
0.00478765
-0.018351
0.00997644
-0.0330259
0.0161055
-0.0479276
0.0223287
-0.0616063
0.0279451
-0.073075
0.0325484
-0.0819945
0.036036
-0.0885697
0.0385244
-0.0933098
0.040235
-0.0967989
0.041402
-0.0995465
0.0422192
-0.101926
0.0428222
-0.104174
0.0432952
-0.106425
0.0436851
-0.108745
0.0440169
-0.111164
0.0443038
-0.113693
0.044554
-0.116335
0.0447734
-0.119092
0.0449665
-0.121959
0.0451372
-0.124933
0.0452887
-0.128008
0.0454218
-0.131176
-0.134423
0.0455396
0.00139033
-0.00675613
0.00496014
-0.0219208
0.00999936
-0.0380651
0.0156174
-0.0535456
0.0209706
-0.0669595
0.0254802
-0.0775847
0.0289061
-0.0854203
0.0312849
-0.0909485
0.0328104
-0.0948354
0.0337211
-0.0977096
0.0342275
-0.100053
0.0344833
-0.102181
0.0345855
-0.104276
0.0345888
-0.106428
0.0345217
-0.108678
0.0343986
-0.111041
0.0342278
-0.113522
0.0340148
-0.116123
0.0337643
-0.118841
0.0334804
-0.121675
0.0331667
-0.124619
0.0328258
-0.127667
0.0324579
-0.130809
0.0320678
-0.134033
-0.000173375
0.00175955
-0.00158617
-0.000630721
0.00487211
-0.00441476
-0.00134124
0.00767892
-0.00696839
-0.0022774
0.0101482
-0.00921209
-0.00340754
0.0122802
-0.0111501
-0.0046944
0.0141174
-0.0128305
-0.00609665
0.0157304
-0.0143281
-0.0075713
0.017197
-0.0157223
-0.009076
0.0185855
-0.0170808
-0.0105701
0.0199429
-0.0184488
-0.0120143
0.0212904
-0.0198462
-0.0133694
0.0226233
-0.0212682
-0.0145938
0.0239138
-0.0226893
-0.0156422
0.0251151
-0.0240667
-0.0164639
0.0261642
-0.0253425
-0.0170024
0.0269841
-0.0264456
-0.0171959
0.0274859
-0.0272924
-0.0169787
0.0275704
-0.0277876
-0.0162838
0.0271317
-0.0278266
-0.0150455
0.0260613
-0.0272997
-0.0131974
0.0242505
-0.0260986
-0.0106816
0.0216056
-0.0241214
-0.00746048
0.0180571
-0.0212782
0.0136341
-0.00354869
-0.0175459
-6.637e-05
0.00182592
-0.000271818
0.00507756
-0.00062495
0.00803205
-0.00112509
0.0106484
-0.00175868
0.0129138
-0.00249761
0.0148563
-0.00330274
0.0165355
-0.00412619
0.0180204
-0.00491589
0.0193752
-0.00561862
0.0206457
-0.00618138
0.0218532
-0.00655226
0.0229942
-0.00667891
0.0240404
-0.00650796
0.0249442
-0.0059846
0.0256408
-0.00505291
0.0260524
-0.00365717
0.0260902
-0.00174386
0.0256571
0.000737497
0.0246504
0.00383408
0.0229648
0.00758292
0.0205016
0.0120192
0.0171693
0.0171734
0.0129029
0.00770104
0.0231064
3.3996e-05
0.00179192
7.37305e-05
0.00503782
8.11864e-05
0.00802459
3.6472e-05
0.0106931
-6.18615e-05
0.0130121
-0.000197087
0.0149916
-0.000332542
0.016671
-0.000418744
0.0181066
-0.000397173
0.0193536
-0.000204886
0.0204534
0.000221687
0.0214266
0.000946338
0.0222695
0.00203032
0.0229565
0.00353268
0.0234418
0.00550979
0.0236637
0.00801442
0.0235478
0.0110943
0.0230102
0.0147904
0.021961
0.0191346
0.0203063
0.0241477
0.0179516
0.0298444
0.014805
0.0362375
0.0107762
0.0433193
0.00582115
-0.000233309
0.0512536
0.000114664
0.00167726
0.00036361
0.00478888
0.000693911
0.00769429
0.0010747
0.0103123
0.00149452
0.0125923
0.00196337
0.0145227
0.00251067
0.0161237
0.00318361
0.0174337
0.00404199
0.0184952
0.00515313
0.0193422
0.00658741
0.0199923
0.00841403
0.0204429
0.0106993
0.0206712
0.0135049
0.0206363
0.0168861
0.0202824
0.0208916
0.0195424
0.0255614
0.0183404
0.0309266
0.0165958
0.0370085
0.0142243
0.0438195
0.0111406
0.0513613
0.00726325
0.0596343
0.00250316
0.0686071
-0.00315166
-0.0101382
0.078512
0.00016647
0.00151079
0.000564672
0.00439067
0.00114375
0.00711521
0.00187367
0.00958239
0.00274084
0.0117251
0.00375007
0.0135135
0.00492533
0.0149484
0.00630831
0.0160507
0.00795479
0.0168487
0.00992991
0.0173671
0.0123032
0.017619
0.0151444
0.0176017
0.0185198
0.0172957
0.0224904
0.0166657
0.0271099
0.0156629
0.0324245
0.0142278
0.0384729
0.0122921
0.045286
0.00978264
0.0528921
0.00661823
0.0613044
0.00272833
0.070554
-0.00198635
0.0807065
-0.00764934
0.0916212
-0.0140664
-0.0222557
0.103739
0.000184419
0.00132637
0.000657011
0.00391808
0.00138505
0.00638717
0.00235074
0.0086167
0.00354646
0.0105294
0.00497738
0.0120826
0.00666378
0.013262
0.00864121
0.0140733
0.0109585
0.0145314
0.0136743
0.0146513
0.0168529
0.0144404
0.0205604
0.0138943
0.0248614
0.0129947
0.0298173
0.0117098
0.0354848
0.00999533
0.0419163
0.0077963
0.0491669
0.00504144
0.0572741
0.00167543
0.0663065
-0.00241417
0.0763172
-0.0072823
0.0873276
-0.0129968
0.0994245
-0.0197462
0.112438
-0.0270801
-0.0366351
0.126818
0.000168423
0.00115794
0.000637731
0.00344877
0.00140648
0.00561843
0.00247837
0.0075448
0.00385911
0.00914866
0.00556011
0.0103816
0.00760222
0.0112199
0.0100177
0.0116578
0.0128501
0.011699
0.0161529
0.0113485
0.0199869
0.0106064
0.0244181
0.00946305
0.0295157
0.00789706
0.035352
0.00587362
0.0420016
0.00334567
0.0495225
0.00027542
0.0580254
-0.00346148
0.0675806
-0.00787969
0.0782452
-0.0130788
0.0900843
-0.0191214
0.10312
-0.0260326
0.11734
-0.0339663
0.132548
-0.0422877
-0.0529195
0.148832
0.000123841
0.0010341
0.000523661
0.00304895
0.00123846
0.00490363
0.00229982
0.00648344
0.00373281
0.00771568
0.00556141
0.00855296
0.00781393
0.00896738
0.0105269
0.00894491
0.0137471
0.00847883
0.0175324
0.00756313
0.0219518
0.00618706
0.0270838
0.00433099
0.0330158
0.00196507
0.0398428
-0.000953376
0.0476646
-0.00447612
0.0565986
-0.0086586
0.0667044
-0.0135673
0.0780726
-0.0192478
0.0907342
-0.0257404
0.104661
-0.0330481
0.119773
-0.041145
0.135818
-0.0500111
0.15261
-0.0590799
-0.0698446
0.169535
6.19388e-05
0.000972165
0.000352681
0.00275821
0.000956564
0.00429975
0.00193721
0.0055028
0.00334463
0.00630825
0.00522333
0.00667426
0.00761953
0.00657117
0.010587
0.00597744
0.014191
0.00487483
0.0185103
0.00324381
0.0236372
0.00106016
0.0296762
-0.00170796
0.036739
-0.00509774
0.0449367
-0.00915114
0.0543697
-0.0139091
0.0651155
-0.0194045
0.0772035
-0.0256553
0.0906087
-0.032653
0.105225
-0.0403572
0.120849
-0.0486717
0.137195
-0.0574907
0.153773
-0.0665891
0.170377
-0.0756839
-0.0852715
0.185804
-2.38891e-07
0.000972404
0.000181121
0.00257685
0.00067539
0.00380548
0.00158129
0.0045969
0.00298031
0.00490923
0.00494749
0.00470708
0.0075601
0.00395856
0.0109041
0.00263345
0.0150774
0.000701492
0.0201899
-0.00186867
0.0263591
-0.00510902
0.0337011
-0.00904994
0.0423189
-0.0137155
0.0522855
-0.0191178
0.0636265
-0.0252501
0.0763023
-0.0320802
0.0901916
-0.0395446
0.105084
-0.0475457
0.120673
-0.0559462
0.136579
-0.0645775
0.152332
-0.0732436
0.167426
-0.0816828
0.181525
-0.0897833
-0.0972775
0.193531
-4.40018e-05
0.00101641
7.30241e-05
0.00245982
0.000525709
0.00335279
0.00145098
0.00367163
0.00296867
0.00339153
0.00519369
0.00248207
0.00824374
0.000908507
0.0122431
-0.00136589
0.0173203
-0.00437575
0.0236007
-0.00814907
0.0311931
-0.0127013
0.0401721
-0.018029
0.05056
-0.0241034
0.0623079
-0.0308657
0.0752823
-0.0382244
0.0892578
-0.0460557
0.103919
-0.054206
0.118876
-0.0625021
0.13368
-0.0707502
0.147887
-0.0787849
0.16104
-0.0863969
0.172898
-0.0935404
0.183104
-0.0999894
-0.105567
0.191394
-5.24595e-05
8.24176e-05
0.000617392
0.00172843
0.00357678
0.00631917
0.0101093
0.0150946
0.0214039
0.029129
0.0383049
0.0488901
0.0607523
0.0736631
0.0873037
0.101281
0.115157
0.128482
0.140839
0.151887
0.161386
0.169361
0.17577
0.182072
0.00199294
0.0109503
-0.016492
0.00783531
-0.00044201
-0.00540035
0.0141925
-0.0143764
0.00801916
0.0208705
-0.0304817
0.0238037
0.027693
-0.0481761
0.0413537
0.0344884
-0.0666555
0.0598601
0.0409292
-0.0848153
0.0783746
0.0465893
-0.101348
0.095688
0.0509592
-0.115129
0.110759
0.0534377
-0.125591
0.123113
0.0535779
-0.133053
0.132913
0.0516487
-0.138489
0.140418
0.0491128
-0.142437
0.144973
0.0483983
-0.143373
0.144088
0.0517428
-0.137235
0.13389
0.0598366
-0.119352
0.111258
0.071661
-0.0874956
0.0756712
0.0855805
-0.0433683
0.0294487
0.100061
0.0082746
-0.0227555
0.113864
0.0606531
-0.0744552
0.125658
0.105901
-0.117696
0.134362
0.138889
-0.147593
0.139699
0.159019
-0.164356
0.142247
0.168675
-0.171222
0.142417
0.172166
-0.172336
0.139755
0.176164
-0.173503
0.134112
0.186164
-0.180521
0.12734
0.197147
-0.190375
0.122935
0.191683
-0.187278
0.123408
0.151872
-0.152345
0.128848
0.0770327
-0.0824726
0.13725
-0.0139437
0.00554126
0.145865
-0.096786
0.0881715
0.15262
-0.155502
0.148746
0.156858
-0.188343
0.184105
0.158282
-0.200417
0.198993
0.155826
-0.207884
0.21034
0.14908
-0.218195
0.224941
0.140316
-0.228597
0.23736
0.133675
-0.209733
0.216375
0.132347
-0.148778
0.150105
0.136461
-0.0510116
0.0468984
0.143812
0.0544049
-0.0617561
0.151132
0.134286
-0.141606
0.154494
0.197179
-0.200541
0.151757
0.2316
-0.228863
0.144893
0.27178
-0.264916
0.138582
0.257042
-0.250732
0.137486
0.19978
-0.198683
0.141755
0.0846373
-0.0889056
0.147542
-0.0483479
0.0425603
0.149613
-0.125319
0.123248
0.146944
-0.24392
0.246589
0.143307
-0.255696
0.259333
0.142254
-0.294308
0.29536
0.143133
-0.203807
0.202928
0.143646
-0.0393836
0.0388699
0.142856
0.0374047
-0.0366141
0.140886
0.308132
-0.306162
0.241022
-0.2393
0.0283732
0.00568352
0.0337838
-0.00585257
0.0392869
-0.0198795
0.044787
-0.0359817
0.0501663
-0.0535554
0.0552963
-0.0717856
0.0599639
-0.089483
0.0638587
-0.105243
0.0665606
-0.117831
0.0675212
-0.126552
0.0660749
-0.131607
0.0618692
-0.134283
0.0556449
-0.136212
0.0497257
-0.137454
0.0473005
-0.13481
0.0506493
-0.122701
0.0598417
-0.096688
0.0732481
-0.0567747
0.0888531
-0.00733041
0.104678
0.0448279
0.118958
0.0916214
0.130245
0.127601
0.138037
0.151227
0.142678
0.164034
0.144398
0.170445
0.142932
0.17763
0.138615
0.190481
0.133484
0.202278
0.130459
0.194709
0.131288
0.151043
0.135925
0.0723956
0.142727
-0.0207456
0.149457
-0.103516
0.154289
-0.160333
0.156767
-0.19082
0.156894
-0.200544
0.153684
-0.204675
0.146422
-0.210933
0.137107
-0.219281
0.130072
-0.202699
0.128905
-0.147611
0.13393
-0.0560359
0.142567
0.0457672
0.151053
0.1258
0.15517
0.193062
0.15299
0.233779
0.146579
0.278192
0.140372
0.263249
0.138969
0.201182
0.142653
0.0809536
0.148142
-0.0538368
0.150042
-0.127219
0.14715
-0.241029
0.143356
-0.251902
0.142163
-0.293115
0.14295
-0.204593
0.143226
-0.0396602
0.142369
0.0382618
0.140429
0.310072
0.24274
0.055819
0.00111814
0.0605833
-0.0106169
0.0651817
-0.0244779
0.0694912
-0.0402912
0.0734138
-0.0574781
0.0768596
-0.0752314
0.0796624
-0.0922857
0.0815779
-0.107158
0.0823247
-0.118578
0.0815995
-0.125826
0.0789682
-0.128976
0.0737813
-0.129096
0.0657794
-0.128211
0.0562842
-0.127959
0.0485469
-0.127072
0.0462551
-0.120409
0.051267
-0.1017
0.0627325
-0.0682402
0.07841
-0.0230079
0.0956423
0.0275956
0.112039
0.0752248
0.125792
0.113849
0.136082
0.140936
0.142918
0.157198
0.146363
0.167001
0.146401
0.177592
0.143758
0.193124
0.140408
0.205627
0.138639
0.196478
0.139573
0.150109
0.14309
0.068878
0.148065
-0.0257203
0.152784
-0.108235
0.155699
-0.163249
0.156484
-0.191604
0.155408
-0.199469
0.151629
-0.200896
0.144119
-0.203423
0.134445
-0.209608
0.127019
-0.195273
0.125864
-0.146456
0.131582
-0.0617538
0.141334
0.0360147
0.15092
0.116215
0.155862
0.188119
0.154396
0.235246
0.148573
0.284015
0.142515
0.269307
0.14074
0.202957
0.143722
0.0779716
0.148832
-0.0589476
0.15058
-0.128967
0.147455
-0.237903
0.143447
-0.247894
0.142103
-0.291771
0.14286
-0.20535
0.142951
-0.0397511
0.142036
0.0391766
0.140126
0.311982
0.244438
0.0828677
-0.00323755
0.0869531
-0.0147024
0.0907767
-0.0283015
0.0940468
-0.0435612
0.0966474
-0.0600787
0.0984848
-0.0770688
0.0993852
-0.0931861
0.0991629
-0.106936
0.0977019
-0.117117
0.0949874
-0.123112
0.0909948
-0.124983
0.0853528
-0.123454
0.0772666
-0.120124
0.0665772
-0.117269
0.0553096
-0.115805
0.0475687
-0.112668
0.0471433
-0.101275
0.055023
-0.0761198
0.0692909
-0.0372759
0.0870082
0.00987833
0.104951
0.0572817
0.120922
0.0978784
0.133659
0.128199
0.142744
0.148114
0.148086
0.161659
0.149902
0.175775
0.14919
0.193837
0.147713
0.207105
0.14707
0.197121
0.14791
0.149269
0.150085
0.0667031
0.153127
-0.028762
0.155795
-0.110904
0.156849
-0.164303
0.156028
-0.190784
0.15382
-0.197261
0.149597
-0.196673
0.142084
-0.19591
0.132297
-0.199821
0.124521
-0.187497
0.12319
-0.145125
0.129382
-0.0679462
0.140055
0.0253415
0.150681
0.105589
0.156533
0.182268
0.155944
0.235835
0.150847
0.289111
0.144998
0.275156
0.142799
0.205157
0.144958
0.0758126
0.149598
-0.0635878
0.151205
-0.130574
0.147844
-0.234542
0.143569
-0.24362
0.142055
-0.290257
0.142844
-0.20614
0.14281
-0.0397167
0.141847
0.0401397
0.139974
0.313855
0.246098
0.107956
-0.00745465
0.111742
-0.0184889
0.114959
-0.0315184
0.117297
-0.0458991
0.118618
-0.0614
0.118805
-0.0772553
0.11772
-0.0921007
0.115311
-0.104528
0.111657
-0.113462
0.106935
-0.11839
0.101391
-0.119439
0.0951262
-0.117189
0.0876059
-0.112604
0.0777881
-0.107452
0.0657647
-0.103781
0.0543901
-0.101293
0.0483805
-0.0952649
0.0510939
-0.0788332
0.0622254
-0.0484074
0.0791506
-0.00704685
0.09783
0.0386024
0.11557
0.0801385
0.130524
0.113245
0.141803
0.136835
0.149151
0.15431
0.152969
0.171957
0.154391
0.192415
0.15485
0.206645
0.155276
0.196695
0.155849
0.148696
0.156696
0.0658564
0.157778
-0.0298439
0.158418
-0.111544
0.157677
-0.163562
0.155366
-0.188473
0.152111
-0.194006
0.147546
-0.192107
0.140241
-0.188606
0.130594
-0.190173
0.122561
-0.179464
0.1209
-0.143463
0.127274
-0.0743207
0.138665
0.0139503
0.150266
0.0939883
0.157118
0.175416
0.157574
0.235379
0.153345
0.29334
0.147773
0.280728
0.145119
0.207812
0.146352
0.0745796
0.150418
-0.0676535
0.151889
-0.132045
0.148303
-0.230956
0.143714
-0.239031
0.142
-0.288543
0.142881
-0.207021
0.142789
-0.0396243
0.14179
0.0411381
0.13997
0.315675
0.247695
0.130813
-0.0114496
0.134291
-0.0219677
0.136871
-0.0340984
0.138193
-0.0472209
0.13813
-0.061337
0.13657
-0.0756949
0.133444
-0.0889751
0.12887
-0.0999531
0.123144
-0.107737
0.116646
-0.111892
0.109744
-0.112538
0.102748
-0.110193
0.0956208
-0.105476
0.0874633
-0.0992941
0.0770639
-0.093382
0.0650111
-0.0892406
0.0550018
-0.0852556
0.0519389
-0.0757704
0.0582725
-0.054741
0.0724331
-0.0212075
0.0908211
0.0202144
0.10965
0.0613091
0.12642
0.0964751
0.139726
0.123528
0.149116
0.144921
0.155071
0.166002
0.15875
0.188736
0.161194
0.204201
0.162705
0.195184
0.163077
0.148324
0.162619
0.0663135
0.161874
-0.0290988
0.160563
-0.110232
0.158123
-0.161122
0.15446
-0.18481
0.150251
-0.189796
0.145409
-0.187265
0.138478
-0.181675
0.129221
-0.180917
0.121077
-0.171319
0.118957
-0.141344
0.125216
-0.0805792
0.137088
0.0020784
0.14959
0.081486
0.157536
0.16747
0.159197
0.233718
0.155979
0.296557
0.150763
0.285944
0.147655
0.210919
0.14788
0.0743554
0.151268
-0.0710418
0.152599
-0.133376
0.148814
-0.227171
0.143877
-0.234093
0.141924
-0.286591
0.14295
-0.208046
0.142872
-0.0395462
0.141855
0.0421547
0.140111
0.317419
0.249197
0.152132
-0.0147499
0.15478
-0.0246149
0.156222
-0.0355409
0.156099
-0.0470973
0.154331
-0.0595692
0.150835
-0.0721992
0.145641
-0.0837805
0.139024
-0.0933367
0.131455
-0.100168
0.123476
-0.103913
0.115563
-0.104624
0.108042
-0.102673
0.101079
-0.0985138
0.094323
-0.0925377
0.0865098
-0.0855688
0.0764888
-0.0792195
0.0655206
-0.0742873
0.057932
-0.0681818
0.0583355
-0.0551445
0.067905
-0.030777
0.0842396
0.0038798
0.10309
0.0424588
0.121096
0.0784694
0.136178
0.108446
0.147576
0.133523
0.155737
0.157841
0.161724
0.182749
0.166166
0.199758
0.168769
0.192581
0.169085
0.148009
0.167637
0.0677621
0.165273
-0.0267348
0.16214
-0.1071
0.15812
-0.157102
0.153262
-0.179952
0.148206
-0.18474
0.143128
-0.182187
0.136674
-0.175222
0.128031
-0.172273
0.119956
-0.163244
0.117304
-0.138692
0.123167
-0.0864421
0.135247
-0.010002
0.14856
0.0681735
0.157683
0.158346
0.160703
0.230698
0.158637
0.298624
0.153865
0.290716
0.150337
0.214447
0.149505
0.0751872
0.15212
-0.073657
0.153297
-0.134552
0.149356
-0.223231
0.144054
-0.228791
0.141816
-0.284352
0.143028
-0.209258
0.143041
-0.0395597
0.142028
0.0431681
0.140393
0.319054
0.250566
0.171333
-0.0165478
0.172349
-0.0256311
0.17194
-0.0351311
0.169864
-0.0450217
0.166111
-0.055816
0.160626
-0.0667145
0.153545
-0.0766993
0.145266
-0.0850579
0.136339
-0.0912402
0.127351
-0.0949258
0.11882
-0.0960931
0.111081
-0.0949335
0.10429
-0.0917228
0.0984044
-0.0866522
0.0927618
-0.0799262
0.0859013
-0.0723591
0.0769703
-0.0653564
0.0678885
-0.0591
0.0632374
-0.0504933
0.0668654
-0.034405
0.0789838
-0.00823855
0.0961623
0.0252803
0.114437
0.0601944
0.130878
0.0920052
0.144186
0.120215
0.15457
0.147457
0.16288
0.174439
0.169321
0.193317
0.173055
0.188848
0.173502
0.147561
0.171401
0.0698634
0.167777
-0.0231112
0.163053
-0.102375
0.1576
-0.151649
0.151713
-0.174065
0.145931
-0.178958
0.14064
-0.176895
0.134712
-0.169294
0.126856
-0.164417
0.119048
-0.155437
0.115871
-0.135514
0.121082
-0.0916534
0.133083
-0.0220031
0.147086
0.0541701
0.157449
0.147984
0.16196
0.226187
0.161178
0.299406
0.156957
0.294937
0.153081
0.218323
0.151179
0.0770895
0.152944
-0.075422
0.153942
-0.135551
0.149903
-0.219192
0.144241
-0.223129
0.141663
-0.281774
0.143093
-0.210688
0.143279
-0.0397459
0.142295
0.0441521
0.14081
0.320539
0.251763
0.185677
-0.0164212
0.184605
-0.0245593
0.182014
-0.0325398
0.177912
-0.0409202
0.172321
-0.0502249
0.165206
-0.0595994
0.156785
-0.0682783
0.147501
-0.0757738
0.137894
-0.081633
0.128513
-0.0855451
0.119832
-0.087412
0.11217
-0.087272
0.10567
-0.085222
0.10035
-0.0813328
0.0960141
-0.07559
0.0917947
-0.0681397
0.0862368
-0.0597984
0.0788981
-0.0517613
0.0721717
-0.0437669
0.0704544
-0.0326878
0.0766876
-0.0144717
0.0900246
0.0119433
0.10693
0.0432888
0.123864
0.0750716
0.138756
0.105323
0.151301
0.134912
0.161955
0.163785
0.170416
0.184855
0.175367
0.183897
0.17617
0.146758
0.173757
0.0722757
0.169263
-0.0186168
0.163198
-0.0963105
0.15646
-0.144911
0.149711
-0.167315
0.143348
-0.172595
0.137862
-0.171408
0.132464
-0.163897
0.125522
-0.157475
0.118178
-0.148093
0.114543
-0.131879
0.118912
-0.096022
0.130558
-0.0336491
0.145089
0.0396386
0.15672
0.136353
0.162843
0.220064
0.163469
0.29878
0.159915
0.298491
0.155773
0.222465
0.152855
0.0800073
0.1537
-0.0762674
0.154492
-0.136342
0.150425
-0.215126
0.144434
-0.217138
0.141455
-0.278794
0.143124
-0.212358
0.143568
-0.0401896
0.142644
0.0450758
0.141357
0.321827
0.252742
0.191902
-0.0147917
0.189061
-0.0217191
0.184742
-0.0282203
0.179227
-0.0354049
0.172489
-0.0434875
0.164517
-0.0516276
0.155573
-0.0593341
0.146066
-0.0662669
0.13647
-0.0720362
0.127261
-0.076336
0.118842
-0.0789933
0.111493
-0.0799236
0.105364
-0.0790924
0.100502
-0.0764712
0.0968934
-0.0719812
0.0942439
-0.0654902
0.0915902
-0.0571447
0.0876084
-0.0477795
0.0822413
-0.0383999
0.0780473
-0.0284937
0.0788703
-0.0152948
0.0867152
0.00409845
0.100116
0.0298878
0.115965
0.0592226
0.131599
0.0896892
0.145938
0.120573
0.158774
0.150949
0.169253
0.174376
0.175609
0.177542
0.177058
0.145309
0.174743
0.0745913
0.169727
-0.0136008
0.162534
-0.0891178
0.154635
-0.137012
0.147168
-0.159848
0.140388
-0.165815
0.134736
-0.165756
0.129835
-0.158996
0.123891
-0.151531
0.117187
-0.141389
0.113195
-0.127887
0.116603
-0.0994298
0.12764
-0.0446862
0.14251
0.0247687
0.155399
0.123464
0.163193
0.21227
0.165335
0.296638
0.162592
0.301234
0.158329
0.226728
0.154468
0.0838686
0.154362
-0.0761615
0.154907
-0.136887
0.150895
-0.211114
0.144626
-0.210869
0.141186
-0.275354
0.143102
-0.214273
0.143889
-0.0409768
0.14306
0.0459046
0.142029
0.322858
0.253455
0.189194
-0.0125918
0.185475
-0.018
0.180463
-0.0232089
0.17453
-0.0294711
0.167562
-0.0365197
0.159618
-0.0436842
0.150957
-0.0506728
0.141911
-0.0572207
0.132873
-0.0629981
0.124243
-0.0677065
0.116361
-0.0711111
0.109471
-0.0730341
0.103731
-0.0733515
0.0992206
-0.0719613
0.095964
-0.0687245
0.0939412
-0.0634675
0.0928757
-0.0560792
0.0918653
-0.046769
0.089715
-0.0362495
0.0865937
-0.0253725
0.0849845
-0.0136856
0.0878185
0.00126443
0.0962289
0.0214774
0.108995
0.0464567
0.123792
0.0748921
0.139065
0.1053
0.153839
0.136175
0.166306
0.161909
0.173969
0.169879
0.176286
0.142991
0.174571
0.0763071
0.169413
-0.00844291
0.161331
-0.081036
0.152394
-0.128076
0.144322
-0.151777
0.137262
-0.158756
0.131447
-0.159941
0.126915
-0.154464
0.121968
-0.146584
0.116032
-0.135454
0.111774
-0.123629
0.114131
-0.101787
0.124319
-0.0548747
0.139275
0.00981232
0.153406
0.109334
0.162976
0.2027
0.166733
0.29288
0.16488
0.303087
0.160649
0.23096
0.156004
0.0885137
0.154938
-0.0750959
0.155177
-0.137126
0.151307
-0.207243
0.144811
-0.204373
0.140879
-0.271422
0.143027
-0.216422
0.144229
-0.0421795
0.14353
0.0466042
0.142825
0.323563
0.253851
0.17989
-0.0104092
0.176003
-0.0141139
0.171397
-0.0186025
0.165977
-0.0240506
0.15963
-0.030173
0.152535
-0.0365893
0.144899
-0.0430372
0.136969
-0.04929
0.129054
-0.055083
0.121476
-0.0601294
0.114516
-0.0641511
0.108381
-0.066899
0.103199
-0.0681688
0.0990389
-0.0678016
0.0959627
-0.0656483
0.094045
-0.0615497
0.0933212
-0.0553554
0.0935186
-0.0469664
0.0937789
-0.0365098
0.093166
-0.0247596
0.0919826
-0.0125022
0.0923718
0.000875269
0.0966477
0.0172016
0.105204
0.0378999
0.117189
0.0629075
0.131425
0.091064
0.146624
0.120976
0.160314
0.14822
0.169686
0.160507
0.17405
0.138627
0.173806
0.0765509
0.168641
-0.00327785
0.159654
-0.0720491
0.149909
-0.118331
0.141445
-0.143312
0.134251
-0.151561
0.128265
-0.153955
0.123893
-0.150091
0.119828
-0.142519
0.114734
-0.13036
0.110293
-0.119188
0.111594
-0.103087
0.12078
-0.0640615
0.135517
-0.00492404
0.15059
0.0942599
0.161833
0.191458
0.167326
0.287388
0.166574
0.303838
0.162592
0.234942
0.157403
0.0937023
0.155396
-0.0730884
0.15529
-0.13702
0.151649
-0.203603
0.144967
-0.19769
0.140559
-0.267015
0.142922
-0.218784
0.144586
-0.0438438
0.144046
0.047144
0.143735
0.323873
0.253877
0.209273
-0.00855787
-0.211124
0.208149
-0.0129903
0.206745
-0.0171983
0.20478
-0.0220852
0.202124
-0.0275175
0.198756
-0.0332216
0.194693
-0.038974
0.189955
-0.0445518
0.184598
-0.0497257
0.178721
-0.0542522
0.172449
-0.0578797
0.165921
-0.0603708
0.159271
-0.0615184
0.152624
-0.0611544
0.146101
-0.0591259
0.139827
-0.0552759
0.133943
-0.0494716
0.128561
-0.0415843
0.123487
-0.0314359
0.118072
-0.0193438
0.111969
-0.00639965
0.105554
0.00728994
0.100585
0.0221713
0.0985821
0.0399025
0.100281
0.0612084
0.105648
0.0856974
0.114118
0.112506
0.125269
0.137068
0.140245
0.145532
0.159183
0.119688
0.176755
0.0589794
0.186999
-0.0135219
0.188803
-0.0738532
0.18429
-0.113818
0.176761
-0.135783
0.168098
-0.142898
0.159364
-0.145222
0.151593
-0.142321
0.144266
-0.135192
0.135989
-0.122082
0.127502
-0.110701
0.122753
-0.0983386
0.124118
-0.0654263
0.129769
-0.0105748
0.135403
0.0886252
0.139421
0.18744
0.14249
0.284319
0.146081
0.300248
0.1507
0.230323
0.154417
0.0899855
0.156725
-0.075397
0.157361
-0.137656
0.153079
-0.199321
0.145248
-0.189859
0.138547
-0.260313
0.136204
-0.216442
0.134327
-0.0419664
0.131075
0.0503965
0.130497
0.324451
0.25324
0.218322
-0.00716421
-0.219716
0.216784
-0.0114522
0.21526
-0.0156737
0.213274
-0.0200996
0.210645
-0.024888
0.207356
-0.0299329
0.203415
-0.0350326
0.19884
-0.0399773
0.193679
-0.0445649
0.188016
-0.0485888
0.181967
-0.0518313
0.175674
-0.0540772
0.169281
-0.0551253
0.162929
-0.0548025
0.156753
-0.0529503
0.150878
-0.0494011
0.145416
-0.0440088
0.140498
-0.0366663
0.136194
-0.0271325
0.1322
-0.0153494
0.127747
-0.00194668
0.122754
0.0122826
0.117894
0.0270318
0.114763
0.0430332
0.114952
0.0610195
0.119291
0.0813584
0.127692
0.104105
0.140249
0.124511
0.15772
0.128061
0.177868
0.0995397
0.194562
0.0422856
0.202791
-0.0217508
0.202579
-0.0736414
0.196446
-0.107685
0.187798
-0.127135
0.178522
-0.133622
0.169356
-0.136055
0.161187
-0.134152
0.153848
-0.127853
0.145841
-0.114075
0.137184
-0.102044
0.13167
-0.0928248
0.132318
-0.0660746
0.137827
-0.0160834
0.143992
0.0824599
0.148839
0.182592
0.15303
0.280128
0.157799
0.295479
0.163257
0.224865
0.167137
0.0861058
0.168889
-0.0771485
0.168836
-0.137603
0.164001
-0.194486
0.155324
-0.181182
0.147628
-0.252617
0.145082
-0.213896
0.1431
-0.0399846
0.139566
0.0539308
0.139168
0.324849
0.252348
0.226941
-0.00619287
-0.227913
0.225559
-0.0100694
0.223933
-0.0140479
0.221927
-0.0180937
0.219376
-0.0223373
0.216217
-0.0267742
0.212452
-0.0312667
0.208103
-0.035629
0.203215
-0.0396768
0.197856
-0.0432299
0.192126
-0.046101
0.186148
-0.0480994
0.18006
-0.0490366
0.173999
-0.0487416