/*--------------------------------*- C++ -*----------------------------------*\
| =========                 |                                                 |
| \\      /  F ield         | OpenFOAM: The Open Source CFD Toolbox           |
|  \\    /   O peration     | Version:  2512                                  |
|   \\  /    A nd           | Website:  www.openfoam.com                      |
|    \\/     M anipulation  |                                                 |
\*---------------------------------------------------------------------------*/
FoamFile
{
    version     2.0;
    format      ascii;
    arch        "LSB;label=32;scalar=64";
    class       surfaceScalarField;
    location    "69";
    object      phi;
}
// * * * * * * * * * * * * * * * * * * * * * * * * * * * * * * * * * * * * * //

dimensions      [0 3 -1 0 0 0 0];

oriented        oriented;

internalField   nonuniform List<scalar> 
26232
(
0.000113564
0.000984528
-0.00109809
0.000622226
0.00182235
-0.00233101
0.00167331
0.00165463
-0.00270571
0.00340597
0.000520573
-0.00225324
0.00596121
-0.0015558
-0.000999445
0.00948104
-0.00455889
0.00103906
0.0140998
-0.0084728
0.00385408
0.019928
-0.013269
0.00744078
0.0270327
-0.0188931
0.0117883
0.0354171
-0.0252546
0.0168703
0.045004
-0.0322222
0.0226353
0.0556297
-0.0396261
0.0290004
0.0670486
-0.0472686
0.0358497
0.0789497
-0.0549384
0.0430373
0.0909834
-0.0624289
0.0503951
0.102794
-0.0695556
0.0577449
0.114055
-0.0761718
0.0649107
0.1245
-0.0821796
0.0717349
0.133947
-0.0875328
0.0780857
0.142307
-0.0922458
0.0838855
0.149583
-0.0963426
0.0890666
0.155824
-0.0999829
0.0937419
0.160949
-0.102937
0.097812
-0.106049
0.102089
0.164908
0.000144716
0.000839812
0.000790531
0.00117654
0.00212428
0.000320883
0.00431943
-0.00167458
0.00754216
-0.00477853
0.0119428
-0.00895953
0.017637
-0.014167
0.0246813
-0.0203132
0.0330492
-0.027261
0.0426155
-0.0348209
0.0531538
-0.0427604
0.0643509
-0.0508233
0.075836
-0.0587537
0.0872194
-0.0663218
0.0981355
-0.073345
0.108282
-0.0797022
0.11745
-0.0853399
0.12554
-0.0902694
0.132563
-0.0945556
0.138617
-0.0983003
0.143891
-0.101616
0.148553
-0.104644
0.152992
-0.107376
-0.110323
0.157266
0.000202187
0.000637626
0.001049
0.000329724
0.00275934
-0.00138946
0.0055314
-0.00444663
0.00953879
-0.00878593
0.0149093
-0.0143301
0.0216955
-0.0209532
0.0298464
-0.0284641
0.0391914
-0.036606
0.0494443
-0.0450738
0.0602291
-0.0535453
0.0711244
-0.0617185
0.0817154
-0.0693447
0.0916456
-0.076252
0.100657
-0.0823559
0.108611
-0.0876565
0.115495
-0.0922241
0.121402
-0.0961768
0.126502
-0.099655
0.131001
-0.1028
0.135111
-0.105727
0.139015
-0.108548
0.142888
-0.111249
-0.114168
0.146732
0.000287159
0.000350466
0.00139944
-0.000782553
0.00357422
-0.00356425
0.00701493
-0.00788734
0.0118711
-0.0136421
0.018203
-0.0206621
0.0259475
-0.0286977
0.0348992
-0.0374158
0.0447206
-0.0464274
0.0549809
-0.0553341
0.0652168
-0.0637812
0.074999
-0.0715007
0.0839894
-0.0783351
0.0919784
-0.0842411
0.0988965
-0.089274
0.104799
-0.0935595
0.109836
-0.0972602
0.114203
-0.100544
0.118109
-0.103561
0.121739
-0.10643
0.125245
-0.109232
0.128729
-0.112032
0.132299
-0.114818
-0.117814
0.135946
0.000396919
-4.64528e-05
0.00182947
-0.00221511
0.00453355
-0.00626833
0.00868779
-0.0120416
0.0143745
-0.0193288
0.0215357
-0.0278232
0.0299475
-0.0371095
0.0392332
-0.0467015
0.0489144
-0.0561086
0.0584896
-0.0649093
0.0675154
-0.072807
0.0756697
-0.079655
0.082784
-0.0854493
0.0888409
-0.090298
0.0939444
-0.0943775
0.0982735
-0.0978886
0.102034
-0.101021
0.105421
-0.103931
0.108595
-0.106735
0.111674
-0.109509
0.114742
-0.1123
0.117849
-0.115139
0.121048
-0.118018
-0.121066
0.124299
0.00052659
-0.000573042
0.00231782
-0.00400634
0.00558073
-0.00953124
0.0104301
-0.0168909
0.0168323
-0.0257311
0.0245671
-0.035558
0.0332341
-0.0457765
0.0423143
-0.0557817
0.0512662
-0.0650605
0.0596247
-0.0732678
0.0670716
-0.0802539
0.0734635
-0.0860469
0.0788175
-0.0908034
0.0832675
-0.094748
0.0870085
-0.0981184
0.0902459
-0.101126
0.0931617
-0.103937
0.0958973
-0.106667
0.0985531
-0.10939
0.101196
-0.112152
0.10387
-0.114974
0.1066
-0.11787
0.109419
-0.120836
-0.123941
0.112294
0.000670686
-0.00124373
0.0028376
-0.00617325
0.00664531
-0.0133389
0.0121001
-0.0223457
0.0190092
-0.0326402
0.0269703
-0.043519
0.0354326
-0.0542388
0.0438102
-0.0641593
0.0516016
-0.0728519
0.0584728
-0.080139
0.0642852
-0.0860663
0.069072
-0.0908337
0.0729828
-0.0947142
0.0762207
-0.097986
0.0789901
-0.100888
0.0814638
-0.1036
0.0837719
-0.106245
0.0860032
-0.108898
0.0882151
-0.111602
0.0904435
-0.11438
0.0927111
-0.117242
0.0950314
-0.12019
0.0974198
-0.123224
-0.126372
0.0998505
0.00082228
-0.00206601
0.00335721
-0.00870818
0.00764813
-0.0176299
0.0135506
-0.0282482
0.0206873
-0.0397769
0.0284914
-0.0513231
0.0363291
-0.0620766
0.0436439
-0.0714742
0.050061
-0.079269
0.0554221
-0.0855001
0.0597576
-0.0904018
0.0632219
-0.094298
0.066023
-0.0975153
0.0683658
-0.100329
0.0704203
-0.102942
0.0723107
-0.10549
0.07412
-0.108054
0.0759
-0.110678
0.0776822
-0.113384
0.0794861
-0.116184
0.0813242
-0.11908
0.0832049
-0.122071
0.085137
-0.125156
-0.128339
0.0871043
0.000973145
-0.00303915
0.00384124
-0.0115763
0.00850754
-0.0222962
0.0146465
-0.0343872
0.0217006
-0.046831
0.0289928
-0.0586154
0.0358943
-0.068978
0.04196
-0.0775399
0.0469835
-0.0842924
0.050971
-0.0894877
0.0540711
-0.0935018
0.0564935
-0.0967204
0.0584471
-0.0994689
0.0601041
-0.101986
0.0615888
-0.104427
0.0629823
-0.106884
0.064334
-0.109406
0.065673
-0.112017
0.0670169
-0.114728
0.0683768
-0.117544
0.0697606
-0.120463
0.0711738
-0.123484
0.0726206
-0.126603
-0.129811
0.0740921
0.00111348
-0.00415263
0.0042526
-0.0147154
0.00914812
-0.0271917
0.0152839
-0.0405229
0.0219591
-0.0535061
0.0284629
-0.0651193
0.034251
-0.0747661
0.0390343
-0.0823232
0.0427692
-0.0880273
0.0455829
-0.0923013
0.0476831
-0.095602
0.0492848
-0.0983221
0.0505674
-0.100751
0.0516602
-0.103079
0.052647
-0.105414
0.0535775
-0.107814
0.0544801
-0.110308
0.0553714
-0.112908
0.0562621
-0.115619
0.0571591
-0.118441
0.0580676
-0.121372
0.0589914
-0.124408
0.0599326
-0.127544
-0.130766
0.0608885
0.00123317
-0.0053858
0.0045576
-0.0180398
0.00951171
-0.0321458
0.015405
-0.0464162
0.0214543
-0.0595555
0.0269926
-0.0706575
0.0316109
-0.0793844
0.0351809
-0.0858933
0.0377868
-0.0906332
0.0396249
-0.0941394
0.040916
-0.0968931
0.0418511
-0.0992572
0.0425698
-0.10147
0.0431627
-0.103672
0.0436827
-0.105934
0.0441595
-0.108291
0.0446096
-0.110758
0.0450431
-0.113342
0.0454669
-0.116043
0.0458861
-0.11886
0.046304
-0.12179
0.0467231
-0.124827
0.0471429
-0.127964
-0.131188
0.047564
0.00132579
-0.0067116
0.00473342
-0.0214474
0.00956671
-0.0369791
0.0150026
-0.0518521
0.0202478
-0.0648007
0.0247385
-0.0751481
0.0282188
-0.0828647
0.0306969
-0.0883714
0.0323397
-0.092276
0.0333689
-0.0951686
0.0339892
-0.0975134
0.0343558
-0.0996237
0.0345705
-0.101685
0.0346935
-0.103794
0.0347573
-0.105997
0.0347793
-0.108313
0.0347695
-0.110749
0.0347346
-0.113307
0.0346797
-0.115988
0.0346088
-0.118789
0.0345251
-0.121706
0.03443
-0.124732
0.0343225
-0.127857
0.0342048
-0.13107
-0.000229554
0.00125558
-0.00102603
-0.000801641
0.00283644
-0.00226435
-0.00164429
0.00377691
-0.00293426
-0.002703
0.00424108
-0.00318238
-0.00393582
0.0043641
-0.00313128
-0.0053111
0.00425216
-0.00287689
-0.00680532
0.00398059
-0.00248637
-0.008401
0.00359486
-0.00199918
-0.0100849
0.0031147
-0.00143079
-0.0118463
0.00253999
-0.000778564
-0.0136752
0.00185712
-2.82718e-05
-0.0155609
0.00104427
0.000841393
-0.0174919
7.55672e-05
0.00185547
-0.0194549
-0.00107402
0.00303707
-0.0214329
-0.00242996
0.00440797
-0.023405
-0.0040141
0.00598614
-0.0253463
-0.00584331
0.00778463
-0.027229
-0.00792702
0.00980969
-0.0290238
-0.0102643
0.0120592
-0.030704
-0.0128411
0.0145212
-0.0322493
-0.0156281
0.0171734
-0.0336524
-0.0185805
0.0199836
-0.0349321
-0.021634
0.0229137
-0.024706
-0.0361518
0.0259257
-0.00019996
0.00145554
-0.000710827
0.0033473
-0.00147641
0.00454249
-0.002451
0.00521567
-0.00359656
0.00550966
-0.00488228
0.00553789
-0.00628394
0.00538225
-0.00778294
0.00509386
-0.00936521
0.00469696
-0.0110199
0.0041947
-0.0127381
0.00357534
-0.0145117
0.00281784
-0.016332
0.00189591
-0.0181851
0.00077908
-0.0200622
-0.000552913
-0.0219452
-0.00213113
-0.0238124
-0.00397604
-0.0256384
-0.00610106
-0.0273943
-0.00850841
-0.029051
-0.0111844
-0.0305845
-0.0140947
-0.0319831
-0.0171819
-0.0332612
-0.0203559
-0.0234695
-0.0344977
-0.000154964
0.00161051
-0.000567852
0.00376019
-0.00120225
0.00517689
-0.00202304
0.00603645
-0.00299664
0.00648326
-0.00409256
0.00663381
-0.00528438
0.00657407
-0.00655005
0.00635954
-0.00787164
0.00601855
-0.0092346
0.00555766
-0.0106268
0.00496754
-0.0120373
0.00422832
-0.0134552
0.00331386
-0.0148709
0.00219476
-0.0162602
0.000836345
-0.0176184
-0.000772916
-0.0189203
-0.0026741
-0.020141
-0.00488039
-0.0212509
-0.00739848
-0.0222167
-0.0102186
-0.0230052
-0.0133062
-0.0235917
-0.0165953
-0.0239672
-0.0199804
-0.0232701
-0.0241667
-9.88441e-05
0.00170935
-0.000384732
0.00404608
-0.000842637
0.0056348
-0.00144878
0.0066426
-0.00217422
0.00720869
-0.00298824
0.00744783
-0.00386093
0.00744676
-0.00476461
0.00726322
-0.00567444
0.00692838
-0.00656827
0.0064515
-0.00742601
0.00582527
-0.00822862
0.00503093
-0.00895723
0.00404247
-0.00959228
0.00282981
-0.0101149
0.00135894
-0.0104962
-0.000391638
-0.0107157
-0.00245451
-0.0107465
-0.00484968
-0.0105587
-0.00758625
-0.0101192
-0.010658
-0.00939076
-0.0140347
-0.00833733
-0.0176487
-0.00693362
-0.0213841
-0.0250456
-0.00515809
-3.80279e-05
0.00174738
-0.000180615
0.00418867
-0.000432229
0.00588641
-0.000779622
0.00698999
-0.00119795
0.00762703
-0.00165583
0.0079057
-0.00211889
0.00790983
-0.00255227
0.0076966
-0.00292186
0.00729796
-0.00319473
0.00672437
-0.00333883
0.00596938
-0.00332236
0.00501446
-0.00311303
0.00383314
-0.00267754
0.00239432
-0.00198255
0.000663949
-0.000991332
-0.00138286
0.000332309
-0.00377815
0.00202252
-0.00653989
0.0041103
-0.00967403
0.00662364
-0.0131714
0.00959089
-0.0170019
0.0130464
-0.0211042
0.0170053
-0.025343
-0.0295987
0.0215584
2.01732e-05
0.00172721
2.21026e-05
0.00418674
-1.34805e-05
0.005922
-8.02646e-05
0.00705678
-0.000156128
0.00770289
-0.000208341
0.00795792
-0.000197586
0.00789908
-8.09178e-05
0.00757993
0.000186417
0.00703063
0.000650159
0.00626063
0.00135685
0.00526269
0.00235411
0.0040172
0.00369094
0.00249631
0.00541787
0.000667393
0.00758392
-0.0015021
0.0102437
-0.0040426
0.0134441
-0.00697857
0.0172278
-0.0103236
0.0216297
-0.014076
0.0266736
-0.0182153
0.032368
-0.0226964
0.0387274
-0.0274635
0.0456965
-0.0323122
-0.0374582
0.053556
6.83404e-05
0.00165887
0.000199909
0.00405517
0.000370463
0.00575144
0.000583166
0.00684408
0.000860018
0.00742604
0.00123654
0.0075814
0.00175781
0.0073778
0.00247556
0.00686218
0.0034461
0.00606009
0.00472911
0.00497761
0.00638704
0.00360476
0.00848471
0.00191953
0.0110884
-0.000107375
0.0142653
-0.00250953
0.0180813
-0.00531804
0.0225982
-0.0085595
0.0278696
-0.01225
0.0339366
-0.0163906
0.0408233
-0.0209626
0.0485332
-0.0259251
0.0570389
-0.0312021
0.0663191
-0.0367437
0.0762332
-0.0422263
-0.0483132
0.0870882
0.000101609
0.00155726
0.000337134
0.00381964
0.000687157
0.00540142
0.00115884
0.00637239
0.00177809
0.0068068
0.00258566
0.00677382
0.00363419
0.00632926
0.00498565
0.00551073
0.00670928
0.00433645
0.00888004
0.00280685
0.0115769
0.000907878
0.0148818
-0.00138538
0.0188765
-0.00410207
0.023639
-0.00727203
0.0292403
-0.0109194
0.0357381
-0.0150572
0.0431704
-0.0196824
0.0515502
-0.0247704
0.0608595
-0.0302719
0.0710472
-0.0361129
0.0820264
-0.0421813
0.093696
-0.0484133
0.105857
-0.0543871
-0.0610978
0.118641
0.000117921
0.00143934
0.000426483
0.00351108
0.000922539
0.00490536
0.00162454
0.00567039
0.00256774
0.00586359
0.00380245
0.00553911
0.00539237
0.00473935
0.00741269
0.0034904
0.00994799
0.00180116
0.0130892
-0.000334396
0.016932
-0.00293484
0.0215693
-0.00602275
0.0270888
-0.00962155
0.0335642
-0.0137475
0.0410483
-0.0184034
0.0495642
-0.0235732
0.0590989
-0.029217
0.0695973
-0.0352688
0.080961
-0.0416355
0.0930474
-0.0481993
0.105686
-0.0548197
0.118665
-0.0613924
0.131809
-0.0675313
-0.0741655
0.144877
0.00011951
0.00131983
0.000474706
0.00315588
0.00108916
0.00429091
0.00200039
0.00475915
0.00325972
0.00460426
0.00493293
0.00386591
0.00709987
0.00257241
0.00985275
0.00073752
0.013293
-0.00163907
0.017526
-0.00456738
0.0226534
-0.00806225
0.028766
-0.0121353
0.0359324
-0.016788
0.0441889
-0.022004
0.0535295
-0.027744
0.0638987
-0.0339423
0.0751877
-0.0405061
0.0872367
-0.0473178
0.0998416
-0.0542404
0.112767
-0.0611244
0.125764
-0.0678173
0.138561
-0.0741895
0.151027
-0.0799974
-0.0857799
0.162642
0.000113011
0.00120682
0.000502828
0.00276607
0.00122804
0.0035657
0.00235266
0.00363453
0.00395127
0.00300566
0.00611163
0.00170554
0.00893402
-0.000249983
0.0125296
-0.00285809
0.017011
-0.0061204
0.0224843
-0.0100407
0.0290363
-0.0146143
0.0367209
-0.0198199
0.0455454
-0.0256125
0.0554608
-0.0319194
0.0663552
-0.0386384
0.0780544
-0.0456416
0.0903292
-0.0527809
0.10291
-0.0598988
0.115507
-0.066837
0.127841
-0.0734583
0.139657
-0.0796334
0.150779
-0.0853119
0.161113
-0.0903315
-0.0948884
0.170222
0.000108724
0.000543779
0.00140377
0.00278506
0.00479127
0.00753588
0.01114
0.0157227
0.0213906
0.0282202
0.0362411
0.0454217
0.0556589
0.0667768
0.0785336
0.0906368
0.102767
0.114603
0.125852
0.136279
0.145712
0.154142
0.161622
0.168823
-0.0360914
-0.0397396
0.0396793
-0.0356592
-0.0454065
0.0449742
-0.0347631
-0.0508007
0.0499047
-0.0333353
-0.0555392
0.0541113
-0.0312754
-0.0592124
0.0571525
-0.0284603
-0.0613163
0.0585011
-0.0247797
-0.0612957
0.0576151
-0.0201217
-0.058538
0.0538799
-0.014402
-0.0524439
0.0467243
-0.00761408
-0.0425085
0.0357205
0.00015114
-0.028427
0.0206618
0.00901933
-0.0103842
0.00151602
0.01838
0.0114404
-0.0208011
0.0278721
0.0362518
-0.0457439
0.0371911
0.062106
-0.071425
0.0458844
0.0869973
-0.0956906
0.053133
0.109384
-0.116633
0.05802
0.128297
-0.133184
0.0599096
0.143884
-0.145773
0.0591516
0.15673
-0.155972
0.0576396
0.165895
-0.164383
0.0583169
0.167263
-0.16794
0.0634044
0.154675
-0.159762
0.0729024
0.123883
-0.133381
0.0852189
0.0751835
-0.0875001
0.0988214
0.0130045
-0.0266069
0.112243
-0.0532057
0.0397839
0.123912
-0.112274
0.100606
0.132322
-0.15536
0.146949
0.137053
-0.181228
0.176498
0.138869
-0.192657
0.190842
0.137647
-0.194238
0.19546
0.131974
-0.196044
0.201716
0.122407
-0.206176
0.215744
0.113393
-0.214248
0.223262
0.110188
-0.192811
0.196016
0.114296
-0.125062
0.120955
0.123127
-0.0244857
0.015655
0.132973
0.0787615
-0.0886079
0.141636
0.158519
-0.167181
0.147444
0.205783
-0.211592
0.148027
0.232451
-0.233034
0.142345
0.260607
-0.254925
0.13314
0.2843
-0.275095
0.125862
0.270391
-0.263113
0.124332
0.18628
-0.18475
0.128843
0.0515636
-0.0560742
0.136554
-0.0850777
0.077366
0.142614
-0.183443
0.177383
0.142636
-0.242781
0.242759
0.136751
-0.292385
0.29827
0.128813
-0.303248
0.311186
0.123841
-0.276258
0.28123
0.124525
-0.150525
0.149841
0.128393
-0.0254598
0.0215915
0.131894
0.124893
-0.128394
0.130271
0.228565
-0.226942
0.124221
0.271094
-0.265044
0.120717
0.314957
-0.311454
0.115709
-0.117007
-0.0354905
-0.0387468
-0.0362796
-0.0446173
-0.0367328
-0.0503475
-0.0367954
-0.0554766
-0.0363599
-0.0596479
-0.0352864
-0.0623898
-0.0333938
-0.0631884
-0.0304832
-0.0614485
-0.0263552
-0.0565719
-0.0208569
-0.0480068
-0.0139169
-0.035367
-0.00570063
-0.0186004
0.0038685
0.00187123
0.0143851
0.0257352
0.0246561
0.051835
0.0345017
0.0771517
0.0430065
0.100879
0.0494211
0.121883
0.0535061
0.139799
0.0560584
0.154177
0.0589885
0.162965
0.0644452
0.161806
0.0733249
0.145795
0.0847309
0.112477
0.0972051
0.0627093
0.109588
0.000621494
0.121046
-0.0646636
0.130379
-0.121607
0.136488
-0.161469
0.139065
-0.183806
0.139082
-0.192675
0.136909
-0.192065
0.130977
-0.190112
0.120924
-0.196123
0.110707
-0.204031
0.106204
-0.188308
0.109795
-0.128653
0.119118
-0.0338089
0.130288
0.0675921
0.140582
0.148225
0.147698
0.198667
0.149095
0.231054
0.144065
0.265637
0.13558
0.292785
0.128858
0.277112
0.127173
0.187965
0.130783
0.0479542
0.137428
-0.0917233
0.142864
-0.188878
0.142608
-0.242526
0.136548
-0.286325
0.128767
-0.295467
0.124112
-0.271603
0.125012
-0.151425
0.128756
-0.0292032
0.131682
0.121967
0.129702
0.230545
0.123269
0.277527
0.119651
0.318576
0.11417
-0.026044
-0.0368695
-0.0279462
-0.0427151
-0.0296963
-0.0485974
-0.0312475
-0.0539254
-0.0324908
-0.0584046
-0.0332796
-0.0616009
-0.0333936
-0.0630744
-0.0325755
-0.0622665
-0.0305374
-0.05861
-0.0270044
-0.0515398
-0.0217691
-0.0406023
-0.0147963
-0.0255733
-0.00618841
-0.00673667
0.00389662
0.0156502
0.0146823
0.0410493
0.0254907
0.0663434
0.035435
0.090935
0.0439114
0.113406
0.0508969
0.132813
0.0572694
0.147805
0.0645546
0.15568
0.0739837
0.152377
0.0854628
0.134316
0.0977285
0.100212
0.109601
0.0508365
0.120363
-0.0101398
0.129589
-0.0738903
0.136422
-0.12844
0.140206
-0.165252
0.140782
-0.184382
0.139136
-0.191029
0.136093
-0.189021
0.130176
-0.184196
0.12008
-0.186026
0.108915
-0.192866
0.102975
-0.182368
0.105727
-0.131406
0.115302
-0.0433834
0.127637
0.0552569
0.139462
0.1364
0.147864
0.190265
0.150181
0.228737
0.145991
0.269828
0.138378
0.300398
0.132247
0.283244
0.130358
0.189853
0.132962
0.045351
0.13841
-0.0971714
0.143171
-0.193639
0.142696
-0.242051
0.136492
-0.28012
0.128867
-0.287843
0.124554
-0.267289
0.125662
-0.152534
0.129257
-0.0327986
0.13159
0.119634
0.129277
0.232858
0.122527
0.284276
0.118837
0.322267
0.112392
-0.00762309
-0.0344045
-0.0104469
-0.0398913
-0.0133673
-0.0456769
-0.0163197
-0.0509731
-0.0191868
-0.0555375
-0.021875
-0.0589127
-0.0240859
-0.0608636
-0.0255098
-0.0608426
-0.0258064
-0.0583134
-0.0246218
-0.0527244
-0.0216362
-0.0435879
-0.0166461
-0.0305634
-0.00970383
-0.0136789
-0.00113169
0.00707807
0.00958585
0.0303318
0.0208511
0.0550781
0.0320847
0.0797015
0.0426949
0.102796
0.0526663
0.122842
0.0626307
0.137841
0.0735215
0.144789
0.085772
0.140126
0.0987062
0.121382
0.110966
0.0879516
0.121683
0.0401196
0.130645
-0.0191021
0.137592
-0.0808364
0.141927
-0.132776
0.143416
-0.166741
0.142153
-0.183119
0.139012
-0.187888
0.135118
-0.185127
0.129373
-0.178451
0.119699
-0.176352
0.108012
-0.181179
0.100619
-0.174975
0.102211
-0.132998
0.111697
-0.0528697
0.125014
0.0419402
0.138238
0.123176
0.147899
0.180604
0.151249
0.225387
0.148076
0.273
0.141457
0.307017
0.135905
0.288796
0.133769
0.191989
0.13533
0.0437905
0.139484
-0.101326
0.143513
-0.197667
0.142868
-0.241406
0.136551
-0.273803
0.129053
-0.280344
0.125073
-0.263309
0.126396
-0.153857
0.129858
-0.0362607
0.13161
0.117883
0.128986
0.235481
0.122003
0.29126
0.118315
0.325955
0.110376
0.0185757
-0.0314218
0.0151746
-0.0364903
0.0113414
-0.0418438
0.00712616
-0.0467578
0.00259038
-0.0510017
-0.0018036
-0.0545187
-0.00594502
-0.0567222
-0.00954591
-0.0572417
-0.0122134
-0.0556459
-0.0135118
-0.051426
-0.0130427
-0.0440569
-0.0104681
-0.033138
-0.00574991
-0.0183972
0.00154315
-0.000214997
0.0111195
0.0207554
0.0221736
0.044024
0.0340724
0.0678026
0.0462597
0.0906088
0.0585759
0.110526
0.0712645
0.125152
0.0846556
0.131398
0.0985756
0.126206
0.112002
0.107955
0.123654
0.0763005
0.132951
0.0308224
0.140079
-0.0262304
0.144819
-0.0855764
0.146732
-0.134688
0.145979
-0.165989
0.143048
-0.180187
0.138648
-0.183488
0.133962
-0.180441
0.128444
-0.172933
0.119576
-0.167484
0.107882
-0.169485
0.0992028
-0.166296
0.0993533
-0.133148
0.108421
-0.061937
0.122418
0.0279431
0.136854
0.108739
0.147733
0.169725
0.15223
0.22089
0.150244
0.274987
0.144702
0.312559
0.13969
0.293808
0.137296
0.194383
0.1378
0.0432866
0.140633
-0.10416
0.143864
-0.200899
0.143089
-0.240631
0.136705
-0.26742
0.129279
-0.272918
0.125588
-0.259618
0.127138
-0.155407
0.130512
-0.0396351
0.131729
0.116666
0.128822
0.238389
0.121701
0.298381
0.118107
0.329549
0.108126
0.0502568
-0.0281226
0.0466411
-0.0328745
0.042517
-0.0377196
0.0378475
-0.0420883
0.0326948
-0.045849
0.027052
-0.0488759
0.0211628
-0.050833
0.0153633
-0.0514422
0.0101165
-0.0503991
0.00599894
-0.0473085
0.00362869
-0.0416867
0.00362609
-0.0331354
0.00640367
-0.0211748
0.0120171
-0.0058284
0.0196962
0.0130763
0.0296812
0.034039
0.0413546
0.0561292
0.0541665
0.077797
0.0677566
0.0969357
0.0819667
0.110942
0.0966221
0.116743
0.111139
0.11169
0.124346
0.0947475
0.135097
0.0655497
0.143067
0.0228519
0.148458
-0.0316209
0.151084
-0.0882032
0.150674
-0.134278
0.147798
-0.163113
0.143372
-0.175761
0.137971
-0.178087
0.132585
-0.175055
0.127254
-0.167602
0.11946
-0.15969
0.108315
-0.15834
0.0986838
-0.156664
0.0972405
-0.131705
0.1055
-0.0701967
0.119824
0.0136191
0.135231
0.0933331
0.147277
0.157679
0.15303
0.215137
0.152385
0.275632
0.147974
0.316969
0.14345
0.298333
0.140769
0.197064
0.140324
0.0437323
0.141827
-0.105663
0.144196
-0.203268
0.143315
-0.239749
0.136927
-0.261032
0.129512
-0.265503
0.126031
-0.256137
0.12782
-0.157195
0.131176
-0.042992
0.131934
0.115908
0.128774
0.241549
0.121619
0.305536
0.11822
0.332948
0.105638
0.0835484
-0.0245829
0.0797449
-0.029071
0.0754676
-0.0334423
0.0706262
-0.0372469
0.0652517
-0.0404746
0.0593449
-0.0429691
0.0529803
-0.0444684
0.0463334
-0.0447953
0.0397446
-0.0438103
0.0337443
-0.0413082
0.0290086
-0.036951
0.026212
-0.0303388
0.0259448
-0.0209075
0.0285485
-0.00843208
0.0339805
0.0076443
0.0422127
0.0258067
0.0528154
0.0455265
0.065255
0.0653574
0.0790009
0.0831898
0.0935559
0.0963869
0.108365
0.101934
0.122586
0.0974688
0.135031
0.0823026
0.144756
0.0558244
0.151554
0.0160541
0.155466
-0.0355334
0.15614
-0.0888771
0.153586
-0.131724
0.148785
-0.158312
0.143045
-0.170021
0.136901
-0.171944
0.130966
-0.16912
0.12572
-0.162355
0.119095
-0.153065
0.109025
-0.148271
0.0989139
-0.146553
0.0958423
-0.128633
0.102915
-0.0772692
0.117163
-0.000628769
0.133267
0.0772291
0.146414
0.144532
0.153537
0.208014
0.154384
0.274784
0.151146
0.320207
0.147044
0.302435
0.144077
0.200031
0.142796
0.0450132
0.14303
-0.105897
0.144482
-0.20472
0.143501
-0.238768
0.137187
-0.254719
0.129729
-0.258045
0.126353
-0.252761
0.128378
-0.15922
0.131807
-0.0464217
0.132206
0.11551
0.128837
0.244918
0.121748
0.312625
0.118645
0.336051
0.102911
0.114774
-0.0207154
0.110671
-0.024968
0.106112
-0.028883
0.101079
-0.0322143
0.0956621
-0.0350576
0.0898816
-0.0371886
0.0837344
-0.0383212
0.0772482
-0.0383091
0.0705318
-0.0370939
0.0638574
-0.0346337
0.057726
-0.0308197
0.0528121
-0.0254248
0.0498924
-0.0179879
0.0495859
-0.00812557
0.0523005
0.00492968
0.0581582
0.0199491
0.0669218
0.0367629
0.0781053
0.0541739
0.0910518
0.0702433
0.105002
0.082437
0.119127
0.0878082
0.13244
0.0841558
0.143815
0.070928
0.152522
0.0471176
0.158332
0.0102444
0.160934
-0.0381355
0.159811
-0.0877546
0.155332
-0.127245
0.148869
-0.151849
0.142016
-0.163168
0.135358
-0.165286
0.129071
-0.162833
0.123807
-0.157091
0.118267
-0.147525
0.10968
-0.139684
0.0996629
-0.136536
0.095065
-0.124036
0.100596
-0.0828003
0.114331
-0.014364
0.130849
0.0607112
0.145026
0.130355
0.153613
0.199427
0.156078
0.272319
0.154067
0.322219
0.150348
0.306154
0.14712
0.203259
0.145119
0.0470139
0.144196
-0.104974
0.144688
-0.205212
0.143597
-0.237677
0.137449
-0.24857
0.129914
-0.25051
0.126524
-0.249371
0.128768
-0.161464
0.132359
-0.050012
0.132527
0.115341
0.129003
0.248442
0.122076
0.319553
0.119365
0.338762
0.0999376
0.140683
-0.0165216
0.136225
-0.0205103
0.131283
-0.0239404
0.12598
-0.0269118
0.120476
-0.0295537
0.114814
-0.0315261
0.109021
-0.0325281
0.10313
-0.0324186
0.0971569
-0.0311206
0.0911389
-0.0286157
0.0852461
-0.0249268
0.0798553
-0.020034
0.0755967
-0.0137293
0.0732368
-0.00576576
0.0732861
0.0048804
0.0763813
0.0168539
0.0826423
0.0305018
0.0917681
0.0450481
0.103095
0.0589164
0.115701
0.069831
0.128562
0.0749471
0.140598
0.0721193
0.15079
0.0607369
0.158542
0.039365
0.163487
0.00529931
0.16481
-0.0394579
0.161965
-0.0849103
0.155768
-0.121047
0.147943
-0.144024
0.140201
-0.155425
0.133214
-0.158299
0.126795
-0.156414
0.12147
-0.151766
0.116805
-0.14286
0.109928
-0.132806
0.100622
-0.12723
0.0947799
-0.118193
0.0984507
-0.0864711
0.111233
-0.0271468
0.127857
0.0440873
0.142982
0.115231
0.153133
0.189276
0.157384
0.268068
0.156655
0.322948
0.153282
0.309527
0.149811
0.206729
0.147222
0.0496028
0.14527
-0.103022
0.144776
-0.204718
0.143551
-0.236452
0.137667
-0.242687
0.130056
-0.242899
0.126526
-0.245841
0.128956
-0.163894
0.132791
-0.0538471
0.132879
0.115253
0.129271
0.25205
0.122587
0.326236
0.120357
0.340992
0.0967048
0.158418
-0.0122976
0.153775
-0.0158672
0.148602
-0.0187678
0.143194
-0.0215039
0.137713
-0.0240724
0.132198
-0.0260115
0.126733
-0.027063
0.121423
-0.0271083
0.116337
-0.0260351
0.111486
-0.0237646
0.10685
-0.0202904
0.102498
-0.0156824
0.0986677
-0.00989862
0.0958058
-0.00290388
0.0945618
0.00612435
0.0956004
0.0158153
0.0993833
0.0267189
0.105992
0.038439
0.115039
0.0498694
0.125678
0.0591926
0.136822
0.0638035
0.147335
0.0616064
0.156286
0.0517852
0.163151
0.0325007
0.167174
0.00127592
0.167067
-0.0393513
0.162501
-0.0803438
0.154782
-0.113329
0.145903
-0.135145
0.137511
-0.147033
0.130339
-0.151127
0.124001
-0.150076
0.11866
-0.146426
0.114605
-0.138805
0.109459
-0.127659
0.101444
-0.119216
0.0948274
-0.111577
0.0964568
-0.0881006
0.107789
-0.0384789
0.124186
0.0276901
0.140162
0.0992546
0.151923
0.177515
0.158054
0.261938
0.158713
0.322289
0.155749
0.312491
0.152081
0.210397
0.149074
0.0526096
0.146213
-0.100161
0.144726
-0.203231
0.143325
-0.235051
0.137802
-0.237163
0.130155
-0.235252
0.126372
-0.242058
0.128919
-0.166441
0.13307
-0.0579984
0.133243
0.115079
0.129635
0.255658
0.123269
0.332603
0.121604
0.342656
0.0931909
0.166464
-0.00853941
0.161983
-0.0113863
0.156965
-0.0137496
0.151812
-0.0163516
0.146597
-0.018857
0.141381
-0.0207953
0.136323
-0.0220054
0.131606
-0.0223909
0.12737
-0.0217993
0.123662
-0.0200564
0.120459
-0.0170876
0.117725
-0.0129487
0.115486
-0.00765925
0.114085
-0.00150264
0.113184
0.00702511
0.113486
0.0155136
0.115787
0.0244174
0.120356
0.0338706
0.127107
0.0431186
0.135484
0.0508147
0.144579
0.0547085
0.153354
0.0528321
0.160972
0.044167
0.166681
0.0267912
0.169467
-0.00150973
0.167829
-0.0377137
0.161638
-0.0741525
0.152705
-0.104396
0.143141
-0.125581
0.134367
-0.138259
0.127095
-0.143855
0.120947
-0.143928
0.115652
-0.141131
0.111889
-0.135042
0.108229
-0.123999
0.101909
-0.112896
0.0951151
-0.104783
0.0946742
-0.0876597
0.104051
-0.0478557
0.119748
0.0119935
0.136461
0.0825415
0.149978
0.163997
0.158204
0.253712
0.16032
0.320173
0.15772
0.315091
0.154006
0.214111
0.150678
0.0559375
0.147079
-0.0965609
0.144605
-0.200757
0.142964
-0.23341
0.137855
-0.232054
0.130228
-0.227625
0.126111
-0.237941
0.128674
-0.169004
0.133164
-0.0624878
0.133597
0.114646
0.130091
0.259164
0.124112
0.338582
0.123095
0.343673
0.0893671
0.165847
-0.00556361
0.161869
-0.00740774
0.15763
-0.00951119
0.153216
-0.0119371
0.148655
-0.0142959
0.144128
-0.0162685
0.139799
-0.0176764
0.135794
-0.018386
0.132244
-0.0182492
0.129301
-0.0171134
0.127083
-0.0148695
0.125597
-0.0114628
0.124791
-0.0068537
0.124353
-0.00106475
0.125109
0.0062696
0.126654
0.0139679
0.129083
0.0219892
0.132839
0.0301143
0.138123
0.0378344
0.144731
0.044207
0.151987
0.047452
0.159033
0.045786
0.165141
0.0380591
0.169476
0.022456
0.170463
-0.00249626
0.166858
-0.0341083
0.159318
-0.0666129
0.149775
-0.094853
0.140106
-0.115912
0.131344
-0.129497
0.124079
-0.136591
0.11813
-0.137979
0.112922
-0.135923
0.109152
-0.131272
0.106503
-0.12135
0.101977
-0.10837
0.0955892
-0.0983948
0.0933394
-0.0854099
0.100331
-0.0548474
0.114739
-0.00241474
0.131675
0.0656061
0.146672
0.149
0.157149
0.243235
0.161015
0.316307
0.159015
0.317091
0.155404
0.217721
0.15206
0.0592814
0.14781
-0.0923109
0.144456
-0.197403
0.142523
-0.231476
0.137832
-0.227364
0.130275
-0.220067
0.125796
-0.233463
0.128288
-0.171496
0.133077
-0.0672768
0.133934
0.113789
0.130643
0.262456
0.125118
0.344107
0.124828
0.343962
0.0851947
0.194074
-0.00258782
-0.19705
0.191668
-0.00500133
0.189163
-0.00700657
0.186314
-0.00908717
0.183114
-0.0110967
0.179634
-0.0127883
0.175942
-0.013984
0.172096
-0.0145407
0.16817
-0.0143233
0.164259
-0.0132017
0.160457
-0.0110681
0.156843
-0.00784872
0.153512
-0.00352219
0.150523
0.00192435
0.148275
0.0085169
0.146644
0.0155991
0.145851
0.0227821
0.146281
0.0296851
0.148356
0.0357589
0.152438
0.0401254
0.15855
0.0413394
0.166319
0.038017
0.175245
0.0291332
0.18425
0.0134513
0.191539
-0.0097855
0.195127
-0.0376958
0.19439
-0.0658765
0.189974
-0.0904365
0.183089
-0.109027
0.174805
-0.121213
0.166113
-0.127899
0.15767
-0.129535
0.149296
-0.127549
0.141407
-0.123382
0.134639
-0.114582
0.127136
-0.100868
0.117252
-0.0885109
0.108361
-0.0765191
0.105768
-0.052254
0.110193
-0.00683932
0.116838
0.0589602
0.122304
0.143535
0.125817
0.239722
0.128884
0.31324
0.134777
0.311198
0.144677
0.207822
0.153772
0.0501863
0.157519
-0.0960584
0.156123
-0.196007
0.15229
-0.227644
0.145198
-0.220272
0.135661
-0.21053
0.127789
-0.225591
0.125147
-0.168854
0.124515
-0.0666448
0.12147
0.116833
0.117011
0.266915
0.112655
0.348463
0.114527
0.342091
0.0810973
0.204069
-0.000486779
-0.20617
0.201871
-0.0028034
0.199669
-0.00480479
0.197192
-0.00660943
0.19439
-0.00829513
0.191332
-0.00973064
0.188093
-0.0107441
0.18474
-0.0111883
0.181358
-0.0109409
0.178049
-0.0098928
0.174928
-0.00794727
0.172113
-0.00503345
0.169735
-0.00114474
0.167875
0.00378497
0.166771
0.00962017
0.16645
0.0159207
0.166998
0.0222336
0.168604
0.0280796
0.17151
0.0328525
0.175926
0.0357096
0.181802
0.0354637
0.188773
0.0310454
0.196259
0.0216478
0.203258
0.00645205
0.208081
-0.0146083
0.209455
-0.0390698
0.207059
-0.0634802
0.20146
-0.0848376
0.19376
-0.101327
0.184983
-0.112436
0.175957
-0.118873
0.167338
-0.120917
0.158958
-0.119169
0.150838
-0.115262
0.143876
-0.107621
0.136959
-0.09395
0.127715
-0.0792667
0.118093
-0.0668973
0.113685
-0.0478465
0.116588
-0.00974221
0.123191
0.0523569
0.129452
0.137275
0.134193
0.23498
0.138704
0.308729
0.146232
0.303669
0.157411
0.196643
0.167276
0.0403213
0.170677
-0.0994593
0.168202
-0.193532
0.163232
-0.222673
0.155468
-0.212509
0.145257
-0.200318
0.136602
-0.216936
0.133414
-0.165666