/*--------------------------------*- C++ -*----------------------------------*\
| =========                 |                                                 |
| \\      /  F ield         | OpenFOAM: The Open Source CFD Toolbox           |
|  \\    /   O peration     | Version:  2512                                  |
|   \\  /    A nd           | Website:  www.openfoam.com                      |
|    \\/     M anipulation  |                                                 |
\*---------------------------------------------------------------------------*/
FoamFile
{
    version     2.0;
    format      ascii;
    arch        "LSB;label=32;scalar=64";
    class       volVectorField;
    location    "194.75";
    object      U;
}
// * * * * * * * * * * * * * * * * * * * * * * * * * * * * * * * * * * * * * //

dimensions      [0 1 -1 0 0 0 0];

internalField   nonuniform List<vector> 
13248
(
(-0.0122569 0.0104244 6.47265e-20)
(-0.0232864 0.0203065 0)
(-0.0222276 0.0235158 -1.22584e-19)
(-0.00898885 0.0230654 1.15478e-19)
(0.0166447 0.0209339 1.07836e-19)
(0.0548489 0.0184494 0)
(0.105678 0.0165338 0)
(0.168905 0.0158289 2.53485e-19)
(0.243856 0.0167526 -3.10234e-21)
(0.329276 0.01953 -2.18044e-19)
(0.423283 0.0241955 1.9788e-19)
(0.523403 0.0305904 -1.23218e-19)
(0.6267 0.0383702 0)
(0.729979 0.0470292 -2.04771e-19)
(0.830021 0.0559445 3.81128e-19)
(0.923823 0.0644327 -8.95755e-20)
(1.00881 0.0718198 -1.6116e-19)
(1.08301 0.0774825 1.51289e-19)
(1.14514 0.0809934 0)
(1.19472 0.081792 0)
(1.23196 0.0804526 0)
(1.25784 0.0745723 0)
(1.27343 0.0705316 4.88328e-20)
(1.28172 0.0520099 1.83066e-19)
(-0.0129275 0.0101418 -1.95658e-19)
(-0.0204748 0.0185304 1.33695e-19)
(-0.0113215 0.0205455 -1.2096e-21)
(0.0137924 0.0192591 -1.76657e-19)
(0.0545472 0.016817 -1.07716e-19)
(0.110619 0.0147316 -1.01657e-19)
(0.181383 0.0140379 -1.84605e-19)
(0.265646 0.0153966 1.74971e-19)
(0.361456 0.0191444 0)
(0.46603 0.0253138 1.56613e-21)
(0.575859 0.0336462 3.82732e-21)
(0.686956 0.0436239 1.24588e-19)
(0.79521 0.0545284 0)
(0.896765 0.0655246 0)
(0.98836 0.0757584 1.40937e-19)
(1.06759 0.084453 -2.64597e-19)
(1.13305 0.0909897 1.5879e-19)
(1.18439 0.0949605 -1.49077e-19)
(1.22221 0.0961907 -6.65559e-20)
(1.24794 0.0947121 -1.2236e-19)
(1.26347 0.0907951 -5.25175e-20)
(1.27124 0.0845221 -9.9237e-20)
(1.27271 0.0776478 1.43016e-19)
(1.27211 0.0665381 4.18036e-20)
(-0.0122711 0.00892373 0)
(-0.0135961 0.0148766 0)
(0.00664481 0.0156619 6.24907e-20)
(0.0468235 0.0141661 5.73991e-20)
(0.105875 0.0125423 -1.71102e-21)
(0.18259 0.0123612 -1.0551e-19)
(0.275108 0.0146226 0)
(0.380618 0.0198195 -8.66275e-20)
(0.495269 0.0279795 8.11459e-20)
(0.614345 0.0387035 1.09154e-21)
(0.732677 0.0512369 -1.35604e-19)
(0.845196 0.0645845 -1.22715e-19)
(0.947485 0.0776578 3.0356e-21)
(1.03622 0.0894264 -9.96342e-20)
(1.10944 0.0990492 2.40027e-19)
(1.16658 0.105962 0)
(1.20841 0.109916 -1.5556e-19)
(1.23669 0.110948 7.51457e-20)
(1.25387 0.109358 6.65008e-20)
(1.2626 0.105495 0)
(1.26545 0.1001 5.54141e-20)
(1.26453 0.0929337 -1.93377e-19)
(1.26117 0.0865562 1.81532e-19)
(1.25794 0.0759472 1.17046e-19)
(-0.0099632 0.00692102 -6.97386e-20)
(-0.00177298 0.00973384 -7.21929e-20)
(0.0328768 0.00949447 6.5057e-20)
(0.091337 0.00867981 0)
(0.171439 0.00926742 0)
(0.270514 0.0126916 -2.49592e-21)
(0.384761 0.0196668 0)
(0.509095 0.0302184 -2.65944e-19)
(0.637404 0.0437635 2.4594e-19)
(0.763168 0.059242 -3.01624e-19)
(0.880271 0.0753147 6.81419e-20)
(0.983754 0.0905986 0)
(1.07035 0.103888 1.12014e-19)
(1.13871 0.114315 -2.06943e-19)
(1.18925 0.121434 4.89639e-20)
(1.22386 0.125203 1.25236e-19)
(1.24532 0.125912 -5.52858e-21)
(1.25681 0.12406 -1.40268e-19)
(1.26134 0.12022 0)
(1.26144 0.11495 0)
(1.25894 0.108743 -5.05924e-20)
(1.25504 0.101749 4.56179e-20)
(1.2503 0.0952719 1.65542e-19)
(1.24586 0.0858932 -1.554e-19)
(-0.005688 0.00437909 -7.39359e-20)
(0.0158063 0.00379638 -7.34575e-20)
(0.0684031 0.00316221 2.0648e-19)
(0.14815 0.00430651 -1.24828e-19)
(0.251221 0.00878549 1.17496e-19)
(0.372739 0.0175945 2.12282e-19)
(0.506258 0.0307933 -1.4997e-19)
(0.644062 0.0475723 -1.81106e-19)
(0.77804 0.0664798 4.58314e-21)
(0.900827 0.08574 2.29352e-19)
(1.00682 0.103609 0)
(1.0928 0.118682 6.25289e-20)
(1.15805 0.130084 0)
(1.20398 0.137518 -1.00454e-19)
(1.2335 0.141182 1.40912e-19)
(1.25025 0.141617 9.76614e-22)
(1.25788 0.13952 -3.69815e-20)
(1.25955 0.135582 6.8762e-20)
(1.25769 0.130397 5.97643e-20)
(1.25392 0.124397 -5.37124e-20)
(1.24919 0.117921 5.05818e-20)
(1.24402 0.111023 -4.56079e-20)
(1.23858 0.104528 0)
(1.23356 0.0959264 -3.49082e-20)
(0.000874904 0.00160555 7.39253e-20)
(0.0398401 -0.00201826 7.77824e-20)
(0.113897 -0.00186625 -6.92287e-20)
(0.217322 0.00293121 1.28817e-19)
(0.343889 0.0131446 -1.21244e-19)
(0.485749 0.0288962 1.09064e-19)
(0.633414 0.0491521 -5.25458e-20)
(0.776873 0.0719706 1.36137e-19)
(0.907168 0.0950045 -8.57443e-20)
(1.01778 0.116033 1.50338e-19)
(1.10536 0.133382 -3.46223e-19)
(1.16972 0.146147 1.27216e-19)
(1.21318 0.154184 -1.09924e-19)
(1.23958 0.157946 1.03252e-19)
(1.25326 0.158225 8.85485e-20)
(1.25831 0.15591 7.73925e-20)
(1.258 0.151806 -2.15842e-19)
(1.2547 0.146543 1.33765e-19)
(1.2499 0.140562 -5.97677e-20)
(1.24447 0.134149 1.56468e-19)
(1.23884 0.127478 -5.05473e-20)
(1.23318 0.12063 -1.23639e-19)
(1.22756 0.114017 1.14242e-19)
(1.22222 0.105984 3.48981e-20)
(0.0100316 -0.00104123 0)
(0.0708034 -0.00664619 7.45668e-22)
(0.169437 -0.00396218 1.45492e-19)
(0.29781 0.00647779 -1.3637e-19)
(0.446501 0.0241469 -1.22458e-19)
(0.604201 0.0477762 2.27287e-19)
(0.758691 0.0748819 -1.05405e-19)
(0.898924 0.10237 1.39468e-19)
(1.01696 0.127345 -3.39185e-21)
(1.10894 0.14772 -7.87085e-20)
(1.17499 0.162473 1.69915e-19)
(1.21817 0.17159 -2.50728e-19)
(1.24318 0.17577 0)
(1.2551 0.17607 -4.88309e-20)
(1.25842 0.173589 -1.29617e-19)
(1.25664 0.169266 4.08932e-20)
(1.25214 0.163798 1.62521e-21)
(1.24641 0.157655 -8.88645e-20)
(1.24026 0.151123 5.61136e-21)
(1.23409 0.144375 1.02809e-19)
(1.22805 0.137511 -4.593e-20)
(1.22216 0.130602 -1.75223e-20)
(1.21638 0.123798 5.37652e-20)
(1.2108 0.116187 0)
(0.022019 -0.0031475 0)
(0.1088 -0.00893579 3.95415e-20)
(0.234294 -0.00151231 -1.90697e-19)
(0.387301 0.0166009 6.9136e-20)
(0.554619 0.0429601 -6.50674e-20)
(0.721647 0.0744494 -5.93817e-20)
(0.87468 0.107073 -1.04264e-19)
(1.00361 0.136978 5.23962e-20)
(1.10345 0.161391 4.50994e-20)
(1.17417 0.179006 0)
(1.21944 0.189851 1.01428e-19)
(1.2448 0.194867 -1.50651e-19)
(1.25608 0.195402 1.1183e-19)
(1.25836 0.192807 4.88568e-20)
(1.25546 0.188202 -3.98927e-20)
(1.24994 0.182397 -3.30418e-20)
(1.24334 0.175917 -3.07731e-20)
(1.23647 0.169076 9.25667e-20)
(1.22972 0.162052 0)
(1.22322 0.154946 4.63312e-20)
(1.217 0.147821 3.89535e-20)
(1.21102 0.140728 -9.6804e-20)
(1.2052 0.133678 -6.64095e-20)
(1.19951 0.126331 6.124e-20)
(0.0369342 -0.00424638 -4.31775e-20)
(0.153426 -0.00771424 -1.82384e-21)
(0.306829 0.00691893 3.8897e-20)
(0.482323 0.0344522 1.08743e-19)
(0.662897 0.0699285 3.14791e-20)
(0.83173 0.108204 -6.09573e-20)
(0.975636 0.144152 5.54761e-20)
(1.08752 0.173906 -4.83017e-20)
(1.16658 0.195557 8.63885e-20)
(1.21674 0.20902 3.64126e-20)
(1.24435 0.215439 -1.03701e-19)
(1.25619 0.216495 3.02958e-20)
(1.25808 0.213867 5.14249e-20)
(1.25438 0.208929 -2.53546e-20)
(1.24796 0.202657 0)
(1.24049 0.195671 3.73016e-20)
(1.23285 0.188335 6.27974e-20)
(1.22545 0.180844 1.05148e-20)
(1.21842 0.173307 -5.21931e-20)
(1.21179 0.165785 2.16943e-20)
(1.20551 0.158321 0)
(1.19949 0.150938 -1.69687e-20)
(1.19367 0.143603 -1.61873e-20)
(1.18795 0.136366 0)
(0.0546679 -0.00383912 0)
(0.203682 -0.00187898 2.26744e-20)
(0.384523 0.0224377 4.19101e-20)
(0.578613 0.0605431 -1.11232e-19)
(0.765915 0.104598 3.6065e-20)
(0.929288 0.147704 0)
(1.05828 0.184392 5.35627e-20)
(1.15027 0.211649 -7.4765e-20)
(1.20889 0.228968 -4.32219e-20)
(1.2412 0.237603 1.93992e-20)
(1.25507 0.239609 -3.08473e-20)
(1.25737 0.237093 7.49913e-20)
(1.25324 0.231783 3.7124e-20)
(1.24603 0.224903 -2.60088e-20)
(1.2377 0.217225 -2.62858e-21)
(1.22925 0.209186 -6.98094e-20)
(1.22114 0.201021 3.17077e-20)
(1.21351 0.19285 -8.52775e-22)
(1.2064 0.184739 0)
(1.19975 0.176728 -2.17171e-20)
(1.19349 0.168842 0)
(1.18754 0.161077 4.87201e-20)
(1.18179 0.153431 -5.78e-20)
(1.17611 0.146143 2.63047e-20)
(0.0748587 -0.00143276 -1.19372e-20)
(0.257959 0.00949859 -5.72689e-20)
(0.464168 0.0456999 6.52526e-20)
(0.671643 0.094714 3.81662e-20)
(0.858955 0.145893 -1.8214e-20)
(1.01094 0.191347 3.04478e-20)
(1.12165 0.226271 -1.47944e-20)
(1.19348 0.249212 2.4422e-20)
(1.23385 0.261295 0)
(1.25183 0.26495 5.47142e-20)
(1.25567 0.262829 -2.44746e-21)
(1.25162 0.257161 -4.38079e-20)
(1.24381 0.249539 1.8599e-20)
(1.23464 0.240962 -2.07983e-20)
(1.22534 0.231992 -7.75063e-21)
(1.21646 0.222923 9.13628e-21)
(1.20817 0.213899 -6.93016e-21)
(1.20051 0.204991 -3.74967e-20)
(1.19344 0.196241 2.29349e-20)
(1.18688 0.187674 4.63347e-21)
(1.18074 0.179297 4.05756e-21)
(1.17491 0.171092 3.55533e-21)
(1.16929 0.163119 0)
(1.16371 0.155613 0)
(0.0969514 0.00342461 1.19454e-20)
(0.314253 0.0270876 -1.19191e-20)
(0.542329 0.0768369 -2.17598e-20)
(0.757301 0.136194 0)
(0.938575 0.192356 -9.05571e-21)
(1.07509 0.237567 -8.15976e-21)
(1.16639 0.268627 -1.3863e-20)
(1.21952 0.286053 0)
(1.24467 0.292529 0)
(1.25179 0.291361 0)
(1.24867 0.285473 0)
(1.24061 0.277003 0)
(1.2307 0.267305 -1.16504e-20)
(1.22054 0.257141 5.29351e-21)
(1.21084 0.246901 9.11908e-21)
(1.20185 0.236767 4.25745e-21)
(1.1936 0.226823 1.04104e-20)
(1.18607 0.21711 0)
(1.17917 0.207653 -2.44453e-21)
(1.17282 0.198465 -2.34581e-21)
(1.16691 0.189534 -4.06405e-21)
(1.16133 0.180848 -3.56103e-21)
(1.15594 0.172537 0)
(1.15059 0.164659 2.49549e-21)
(-0.00108676 -0.0236366 8.74818e-21)
(-0.00737281 -0.0457537 -9.08837e-21)
(-0.019633 -0.0512052 -1.72071e-20)
(-0.0348434 -0.0457923 0)
(-0.0513887 -0.0338898 -2.31198e-20)
(-0.068503 -0.0184738 7.3412e-21)
(-0.0856767 -0.0012759 -1.35916e-20)
(-0.102547 0.0169449 0)
(-0.118847 0.0360676 0)
(-0.134351 0.0563099 0)
(-0.14886 0.0779932 0)
(-0.16218 0.101385 0)
(-0.174115 0.126621 2.62555e-22)
(-0.184455 0.153685 -9.00015e-21)
(-0.192973 0.182395 1.63082e-20)
(-0.199421 0.212408 2.3084e-20)
(-0.203536 0.243217 6.85066e-21)
(-0.205041 0.274147 0)
(-0.203668 0.304364 6.37415e-21)
(-0.199177 0.332903 -1.75626e-20)
(-0.191359 0.358714 -1.08397e-20)
(-0.180004 0.380718 -1.0174e-20)
(-0.165003 0.397877 0)
(-0.146861 0.40946 0)
(-1.31971e-05 -0.0181408 -2.60206e-20)
(-0.00517696 -0.0333319 4.50766e-20)
(-0.0166709 -0.034556 -1.65757e-20)
(-0.0312502 -0.0266264 -3.19392e-20)
(-0.047137 -0.0133057 4.5383e-20)
(-0.0634558 0.00279883 -2.83119e-20)
(-0.079644 0.020162 4.02173e-20)
(-0.0953124 0.0381181 2.45584e-20)
(-0.110174 0.056589 0)
(-0.123983 0.0758042 -2.24363e-20)
(-0.136504 0.0960807 1.43147e-22)
(-0.147497 0.117676 1.98747e-20)
(-0.15671 0.140713 2.69012e-20)
(-0.163876 0.165149 3.36628e-20)
(-0.168708 0.190777 -1.64802e-20)
(-0.170902 0.217229 -4.47196e-20)
(-0.170142 0.243981 1.3166e-20)
(-0.166109 0.270363 -5.05592e-20)
(-0.158499 0.29557 0)
(-0.147042 0.318698 1.15605e-20)
(-0.13152 0.338788 1.08219e-20)
(-0.111739 0.354962 1.01569e-20)
(-0.0874474 0.366482 0)
(-0.0589267 0.373204 0)
(0.00053496 -0.0130767 0)
(-0.00390864 -0.0220378 8.67428e-20)
(-0.0144588 -0.019614 -3.28007e-20)
(-0.0278896 -0.00966872 3.13478e-20)
(-0.0423687 0.0046495 -8.70513e-20)
(-0.0569497 0.0210986 0)
(-0.0710329 0.0383417 -5.12829e-20)
(-0.0842145 0.0557832 2.37012e-20)
(-0.0962009 0.0733469 -4.42522e-20)
(-0.106738 0.0912412 1.97749e-20)
(-0.115573 0.109762 1.16918e-19)
(-0.122438 0.129154 -5.4842e-20)
(-0.127049 0.149532 -8.57032e-20)
(-0.129104 0.170851 -3.05308e-20)
(-0.12829 0.1929 4.87123e-22)
(-0.124283 0.215314 1.10601e-19)
(-0.116758 0.237577 -5.17296e-20)
(-0.105408 0.259066 1.38965e-21)
(-0.0899561 0.279022 0)
(-0.070193 0.296615 -4.14097e-20)
(-0.0459191 0.311002 0)
(-0.0170156 0.321406 -3.94905e-20)
(0.0169057 0.327307 1.45779e-19)
(0.0558694 0.328991 2.18805e-21)
(0.000636946 -0.00873491 0)
(-0.00351038 -0.0124731 -7.63508e-22)
(-0.0131483 -0.00715904 3.1675e-20)
(-0.0251986 0.00417676 -2.9688e-20)
(-0.0378403 0.0189637 2.88872e-20)
(-0.0500843 0.0353134 1.58728e-19)
(-0.0613075 0.0520666 -4.98805e-20)
(-0.0711036 0.0686807 -4.58261e-20)
(-0.0791875 0.0850597 8.69363e-20)
(-0.0853176 0.101368 -1.21826e-19)
(-0.0892515 0.117861 3.72149e-20)
(-0.090727 0.134762 3.43306e-20)
(-0.0894591 0.15218 0)
(-0.0851492 0.170086 3.10351e-20)
(-0.0774942 0.18829 0)
(-0.066201 0.206459 5.10411e-20)
(-0.0509576 0.224138 -9.72681e-20)
(-0.0315083 0.240755 2.36157e-20)
(-0.00766825 0.255638 8.55272e-20)
(0.0207224 0.268066 4.13591e-20)
(0.053732 0.277308 0)
(0.0913054 0.28263 -1.11295e-19)
(0.133659 0.283598 3.49109e-20)
(0.183094 0.280344 0)
(0.000377301 -0.0051916 0)
(-0.00390917 -0.00482778 -9.99467e-20)
(-0.0128644 0.00250501 -3.11452e-20)
(-0.0235831 0.0144836 -5.88324e-20)
(-0.034284 0.0290747 5.53975e-20)
(-0.0439571 0.0447371 -5.24488e-20)
(-0.051969 0.0604921 9.63633e-20)
(-0.0579211 0.0758519 4.49715e-20)
(-0.061551 0.0906976 -1.27131e-19)
(-0.0626508 0.105138 7.76182e-20)
(-0.0610175 0.119376 -1.09323e-19)
(-0.0564324 0.133598 2.32941e-19)
(-0.0486481 0.147911 -1.2546e-19)
(-0.0374075 0.162298 5.65853e-20)
(-0.0224592 0.176607 1.58993e-19)
(-0.00355645 0.190565 -5.19176e-20)
(0.0195254 0.203793 -4.58913e-20)
(0.0469692 0.21579 -4.44486e-20)
(0.0788926 0.226006 0)
(0.115357 0.23384 -7.75372e-20)
(0.156341 0.238671 -7.53113e-20)
(0.201854 0.239855 1.04531e-19)
(0.250757 0.237043 1.38913e-19)
(0.310589 0.229306 -1.29206e-19)
(-0.000198418 -0.00233678 0)
(-0.00507193 0.00107913 -1.30034e-19)
(-0.0137121 0.00952848 6.85161e-22)
(-0.0233475 0.0213202 1.15763e-19)
(-0.0322462 0.0349364 0)
(-0.0394013 0.0491859 0)
(-0.0441849 0.0632869 0)
(-0.0462171 0.0768258 -4.39018e-20)
(-0.0452688 0.0896755 1.06881e-21)
(-0.0411792 0.101896 7.62172e-20)
(-0.033804 0.113634 -1.05632e-19)
(-0.0229896 0.125038 8.63215e-22)
(-0.00856343 0.136199 0)
(0.00966026 0.147111 -5.6557e-20)
(0.0318645 0.157668 4.95988e-20)
(0.0582226 0.167657 -1.42497e-19)
(0.0888825 0.176773 1.77284e-19)
(0.123956 0.184627 4.05092e-20)
(0.16351 0.190771 7.97846e-22)
(0.207578 0.194717 -1.46947e-19)
(0.255967 0.195965 -6.91224e-20)
(0.309552 0.193928 2.37803e-19)
(0.363887 0.188609 -1.59578e-19)
(0.435797 0.176996 0)
(-0.00110273 5.79419e-05 6.1971e-20)
(-0.00701414 0.00568165 6.47891e-20)
(-0.0157315 0.0144134 -6.03277e-20)
(-0.024572 0.0251972 -1.13551e-19)
(-0.0318675 0.0370343 1.06918e-19)
(-0.0366443 0.0490961 -9.89796e-20)
(-0.0383017 0.0608204 1.39067e-19)
(-0.0364873 0.0718974 -4.36092e-20)
(-0.0310072 0.0822202 8.02694e-20)
(-0.0217465 0.0918223 0)
(-0.00861639 0.100808 6.58288e-20)
(0.00847561 0.109291 -1.24898e-19)
(0.0296371 0.117348 1.14841e-19)
(0.0549909 0.124988 -1.07856e-19)
(0.0846673 0.132139 0)
(0.118795 0.13865 9.18468e-20)
(0.157492 0.14429 1.68824e-19)
(0.20085 0.148761 -1.59841e-19)
(0.24893 0.151708 -7.40473e-20)
(0.30189 0.152758 -7.32476e-20)
(0.359004 0.151437 2.0371e-19)
(0.423338 0.147325 6.60727e-20)
(0.483921 0.14074 -6.0037e-20)
(0.573066 0.126818 5.9903e-20)
(-0.0023897 0.00224028 -6.19795e-20)
(-0.00974881 0.00948753 1.90994e-19)
(-0.0187982 0.0178289 -5.97672e-20)
(-0.02695 0.0269126 1.12238e-19)
(-0.0326321 0.0362838 -1.05682e-19)
(-0.0349401 0.0454928 1.38496e-22)
(-0.0333161 0.054221 4.58173e-20)
(-0.0274351 0.0622936 1.66348e-19)
(-0.0171205 0.0696586 -2.75348e-21)
(-0.00227295 0.0763559 -7.40146e-20)
(0.0171814 0.0824754 0)
(0.0413197 0.0881151 -5.91942e-20)
(0.0702361 0.0933473 1.13812e-19)
(0.104043 0.0981951 1.03045e-19)
(0.142863 0.102619 -4.92398e-20)
(0.186822 0.106514 -1.08485e-21)
(0.236027 0.109706 -4.20193e-20)
(0.29055 0.111966 7.68611e-20)
(0.350349 0.112989 7.40395e-20)
(0.415711 0.112543 -7.01764e-20)
(0.48469 0.10998 6.55982e-20)
(0.563416 0.105483 -6.28272e-20)
(0.631463 0.0986465 0)
(0.740753 0.0856204 -5.98748e-20)
(-0.00409996 0.00437509 6.13889e-20)
(-0.0131784 0.0128842 -6.35926e-20)
(-0.0224908 0.0203857 5.96697e-20)
(-0.0296301 0.0273228 0)
(-0.0331719 0.0338113 0)
(-0.0323075 0.0397943 9.59647e-20)
(-0.0265223 0.0452172 -9.08904e-20)
(-0.0154929 0.0500679 8.14756e-20)
(0.000982391 0.0543837 -3.84991e-19)
(0.0230431 0.0582478 1.18948e-21)
(0.0508059 0.0617663 6.50484e-20)
(0.0843831 0.0650437 0)
(0.123884 0.0681597 -1.09559e-19)
(0.169406 0.0711492 2.03988e-19)
(0.221009 0.0739891 -1.42459e-19)
(0.278686 0.0765912 -2.18044e-19)
(0.342336 0.0788029 7.61878e-22)
(0.411739 0.0804189 1.51722e-19)
(0.486375 0.0811211 0)
(0.566248 0.0808338 0)
(0.647958 0.0785627 -6.55973e-20)
(0.739086 0.0754919 6.28255e-20)
(0.813006 0.0691392 -2.42483e-19)
(0.932123 0.0602405 2.27191e-19)
(-0.00619018 0.0064705 0)
(-0.0169789 0.0159852 0)
(-0.0259923 0.0224292 -1.78704e-19)
(-0.0311593 0.0270856 5.68253e-20)
(-0.0312629 0.0306465 1.11416e-21)
(-0.0255987 0.0334516 9.74448e-20)
(-0.0136759 0.0357209 0)
(0.00485951 0.0376255 -8.30525e-20)
(0.0302716 0.039318 7.68259e-20)
(0.0627592 0.0409505 -1.39203e-19)
(0.102463 0.0426678 1.157e-21)
(0.149455 0.0445927 1.18e-19)
(0.203714 0.046807 -2.13683e-21)
(0.265085 0.049334 9.86336e-20)
(0.333244 0.0521265 -1.41657e-19)
(0.407666 0.0550606 0)
(0.487596 0.0579362 1.6164e-19)
(0.57206 0.0604913 -2.27735e-19)
(0.659719 0.0623557 7.12513e-20)
(0.749611 0.0633917 0)
(0.83807 0.0625561 6.37884e-20)
(0.929941 0.0613138 2.47676e-19)
(1.00321 0.0557258 -2.32431e-19)
(1.10858 0.051111 -2.80896e-19)
(-0.00847814 0.00836236 1.85244e-19)
(-0.0205368 0.0185758 -2.55055e-19)
(-0.0281021 0.0239204 5.97724e-22)
(-0.0296207 0.0264639 5.6619e-20)
(-0.024141 0.0274358 -1.05034e-19)
(-0.0110677 0.0275566 -9.70949e-20)
(0.0100708 0.0273175 1.78441e-19)
(0.0396457 0.0270715 -3.4393e-21)
(0.0779147 0.0270975 -1.54824e-19)
(0.125007 0.0276252 2.8091e-19)
(0.180871 0.0288332 -3.01609e-21)
(0.245223 0.0308384 -1.20633e-19)
(0.317507 0.0336814 0)
(0.396854 0.0373122 0)
(0.482082 0.0415807 -4.68118e-20)
(0.571706 0.0462356 -8.72175e-20)
(0.663984 0.0509394 -1.61747e-19)
(0.756978 0.0552648 1.5182e-19)
(0.848613 0.0587979 -7.12794e-20)
(0.93692 0.0610052 1.34428e-19)
(1.01932 0.0615045 -6.28735e-20)
(1.09629 0.0603059 1.21763e-19)
(1.1578 0.0553644 -2.81715e-19)
(1.22865 0.051381 5.48484e-20)
(-0.0106365 0.00977143 6.22966e-20)
(-0.022978 0.0201897 0)
(-0.027365 0.0244703 1.20809e-19)
(-0.0229215 0.0252903 -1.1381e-19)
(-0.00901832 0.0243216 1.05128e-19)
(0.0147918 0.0226211 0)
(0.0488785 0.0209172 0)
(0.093486 0.0197338 -8.24658e-20)
(0.148634 0.0194571 3.1091e-21)
(0.214023 0.0203526 7.2863e-20)
(0.288961 0.0225787 -6.43445e-20)
(0.372307 0.0261752 1.21651e-19)
(0.462464 0.0310516 0)
(0.557427 0.036982 2.02877e-19)
(0.654869 0.0436123 -3.78193e-19)
(0.75227 0.0504782 2.63496e-19)
(0.847064 0.0570481 1.61879e-19)
(0.936777 0.0627187 -1.51952e-19)
(1.0192 0.0670392 0)
(1.09243 0.0691765 0)
(1.15519 0.0695751 0)
(1.20681 0.066121 0)
(1.2461 0.0618262 5.55404e-20)
(1.27999 0.053201 -2.04655e-19)
(-0.123264 0.416434 -6.57422e-21)
(-0.090461 0.411704 6.60791e-21)
(-0.0503047 0.390375 -2.11882e-22)
(-0.00355027 0.351222 0)
(0.04923 0.29334 -6.81339e-21)
(0.106243 0.216862 1.34189e-20)
(0.165806 0.123728 8.43522e-23)
(0.226026 0.0160839 -6.50347e-21)
(0.285606 -0.102531 0)
(0.344023 -0.22688 0)
(0.400261 -0.348721 -3.35195e-22)
(0.452559 -0.456827 -2.87727e-22)
(0.497707 -0.539611 -3.61026e-21)
(0.532311 -0.59012 3.27806e-21)
(0.554607 -0.60873 0)
(0.564645 -0.602593 0)
(0.56108 -0.585439 1.58754e-21)
(0.540291 -0.57306 -5.08398e-23)
(0.503829 -0.568838 -1.36362e-21)
(0.465759 -0.55206 -8.93551e-23)
(0.448215 -0.487253 0)
(0.465315 -0.352833 0)
(0.513207 -0.160744 0)
(0.577657 0.0508994 0)
(0.644677 0.239325 0)
(0.70348 0.374808 0)
(0.747106 0.45284 3.74189e-22)
(0.774024 0.484705 -6.00237e-22)
(0.788532 0.486525 0)
(0.791011 0.481231 0)
(0.774603 0.490568 -3.32686e-22)
(0.737875 0.510188 3.23347e-22)
(0.698029 0.493219 2.03963e-22)
(0.678031 0.393633 0)
(0.690114 0.206341 0)
(0.723836 -0.0122927 4.93161e-22)
(0.766807 -0.202774 -4.7936e-22)
(0.804303 -0.325303 0)
(0.83398 -0.383621 2.53985e-22)
(0.847499 -0.408578 -3.58877e-22)
(0.834145 -0.423381 9.35649e-23)
(0.791798 -0.438952 0)
(0.74402 -0.397224 -2.07747e-22)
(0.715421 -0.294369 2.02016e-22)
(0.726083 -0.108808 0)
(0.758017 0.0651169 0)
(0.804347 0.206256 -7.93799e-23)
(0.828791 0.301881 2.14338e-22)
(0.820305 0.35038 0)
(0.783234 0.400855 0)
(0.760029 0.316752 -5.61158e-23)
(0.757731 0.226698 -7.61408e-24)
(0.797022 0.0317968 -3.00002e-24)
(0.815796 -0.115101 4.86878e-23)
(0.820992 -0.222385 0)
(0.803342 -0.374816 0)
(0.799722 -0.279697 0)
(0.792138 -0.291424 0)
(0.802692 -0.0591185 0)
(0.785976 0.159114 0)
(-0.0250643 0.375995 -6.30136e-22)
(0.0166331 0.366046 -2.7877e-20)
(0.0647815 0.340111 -1.01831e-21)
(0.118341 0.297301 2.71141e-20)
(0.176012 0.237253 4.54946e-22)
(0.23601 0.160292 0)
(0.296607 0.0678172 -2.84128e-20)
(0.356253 -0.0382094 5.59886e-20)
(0.414171 -0.154658 -2.75711e-20)
(0.469717 -0.276817 2.39414e-20)
(0.521492 -0.395857 -2.29341e-20)
(0.566594 -0.499085 1.73174e-20)
(0.601115 -0.573901 -1.6903e-20)
(0.622117 -0.613893 -3.96266e-22)
(0.629048 -0.621412 -8.94962e-21)
(0.623996 -0.604653 8.69794e-21)
(0.608871 -0.57584 -6.1121e-21)
(0.581169 -0.550839 5.77056e-21)
(0.538053 -0.538837 -5.47133e-21)
(0.486951 -0.526733 1.09783e-20)
(0.448 -0.480103 -5.49633e-21)
(0.441449 -0.36884 -3.65806e-22)
(0.471604 -0.194753 -6.89324e-21)
(0.527561 0.00818081 1.32094e-20)
(0.593946 0.196747 -6.32686e-21)
(0.657441 0.339827 2.98524e-22)
(0.709176 0.428712 3.88186e-21)
(0.746224 0.470453 -4.3882e-22)
(0.770831 0.480438 -5.75571e-21)
(0.780808 0.483928 5.3226e-21)
(0.769522 0.502474 -2.57847e-21)
(0.738514 0.527141 3.66397e-22)
(0.707562 0.506998 -2.0439e-22)
(0.697367 0.397736 5.28008e-22)
(0.717265 0.199617 0)
(0.754773 -0.0263432 0)
(0.797127 -0.218322 -1.77138e-21)
(0.82922 -0.338182 1.32776e-21)
(0.851153 -0.391232 7.52437e-22)
(0.858401 -0.40826 -7.40465e-23)
(0.841366 -0.413632 -9.0371e-22)
(0.796777 -0.423455 1.60909e-22)
(0.743771 -0.384148 0)
(0.710697 -0.291139 0)
(0.717412 -0.116043 0)
(0.750454 0.051953 0)
(0.797766 0.19507 2.94481e-22)
(0.823276 0.298932 -1.3727e-22)
(0.816117 0.355825 0)
(0.779587 0.408743 0)
(0.760071 0.320196 0)
(0.757921 0.222589 -1.27597e-22)
(0.801565 0.0253071 -9.97789e-24)
(0.821989 -0.118195 -9.80381e-23)
(0.828036 -0.220764 0)
(0.809878 -0.372307 0)
(0.802841 -0.278969 3.76621e-23)
(0.795077 -0.291394 8.47706e-23)
(0.800829 -0.0581779 0)
(0.783978 0.160554 0)
(0.0962531 0.328428 3.14055e-21)
(0.143459 0.315408 -5.39003e-20)
(0.195384 0.287415 5.92136e-20)
(0.251705 0.243739 -5.53566e-20)
(0.310799 0.184275 -4.57986e-22)
(0.370816 0.109329 0)
(0.430401 0.0196949 -6.08906e-20)
(0.48845 -0.0826958 5.96671e-20)
(0.544177 -0.195552 4.31817e-22)
(0.596698 -0.314111 8.20929e-22)
(0.64371 -0.428884 7.32435e-22)
(0.680955 -0.526163 6.11406e-22)
(0.703958 -0.592964 -2.96771e-20)
(0.710801 -0.623598 2.92406e-20)
(0.702713 -0.622197 0)
(0.683223 -0.598387 4.86925e-22)
(0.656544 -0.562605 -1.17075e-20)
(0.622541 -0.527904 1.1548e-20)
(0.576121 -0.506658 0)
(0.517742 -0.494846 0)
(0.462445 -0.463617 -1.05492e-20)
(0.433454 -0.377369 2.18384e-20)
(0.443695 -0.22602 -2.25841e-20)
(0.487564 -0.0361787 4.61304e-22)
(0.550095 0.149782 2.05003e-20)
(0.616052 0.299139 -1.8115e-20)
(0.674392 0.398518 1.43088e-20)
(0.720779 0.450676 -1.16796e-21)
(0.754912 0.470092 -5.57112e-21)
(0.772227 0.483456 0)
(0.766729 0.511397 0)
(0.742531 0.541016 2.61161e-21)
(0.720941 0.51852 -3.26302e-21)
(0.720298 0.401467 2.85097e-23)
(0.747596 0.194962 4.93219e-21)
(0.788407 -0.0367969 -4.79274e-21)
(0.829689 -0.229678 0)
(0.856262 -0.347083 3.95595e-22)
(0.870234 -0.395851 2.44744e-21)
(0.871014 -0.406352 -4.19949e-21)
(0.850569 -0.403173 1.60819e-21)
(0.804575 -0.407483 1.36976e-22)
(0.747182 -0.370763 -1.60243e-21)
(0.709949 -0.288194 1.27457e-21)
(0.712364 -0.124336 3.18518e-22)
(0.745837 0.0375163 2.95319e-22)
(0.793402 0.182801 -2.95235e-22)
(0.819659 0.295289 0)
(0.813954 0.360642 0)
(0.778201 0.41634 -9.79328e-22)
(0.762507 0.323781 4.87022e-22)
(0.760346 0.218619 -5.66248e-22)
(0.807902 0.018917 7.9225e-22)
(0.829787 -0.121289 8.69279e-22)
(0.83653 -0.218694 -1.83036e-22)
(0.817357 -0.36935 2.66438e-22)
(0.806755 -0.277964 -1.75982e-22)
(0.798923 -0.290996 5.27605e-23)
(0.800096 -0.0570293 0)
(0.783035 0.161996 0)
(0.22578 0.2777 -1.09915e-19)
(0.275105 0.262938 -5.80269e-21)
(0.327895 0.234703 1.10126e-19)
(0.384328 0.19232 -9.21257e-22)
(0.442802 0.135506 0)
(0.501442 0.0641742 0)
(0.55947 -0.0210813 -1.24263e-19)
(0.616115 -0.118877 -5.22689e-22)
(0.670358 -0.227382 1.73249e-19)
(0.720696 -0.341514 -4.2977e-21)
(0.763376 -0.450949 -5.05118e-20)
(0.792641 -0.541204 -3.62484e-20)
(0.803743 -0.599611 3.64533e-20)
(0.796181 -0.621741 0)
(0.773522 -0.613134 -1.8235e-20)
(0.740788 -0.584656 1.67437e-20)
(0.703246 -0.545801 0)
(0.663253 -0.505431 0)
(0.61602 -0.475043 8.23808e-21)
(0.556111 -0.45862 -8.68264e-23)
(0.490813 -0.437405 -7.41896e-21)
(0.442204 -0.37576 -9.19884e-21)
(0.430877 -0.251596 9.1457e-21)
(0.45927 -0.0798967 -9.4976e-21)
(0.514601 0.100131 9.71782e-22)
(0.580159 0.253744 8.00278e-21)
(0.643275 0.362729 7.81094e-22)
(0.697814 0.425536 4.91813e-23)
(0.740606 0.455284 0)
(0.765009 0.479099 5.16964e-21)
(0.765851 0.516287 -5.34665e-21)
(0.749182 0.550906 3.8097e-22)
(0.737124 0.527527 0)
(0.745911 0.405271 -5.63112e-22)
(0.780156 0.192683 1.03872e-20)
(0.823833 -0.043579 -1.839e-20)
(0.863856 -0.237146 3.29227e-22)
(0.885088 -0.352419 1.6888e-21)
(0.891099 -0.39777 5.1656e-21)
(0.885199 -0.403181 4.57839e-22)
(0.861406 -0.392462 -2.58589e-21)
(0.814775 -0.391272 2.21302e-21)
(0.754027 -0.35685 3.52921e-23)
(0.713068 -0.285117 1.18911e-21)
(0.710832 -0.133383 -1.47578e-21)
(0.743972 0.0220553 -1.85891e-21)
(0.791131 0.16952 5.67282e-22)
(0.817887 0.290861 9.14591e-22)
(0.813838 0.364683 -1.83158e-21)
(0.779167 0.42358 1.39629e-21)
(0.76747 0.327597 -5.9021e-22)
(0.765167 0.214985 5.20456e-22)
(0.816019 0.0127389 5.97761e-22)
(0.839096 -0.124375 -1.38392e-21)
(0.846411 -0.216194 4.60378e-23)
(0.825738 -0.365892 -2.76852e-22)
(0.811406 -0.27666 0)
(0.803602 -0.290256 -6.82801e-23)
(0.800422 -0.0556931 4.54655e-23)
(0.783105 0.163446 0)
(0.353213 0.226021 1.08559e-19)
(0.402426 0.211179 -2.19631e-19)
(0.454468 0.184049 1.09297e-19)
(0.509839 0.144226 1.20871e-19)
(0.567025 0.0910654 -2.42308e-19)
(0.624531 0.0236763 -3.52237e-21)
(0.681728 -0.0560038 1.22343e-19)
(0.737909 -0.148559 1.19448e-19)
(0.791525 -0.251669 -1.16987e-19)
(0.839896 -0.359633 0)
(0.877589 -0.461481 -8.96488e-20)
(0.897843 -0.542808 1.62275e-19)
(0.896466 -0.592299 -7.30626e-20)
(0.874827 -0.607347 0)
(0.838861 -0.594252 0)
(0.795109 -0.563848 4.91338e-22)
(0.748713 -0.525123 -2.16888e-20)
(0.703074 -0.483608 2.10724e-20)
(0.655728 -0.447019 0)
(0.598593 -0.423273 1.34093e-20)
(0.530424 -0.405105 -2.55176e-20)
(0.467412 -0.363553 2.6052e-20)
(0.434613 -0.268506 -2.79977e-20)
(0.444067 -0.120129 -3.44423e-22)
(0.488286 0.0494848 2.73457e-20)
(0.550523 0.204558 -1.30815e-20)
(0.616255 0.321695 -3.59963e-22)
(0.677299 0.394976 -4.19763e-21)
(0.727584 0.435565 -1.46167e-22)
(0.758694 0.470054 4.39433e-21)
(0.766268 0.516283 3.27573e-22)
(0.757574 0.556267 -6.9903e-21)
(0.755032 0.534003 1.54685e-20)
(0.772829 0.40947 -9.60682e-21)
(0.813652 0.193032 0)
(0.860223 -0.046491 -1.12501e-20)
(0.898967 -0.240583 1.07849e-20)
(0.915153 -0.354052 -5.25613e-21)
(0.9134 -0.396824 6.59456e-21)
(0.900758 -0.398666 -4.55283e-22)
(0.873654 -0.381673 0)
(0.827014 -0.375199 -2.55586e-22)
(0.763968 -0.342636 7.13093e-22)
(0.719766 -0.281706 0)
(0.712581 -0.142827 2.41417e-21)
(0.744611 0.00581093 -9.65547e-22)
(0.790774 0.155244 4.61419e-22)
(0.817838 0.285487 3.97537e-22)
(0.815722 0.367756 0)
(0.782508 0.430366 0)
(0.775005 0.3317 -1.81821e-21)
(0.772469 0.211858 3.14252e-21)
(0.82587 0.00687654 -1.86866e-21)
(0.849802 -0.127431 5.98079e-22)
(0.857599 -0.213227 8.96768e-22)
(0.834973 -0.361839 2.77111e-22)
(0.816735 -0.275045 -2.90524e-22)
(0.809034 -0.289206 0)
(0.801719 -0.0541897 -8.77305e-23)
(0.784138 0.164907 -9.5214e-24)
(0.477226 0.174484 1.06792e-19)
(0.524909 0.16103 -1.06355e-19)
(0.575359 0.135933 8.89798e-22)
(0.629355 0.0993577 -8.82351e-22)
(0.685097 0.0499817 9.43908e-22)
(0.742758 -0.0119067 -9.5852e-22)
(0.800368 -0.086301 1.83499e-21)
(0.85597 -0.173305 0)
(0.908444 -0.269657 -1.72177e-21)
(0.953316 -0.369283 1.59677e-21)
(0.983832 -0.461148 1.42773e-21)
(0.993232 -0.53204 -1.27579e-21)
(0.978913 -0.572763 0)
(0.944398 -0.582484 0)
(0.897306 -0.567683 6.32094e-22)
(0.845166 -0.537974 0)
(0.792665 -0.501454 -3.67232e-22)
(0.74256 -0.46192 0)
(0.694606 -0.422913 -1.24859e-20)
(0.641946 -0.391919 2.29262e-20)
(0.577197 -0.37078 -2.00181e-20)
(0.507145 -0.341809 9.54584e-21)
(0.455422 -0.274145 1.02908e-20)
(0.443394 -0.153543 -9.99466e-21)
(0.472577 0.000816611 -1.02004e-20)
(0.528053 0.152902 9.87739e-21)
(0.593714 0.275948 0)
(0.65914 0.359063 1.99219e-22)
(0.715485 0.410655 0)
(0.752793 0.455797 0)
(0.76724 0.510809 1.03671e-20)
(0.766691 0.556773 -1.06224e-20)
(0.773385 0.537758 9.27627e-22)
(0.799608 0.414111 1.1929e-21)
(0.846718 0.19674 -1.34589e-21)
(0.896431 -0.0452536 -1.01969e-20)
(0.934241 -0.240015 9.89912e-21)
(0.945898 -0.352127 -7.16444e-21)
(0.936778 -0.393092 6.09046e-21)
(0.917434 -0.392847 9.13531e-22)
(0.887017 -0.370979 -2.33528e-21)
(0.840821 -0.359505 1.83443e-22)
(0.776502 -0.328219 1.35675e-21)
(0.729633 -0.277721 0)
(0.717286 -0.152224 -8.36358e-22)
(0.74741 -0.0109788 1.10847e-21)
(0.792088 0.139953 -1.49551e-21)
(0.81933 0.278971 -4.00078e-22)
(0.819482 0.369646 0)
(0.788152 0.436565 6.39207e-22)
(0.785045 0.336097 -1.11108e-21)
(0.78227 0.20938 4.22328e-23)
(0.837384 0.00142243 -7.26591e-22)
(0.861783 -0.130417 1.01364e-21)
(0.86998 -0.209773 -9.37773e-22)
(0.844999 -0.357103 0)
(0.822682 -0.273099 2.90655e-22)
(0.81514 -0.287873 0)
(0.803896 -0.0525422 0)
(0.786078 0.166379 1.47278e-23)
(0.611086 0.12542 -1.05195e-19)
(0.654602 0.113296 1.04016e-19)