/*--------------------------------*- C++ -*----------------------------------*\
| =========                 |                                                 |
| \\      /  F ield         | OpenFOAM: The Open Source CFD Toolbox           |
|  \\    /   O peration     | Version:  2512                                  |
|   \\  /    A nd           | Website:  www.openfoam.com                      |
|    \\/     M anipulation  |                                                 |
\*---------------------------------------------------------------------------*/
FoamFile
{
    version     2.0;
    format      ascii;
    arch        "LSB;label=32;scalar=64";
    class       volVectorField;
    location    "99.25";
    object      U;
}
// * * * * * * * * * * * * * * * * * * * * * * * * * * * * * * * * * * * * * //

dimensions      [0 1 -1 0 0 0 0];

internalField   nonuniform List<vector> 
13248
(
(-0.0120413 0.0103411 6.43415e-20)
(-0.0227066 0.0201646 0)
(-0.0213612 0.0233792 -1.2189e-19)
(-0.00804997 0.0229055 1.14824e-19)
(0.0173429 0.0206921 1.07293e-19)
(0.0549206 0.0180689 0)
(0.104694 0.0159712 0)
(0.166422 0.0150563 2.52961e-19)
(0.239456 0.015764 -2.97003e-21)
(0.322607 0.0183448 -2.17819e-19)
(0.4141 0.0228626 1.97811e-19)
(0.511601 0.0291931 -1.2321e-19)
(0.612338 0.0370295 0)
(0.713287 0.0459042 -2.04362e-19)
(0.811392 0.0552282 3.80086e-19)
(0.903786 0.0643435 -8.93422e-20)
(0.987999 0.0725876 -1.60019e-19)
(1.06211 0.0793322 1.50217e-19)
(1.12483 0.0841244 0)
(1.17562 0.0863696 0)
(1.21459 0.0865518 0)
(1.24244 0.0823529 0)
(1.26043 0.0796208 4.83773e-20)
(1.27059 0.0634011 1.81584e-19)
(-0.0125978 0.0099462 -1.94481e-19)
(-0.0197889 0.0181938 1.32886e-19)
(-0.0105437 0.0202096 -1.17519e-21)
(0.014319 0.018955 -1.75623e-19)
(0.0544158 0.0165253 -1.07174e-19)
(0.109384 0.0144163 -1.01154e-19)
(0.178595 0.0136627 -1.83948e-19)
(0.260902 0.0149353 1.74261e-19)
(0.354444 0.0185905 0)
(0.456584 0.0246886 1.54238e-21)
(0.563989 0.0330058 3.69809e-21)
(0.672864 0.0430631 1.2438e-19)
(0.779274 0.0541798 0)
(0.879507 0.0655524 0)
(0.970394 0.0763464 1.40371e-19)
(1.04956 0.0857881 -2.63517e-19)
(1.11555 0.0932441 1.5784e-19)
(1.16793 0.0982733 -1.48184e-19)
(1.20715 0.100656 -6.61304e-20)
(1.23445 0.100365 -1.21384e-19)
(1.25157 0.0976319 -5.21695e-20)
(1.26083 0.0924526 -9.85534e-20)
(1.26357 0.0865858 1.42042e-19)
(1.2639 0.0763963 4.16246e-20)
(-0.0118816 0.00867906 0)
(-0.0129268 0.0144529 0)
(0.00715044 0.0152246 6.21257e-20)
(0.0467001 0.0137765 5.70974e-20)
(0.104639 0.0122054 -1.65739e-21)
(0.179772 0.0120562 -1.04855e-19)
(0.270302 0.0143233 0)
(0.373544 0.0195097 -8.63055e-20)
(0.485826 0.0276671 8.07921e-20)
(0.602642 0.0384305 9.90694e-22)
(0.719037 0.0510845 -1.35186e-19)
(0.830117 0.0646709 -1.22332e-19)
(0.931579 0.0781278 3.0472e-21)
(1.02013 0.0904358 -9.92368e-20)
(1.09376 0.100746 2.39151e-19)
(1.15179 0.108468 0)
(1.19482 0.113312 -1.54788e-19)
(1.22443 0.115269 7.47506e-20)
(1.2429 0.114593 6.60745e-20)
(1.25276 0.111601 0)
(1.25654 0.106997 5.50396e-20)
(1.25636 0.100572 -1.92514e-19)
(1.2536 0.0947654 1.80721e-19)
(1.25096 0.0848902 1.16924e-19)
(-0.00957104 0.00668116 -6.92473e-20)
(-0.00124855 0.00932668 -7.16693e-20)
(0.032939 0.0090676 6.46287e-20)
(0.0903719 0.00829726 0)
(0.168922 0.00894201 0)
(0.266008 0.0124112 -2.40052e-21)
(0.377983 0.0194176 0)
(0.499975 0.0300056 -2.6452e-19)
(0.626122 0.0436259 2.44673e-19)
(0.750138 0.0592583 -3.00217e-19)
(0.866077 0.0755987 6.7887e-20)
(0.969063 0.0912848 0)
(1.05581 0.105111 1.11564e-19)
(1.12484 0.11619 -2.06112e-19)
(1.17641 0.124036 4.87693e-20)
(1.21219 0.128566 1.24716e-19)
(1.23482 0.130026 -5.50993e-21)
(1.24732 0.128884 -1.39747e-19)
(1.25266 0.125697 0)
(1.25338 0.121017 0)
(1.25138 0.115352 -5.04506e-20)
(1.2479 0.108846 4.55207e-20)
(1.24362 0.102812 1.65311e-19)
(1.23962 0.0939438 -1.5518e-19)
(-0.00534586 0.0041793 -7.33465e-20)
(0.016065 0.00347735 -7.28948e-20)
(0.0678687 0.00282649 2.04924e-19)
(0.146196 0.00399885 -1.23938e-19)
(0.247333 0.00851291 1.1666e-19)
(0.366587 0.0173505 2.1089e-19)
(0.497762 0.0305848 -1.48953e-19)
(0.633428 0.0474409 -1.79919e-19)
(0.765739 0.0665092 4.49983e-21)
(0.887504 0.086049 2.28081e-19)
(0.993178 0.104331 0)
(1.07948 0.119939 6.2207e-20)
(1.14551 0.131966 0)
(1.19249 0.140067 -1.0003e-19)
(1.22311 0.144395 1.40323e-19)
(1.24086 0.145456 9.66121e-22)
(1.24931 0.143925 -3.68505e-20)
(1.25161 0.140494 6.85004e-20)
(1.25023 0.135765 5.95965e-20)
(1.24684 0.130184 -5.35882e-20)
(1.24246 0.124101 5.04399e-20)
(1.23764 0.117576 -4.55106e-20)
(1.23257 0.111429 0)
(1.22796 0.103212 -3.49463e-20)
(0.00112103 0.00146235 7.3336e-20)
(0.0397248 -0.00221837 7.71255e-20)
(0.112636 -0.00208137 -6.86962e-20)
(0.214279 0.00271322 1.27812e-19)
(0.338632 0.0129204 -1.20299e-19)
(0.478132 0.028672 1.08249e-19)
(0.623621 0.0489709 -5.21278e-20)
(0.765393 0.0719241 1.35241e-19)
(0.894685 0.0952226 -8.51516e-20)
(1.00502 0.116657 1.49421e-19)
(1.09297 0.134533 -3.44173e-19)
(1.15813 0.147899 1.26469e-19)
(1.20259 0.15656 -1.09399e-19)
(1.23 0.160919 1.02758e-19)
(1.24457 0.161737 8.81958e-20)
(1.25032 0.159894 7.71292e-20)
(1.25054 0.156203 -2.15131e-19)
(1.24764 0.151308 1.33338e-19)
(1.24316 0.145666 -5.95997e-20)
(1.23802 0.139573 1.5618e-19)
(1.23267 0.13321 -5.04375e-20)
(1.22732 0.126656 -1.23637e-19)
(1.22203 0.120325 1.14275e-19)
(1.21705 0.112586 3.4936e-20)
(0.0101411 -0.00112583 0)
(0.0702219 -0.00673287 7.19786e-22)
(0.167354 -0.00407606 1.44222e-19)
(0.293643 0.00631416 -1.35199e-19)
(0.439978 0.0239281 -1.21432e-19)
(0.595424 0.0475382 2.25404e-19)
(0.748121 0.0747195 -1.04542e-19)
(0.887262 0.102426 1.38421e-19)
(1.00496 0.127777 -3.32819e-21)
(1.09726 0.148656 -7.81496e-20)
(1.16406 0.163988 1.68897e-19)
(1.20818 0.173696 -2.49245e-19)
(1.23413 0.178428 0)
(1.24685 0.179214 -4.85943e-20)
(1.25081 0.177146 -1.29083e-19)
(1.24949 0.173176 4.07189e-20)
(1.24535 0.168018 1.59979e-21)
(1.23991 0.162158 -8.86793e-20)
(1.23402 0.155894 5.52799e-21)
(1.2281 0.149403 1.02626e-19)
(1.22232 0.142789 -4.58859e-20)
(1.21672 0.13612 -1.75728e-20)
(1.21125 0.12955 5.3808e-20)
(1.20602 0.122168 0)
(0.0219558 -0.00318185 0)
(0.107682 -0.00894149 3.91869e-20)
(0.231342 -0.00157906 -1.88937e-19)
(0.382057 0.0164261 6.85025e-20)
(0.547038 0.0426893 -6.44714e-20)
(0.712104 0.0741683 -5.88352e-20)
(0.863857 0.106933 -1.03381e-19)
(0.992296 0.137154 5.19118e-20)
(1.09233 0.162034 4.47332e-20)
(1.16371 0.1802 0)
(1.20985 0.191614 1.00778e-19)
(1.23608 0.197156 -1.49735e-19)
(1.24811 0.198146 1.1118e-19)
(1.25098 0.195931 4.86199e-20)
(1.24853 0.191644 -3.97373e-20)
(1.24334 0.186112 -3.29574e-20)
(1.23701 0.179878 -3.07148e-20)
(1.23038 0.173267 9.23041e-20)
(1.22385 0.166465 0)
(1.2176 0.159575 4.62956e-20)
(1.21163 0.15266 3.89957e-20)
(1.20592 0.145769 -9.68198e-20)
(1.20039 0.138913 -6.65478e-20)
(1.19503 0.131749 6.13704e-20)
(0.0366686 -0.00424633 -4.27461e-20)
(0.151729 -0.00768903 -1.78258e-21)
(0.303015 0.00682698 3.85244e-20)
(0.476128 0.0341928 1.0767e-19)
(0.65454 0.0695557 3.11771e-20)
(0.821827 0.107865 -6.03677e-20)
(0.964987 0.14404 5.49604e-20)
(1.07687 0.174201 -4.78931e-20)
(1.15645 0.19637 8.56892e-20)
(1.2074 0.210381 3.61644e-20)
(1.23583 0.217314 -1.02955e-19)
(1.24839 0.218813 3.01075e-20)
(1.25085 0.21655 5.1143e-20)
(1.24759 0.211911 -2.52114e-20)
(1.24149 0.20589 0)
(1.23428 0.199127 3.71565e-20)
(1.22687 0.191995 6.26099e-20)
(1.21968 0.184702 1.05271e-20)
(1.21288 0.177356 -5.20744e-20)
(1.20648 0.17002 2.16701e-20)
(1.20044 0.162736 0)
(1.19469 0.155524 -1.69814e-20)
(1.18914 0.148354 -1.6215e-20)
(1.18372 0.141266 0)
(0.054179 -0.00382605 0)
(0.201398 -0.0018825 2.24435e-20)
(0.379915 0.0222443 4.14737e-20)
(0.57166 0.0601344 -1.10098e-19)
(0.757094 0.10409 3.56843e-20)
(0.919379 0.147301 0)
(1.04809 0.184307 5.30695e-20)
(1.14041 0.212031 -7.40802e-20)
(1.19971 0.22988 -4.28654e-20)
(1.23279 0.239025 1.92553e-20)
(1.24737 0.241476 -3.0638e-20)
(1.25023 0.239324 7.44733e-20)
(1.24653 0.234308 3.69157e-20)
(1.23964 0.227671 -2.58428e-20)
(1.23157 0.220201 -2.59075e-21)
(1.22335 0.212352 -6.95165e-20)
(1.21544 0.204367 3.15855e-20)
(1.20802 0.19637 -8.52899e-22)
(1.20112 0.188428 0)
(1.1947 0.180581 -2.16929e-20)
(1.18868 0.172853 0)
(1.18297 0.165237 4.87726e-20)
(1.17748 0.157731 -5.79038e-20)
(1.17207 0.150568 2.63661e-20)
(0.0741371 -0.00143169 -1.1806e-20)
(0.255114 0.0094042 -5.66543e-20)
(0.458885 0.045336 6.45408e-20)
(0.664161 0.0941086 3.77598e-20)
(0.849962 0.145233 -1.80203e-20)
(1.00128 0.190876 3.01449e-20)
(1.11207 0.226192 -1.4645e-20)
(1.18441 0.249632 2.42007e-20)
(1.22549 0.262224 0)
(1.24416 0.266336 5.42854e-20)
(1.24857 0.264591 -2.41062e-21)
(1.24496 0.259225 -4.34979e-20)
(1.23749 0.251846 1.8482e-20)
(1.22858 0.243473 -2.06849e-20)
(1.2195 0.234686 -7.72164e-21)
(1.21082 0.225787 9.09085e-21)
(1.20273 0.216926 -6.90309e-21)
(1.19527 0.208177 -3.7395e-20)
(1.18841 0.199579 2.28748e-20)
(1.18207 0.191159 4.6268e-21)
(1.17616 0.182922 4.05559e-21)
(1.17057 0.174849 3.55726e-21)
(1.16518 0.167 0)
(1.15985 0.1596 0)
(0.0960004 0.00338706 1.18142e-20)
(0.310907 0.0268441 -1.17876e-20)
(0.536522 0.0762478 -2.15199e-20)
(0.749521 0.135364 0)
(0.929651 0.191537 -8.95858e-21)
(1.06586 0.237018 -8.07332e-21)
(1.15745 0.268521 -1.37271e-20)
(1.21118 0.286449 0)
(1.237 0.293398 0)
(1.24469 0.292631 0)
(1.24204 0.287064 0)
(1.23433 0.278848 0)
(1.22469 0.269359 -1.15752e-20)
(1.21475 0.259377 5.25965e-21)
(1.20526 0.249303 9.07091e-21)
(1.19645 0.239326 4.23718e-21)
(1.1884 0.229534 1.03679e-20)
(1.18106 0.219967 0)
(1.17437 0.210651 -2.43953e-21)
(1.16824 0.201597 -2.34382e-21)
(1.16254 0.192793 -4.06208e-21)
(1.15718 0.184229 -3.56296e-21)
(1.15201 0.176027 0)
(1.1469 0.168237 2.50419e-21)
(-0.000974784 -0.022693 8.52254e-21)
(-0.00676814 -0.0452375 -8.85215e-21)
(-0.0181829 -0.0524935 -1.67593e-20)
(-0.0324054 -0.0495996 0)
(-0.0479133 -0.0404886 -2.25086e-20)
(-0.0639745 -0.0279026 7.13966e-21)
(-0.0801071 -0.0135045 -1.32409e-20)
(-0.0959706 0.00190941 0)
(-0.11133 0.0181481 0)
(-0.126003 0.0353598 0)
(-0.139822 0.0538293 0)
(-0.152633 0.0738388 0)
(-0.164277 0.0955827 2.35787e-22)
(-0.174583 0.119134 -8.75463e-21)
(-0.183365 0.144433 1.59029e-20)
(-0.19042 0.171284 2.24996e-20)
(-0.195527 0.199347 6.6897e-21)
(-0.198457 0.228142 0)
(-0.198988 0.257042 6.20651e-21)
(-0.196921 0.285292 -1.70842e-20)
(-0.192088 0.312042 -1.05156e-20)
(-0.184326 0.336388 -9.84016e-21)
(-0.173586 0.357442 0)
(-0.160356 0.374512 0)
(4.38078e-05 -0.0175592 -2.53698e-20)
(-0.00468267 -0.0335517 4.39328e-20)
(-0.0154229 -0.0367709 -1.619e-20)
(-0.0291287 -0.0314651 -3.11586e-20)
(-0.0441106 -0.0210008 4.42511e-20)
(-0.0595251 -0.00776397 -2.76301e-20)
(-0.0748327 0.00679677 3.92253e-20)
(-0.0896692 0.021997 2.40171e-20)
(-0.103783 0.0376904 0)
(-0.116974 0.054047 -2.1874e-20)
(-0.129055 0.0713539 1.31105e-22)
(-0.139837 0.0898829 1.93753e-20)
(-0.14912 0.109812 2.63023e-20)
(-0.156689 0.131193 3.28984e-20)
(-0.162311 0.153941 -1.60768e-20)
(-0.165733 0.177835 -4.36682e-20)
(-0.16669 0.202521 1.2858e-20)
(-0.164907 0.227516 -4.93329e-20)
(-0.160116 0.252216 0)
(-0.152074 0.275919 1.12404e-20)
(-0.140575 0.297864 1.04989e-20)
(-0.125399 0.317297 9.8241e-21)
(-0.106292 0.333593 0)
(-0.0838092 0.346521 0)
(0.000551544 -0.0127434 0)
(-0.00352745 -0.0227293 8.48317e-20)
(-0.0134717 -0.0223954 -3.20731e-20)
(-0.0262191 -0.0151188 3.06362e-20)
(-0.0400161 -0.00368885 -8.52103e-20)
(-0.0539481 0.00986905 0)
(-0.067436 0.0243099 -5.02353e-20)
(-0.0801004 0.0390413 2.32561e-20)
(-0.0916827 0.0539424 -4.34537e-20)
(-0.101976 0.0691734 1.95113e-20)
(-0.110782 0.0850047 1.14783e-19)
(-0.117895 0.101692 -5.38479e-20)
(-0.123087 0.119402 -8.4072e-20)
(-0.126118 0.138176 -2.99984e-20)
(-0.126727 0.15792 5.18681e-22)
(-0.124644 0.178408 1.08371e-19)
(-0.119587 0.199288 -5.06554e-20)
(-0.111276 0.22009 1.33554e-21)
(-0.0994468 0.24025 0)
(-0.0838648 0.259109 -4.00897e-20)
(-0.064346 0.275981 0)
(-0.0406831 0.290225 -3.76611e-20)
(-0.0123848 0.301422 1.38769e-19)
(0.0202746 0.309793 1.67819e-21)
(0.00061178 -0.008515 0)
(-0.00325822 -0.0133326 -6.72014e-22)
(-0.0124585 -0.0100933 3.10878e-20)
(-0.0240424 -0.00139471 -2.91699e-20)
(-0.0362612 0.0105249 2.82754e-20)
(-0.0481611 0.0239931 1.55911e-19)
(-0.05914 0.0379613 -4.89888e-20)
(-0.0688134 0.0519177 -4.51206e-20)
(-0.0769273 0.0657496 8.55136e-20)
(-0.0832836 0.0795908 -1.19863e-19)
(-0.0876926 0.0936791 3.67075e-20)
(-0.089951 0.108246 3.38834e-20)
(-0.089834 0.123447 0)
(-0.0870983 0.139322 3.0512e-20)
(-0.0814895 0.155788 0)
(-0.0727466 0.172634 5.02235e-20)
(-0.0606092 0.189537 -9.52017e-20)
(-0.0448175 0.20607 2.34109e-20)
(-0.0251534 0.221711 8.3387e-20)
(-0.00144101 0.235867 4.00425e-20)
(0.0264486 0.247913 0)
(0.0585806 0.257256 -1.06053e-19)
(0.0954694 0.263543 3.33455e-20)
(0.138523 0.267147 0)
(0.000296989 -0.00496312 0)
(-0.00380729 -0.00557607 -9.8146e-20)
(-0.0124766 -0.000188036 -3.06479e-20)
(-0.0229213 0.00927936 -5.78577e-20)
(-0.0334346 0.0211041 5.44799e-20)
(-0.0430506 0.0339589 -5.15645e-20)
(-0.0511607 0.046992 9.49873e-20)
(-0.057386 0.0597733 4.43548e-20)
(-0.0614889 0.0721953 -1.25373e-19)
(-0.0632952 0.0843582 7.66944e-20)
(-0.062644 0.0964577 -1.07989e-19)
(-0.0593626 0.108693 2.30502e-19)
(-0.0532569 0.121203 -1.24062e-19)
(-0.0441116 0.134032 5.60234e-20)
(-0.0317051 0.147114 1.56957e-19)
(-0.0158173 0.160274 -5.13296e-20)
(0.00376756 0.173234 -4.54613e-20)
(0.0272447 0.185626 -4.36279e-20)
(0.0547751 0.196994 0)
(0.0864771 0.206835 -7.47586e-20)
(0.122422 0.214601 -7.15921e-20)
(0.162626 0.219721 1.00169e-19)
(0.206732 0.221847 1.31093e-19)
(0.260452 0.220724 -1.22013e-19)
(-0.00034843 -0.00201868 0)
(-0.00512988 0.000640168 -1.28085e-19)
(-0.0135871 0.00738184 5.57412e-22)
(-0.0230729 0.0168947 1.1404e-19)
(-0.031943 0.0279501 0)
(-0.0392465 0.0395639 0)
(-0.0443874 0.0510897 0)
(-0.0470047 0.0621913 -4.34058e-20)
(-0.0468866 0.0727769 9.7711e-22)
(-0.0438937 0.0829192 7.54962e-20)
(-0.0379072 0.0927718 -1.04628e-19)
(-0.0288016 0.102498 8.35098e-22)
(-0.0164343 0.112217 0)
(-0.000643953 0.121974 -5.59966e-20)
(0.0187398 0.131725 4.91012e-20)
(0.0418858 0.141333 -1.41006e-19)
(0.0689539 0.150577 1.74435e-19)
(0.100084 0.159153 3.91377e-20)
(0.135392 0.16669 -1.44409e-22)
(0.174964 0.172769 -1.4284e-19)
(0.218769 0.176931 -6.65609e-20)
(0.267376 0.178646 2.26673e-19)
(0.31777 0.177712 -1.51842e-19)
(0.38395 0.172235 0)
(-0.00132435 0.000489394 6.1175e-20)
(-0.00720993 0.00563338 6.38449e-20)
(-0.0157779 0.0129773 -5.9601e-20)
(-0.0245014 0.0218154 -1.12184e-19)
(-0.031819 0.0314108 1.05632e-19)
(-0.0368265 0.0411265 -9.79811e-20)
(-0.0389616 0.0505346 1.37745e-19)
(-0.0378919 0.0594118 -4.31345e-20)
(-0.0334333 0.0677027 7.96542e-20)
(-0.0254791 0.0754694 0)
(-0.0139488 0.0828353 6.56559e-20)
(0.0012412 0.0899338 -1.24523e-19)
(0.0201902 0.0968687 1.14321e-19)
(0.0430153 0.103687 -1.07368e-19)
(0.0698493 0.110364 0)
(0.100828 0.116806 9.10394e-20)
(0.136085 0.122843 1.66489e-19)
(0.175736 0.128237 -1.57525e-19)
(0.219882 0.132693 -7.24621e-20)
(0.26867 0.135874 -7.05464e-20)
(0.321656 0.137352 1.96781e-19)
(0.381158 0.136753 6.29011e-20)
(0.438329 0.134067 -5.758e-20)
(0.521869 0.125687 5.6798e-20)
(-0.00266078 0.00275085 -6.11834e-20)
(-0.010017 0.00978779 1.88887e-19)
(-0.0188796 0.0171039 -5.91413e-20)
(-0.0268584 0.0246498 1.11118e-19)
(-0.032508 0.0321941 -1.04627e-19)
(-0.0350032 0.0394551 1.7067e-22)
(-0.0338309 0.0462375 4.54828e-20)
(-0.0286857 0.0524525 1.65698e-19)
(-0.019397 0.0581058 -2.52801e-21)
(-0.00586475 0.0632744 -7.36078e-20)
(0.0119877 0.0680743 0)
(0.0342404 0.072627 -5.92261e-20)
(0.0609893 0.0770301 1.13679e-19)
(0.092344 0.0813362 1.0279e-19)
(0.128431 0.0855469 -4.91056e-20)
(0.169377 0.0895981 -9.70288e-22)
(0.21529 0.0933616 -4.15595e-20)
(0.26625 0.0966531 7.58199e-20)
(0.322244 0.0992173 7.24534e-20)
(0.383497 0.100832 -6.82222e-20)
(0.448444 0.100922 6.35097e-20)
(0.522365 0.0996546 -6.04531e-20)
(0.586995 0.09641 0)
(0.691243 0.0882128 -5.67638e-20)
(-0.00437223 0.00488833 6.07892e-20)
(-0.0134167 0.0133922 -6.29216e-20)
(-0.0224546 0.0202254 5.91636e-20)
(-0.0293119 0.02606 0)
(-0.0327054 0.0311862 0)
(-0.0319114 0.0356842 9.55679e-20)
(-0.0264641 0.0396038 -9.03573e-20)
(-0.0160633 0.0430097 8.13908e-20)
(-0.000515691 0.0459945 -3.84219e-19)
(0.0203174 0.0486791 1.11507e-21)
(0.0465537 0.0511984 6.51274e-20)
(0.0783045 0.0536808 0)
(0.115676 0.0562302 -1.09664e-19)
(0.15876 0.0589113 2.04063e-19)
(0.207609 0.0617338 -1.42332e-19)
(0.262211 0.0646422 -2.16821e-19)
(0.322476 0.0675244 1.46866e-21)
(0.388201 0.0702115 1.503e-19)
(0.458932 0.0724286 0)
(0.534694 0.0740961 0)
(0.612371 0.0742941 -6.35078e-20)
(0.699395 0.0741216 6.04504e-20)
(0.769846 0.0711124 -2.32291e-19)
(0.886371 0.0662466 2.17694e-19)
(-0.00639992 0.0068966 0)
(-0.0170753 0.0165132 0)
(-0.025718 0.0225918 -1.77312e-19)
(-0.0305034 0.0265515 5.63658e-20)
(-0.0303614 0.0292019 1.00036e-21)
(-0.0246754 0.0309836 9.701e-20)
(-0.0130099 0.0321967 0)
(0.00495846 0.0330737 -8.29049e-20)
(0.0294739 0.033815 7.67214e-20)
(0.060723 0.0346069 -1.3946e-19)
(0.0988381 0.0356212 1.12419e-21)
(0.143886 0.0370048 1.18297e-19)
(0.195841 0.038865 -2.19346e-21)
(0.254553 0.0412538 9.85624e-20)
(0.319715 0.0441537 -1.4181e-19)
(0.390837 0.0474769 0)
(0.467226 0.0510593 1.60162e-19)
(0.548002 0.0546729 -2.25432e-19)
(0.631952 0.0579741 7.01431e-20)
(0.718316 0.0608447 0)
(0.803472 0.0622411 6.22393e-20)
(0.893072 0.0635988 2.39647e-19)
(0.963774 0.0610526 -2.24894e-19)
(1.07046 0.0597181 -2.71431e-19)
(-0.00856667 0.00863066 1.83959e-19)
(-0.0204087 0.0189521 -2.53319e-19)
(-0.0275486 0.0241464 5.46654e-22)
(-0.0286636 0.0263195 5.62704e-20)
(-0.0229451 0.0267616 -1.04504e-19)
(-0.00988697 0.0262549 -9.66476e-20)
(0.0109187 0.025344 1.78056e-19)
(0.0398012 0.0244302 -3.22652e-21)
(0.0769941 0.0238284 -1.5471e-19)
(0.122609 0.0237953 2.81285e-19)
(0.17659 0.0245347 -2.91706e-21)
(0.238669 0.02619 -1.20919e-19)
(0.308319 0.0288301 0)
(0.384729 0.0324363 0)
(0.466797 0.0368932 -4.67922e-20)
(0.55315 0.0419864 -8.69066e-20)
(0.642183 0.0474122 -1.60362e-19)
(0.732125 0.0527778 1.50521e-19)
(0.821078 0.0576744 -7.01697e-20)
(0.907308 0.0616148 1.31711e-19)
(0.988251 0.0641186 -6.17437e-20)
(1.06517 0.06531 1.18382e-19)
(1.12635 0.0629908 -2.74672e-19)
(1.2015 0.0617384 5.31063e-20)
(-0.010571 0.00985404 6.18969e-20)
(-0.0226019 0.0203118 0)
(-0.0265883 0.0245593 1.20108e-19)
(-0.0218434 0.0252319 -1.13149e-19)
(-0.00786503 0.0240094 1.04598e-19)
(0.0157057 0.0219751 0)
(0.0491794 0.0198919 0)
(0.0927568 0.0183133 -8.24328e-20)
(0.14644 0.0176479 2.93985e-21)
(0.209941 0.0181888 7.28192e-20)
(0.282604 0.0201209 -6.44176e-20)
(0.363357 0.0235137 1.21829e-19)
(0.450703 0.02831 0)
(0.542764 0.0343206 2.02733e-19)
(0.637362 0.0412291 -3.77556e-19)
(0.732143 0.0486071 2.62712e-19)
(0.824707 0.0559514 1.60593e-19)
(0.912738 0.0626802 -1.50745e-19)
(0.994168 0.0683345 0)
(1.0672 0.0721001 0)
(1.13061 0.0742973 0)
(1.18376 0.0729716 0)
(1.22494 0.0706918 5.42878e-20)
(1.26299 0.0643792 -2.01293e-19)
(-0.142948 0.389361 -6.29381e-21)
(-0.118284 0.396741 6.32433e-21)
(-0.0867598 0.390624 -1.99675e-22)
(-0.0487925 0.368843 0)
(-0.00435398 0.329551 -6.43442e-21)
(0.0457737 0.271912 1.27117e-20)
(0.10014 0.196024 1.53688e-22)
(0.157081 0.103775 -6.25075e-21)
(0.214926 -0.00246469 0)
(0.27245 -0.118852 0)
(0.328996 -0.239723 -3.50722e-22)
(0.383449 -0.356419 -3.117e-22)
(0.43387 -0.457869 -4.07206e-21)
(0.476979 -0.533521 3.69911e-21)
(0.509559 -0.577753 0)
(0.529993 -0.59204 0)
(0.537157 -0.585335 1.69324e-21)
(0.52763 -0.573044 -1.40511e-22)
(0.498962 -0.567585 -1.37724e-21)
(0.458846 -0.562731 -8.34014e-23)
(0.427402 -0.529783 0)
(0.42566 -0.437152 0)
(0.459191 -0.27767 0)
(0.51763 -0.0757168 0)
(0.586171 0.128309 0)
(0.652357 0.295929 0)
(0.706802 0.407593 4.13487e-22)
(0.744154 0.466227 -6.60949e-22)
(0.766072 0.484129 0)
(0.77634 0.480335 0)
(0.770349 0.480041 -3.17041e-22)
(0.741046 0.498027 3.0814e-22)
(0.697534 0.505973 1.82372e-22)
(0.664434 0.450586 0)
(0.663306 0.300399 0)
(0.691938 0.0876854 5.04061e-22)
(0.736213 -0.122277 -4.89954e-22)
(0.779113 -0.279028 0)
(0.813414 -0.362681 2.73678e-22)
(0.836395 -0.399111 -3.86001e-22)
(0.836174 -0.412249 9.69243e-23)
(0.804156 -0.434678 0)
(0.753433 -0.420344 -1.89882e-22)
(0.711609 -0.34977 1.84645e-22)
(0.7074 -0.189503 0)
(0.73183 -0.0021146 0)
(0.778117 0.152931 -8.18739e-23)
(0.815968 0.27251 2.19962e-22)
(0.823525 0.323932 0)
(0.792625 0.395962 0)
(0.758154 0.351771 -5.28332e-23)
(0.739291 0.281199 -6.95712e-24)
(0.768334 0.112277 -2.26008e-24)
(0.799766 -0.0642186 4.82753e-23)
(0.817553 -0.152725 0)
(0.803833 -0.340364 0)
(0.790406 -0.292831 0)
(0.784858 -0.323821 0)
(0.793906 -0.176327 0)
(0.781773 0.089368 0)
(-0.0572651 0.357671 -5.97076e-22)
(-0.0237858 0.360029 -2.6189e-20)
(0.0163605 0.348956 -8.65619e-22)
(0.0622535 0.322729 2.53878e-20)
(0.113315 0.280001 4.26035e-22)
(0.168328 0.220205 0)
(0.225734 0.143599 -2.73204e-20)
(0.283874 0.0517136 5.4322e-20)
(0.341379 -0.0532989 -2.69991e-20)
(0.397394 -0.167988 2.46858e-20)
(0.451198 -0.287026 -2.36418e-20)
(0.501259 -0.401062 1.91022e-20)
(0.544561 -0.497632 -1.86375e-20)
(0.577272 -0.565391 -4.58341e-22)
(0.596635 -0.599501 -1.03775e-20)
(0.602429 -0.602995 1.00854e-20)
(0.596406 -0.584682 -6.66362e-21)
(0.57812 -0.558852 6.29405e-21)
(0.543564 -0.541066 -5.30685e-21)
(0.49391 -0.533023 1.03541e-20)
(0.444031 -0.511491 -5.04998e-21)
(0.417305 -0.440742 -3.24759e-22)
(0.428118 -0.302811 -6.5295e-21)
(0.472307 -0.114621 1.28497e-20)
(0.535613 0.0845246 -6.32082e-21)
(0.603408 0.255934 3.16083e-22)
(0.663916 0.377067 4.21917e-21)
(0.710257 0.446433 -5.44356e-22)
(0.742665 0.473354 -6.01281e-21)
(0.761843 0.478212 5.33278e-21)
(0.761546 0.487899 -2.52877e-21)
(0.736721 0.514068 3.36367e-22)
(0.700583 0.522709 -1.82755e-22)
(0.677677 0.459292 4.74327e-22)
(0.686095 0.297368 0)
(0.720976 0.0752542 0)
(0.767143 -0.138648 -1.90497e-21)
(0.807049 -0.293848 1.41824e-21)
(0.834125 -0.373102 8.16583e-22)
(0.850006 -0.402796 -1.06209e-22)
(0.844948 -0.40655 -9.58281e-22)
(0.811235 -0.420644 1.60299e-22)
(0.756479 -0.404816 0)
(0.709868 -0.341803 0)
(0.700401 -0.192715 0)
(0.723962 -0.013896 0)
(0.771568 0.139642 2.97178e-22)
(0.810072 0.265471 -1.40472e-22)
(0.819142 0.326358 0)
(0.78779 0.404279 0)
(0.756752 0.358575 0)
(0.738271 0.280343 -1.24903e-22)
(0.770534 0.105689 -1.58146e-23)
(0.804468 -0.0702379 -9.60286e-23)
(0.823912 -0.153122 0)
(0.811453 -0.337132 0)
(0.794846 -0.291374 3.55393e-23)
(0.78989 -0.323878 7.33312e-23)
(0.794912 -0.175816 0)
(0.780922 0.0906359 0)
(0.05401 0.317669 2.62224e-21)
(0.093578 0.316757 -5.05112e-20)
(0.138523 0.302775 5.51705e-20)
(0.188628 0.274428 -5.15775e-20)
(0.242739 0.230762 -4.2889e-22)
(0.299431 0.171337 0)
(0.357199 0.096373 -5.86596e-20)
(0.414741 0.00692704 5.74939e-20)
(0.470969 -0.0949724 4.27934e-22)
(0.525041 -0.2066 8.38288e-22)
(0.575943 -0.322477 7.72388e-22)
(0.62121 -0.432572 6.65453e-22)
(0.656613 -0.523445 -3.39206e-20)
(0.678009 -0.583403 3.34261e-20)
(0.683716 -0.608464 0)
(0.675001 -0.603521 5.71127e-22)
(0.655497 -0.57779 -1.30366e-20)
(0.627958 -0.542846 1.28521e-20)
(0.589285 -0.513667 0)
(0.535362 -0.498793 0)
(0.473535 -0.484064 -9.43846e-21)
(0.425489 -0.434476 1.95014e-20)
(0.412722 -0.321929 -2.04338e-20)
(0.439354 -0.152451 -1.20549e-22)
(0.494052 0.0381828 2.03444e-20)
(0.560637 0.211242 -1.88368e-20)
(0.625155 0.340849 1.52091e-20)
(0.679388 0.420864 -1.3757e-21)
(0.721562 0.457741 -5.81537e-21)
(0.749068 0.47267 0)
(0.754641 0.493037 0)
(0.735356 0.527167 2.34363e-21)
(0.70756 0.536616 -2.94034e-21)
(0.694887 0.466471 2.69382e-23)
(0.71255 0.295076 4.81054e-21)
(0.753048 0.0655108 -4.67452e-21)
(0.800362 -0.151307 0)
(0.837111 -0.30468 4.35098e-22)
(0.85686 -0.380094 2.70131e-21)
(0.865347 -0.404382 -4.59159e-21)
(0.855427 -0.399961 1.73496e-21)
(0.820578 -0.406175 1.41933e-22)
(0.76275 -0.38889 -1.4849e-21)
(0.71201 -0.333695 1.17773e-21)
(0.697229 -0.196657 3.01556e-22)
(0.71935 -0.026849 2.90912e-22)
(0.7675 0.125188 -2.97938e-22)
(0.806095 0.257725 0)
(0.816628 0.328201 0)
(0.785033 0.412193 -9.04047e-22)
(0.757729 0.365398 4.50356e-22)
(0.739683 0.279634 -5.37683e-22)
(0.774756 0.0992788 7.90907e-22)
(0.810777 -0.0764237 8.80934e-22)
(0.831812 -0.153401 -1.84132e-22)
(0.820201 -0.333501 2.791e-22)
(0.800029 -0.289693 -1.82241e-22)
(0.795572 -0.323629 6.05777e-23)
(0.796895 -0.174991 0)
(0.781042 0.0920062 0)
(0.175874 0.272568 -1.02703e-19)
(0.218858 0.269302 -5.07736e-21)
(0.265896 0.254108 1.0252e-19)
(0.317449 0.225719 -8.58337e-22)
(0.372265 0.183266 0)
(0.428824 0.126165 0)
(0.485754 0.0542764 -1.20125e-19)
(0.542241 -0.0311354 -2.71071e-21)
(0.597423 -0.128922 1.72031e-19)
(0.650194 -0.236695 -2.81575e-21)
(0.698864 -0.348584 -5.24869e-20)
(0.739568 -0.453723 -4.03487e-20)
(0.766765 -0.537991 4.05554e-20)
(0.77628 -0.589981 0)
(0.768024 -0.606838 -2.15233e-20)
(0.745324 -0.595036 1.97655e-20)
(0.713057 -0.564777 0)
(0.6761 -0.52523 0)
(0.634075 -0.487558 8.40873e-21)
(0.580308 -0.463349 -6.32952e-22)
(0.513754 -0.449109 -7.07374e-21)
(0.450018 -0.41677 -8.11419e-21)
(0.414382 -0.33187 8.06464e-21)
(0.420504 -0.186386 -8.9893e-21)
(0.462839 -0.00810533 4.91059e-22)
(0.525037 0.163225 8.01078e-21)
(0.591259 0.299626 8.20823e-22)
(0.651939 0.389844 5.91675e-23)
(0.702743 0.43734 0)
(0.737815 0.463282 4.90637e-21)
(0.749404 0.494529 -5.06792e-21)
(0.736506 0.536294 3.46762e-22)
(0.717588 0.547084 0)
(0.715136 0.472383 -5.07215e-22)
(0.74164 0.294013 1.01745e-20)
(0.787282 0.0584028 -1.85308e-20)
(0.835339 -0.160393 -6.67684e-23)
(0.868875 -0.311936 1.66766e-21)
(0.881424 -0.383984 5.74439e-21)
(0.882315 -0.404112 5.03646e-22)
(0.867365 -0.392876 -2.72311e-21)
(0.831753 -0.391649 2.34199e-21)
(0.771913 -0.372568 2.98531e-23)
(0.717863 -0.325108 1.10744e-21)
(0.697811 -0.200898 -1.37935e-21)
(0.71787 -0.0406601 -1.8225e-21)
(0.765787 0.109731 5.59669e-22)
(0.803956 0.249253 8.83973e-22)
(0.815973 0.329324 -1.73879e-21)
(0.784432 0.41958 1.29733e-21)
(0.761189 0.372227 -5.63393e-22)
(0.743698 0.279247 4.38801e-22)
(0.781067 0.09324 5.72859e-22)
(0.818645 -0.0827054 -1.41874e-21)
(0.841168 -0.153592 4.82939e-23)
(0.830032 -0.329436 -3.06131e-22)
(0.805915 -0.287726 0)
(0.801832 -0.323087 -6.84403e-23)
(0.799766 -0.173882 1.55236e-23)
(0.782076 0.0934768 0)
(0.298886 0.224905 1.01521e-19)
(0.34292 0.220618 -2.05046e-19)
(0.390128 0.205372 1.01925e-19)
(0.441465 0.178252 1.13164e-19)
(0.495755 0.138369 -2.27417e-19)
(0.551378 0.0847067 -4.87962e-21)
(0.607811 0.0168545 1.16642e-19)
(0.664053 -0.0635601 1.18171e-19)
(0.718881 -0.156578 -1.15745e-19)
(0.77101 -0.25937 0)
(0.817561 -0.365536 -9.66682e-20)
(0.853073 -0.463645 1.77792e-19)
(0.871152 -0.539693 -8.15114e-20)
(0.868253 -0.583532 0)
(0.846229 -0.593799 0)
(0.810769 -0.577625 5.80703e-22)
(0.767799 -0.54552 -2.50377e-20)
(0.72245 -0.505388 2.43261e-20)
(0.676812 -0.463919 0)
(0.625317 -0.431226 1.3191e-20)
(0.560618 -0.41201 -2.41663e-20)
(0.488856 -0.389748 2.3268e-20)
(0.433573 -0.330662 -2.45932e-20)
(0.417484 -0.213541 -8.76719e-22)
(0.443272 -0.0531391 2.58508e-20)
(0.497288 0.112948 -1.27008e-20)
(0.562929 0.253987 -3.73568e-22)
(0.628157 0.353549 -4.16287e-21)
(0.686002 0.411939 1.29169e-23)
(0.72771 0.449417 4.21481e-21)
(0.745368 0.49146 3.04429e-22)
(0.739478 0.540715 -6.23683e-21)
(0.729732 0.553886 1.38313e-20)
(0.737254 0.477155 -8.6138e-21)
(0.772088 0.294677 0)
(0.822687 0.054763 -1.16839e-20)
(0.871366 -0.165631 1.12658e-20)
(0.901738 -0.315488 -5.88599e-21)
(0.907381 -0.384624 7.38267e-21)
(0.900656 -0.401841 -5.11871e-22)
(0.880582 -0.385336 0)
(0.844466 -0.377369 -2.6942e-22)
(0.783589 -0.356186 6.84948e-22)
(0.727101 -0.316063 0)
(0.70194 -0.205108 2.29677e-21)
(0.719273 -0.0550125 -9.06857e-22)
(0.766224 0.0934038 4.50288e-22)
(0.803509 0.239969 3.76395e-22)
(0.817105 0.329532 0)
(0.785997 0.426286 0)
(0.767147 0.379028 -1.67783e-21)
(0.750406 0.279284 3.01036e-21)
(0.789498 0.0877551 -1.86989e-21)
(0.827998 -0.0890059 6.23246e-22)
(0.851872 -0.153686 9.35649e-22)
(0.840892 -0.324847 3.06417e-22)
(0.812467 -0.285406 -3.44092e-22)
(0.808605 -0.322272 0)
(0.803425 -0.172523 -4.90711e-23)
(0.78396 0.0950452 8.43196e-24)
(0.42183 0.176424 1.00253e-19)
(0.464937 0.172412 -9.97968e-20)
(0.510835 0.157928 8.31426e-22)
(0.561034 0.132789 -8.31386e-22)
(0.614328 0.0961065 8.89379e-22)
(0.669092 0.0460952 -9.12068e-22)
(0.725584 -0.016476 1.77593e-21)
(0.782019 -0.091896 0)
(0.836603 -0.179485 -1.73438e-21)
(0.887632 -0.2758 1.65137e-21)
(0.930639 -0.374097 1.5224e-21)
(0.958988 -0.462965 -1.40325e-21)
(0.966367 -0.52951 0)
(0.95077 -0.565486 0)
(0.916085 -0.571031 7.45646e-22)
(0.869791 -0.553195 0)
(0.818689 -0.521594 -4.34147e-22)
(0.767194 -0.483387 0)
(0.71797 -0.442196 -1.36382e-20)
(0.668463 -0.404082 2.4346e-20)
(0.609612 -0.377168 -1.96794e-20)
(0.53807 -0.357001 8.97348e-21)
(0.469489 -0.317727 8.83658e-21)
(0.430999 -0.230529 -8.58221e-21)
(0.436713 -0.0940182 -9.46495e-21)
(0.478975 0.0622791 9.17948e-21)
(0.540899 0.204837 0)
(0.608168 0.312293 1.91068e-22)
(0.671061 0.381455 0)
(0.718328 0.430619 0)
(0.741969 0.483207 9.32158e-21)
(0.743418 0.539933 -9.55176e-21)
(0.742848 0.556899 8.1792e-22)
(0.759938 0.480896 1.07765e-21)
(0.802606 0.297286 -1.28212e-21)
(0.858116 0.0547595 -1.06521e-20)
(0.907587 -0.167005 1.03407e-20)
(0.935077 -0.315475 -8.04168e-21)
(0.934304 -0.382132 6.8429e-21)
(0.920091 -0.397586 1.03159e-21)
(0.89483 -0.377432 -2.54343e-21)
(0.858342 -0.363552 3.21423e-22)
(0.797285 -0.339949 1.41376e-21)
(0.7392 -0.306478 0)
(0.709237 -0.209029 -7.84e-22)
(0.723207 -0.0696211 1.05166e-21)
(0.76854 0.0762946 -1.42519e-21)
(0.804555 0.229745 -3.78797e-22)
(0.81989 0.328608 0)
(0.789659 0.432133 5.78362e-22)
(0.775512 0.385738 -9.87543e-22)
(0.759805 0.279818 4.12619e-23)
(0.800039 0.0829499 -7.50175e-22)
(0.838762 -0.0952251 1.08853e-21)
(0.863791 -0.153676 -9.92212e-22)
(0.852702 -0.319672 0)
(0.819652 -0.282662 3.44248e-22)
(0.815831 -0.321189 0)
(0.807773 -0.170947 0)
(0.786626 0.0967049 -6.36155e-24)