/*--------------------------------*- C++ -*----------------------------------*\
| =========                 |                                                 |
| \\      /  F ield         | OpenFOAM: The Open Source CFD Toolbox           |
|  \\    /   O peration     | Version:  2512                                  |
|   \\  /    A nd           | Website:  www.openfoam.com                      |
|    \\/     M anipulation  |                                                 |
\*---------------------------------------------------------------------------*/
FoamFile
{
    version     2.0;
    format      ascii;
    arch        "LSB;label=32;scalar=64";
    class       volScalarField;
    location    "179";
    object      p;
}
// * * * * * * * * * * * * * * * * * * * * * * * * * * * * * * * * * * * * * //

dimensions      [0 2 -2 0 0 0 0];

internalField   nonuniform List<scalar> 
13248
(
-0.433253
-0.430685
-0.427094
-0.422824
-0.418337
-0.414141
-0.410653
-0.408146
-0.406718
-0.406268
-0.406509
-0.406997
-0.407185
-0.406493
-0.404384
-0.400431
-0.394362
-0.386078
-0.375625
-0.363183
-0.348831
-0.332903
-0.314248
-0.293877
-0.442283
-0.439063
-0.434924
-0.430198
-0.425293
-0.420654
-0.41661
-0.413324
-0.410772
-0.408748
-0.406896
-0.404764
-0.401878
-0.397812
-0.392248
-0.385004
-0.376042
-0.365435
-0.35333
-0.339893
-0.325258
-0.309557
-0.292593
-0.275262
-0.453688
-0.449504
-0.444641
-0.439365
-0.433964
-0.428781
-0.424014
-0.419677
-0.415623
-0.411571
-0.40717
-0.402062
-0.395946
-0.388619
-0.379999
-0.370108
-0.359047
-0.346958
-0.333981
-0.320252
-0.305846
-0.29091
-0.275291
-0.2596
-0.467381
-0.461975
-0.456223
-0.450276
-0.444236
-0.438293
-0.432481
-0.426665
-0.420607
-0.414036
-0.406708
-0.398452
-0.389193
-0.378951
-0.367818
-0.355922
-0.343402
-0.330382
-0.316961
-0.303219
-0.289221
-0.275064
-0.260692
-0.246675
-0.4832
-0.476383
-0.469611
-0.462854
-0.455958
-0.448922
-0.441606
-0.433769
-0.425176
-0.415675
-0.405223
-0.39388
-0.381783
-0.369102
-0.356007
-0.342643
-0.329119
-0.31551
-0.301862
-0.288211
-0.274588
-0.261038
-0.247538
-0.234421
-0.500941
-0.492589
-0.484699
-0.476972
-0.468918
-0.460322
-0.450917
-0.440454
-0.428831
-0.416119
-0.402525
-0.388318
-0.373769
-0.359105
-0.344492
-0.330034
-0.315784
-0.301764
-0.287977
-0.274422
-0.261103
-0.248031
-0.235198
-0.222808
-0.520254
-0.510341
-0.501264
-0.492357
-0.48273
-0.471977
-0.459814
-0.44614
-0.431113
-0.41509
-0.398502
-0.381749
-0.365143
-0.348888
-0.333095
-0.317804
-0.303012
-0.288694
-0.274819
-0.261359
-0.248293
-0.235602
-0.223285
-0.211402
-0.540665
-0.529223
-0.518887
-0.508508
-0.49677
-0.483173
-0.46759
-0.450235
-0.431616
-0.412357
-0.393038
-0.374091
-0.355786
-0.338255
-0.321531
-0.30559
-0.29038
-0.275843
-0.261919
-0.248558
-0.235717
-0.223366
-0.211494
-0.200055
-0.561459
-0.548585
-0.536892
-0.524651
-0.51017
-0.493037
-0.473491
-0.452193
-0.430003
-0.407742
-0.386027
-0.365237
-0.345547
-0.326995
-0.309538
-0.293097
-0.27758
-0.262899
-0.248973
-0.235733
-0.22312
-0.211092
-0.199618
-0.188577
-0.581672
-0.567515
-0.554316
-0.539733
-0.521857
-0.500607
-0.476779
-0.451524
-0.425989
-0.401071
-0.377329
-0.355026
-0.334225
-0.314869
-0.29685
-0.280042
-0.264321
-0.249574
-0.235703
-0.22262
-0.210254
-0.198552
-0.187451
-0.176802
-0.600126
-0.584848
-0.569929
-0.552471
-0.53061
-0.504856
-0.476676
-0.447668
-0.419144
-0.391963
-0.366555
-0.343046
-0.321381
-0.301422
-0.283005
-0.265964
-0.250151
-0.235432
-0.22169
-0.208824
-0.196751
-0.185401
-0.174673
-0.164438
-0.615534
-0.599323
-0.582444
-0.561578
-0.535232
-0.50474
-0.472284
-0.439816
-0.408687
-0.379629
-0.352904
-0.328485
-0.306208
-0.285863
-0.267234
-0.250125
-0.234361
-0.219792
-0.206285
-0.193727
-0.182029
-0.171103
-0.160819
-0.151115
-0.365679
-0.366865
-0.367625
-0.36834
-0.369411
-0.371026
-0.373266
-0.376151
-0.37967
-0.383797
-0.388492
-0.393704
-0.399354
-0.40533
-0.411475
-0.417579
-0.423378
-0.428556
-0.432744
-0.435554
-0.436446
-0.435133
-0.431279
-0.424685
-0.376491
-0.376783
-0.377087
-0.377649
-0.378767
-0.380637
-0.383354
-0.386954
-0.391434
-0.396779
-0.402959
-0.409928
-0.417609
-0.425881
-0.434563
-0.443407
-0.452086
-0.460192
-0.46724
-0.47269
-0.475894
-0.476315
-0.473345
-0.466474
-0.386528
-0.385906
-0.385702
-0.386018
-0.387053
-0.389007
-0.391996
-0.396063
-0.401215
-0.40744
-0.414711
-0.422978
-0.432159
-0.442118
-0.452641
-0.463449
-0.474156
-0.484278
-0.493222
-0.500322
-0.504827
-0.505979
-0.502954
-0.495051
-0.395267
-0.3938
-0.393061
-0.393031
-0.393821
-0.395639
-0.398623
-0.402834
-0.408285
-0.414965
-0.422842
-0.431856
-0.441907
-0.452838
-0.464417
-0.47632
-0.48812
-0.499278
-0.509076
-0.516803
-0.521605
-0.522566
-0.518917
-0.509201
-0.402394
-0.400239
-0.39898
-0.398509
-0.398875
-0.400308
-0.402978
-0.406969
-0.41231
-0.418989
-0.426966
-0.436169
-0.446477
-0.457709
-0.469605
-0.481806
-0.493837
-0.505079
-0.514886
-0.522355
-0.526602
-0.526551
-0.521845
-0.5099
-0.407829
-0.40521
-0.403484
-0.402499
-0.402282
-0.403096
-0.405153
-0.408576
-0.413417
-0.419673
-0.427302
-0.436215
-0.44627
-0.45726
-0.468891
-0.480761
-0.492355
-0.503044
-0.512048
-0.518456
-0.521407
-0.519614
-0.513354
-0.498932
-0.411732
-0.408899
-0.406791
-0.405256
-0.404341
-0.404353
-0.40556
-0.408135
-0.412165
-0.41767
-0.424608
-0.432879
-0.442315
-0.452676
-0.46362
-0.474712
-0.485369
-0.494883
-0.502439
-0.507082
-0.508045
-0.503923
-0.49558
-0.478723
-0.414476
-0.411666
-0.409269
-0.407184
-0.405518
-0.404629
-0.404849
-0.406408
-0.409441
-0.413997
-0.42004
-0.427463
-0.436039
-0.44551
-0.455475
-0.4654
-0.474632
-0.482399
-0.48786
-0.490063
-0.488392
-0.481568
-0.47078
-0.451903
-0.41662
-0.413999
-0.411392
-0.408786
-0.406378
-0.404586
-0.403802
-0.404315
-0.406308
-0.409855
-0.414918
-0.421361
-0.428963
-0.437329
-0.445972
-0.454274
-0.461509
-0.46687
-0.469555
-0.468756
-0.464066
-0.454574
-0.441512
-0.421406
-0.418854
-0.41648
-0.4137
-0.410617
-0.407534
-0.404925
-0.40323
-0.402787
-0.403813
-0.406392
-0.410478
-0.41588
-0.422274
-0.429189
-0.436031
-0.4421
-0.446636
-0.448892
-0.44822
-0.44412
-0.436479
-0.424915
-0.410554
-0.390417
-0.421932
-0.419726
-0.416757
-0.41324
-0.40958
-0.406289
-0.403838
-0.402586
-0.402754
-0.404406
-0.407443
-0.411594
-0.416435
-0.421398
-0.425815
-0.428968
-0.430161
-0.428812
-0.424508
-0.41712
-0.406805
-0.393836
-0.379287
-0.360691
-0.426558
-0.424314
-0.421081
-0.417163
-0.413024
-0.409195
-0.406144
-0.404213
-0.403587
-0.404267
-0.406068
-0.408626
-0.411426
-0.413845
-0.415224
-0.414933
-0.412452
-0.40743
-0.399702
-0.389372
-0.37661
-0.362066
-0.346375
-0.329611
-0.414104
-0.396068
-0.373209
-0.346509
-0.317789
-0.289493
-0.264266
-0.244409
-0.233415
-0.229762
-0.234156
-0.243707
-0.253478
-0.257719
-0.251684
-0.233143
-0.203903
-0.17001
-0.138521
-0.114374
-0.0994395
-0.0932352
-0.0944295
-0.102837
-0.119839
-0.144636
-0.169815
-0.183263
-0.176935
-0.154038
-0.12471
-0.0983618
-0.0797126
-0.0692019
-0.0651716
-0.0678527
-0.0789569
-0.0952088
-0.106553
-0.104095
-0.0904311
-0.0745445
-0.0621649
-0.0549558
-0.0535692
-0.0593098
-0.0677569
-0.0702127
-0.0639956
-0.0554172
-0.0458004
-0.0398473
-0.0353982
-0.0333496
-0.0328956
-0.0313433
-0.025436
-0.0193771
-0.010743
-0.00270168
-0.455894
-0.434425
-0.406846
-0.37423
-0.338428
-0.30204
-0.267889
-0.23869
-0.217121
-0.204014
-0.200249
-0.20384
-0.210547
-0.214796
-0.211212
-0.197755
-0.175075
-0.148176
-0.123117
-0.104449
-0.0941066
-0.0917594
-0.0963665
-0.108287
-0.129159
-0.157573
-0.18511
-0.198731
-0.190553
-0.164463
-0.131699
-0.102308
-0.0809726
-0.0680563
-0.0617764
-0.0619622
-0.0701309
-0.0838229
-0.0939822
-0.0923253
-0.0812704
-0.0685225
-0.0592001
-0.054529
-0.0557961
-0.0640924
-0.0748023
-0.0779264
-0.070225
-0.0595083
-0.0475175
-0.0398428
-0.0333078
-0.0298508
-0.0285164
-0.0269081
-0.0223127
-0.0172695
-0.0104702
-0.00318944
-0.483915
-0.460206
-0.42852
-0.390984
-0.349379
-0.306299
-0.264688
-0.227549
-0.197433
-0.17605
-0.164057
-0.161081
-0.163864
-0.167579
-0.167138
-0.158199
-0.14231
-0.122699
-0.104407
-0.0915535
-0.0860325
-0.0876001
-0.0955576
-0.110754
-0.134964
-0.166318
-0.195742
-0.209505
-0.200521
-0.172247
-0.136827
-0.104969
-0.0813807
-0.0663452
-0.0580174
-0.0558692
-0.0611654
-0.0722738
-0.0812404
-0.0802751
-0.0718116
-0.0620752
-0.055731
-0.0536157
-0.0576117
-0.0685095
-0.081483
-0.0853361
-0.0761592
-0.0632828
-0.0489732
-0.0396943
-0.0312828
-0.0264915
-0.0242166
-0.0224777
-0.0191484
-0.015118
-0.0101924
-0.0036944
-0.497168
-0.472209
-0.438105
-0.3972
-0.351439
-0.303503
-0.256486
-0.213349
-0.176628
-0.148242
-0.129188
-0.119469
-0.117441
-0.119352
-0.120561
-0.116461
-0.107255
-0.0947304
-0.0831038
-0.0760063
-0.0751462
-0.0803488
-0.0912737
-0.109212
-0.136124
-0.169966
-0.201051
-0.214731
-0.206486
-0.177181
-0.139977
-0.106328
-0.081015
-0.0642351
-0.054123
-0.0498723
-0.0524713
-0.0610548
-0.0687982
-0.0683244
-0.0623173
-0.0553423
-0.051812
-0.0521714
-0.0588611
-0.0723317
-0.0875623
-0.092228
-0.0816738
-0.0666836
-0.0501476
-0.039396
-0.0293303
-0.0232946
-0.0200466
-0.0180967
-0.0159754
-0.0129414
-0.00991118
-0.00421512
-0.496447
-0.470497
-0.436033
-0.394319
-0.346864
-0.296554
-0.246554
-0.199653
-0.158257
-0.124308
-0.0991023
-0.0830639
-0.0755355
-0.07426
-0.0757239
-0.0756291
-0.0716481
-0.065473
-0.0599757
-0.0581419
-0.0613994
-0.0697251
-0.0831138
-0.103245
-0.132315
-0.168264
-0.200855
-0.213692
-0.20855
-0.179302
-0.141225
-0.106507
-0.0800045
-0.0618819
-0.0502888
-0.0442291
-0.0443581
-0.0505254
-0.0570901
-0.058645
-0.0530341
-0.048453
-0.0474794
-0.0501387
-0.0593997
-0.075349
-0.0927971
-0.0983583
-0.0866312
-0.0696622
-0.0510326
-0.0389479
-0.0274496
-0.0202762
-0.0160532
-0.0138098
-0.0128254
-0.0107573
-0.00962594
-0.00474873
-0.48313
-0.456504
-0.423842
-0.384007
-0.337573
-0.287649
-0.237386
-0.189268
-0.145438
-0.1077
-0.0774328
-0.0555008
-0.0420683
-0.0361508
-0.0355044
-0.0368512
-0.0369705
-0.0361348
-0.0358494
-0.0384043
-0.0450535
-0.0559224
-0.0712873
-0.0931182
-0.123817
-0.16151
-0.195923
-0.209457
-0.207206
-0.178687
-0.140666
-0.105631
-0.0784691
-0.0594006
-0.0466396
-0.0390857
-0.0370565
-0.0409568
-0.0462408
-0.0476873
-0.0440169
-0.0415325
-0.0427797
-0.0474933
-0.0591277
-0.0773727
-0.0969636
-0.103517
-0.0909209
-0.0721806
-0.051624
-0.0383484
-0.0256297
-0.0174453
-0.0122789
-0.00965585
-0.00972643
-0.00858153
-0.00933356
-0.00529127
-0.46
-0.432988
-0.403727
-0.367889
-0.324835
-0.277838
-0.229875
-0.182996
-0.139034
-0.0996033
-0.0659697
-0.0391324
-0.0198363
-0.00821084
-0.00335919
-0.00332245
-0.00524587
-0.00786376
-0.0114725
-0.0173946
-0.0266729
-0.0395058
-0.0563989
-0.079508
-0.111372
-0.150462
-0.187358
-0.20707
-0.202962
-0.175476
-0.138436
-0.103826
-0.0765146
-0.0568722
-0.0432445
-0.0345021
-0.0306581
-0.0324994
-0.0364947
-0.0377925
-0.0355516
-0.0347256
-0.0377995
-0.044254
-0.0579786
-0.0782639
-0.0998814
-0.107532
-0.0944588
-0.0742055
-0.0519184
-0.0376003
-0.0238538
-0.0147989
-0.00875768
-0.00566576
-0.00670216
-0.00642762
-0.00902922
-0.00583885
-0.430331
-0.403584
-0.378761
-0.348077
-0.309922
-0.267686
-0.223933
-0.180207
-0.138042
-0.098857
-0.0637801
-0.0337525
-0.00965178
0.00776333
0.018195
0.0222056
0.0215033
0.0179475
0.0122634
0.00414787
-0.00697085
-0.0212479
-0.0393252
-0.0634149
-0.0960693
-0.136131
-0.175244
-0.199875
-0.195477
-0.169809
-0.134639
-0.101176
-0.0742052
-0.05434
-0.0401348
-0.0304985
-0.0251836
-0.02521
-0.0279723
-0.0290872
-0.0278353
-0.0281866
-0.032648
-0.040482
-0.0559379
-0.077947
-0.101436
-0.110286
-0.0971589
-0.075713
-0.05192
-0.0367156
-0.0221229
-0.0123344
-0.00550793
-0.00186098
-0.00377265
-0.0043075
-0.00870745
-0.00638789
-0.397752
-0.372494
-0.352456
-0.326941
-0.294209
-0.257643
-0.219078
-0.179557
-0.140419
-0.102921
-0.0680632
-0.0366897
-0.00961765
0.0123145
0.0282776
0.0377121
0.0410022
0.0393281
0.0338397
0.0250654
0.0130576
-0.00212368
-0.0210945
-0.0459642
-0.0791506
-0.119703
-0.160168
-0.189242
-0.184948
-0.161968
-0.129515
-0.0978834
-0.071721
-0.0519512
-0.0374255
-0.0271494
-0.0206772
-0.0191331
-0.0207351
-0.0215923
-0.0209809
-0.022059
-0.0274643
-0.0362461
-0.0529995
-0.0764177
-0.101609
-0.111696
-0.0989629
-0.0767193
-0.0516753
-0.0357261
-0.0204654
-0.010082
-0.00255614
0.00174888
-0.000954362
-0.00223141
-0.0083624
-0.00693543
-0.366232
-0.343986
-0.328212
-0.306853
-0.279206
-0.248328
-0.215044
-0.179958
-0.144282
-0.109192
-0.0756071
-0.0442451
-0.01594
0.0085273
0.0284722
0.0429565
0.0513198
0.0539843
0.0509934
0.0435015
0.0318189
0.0163961
-0.0030854
-0.0284084
-0.061642
-0.101962
-0.142582
-0.170728
-0.17164
-0.152531
-0.123627
-0.0944679
-0.0695253
-0.0500791
-0.0353898
-0.0246327
-0.0172159
-0.0142889
-0.0148117
-0.0153427
-0.0150767
-0.0164644
-0.0223449
-0.0316897
-0.0493156
-0.0736985
-0.100403
-0.111707
-0.099852
-0.0772618
-0.0512711
-0.03468
-0.0188836
-0.00807423
1.51256e-05
0.00515056
0.00174095
-0.00020852
-0.00798711
-0.00747844
-0.338938
-0.32141
-0.308754
-0.290213
-0.267036
-0.241415
-0.213098
-0.18234
-0.150204
-0.117818
-0.0859486
-0.0552131
-0.026394
-0.000299918
0.0222809
0.0404582
0.0535453
0.0612094
0.0616195
0.0574044
0.0477223
0.0331263
0.0137321
-0.0116714
-0.0447624
-0.0846102
-0.124565
-0.155296
-0.156683
-0.141468
-0.116819
-0.0907626
-0.0674517
-0.0485403
-0.0338061
-0.0227246
-0.0145488
-0.0103858
-0.009929
-0.0102402
-0.0102377
-0.0116414
-0.0174822
-0.0267821
-0.0447727
-0.069977
-0.098066
-0.110243
-0.0996661
-0.0771609
-0.0506095
-0.0335223
-0.0172367
-0.00619575
0.00220407
0.00830334
0.00429367
0.00175941
-0.00757614
-0.00801373
-0.314881
-0.304252
-0.292779
-0.275408
-0.255683
-0.234444
-0.210659
-0.184248
-0.155906
-0.126502
-0.0968486
-0.0676697
-0.0397083
-0.0137098
0.00970937
0.0299153
0.0466414
0.057734
0.0643302
0.0639607
0.0576324
0.0453594
0.0274091
0.00321924
-0.0283609
-0.0660788
-0.103711
-0.130241
-0.136536
-0.126151
-0.106363
-0.0839181
-0.0628322
-0.045071
-0.0308183
-0.0199318
-0.0115169
-0.00654593
-0.0052633
-0.00549022
-0.00595104
-0.00735941
-0.0131088
-0.0221448
-0.0399295
-0.0652371
-0.0942516
-0.107407
-0.0980307
-0.0759205
-0.0491222
-0.0319158
-0.0152346
-0.00417963
0.00441041
0.0113331
0.00668786
0.00364535
-0.00712071
-0.00854891
-0.286571
-0.290137
-0.277204
-0.258283
-0.238801
-0.218764
-0.196818
-0.172518
-0.146348
-0.119116
-0.0915642
-0.0643225
-0.0380098
-0.013243
0.00944605
0.0295963
0.0470674
0.058579
0.0662104
0.0685517
0.0649169
0.0546859
0.0379592
0.0143404
-0.0174858
-0.056188
-0.0940448
-0.121281
-0.124627
-0.113953
-0.0954393
-0.0749087
-0.0557367
-0.0394938
-0.0262621
-0.01602
-0.00787174
-0.00270287
-0.000834676
-0.000726871
-0.00104271
-0.00171331
-0.00700604
-0.0155107
-0.0334653
-0.0598722
-0.0910222
-0.106202
-0.0972154
-0.0742581
-0.0468667
-0.0298542
-0.0130573
-0.00217479
0.00689546
0.0145038
0.00908707
0.00553208
-0.00660475
-0.00911351
-0.258593
-0.265967
-0.254497
-0.235797
-0.217043
-0.198747
-0.179257
-0.157698
-0.134339
-0.109921
-0.0851277
-0.0605017
-0.0365579
-0.0138431
0.0071127
0.0258071
0.0411246
0.0541707
0.0626046
0.066126
0.0639279
0.0552818
0.0400717
0.0178382
-0.0124854
-0.0488026
-0.0827541
-0.102527
-0.107354
-0.0982512
-0.082514
-0.0650642
-0.0485169
-0.0341422
-0.0221141
-0.0126417
-0.00490231
0.000291689
0.00247118
0.00266339
0.00226381
0.00171176
-0.00278179
-0.0105272
-0.0281332
-0.0549603
-0.0869585
-0.102972
-0.0939419
-0.0712506
-0.0441084
-0.027433
-0.0107966
-0.000318657
0.00905073
0.0168446
0.011078
0.00713366
-0.00607613
-0.00953124
-0.233631
-0.241179
-0.23193
-0.215078
-0.197807
-0.181292
-0.164055
-0.145018
-0.124245
-0.102377
-0.0800612
-0.0577972
-0.0360375
-0.0152651
0.00403333
0.0214051
0.0362524
0.0483847
0.0565937
0.0603121
0.0587125
0.0510663
0.0371847
0.0167911
-0.0103657
-0.0415069
-0.0693457
-0.0858304
-0.0898254
-0.0829295
-0.07037
-0.0559351
-0.0417797
-0.0291081
-0.0181865
-0.00942718
-0.0021364
0.00297513
0.00538932
0.00570423
0.00530086
0.00477877
0.000590542
-0.00684162
-0.024145
-0.0505299
-0.0816185
-0.0978517
-0.0893614
-0.0674896
-0.0410028
-0.0247838
-0.00847914
0.00156478
0.0110655
0.0188832
0.012857
0.00854798
-0.0054658
-0.00980559
-0.210585
-0.217694
-0.210501
-0.195901
-0.18032
-0.165388
-0.150052
-0.133244
-0.11485
-0.0953775
-0.0754161
-0.0554264
-0.0358009
-0.0169506
0.000691455
0.0166998
0.0305185
0.0417121
0.0495166
0.0532958
0.052262
0.0457488
0.0335869
0.0158253
-0.00711477
-0.0326585
-0.0553139
-0.0693173
-0.0731887
-0.0685032
-0.0588374
-0.0471412
-0.0352223
-0.0242091
-0.0143978
-0.0063594
0.000435714
0.00538462
0.00797813
0.00851468
0.0082009
0.00780477
0.00385797
-0.00337343
-0.0201636
-0.0453357
-0.0750119
-0.0914727
-0.0837202
-0.0629394
-0.0375118
-0.0219159
-0.00607841
0.0034763
0.0128949
0.0207476
0.0145107
0.00988165
-0.00472878
-0.00994541
-0.188992
-0.195946
-0.190383
-0.177855
-0.164011
-0.150633
-0.137043
-0.122282
-0.106116
-0.0889116
-0.0711817
-0.0533509
-0.0357686
-0.0187939
-0.00282071
0.0117417
0.0244022
0.034704
0.0420576
0.0458774
0.0454876
0.0403426
0.030318
0.0156351
-0.00306907
-0.0236848
-0.0420696
-0.0540084
-0.0580345
-0.0552933
-0.0481895
-0.0389415
-0.0290405
-0.0195652
-0.0108218
-0.00347879
0.00281101
0.00753887
0.0102451
0.0110457
0.0108934
0.0107084
0.00714279
0.000357417
-0.0154355
-0.0390865
-0.0673536
-0.0837806
-0.0769286
-0.0575862
-0.033651
-0.0188581
-0.00362335
0.00540575
0.0145117
0.0223994
0.0160399
0.0111718
-0.00385592
-0.00993397
-0.16942
-0.175993
-0.171611
-0.16091
-0.148786
-0.136965
-0.125021
-0.112133
-0.0980168
-0.0829213
-0.0672806
-0.0514822
-0.0358447
-0.0206838
-0.00634712
0.00678729
0.0182901
0.0277282
0.0346123
0.0384445
0.0386875
0.0349175
0.0270364
0.0153116
0.000434691
-0.0158739
-0.0305829
-0.0407321
-0.0448836
-0.0436746
-0.038651
-0.0314532
-0.0232983
-0.0152117
-0.00748464
-0.000810126
0.00498435
0.00945064
0.0122016
0.0132794
0.0133876
0.0135049
0.010432
0.0043745
-0.0100739
-0.0320789
-0.0586915
-0.0748017
-0.0690501
-0.0514968
-0.0294557
-0.0156482
-0.00114697
0.00734197
0.0158992
0.023784
0.0174108
0.0123995
-0.00283613
-0.00973572
-0.151685
-0.157611
-0.15417
-0.145116
-0.134629
-0.124312
-0.113904
-0.10272
-0.0904696
-0.0773165
-0.0636196
-0.0497246
-0.0359201
-0.0224827
-0.00971587
0.00204227
0.0124165
0.0210112
0.0274144
0.0312164
0.0320014
0.0294506
0.0235022
0.0144334
0.00289664
-0.00975945
-0.0212959
-0.0298513
-0.033915
-0.0337398
-0.0302782
-0.0247328
-0.018057
-0.0111956
-0.00441728
0.00162023
0.00694753
0.011135
0.0138766
0.0152276
0.0156856
0.0161529
0.0136868
0.00851224
-0.00439115
-0.0244942
-0.0491549
-0.064749
-0.0602408
-0.0447827
-0.0249825
-0.0123315
0.00131176
0.00927253
0.0170552
0.0248651
0.0185984
0.0135526
-0.00163569
-0.00930735
-0.135276
-0.140705
-0.138101
-0.130503
-0.121511
-0.112594
-0.103601
-0.0939639
-0.0834038
-0.072026
-0.0601222
-0.0479931
-0.0358958
-0.0240741
-0.012794
-0.0023522
0.0069398
0.0147203
0.0206442
0.0243786
0.0256047
0.0240952
0.0198238
0.0130396
0.00429514
-0.00536813
-0.0142119
-0.0213096
-0.0250145
-0.0254179
-0.0230633
-0.0188058
-0.0133549
-0.00754941
-0.00163775
0.00379552
0.00869167
0.0126082
0.0153016
0.0169064
0.0177687
0.0186697
0.0168818
0.0126814
0.00150975
-0.0164712
-0.0390402
-0.0539432
-0.0507525
-0.0376135
-0.0203124
-0.00895915
0.00371194
0.0111833
0.0180036
0.0256345
0.0196096
0.0146517
-0.000211819
-0.00859981
-0.12027
-0.125299
-0.123375
-0.117029
-0.109372
-0.101732
-0.0940324
-0.0857935
-0.076758
-0.0669897
-0.0567239
-0.0462172
-0.0356961
-0.0253729
-0.0154807
-0.00629038
0.00198951
0.00899752
0.014455
0.0180945
0.019673
0.0190316
0.0161601
0.011264
0.00479382
-0.00249333
-0.009598
-0.0148378
-0.0179408
-0.0185715
-0.0169515
-0.0136637
-0.0092074
-0.00429551
0.000842907
0.00570808
0.0102039
0.0138785
0.0165067
0.0183339
0.0196015
0.0210256
0.0200333
0.0169299
0.00758386
-0.0083108
-0.02878
-0.042819
-0.0409298
-0.0302119
-0.0155491
-0.00558584
0.00601416
0.0130556
0.0188074
0.0261258
0.0204935
0.0157406
0.00147237
-0.00756288
-0.10675
-0.111282
-0.109874
-0.104613
-0.0981496
-0.0916652
-0.0851321
-0.0781489
-0.0704801
-0.0621599
-0.0533765
-0.0443467
-0.0352661
-0.026316
-0.0176916
-0.00960838
-0.00232182
0.00394872
0.00895342
0.0124714
0.0143151
0.0143695
0.0126369
0.00928297
0.00466294
-0.000642248
-0.00586898
-0.00991611
-0.0123954
-0.0130249
-0.0118573
-0.00927555
-0.00561174
-0.0014448
0.0030188
0.00735983
0.0114758
0.0149398
0.0175136
0.0195292
0.0211505
0.0231487
0.0231267
0.0212553
0.0136287
-0.000488829
-0.0189006
-0.0318726
-0.0311636
-0.0228349
-0.0108144
-0.00226845
0.0081846
0.014863
0.0195737
0.0264213
0.0213407
0.0168752
0.0034377
-0.00615969
-0.0944371
-0.098485
-0.0975162
-0.0932067
-0.0878007
-0.0823455
-0.0768517
-0.0709845
-0.0645304
-0.0575014
-0.0500467
-0.0423473
-0.0345697
-0.0268683
-0.0194057
-0.0123621
-0.00596112
-0.000374305
0.00419425
0.00756489
0.00959208
0.0101904
0.00936743
0.00725768
0.0041378
0.000450917
-0.00325988
-0.00624996
-0.00810986
-0.00859895
-0.00768051
-0.00559477
-0.00255019
0.0010039
0.00488863
0.00875683
0.0125112
0.0157815
0.0183202
0.0205
0.0224063
0.0249171
0.025942
0.0253201
0.0191701
0.0064741
-0.00986548
-0.021552
-0.0218469
-0.0157527
-0.00624126
0.000933076
0.0101972
0.0165688
0.0204353
0.0266404
0.0222741
0.0181115
0.00566952
-0.00439366
-0.0831868
-0.0868486
-0.0862541
-0.0827611
-0.0782746
-0.0737226
-0.0691442
-0.0642597
-0.0588756
-0.0529874
-0.0467123
-0.0401996
-0.0335892
-0.0270117
-0.0206028
-0.0145113
-0.00891077
-0.00395285
0.000198951
0.00340074
0.0055385
0.00654888
0.00643781
0.00530969
0.00338079
0.00100938
-0.00150669
-0.00357492
-0.00485113
-0.00512387
-0.00431465
-0.00256376
6.61912e-06
0.00306261
0.00645666
0.00990574
0.0133208
0.0164029
0.0189116
0.0212223
0.0233536
0.0261804
0.0280867
0.0284513
0.0235459
0.0121967
-0.00195961
-0.0122217
-0.0133415
-0.00922173
-0.00196243
0.00395476
0.0120321
0.0181282
0.021503
0.0269131
0.0234186
0.0194785
0.00808594
-0.00234223
-0.0730556
-0.0763365
-0.0760124
-0.0731964
-0.0695051
-0.0657446
-0.0619673
-0.0579403
-0.0534901
-0.0486007
-0.0433629
-0.0378992
-0.0323256
-0.026749
-0.0212809
-0.0160424
-0.0111711
-0.00679225
-0.00303795
-2.35749e-05
0.00216017
0.00346527
0.00389505
0.00352499
0.0025113
0.00108126
-0.000401067
-0.001674
-0.00241741
-0.0024423
-0.0016517
-0.000117449
0.00209661
0.004752
0.00773302
0.0108149
0.0139157
0.016809
0.0192775
0.0216614
0.0239508
0.0268564
0.0292208
0.0301091
0.0262866
0.0165099
0.00462569
-0.00419424
-0.00594004
-0.00344635
0.00190834
0.00673247
0.0136722
0.0194926
0.0227937
0.0273435
0.0248341
0.0209327
0.0105122
-0.000179198
-0.0639166
-0.0668313
-0.0667048
-0.0644551
-0.0614462
-0.058371
-0.0552871
-0.0520001
-0.0483566
-0.0443335
-0.0399994
-0.0354532
-0.0307895
-0.0260971
-0.0214657
-0.0169872
-0.0127714
-0.00892223
-0.00554635
-0.00273513
-0.000560803
0.000937584
0.00176008
0.00196242
0.00166445
0.00101729
0.000274878
-0.000354752
-0.000635509
-0.000412626
0.000412763
0.00181344
0.00376342
0.00609919
0.00873404
0.0114947
0.0143073
0.0170073
0.0194118
0.021797
0.0241589
0.0269199
0.0292918
0.0302881
0.027395
0.0193992
0.00973362
0.00229615
0.000180554
0.00145738
0.00529429
0.00921055
0.015106
0.0206119
0.0241652
0.0279565
0.0264413
0.0223312
0.0126838
0.00183794
-0.0556308
-0.0582207
-0.058274
-0.0565089
-0.0540664
-0.0515685
-0.0490736
-0.0464177
-0.0434645
-0.0401849
-0.0366294
-0.0328781
-0.0290081
-0.0250904
-0.0211997
-0.0173862
-0.0137563
-0.0103907
-0.0073743
-0.00477847
-0.00266099
-0.00105498
3.63244e-05
0.000654923
0.000879749
0.000827497
0.000657149
0.000538285
0.000641844
0.00109139
0.00197709
0.00329924
0.00505445
0.00713548
0.00948061
0.0119594
0.0145091
0.0170091
0.0193146
0.0216268
0.0239638
0.026427
0.0285344
0.0294076
0.0272403
0.0209922
0.0133559
0.00722977
0.00501043
0.00547356
0.00816209
0.0113475
0.0163284
0.021447
0.0253267
0.0286228
0.0279801
0.0234433
0.0143123
0.00345006
-0.0481466
-0.0504496
-0.0506318
-0.0492723
-0.047326
-0.0453127
-0.043306
-0.0411769
-0.0388074
-0.0361608
-0.0332711
-0.0302008
-0.0270134
-0.0237685
-0.0204946
-0.0172819
-0.0141802
-0.0112586
-0.00858332
-0.00621103
-0.00418911
-0.002545
-0.00128542
-0.000382521
0.000213415
0.000589236
0.000852622
0.0011275
0.00153736
0.00217999
0.00313189
0.0044085
0.00601858
0.00789515
0.00999718
0.0122273
0.0145362
0.0168299
0.019003
0.0211685
0.023265
0.0254855
0.0272484
0.0279283
0.0262946
0.021573
0.0156941
0.010786
0.0086694
0.00865779
0.0105134
0.013117
0.017323
0.0219758
0.0259892
0.028986
0.0290235
0.0240057
0.0151994
0.00451418
-0.041416
-0.043448
-0.0437158
-0.0426841
-0.0411476
-0.0395527
-0.0379663
-0.0362824
-0.034396
-0.0322749
-0.0299433
-0.0274483
-0.0248373
-0.0221498
-0.0194442
-0.0167502
-0.0141177
-0.0115987
-0.00924419
-0.00709895
-0.00520172
-0.00357759
-0.00223424
-0.00115515
-0.000307706
0.000367657
0.000944235
0.00150972
0.00215242
0.00294825
0.00395885
0.0052061
0.00670449
0.00841428
0.0103105
0.0123199
0.0144065
0.0164939
0.0185109
0.0204969
0.0223992
0.0242673
0.0256882
0.0261879
0.0249531
0.0214738
0.0170564
0.0132204
0.0113313
0.0110958
0.0123708
0.0145077
0.0180554
0.0221648
0.0260137
0.0287427
0.0291424
0.0238277
0.0153171
0.00504484
-0.0353544
-0.0371379
-0.0374629
-0.0366982
-0.0355023
-0.0342543
-0.0330161
-0.0317005
-0.0302188
-0.0285388
-0.0266758
-0.024666
-0.0225473
-0.0203528
-0.018116
-0.0158684
-0.0136465
-0.0114884
-0.00943251
-0.00751274
-0.00576263
-0.00420402
-0.00284205
-0.00166967
-0.000667312
0.00020383
0.000992443
0.0017604
0.00256925
0.00347667
0.00453
0.00575229
0.00715967
0.0087295
0.0104483
0.0122612
0.0141429
0.0160284
0.0178707
0.0196583
0.0213477
0.0228989
0.0240294
0.0243955
0.0234748
0.0209635
0.0177147
0.0147952
0.0131886
0.012886
0.0137674
0.0155214
0.0184868
0.0219841
0.0253901
0.0276582
0.0281624
0.0228977
0.0147891
0.00514846
-0.0298934
-0.0314575
-0.0318193
-0.03127
-0.0303535
-0.0293905
-0.028438
-0.0274256
-0.0262774
-0.0249625
-0.0234898
-0.0218863
-0.020181
-0.0183995
-0.0165657
-0.0147036
-0.0128403
-0.011004
-0.00922277
-0.00752488
-0.00593882
-0.00447425
-0.00314309
-0.00194117
-0.000861518
0.000121988
0.00104068
0.00193733
0.00285358
0.00383212
0.00490785
0.00610191
0.00742907
0.00887709
0.0104402
0.0120764
0.0137695
0.0154607
0.0171212
0.0187085
0.0201861
0.0214746
0.0223808
0.0226644
0.0219991
0.0202271
0.0178808
0.0157237
0.0144132
0.0141238
0.014742
0.01617
0.0185947
0.0214488
0.0242412
0.0259153
0.0262737
0.021368
0.0138045
0.00494769
-0.0249852
-0.0263525
-0.0267321
-0.0263534
-0.0256641
-0.0249337
-0.0242141
-0.0234484
-0.0225721
-0.0215564
-0.0204054
-0.019139
-0.0177791
-0.0163446
-0.0148529
-0.0133215
-0.0117704
-0.0102193
-0.0086907
-0.00720778
-0.00578561
-0.00443734
-0.00317217
-0.00199274
-0.000895668
0.000135213
0.00111861
0.00208341
0.00305675
0.00406932
0.00514565
0.00630331
0.00755449
0.00889259
0.010316
0.0117919
0.0133109
0.01482
0.0163024
0.0176997
0.0189811
0.02006
0.0208031
0.0210472
0.0205925
0.0193783
0.0177161
0.0161662
0.0151367
0.0148964
0.015337
0.0164766
0.0183925
0.0206136
0.0227537
0.023809
0.0238459
0.0194611
0.0125568
0.00455703
-0.020578
-0.0217676
-0.0221504
-0.0219057
-0.0213999
-0.0208581
-0.0203266
-0.0197598
-0.0191032
-0.0183305
-0.0174427
-0.0164539
-0.0153804
-0.014236
-0.013033
-0.0117838
-0.0105027
-0.00920565
-0.00791173
-0.0066225
-0.00536355
-0.00414329
-0.00297173
-0.00185098
-0.000780847
0.000247706
0.0012448
0.00222928
0.0032179
0.00423193
0.00528773
0.00639857
0.00757372
0.00880915
0.0101048
0.0114348
0.0127941
0.0141358
0.0154492
0.0166734
0.017783
0.0186985
0.0193271
0.0195625
0.0192801
0.0184802
0.0173311
0.0162495
0.0154696
0.0152838
0.015598
0.0164768
0.0179242
0.0195573
0.0210878
0.0215791
0.0212282
0.017389
0.0112084
0.00407557
-0.0166215
-0.0176531
-0.0180293
-0.0178888
-0.01753
-0.0171397
-0.0167589
-0.016351
-0.0158704
-0.0152935
-0.0146192
-0.0138574
-0.0130199
-0.0121164
-0.0111553
-0.0101452
-0.0090955
-0.00801717
-0.00692143
-0.00582326
-0.00472737
-0.00364388
-0.00258198
-0.00154437
-0.000533002
0.0004566
0.00142885
0.00239538
0.00336573
0.00435394
0.00537007
0.00642336
0.00752007
0.00865677
0.00983429
0.0110312
0.0122444
0.0134339
0.0145923
0.015664
0.0166274
0.0174168
0.0179664
0.0182094
0.0180655
0.0175691
0.0167983
0.0160694
0.0154979
0.0153587
0.0155741
0.0162166
0.0172492
0.0183629
0.0193559
0.0193782
0.0186617
0.0153143
0.00987146
0.00357568
-0.0130748
-0.0139664
-0.0143287
-0.014268
-0.0140258
-0.0137562
-0.0134949
-0.0132128
-0.012872
-0.0124518
-0.0119495
-0.011372
-0.0107278
-0.0100234
-0.00926454
-0.00845657
-0.00760602
-0.00672067
-0.00580939
-0.00487801
-0.00393515
-0.00298741
-0.00204221
-0.00110252
-0.000171092
0.000753907
0.00167342
0.00259395
0.00352017
0.00446076
0.00542116
0.00640701
0.00742198
0.00846243
0.009529
0.0106039
0.0116846
0.0127373
0.0137567
0.0146961
0.0155373
0.0162289
0.0167222
0.0169789
0.0169442
0.016666
0.0161691
0.0156936
0.0152662
0.015183
0.0153167
0.015748
0.0164252
0.0170769
0.0176215
0.0172953
0.0162859
0.0133471
0.00861201
0.00310032
-0.00990097
-0.0106687
-0.0110117
-0.0110111
-0.0108607
-0.0106866
-0.0105194
-0.0103361
-0.0101055
-0.00980951
-0.00944498
-0.00901631
-0.00852942
-0.00798882
-0.00739778
-0.0067595
-0.00607797
-0.00535786
-0.00460464
-0.00382946
-0.00303132
-0.00221569
-0.00138901
-0.000554645
0.00028424
0.00112803
0.00197577
0.00283056
0.00369387
0.00457041
0.00546253
0.0063729
0.00730295
0.00824899
0.00921046
0.0101727
0.0111337
0.0120649
0.012961
0.013786
0.0145253
0.0151392
0.0155901
0.0158597
0.0159069
0.0157824
0.0154821
0.0151859
0.0148943
0.0148205
0.0148775
0.0151225
0.0155088
0.0158001
0.0159646
0.0153801
0.0141656
0.0115531
0.00746351
0.00266983
-0.00706627
-0.00772477
-0.00804559
-0.00808945
-0.00801073
-0.00791161
-0.0078178
-0.00771141
-0.00756694
-0.00736902
-0.00711407
-0.00680488
-0.00644548
-0.0060388
-0.00558667
-0.00509065
-0.00455308
-0.00397696
-0.00336672
-0.00272648
-0.00205914
-0.00136758
-0.000656459
7.10482e-05
0.000811673
0.00156498
0.00232929
0.00310559
0.00389335
0.00469461
0.00550953
0.0063387
0.0071819
0.00803499
0.00889676