/*--------------------------------*- C++ -*----------------------------------*\
| =========                 |                                                 |
| \\      /  F ield         | OpenFOAM: The Open Source CFD Toolbox           |
|  \\    /   O peration     | Version:  2512                                  |
|   \\  /    A nd           | Website:  www.openfoam.com                      |
|    \\/     M anipulation  |                                                 |
\*---------------------------------------------------------------------------*/
FoamFile
{
    version     2.0;
    format      ascii;
    arch        "LSB;label=32;scalar=64";
    class       volVectorField;
    location    "179";
    object      U;
}
// * * * * * * * * * * * * * * * * * * * * * * * * * * * * * * * * * * * * * //

dimensions      [0 1 -1 0 0 0 0];

internalField   nonuniform List<vector> 
13248
(
(-0.0141702 0.0128464 9.19001e-20)
(-0.0251547 0.0269654 0)
(-0.0184834 0.0345049 -1.73352e-19)
(0.00542155 0.0374809 1.63293e-19)
(0.0462453 0.0373707 1.52579e-19)
(0.103627 0.0352856 0)
(0.176955 0.0320559 0)
(0.265141 0.0283029 3.68975e-19)
(0.366391 0.0244618 -5.38041e-22)
(0.478027 0.020776 -3.2454e-19)
(0.596458 0.017294 3.04818e-19)
(0.717328 0.0138858 -1.90882e-19)
(0.835851 0.0102839 0)
(0.947244 0.00614773 -3.35614e-19)
(1.04721 0.00113952 6.27926e-19)
(1.13236 -0.00500195 -1.50395e-19)
(1.20057 -0.0124037 -2.67427e-19)
(1.25112 -0.0210418 2.51082e-19)
(1.2847 -0.0306963 0)
(1.3031 -0.0412677 0)
(1.3091 -0.0517325 0)
(1.30481 -0.0645299 0)
(1.29428 -0.0714015 7.11831e-20)
(1.27536 -0.0972992 2.48539e-19)
(-0.0137958 0.0112067 -2.77403e-19)
(-0.0188091 0.0206744 1.88953e-19)
(-0.00177022 0.023864 -1.80339e-21)
(0.0361475 0.0233266 -2.49484e-19)
(0.0941448 0.0209005 -1.52414e-19)
(0.171264 0.0179317 -1.44401e-19)
(0.26592 0.0153354 -2.6542e-19)
(0.375561 0.013673 2.51279e-19)
(0.496484 0.013181 0)
(0.623876 0.0137819 5.25825e-22)
(0.752151 0.015117 1.07491e-21)
(0.875493 0.016622 1.90184e-19)
(0.988499 0.0176368 0)
(1.08678 0.0175318 0)
(1.16742 0.0158212 2.26787e-19)
(1.22916 0.0122429 -4.26429e-19)
(1.27244 0.00678656 2.53803e-19)
(1.29906 -0.000326595 -2.38307e-19)
(1.31181 -0.00871501 -1.03671e-19)
(1.31385 -0.0178907 -1.88481e-19)
(1.3082 -0.0273567 -7.58492e-20)
(1.29749 -0.0368021 -1.42266e-19)
(1.28344 -0.0441474 2.11301e-19)
(1.26733 -0.0557068 5.89988e-20)
(-0.0121374 0.00910674 0)
(-0.00815009 0.013952 0)
(0.0229012 0.0137222 8.82936e-20)
(0.0787818 0.0111281 8.13209e-20)
(0.157734 0.00817777 -1.9114e-21)
(0.257519 0.00632139 -1.49535e-19)
(0.374729 0.00639909 0)
(0.504503 0.008698 -1.2508e-19)
(0.640657 0.0130057 1.18012e-19)
(0.776218 0.0186866 7.01241e-22)
(0.904249 0.0248188 -2.028e-19)
(1.01874 0.0303798 -1.86791e-19)
(1.11532 0.0344424 2.94916e-21)
(1.19168 0.0363347 -1.55425e-19)
(1.2476 0.0357308 3.72954e-19)
(1.28469 0.0326598 0)
(1.30583 0.0274455 -2.41483e-19)
(1.3145 0.020594 1.18017e-19)
(1.31419 0.0127056 1.03594e-19)
(1.30787 0.00428169 0)
(1.29785 -0.00396561 8.38479e-20)
(1.28546 -0.0123735 -2.8265e-19)
(1.27196 -0.0183013 2.65342e-19)
(1.25726 -0.0292322 1.62018e-19)
(-0.00866849 0.00645593 -9.79547e-20)
(0.00797088 0.00670053 -1.01291e-19)
(0.0568438 0.00411123 9.16431e-20)
(0.134299 0.00115067 0)
(0.236975 -0.000274893 0)
(0.360491 0.00113716 -3.41768e-21)
(0.49873 0.00584779 0)
(0.643965 0.013537 -3.83335e-19)
(0.787621 0.0232604 3.56454e-19)
(0.92145 0.0336837 -4.4049e-19)
(1.03871 0.0433777 1.013e-19)
(1.13504 0.0511078 0)
(1.20874 0.0560426 1.68775e-19)
(1.26062 0.0578433 -3.12634e-19)
(1.29338 0.0566298 7.46172e-20)
(1.31077 0.0528598 1.91046e-19)
(1.31678 0.0471677 -8.72488e-21)
(1.31503 0.0402213 -2.11264e-19)
(1.30834 0.0326089 0)
(1.29871 0.0248205 0)
(1.28738 0.0172197 -7.48701e-20)
(1.27509 0.00990366 6.68328e-20)
(1.26238 0.00415475 2.37645e-19)
(1.24916 -0.00497239 -2.2316e-19)
(-0.00293641 0.00336877 -1.031e-19)
(0.0305062 -0.000713844 -1.02935e-19)
(0.100965 -0.00433702 2.89454e-19)
(0.202907 -0.00571069 -1.76002e-19)
(0.330555 -0.00339702 1.65656e-19)
(0.476467 0.00336463 3.01503e-19)
(0.631214 0.0142306 -2.13208e-19)
(0.784323 0.0279234 -2.59669e-19)
(0.925873 0.0426193 5.09352e-21)
(1.04809 0.0564055 3.32577e-19)
(1.14637 0.0676937 0)
(1.21952 0.0754881 9.14162e-20)
(1.26928 0.0794595 0)
(1.2993 0.0798498 -1.49611e-19)
(1.31413 0.0772739 2.10625e-19)
(1.3182 0.072502 2.35498e-21)
(1.31524 0.0662844 -5.50879e-20)
(1.30803 0.0592489 1.03614e-19)
(1.29842 0.0518738 8.88431e-20)
(1.28754 0.044492 -7.95648e-20)
(1.27601 0.0373592 7.48529e-20)
(1.26418 0.0305266 -6.68164e-20)
(1.25227 0.0247182 0)
(1.24023 0.0166072 -5.02033e-20)
(0.00543608 0.00012067 1.03085e-19)
(0.0601318 -0.00751059 1.08196e-19)
(0.155612 -0.0104367 -9.70117e-20)
(0.283843 -0.00801906 1.81135e-19)
(0.435735 0.000217019 -1.70478e-19)
(0.600094 0.0139664 1.54505e-19)
(0.764247 0.0316405 -7.41555e-20)
(0.916085 0.0508229 1.94889e-19)
(1.04625 0.0689762 -1.2248e-19)
(1.14946 0.0840481 2.16809e-19)
(1.22476 0.0948216 -5.00163e-19)
(1.27461 0.100968 1.83493e-19)
(1.30359 0.102868 -1.60986e-19)
(1.31701 0.101322 1.51222e-19)
(1.3198 0.0972613 1.30732e-19)
(1.31593 0.0915474 1.149e-19)
(1.30823 0.0848672 -3.19286e-19)
(1.2985 0.0777191 1.98244e-19)
(1.2878 0.0704423 -8.88475e-20)
(1.2767 0.0632665 2.31118e-19)
(1.26547 0.0563409 -7.46455e-20)
(1.25424 0.049763 -1.808e-19)
(1.24308 0.0438628 1.66778e-19)
(1.23189 0.0365524 5.01891e-20)
(0.0167318 -0.00288132 0)
(0.0971555 -0.0126004 9.59451e-22)
(0.220389 -0.0126599 2.0289e-19)
(0.375177 -0.00413512 -1.90255e-19)
(0.54836 0.0118592 -1.72052e-19)
(0.724896 0.0334021 3.19826e-19)
(0.88992 0.0574093 -1.48558e-19)
(1.03169 0.0805067 1.97931e-19)
(1.14354 0.0999628 -4.37051e-21)
(1.22422 0.114197 -1.12067e-19)
(1.2767 0.12282 2.44631e-19)
(1.30642 0.126353 -3.60842e-19)
(1.31954 0.125814 0)
(1.32161 0.122343 -7.0882e-20)
(1.317 0.116958 -1.89624e-19)
(1.30871 0.110444 5.957e-20)
(1.29861 0.103348 2.40501e-21)
(1.28777 0.0960303 -1.31252e-19)
(1.27671 0.0887196 8.24026e-21)
(1.26568 0.0815637 1.5178e-19)
(1.25478 0.0746636 -6.7649e-20)
(1.24402 0.0681022 -2.55808e-20)
(1.2334 0.0619511 7.92519e-20)
(1.22285 0.0551214 0)
(0.0310989 -0.00515748 0)
(0.141397 -0.014756 5.49658e-20)
(0.294011 -0.00941712 -2.63949e-19)
(0.473791 0.00738957 9.62571e-20)
(0.663212 0.0322857 -9.059e-20)
(0.844223 0.0613588 -8.27343e-20)
(1.00175 0.0901704 -1.46371e-19)
(1.12669 0.114967 7.30149e-20)
(1.21672 0.133523 6.36095e-20)
(1.27491 0.145243 0)
(1.3075 0.150752 1.4478e-19)
(1.32159 0.151325 -2.15403e-19)
(1.3236 0.14838 1.60474e-19)
(1.31847 0.143159 7.09209e-20)
(1.30958 0.136601 -5.81981e-20)
(1.29897 0.129342 -4.88331e-20)
(1.28777 0.121783 -4.56454e-20)
(1.27652 0.114169 1.3629e-19)
(1.26545 0.106651 0)
(1.25465 0.0993284 6.85825e-20)
(1.24412 0.0922756 5.76867e-20)
(1.23383 0.0855507 -1.43217e-19)
(1.22373 0.0791222 -9.7818e-20)
(1.21375 0.0726066 9.04982e-20)
(0.0485236 -0.00618228 -5.88336e-20)
(0.192115 -0.0127369 -2.06646e-21)
(0.374287 0.000692315 5.36815e-20)
(0.575621 0.0275028 1.5008e-19)
(0.774731 0.0615044 4.36581e-20)
(0.952358 0.0968067 -8.43039e-20)
(1.09563 0.128209 7.71041e-20)
(1.19992 0.152383 -6.76612e-20)
(1.26776 0.168225 1.21071e-19)
(1.30594 0.176361 5.16621e-20)
(1.32267 0.178351 -1.46454e-19)
(1.32547 0.175978 4.32618e-20)
(1.32018 0.170807 7.39951e-20)
(1.31072 0.164011 -3.63619e-20)
(1.29948 0.156367 0)
(1.28772 0.148351 5.4552e-20)
(1.27604 0.140241 9.2551e-20)
(1.2647 0.132198 1.59879e-20)
(1.25376 0.12432 -7.72758e-20)
(1.24322 0.116679 3.24624e-20)
(1.23303 0.109328 0)
(1.22315 0.102289 -2.55679e-20)
(1.2135 0.0955128 -2.40866e-20)
(1.204 0.0890588 0)
(0.0687658 -0.0054196 0)
(0.247959 -0.00542677 3.07823e-20)
(0.458242 0.0186774 5.70845e-20)
(0.67613 0.0564893 -1.52728e-19)
(0.877824 0.0988058 4.92306e-20)
(1.04527 0.138272 0)
(1.16993 0.169833 7.41177e-20)
(1.25256 0.191357 -1.03435e-19)
(1.30007 0.203217 -6.03889e-20)
(1.3218 0.207229 2.73428e-20)
(1.32669 0.205643 -4.37791e-20)
(1.3218 0.200482 1.06296e-19)
(1.31194 0.193265 5.34512e-20)
(1.30002 0.184994 -3.70514e-20)
(1.28756 0.176268 -3.38528e-21)
(1.27528 0.167421 -1.0234e-19)
(1.26348 0.158637 4.66581e-20)
(1.25223 0.150021 -1.10466e-21)
(1.24151 0.141638 0)
(1.23128 0.133539 -3.2496e-20)
(1.22148 0.125757 0)
(1.21202 0.118288 7.38597e-20)
(1.20283 0.111138 -8.80606e-20)
(1.19379 0.104568 4.01658e-20)
(0.0913297 -0.00236696 -1.59381e-20)
(0.307011 0.00805039 -7.75453e-20)
(0.542376 0.0450306 8.8135e-20)
(0.770854 0.0939583 5.19431e-20)
(0.968448 0.142946 -2.48457e-20)
(1.12075 0.184134 4.16965e-20)
(1.22492 0.21359 -2.02748e-20)
(1.28696 0.230925 3.37703e-20)
(1.31715 0.238058 0)
(1.32614 0.237779 7.67266e-20)
(1.32264 0.232739 -3.05552e-21)
(1.31276 0.224976 -6.21143e-20)
(1.30021 0.215838 2.67072e-20)
(1.28696 0.206125 -3.02733e-20)
(1.27395 0.196269 -1.16509e-20)
(1.26153 0.186494 1.33024e-20)
(1.24981 0.176915 -1.03884e-20)
(1.23876 0.1676 -5.63668e-20)
(1.22835 0.158593 3.45873e-20)
(1.21848 0.149927 7.14402e-21)
(1.20908 0.141612 6.31066e-21)
(1.20005 0.133633 5.57567e-21)
(1.19131 0.126075 0)
(1.18271 0.119171 0)
(0.115542 0.00341095 1.59492e-20)
(0.367043 0.0282542 -1.60092e-20)
(0.62316 0.0796821 -2.93592e-20)
(0.855991 0.138944 0)
(1.04392 0.192391 -1.23194e-20)
(1.1781 0.232858 -1.1058e-20)
(1.26182 0.258353 -1.89718e-20)
(1.30557 0.270481 0)
(1.32178 0.272552 0)
(1.32136 0.268034 0)
(1.3122 0.259718 0)
(1.29926 0.249497 0)
(1.28524 0.238496 -1.68329e-20)
(1.27141 0.227313 7.67963e-21)
(1.25828 0.216245 1.33972e-20)
(1.24598 0.205431 6.25808e-21)
(1.2345 0.194941 1.56105e-20)
(1.22379 0.184814 0)
(1.21377 0.175077 -3.78934e-21)
(1.20435 0.165747 -3.59771e-21)
(1.19543 0.156815 -6.32067e-21)
(1.18691 0.148275 -5.58454e-21)
(1.17868 0.14029 0)
(1.17059 0.132897 4.06305e-21)
(-0.00222443 0.0507181 9.73775e-21)
(-0.00741714 0.121598 -1.00571e-20)
(-0.0154249 0.169818 -1.89876e-20)
(-0.0254906 0.200315 0)
(-0.0368979 0.217566 -2.5299e-20)
(-0.049077 0.225522 7.88288e-21)
(-0.0615094 0.227356 -1.51599e-20)
(-0.0737592 0.225321 0)
(-0.0854905 0.22079 0)
(-0.0964526 0.214393 0)
(-0.106456 0.206217 0)
(-0.11535 0.196006 0)
(-0.123008 0.18332 -1.71516e-22)
(-0.129309 0.167659 -1.04498e-20)
(-0.13414 0.148534 2.06414e-20)
(-0.137385 0.125515 2.93597e-20)
(-0.138934 0.098276 9.78998e-21)
(-0.138693 0.066616 0)
(-0.136597 0.0304818 8.23286e-21)
(-0.132546 -0.00997419 -2.38977e-20)
(-0.12637 -0.0543612 -1.52462e-20)
(-0.118099 -0.101969 -1.42967e-20)
(-0.107774 -0.151812 0)
(-0.0955342 -0.202456 0)
(-0.00498553 0.051689 -2.94839e-20)
(-0.012727 0.125371 5.05359e-20)
(-0.0202087 0.176691 -1.94352e-20)
(-0.0279818 0.210041 -3.63016e-20)
(-0.0360801 0.229568 5.10898e-20)
(-0.0443269 0.239084 -3.24965e-20)
(-0.0524306 0.24176 4.57185e-20)
(-0.0600618 0.239938 2.94791e-20)
(-0.0669059 0.235106 0)
(-0.0726869 0.228013 -2.64574e-20)
(-0.0771746 0.21884 -8.21541e-22)
(-0.080181 0.207397 2.32948e-20)
(-0.0815541 0.193287 3.47444e-20)
(-0.0811746 0.176036 4.46268e-20)
(-0.0789469 0.155158 -1.97564e-20)
(-0.0747909 0.130227 -5.98579e-20)
(-0.0686486 0.100913 2.03798e-20)
(-0.0604847 0.0670163 -7.48852e-20)
(-0.0502632 0.0284956 0)
(-0.0380099 -0.0144791 1.61421e-20)
(-0.0237094 -0.0614863 1.52205e-20)
(-0.0074267 -0.111803 1.42723e-20)
(0.0108195 -0.164215 0)
(0.0319447 -0.216609 0)
(-0.00760227 0.0505548 0)
(-0.0179132 0.124546 1.04374e-19)
(-0.0249303 0.177697 -3.92776e-20)
(-0.0303203 0.213412 3.67825e-20)
(-0.0347873 0.235187 -1.0507e-19)
(-0.038539 0.246464 0)
(-0.0415375 0.250254 -6.30156e-20)
(-0.0436001 0.248888 2.98213e-20)
(-0.0444733 0.243937 -5.72541e-20)
(-0.0438891 0.23627 2.79442e-20)
(-0.0416003 0.226195 1.56999e-19)
(-0.0373972 0.21363 -7.38936e-20)
(-0.0311067 0.198264 -1.19857e-19)
(-0.0226163 0.179678 -4.84883e-20)
(-0.0118627 0.157435 -2.07531e-21)
(0.00120552 0.131141 1.69351e-19)
(0.0166052 0.10049 -8.04277e-20)
(0.0342937 0.0652906 -1.5745e-21)
(0.0541854 0.0254927 0)
(0.0762227 -0.0187425 -7.22014e-20)
(0.100336 -0.0670088 0)
(0.126279 -0.118633 -6.18804e-20)
(0.154041 -0.172337 2.35633e-19)
(0.186003 -0.225805 -1.92499e-21)
(-0.00980148 0.0475208 0)
(-0.0224829 0.119311 7.73712e-22)
(-0.0291931 0.172766 4.02934e-20)
(-0.0323669 0.210027 -3.80804e-20)
(-0.0332188 0.233727 3.50017e-20)
(-0.03229 0.246753 2.0211e-19)
(-0.0298013 0.251804 -6.3464e-20)
(-0.0257527 0.251097 -6.08624e-20)
(-0.020001 0.246221 1.15192e-19)
(-0.0123335 0.238148 -1.65909e-19)
(-0.0025247 0.227318 5.22943e-20)
(0.00962774 0.213785 5.09132e-20)
(0.0242854 0.197354 0)
(0.041559 0.177693 4.63167e-20)
(0.0615056 0.154435 0)
(0.0841445 0.127236 8.74535e-20)
(0.10946 0.0958133 -1.69195e-19)
(0.137385 0.0599859 3.61888e-20)
(0.167827 0.019736 1.52282e-19)
(0.200673 -0.0247617 7.21079e-20)
(0.235689 -0.0731457 0)
(0.272718 -0.124742 -1.94341e-19)
(0.310323 -0.178371 6.11007e-20)
(0.356089 -0.231283 0)
(-0.0114004 0.0430167 0)
(-0.02607 0.110332 -1.2909e-19)
(-0.0326989 0.162408 -4.0604e-20)
(-0.0340503 0.200066 -7.63913e-20)
(-0.0316277 0.225007 7.19244e-20)
(-0.0262163 0.239464 -6.75692e-20)
(-0.018273 0.245715 1.29358e-19)
(-0.00800087 0.245755 6.22227e-20)
(0.00459061 0.241119 -1.73648e-19)
(0.0196098 0.23283 1.12285e-19)
(0.0372177 0.221445 -1.59888e-19)
(0.0575809 0.207151 3.59405e-19)
(0.0808432 0.18988 -1.94328e-19)
(0.107112 0.169414 9.46252e-20)
(0.13645 0.145465 2.75895e-19)
(0.168896 0.117735 -8.29533e-20)
(0.204451 0.0859915 -8.04471e-20)
(0.243087 0.0500935 -7.95092e-20)
(0.284704 0.0100292 0)
(0.329143 -0.0340243 -1.48562e-19)
(0.375888 -0.0816585 -1.4058e-19)
(0.425426 -0.131942 1.97547e-19)
(0.472544 -0.184388 2.4203e-19)
(0.534346 -0.234457 -2.26652e-19)
(-0.0123468 0.03762 0)
(-0.0285106 0.0986589 -1.75089e-19)
(-0.0352921 0.147663 -8.27161e-23)
(-0.0353389 0.184306 1.54401e-19)
(-0.0302056 0.209444 0)
(-0.0208082 0.224657 0)
(-0.00778792 0.23175 0)
(0.00845873 0.232424 -6.20982e-20)
(0.0277516 0.228082 -1.56223e-21)
(0.0500669 0.219736 1.10533e-19)
(0.0754763 0.20801 -1.62342e-19)
(0.104099 0.193198 -1.73945e-21)
(0.136071 0.175344 0)
(0.171523 0.154332 -9.45708e-20)
(0.210553 0.129954 9.32052e-20)
(0.253268 0.102004 -2.60119e-19)
(0.299744 0.0702931 3.38326e-19)
(0.349951 0.0347078 8.52295e-20)
(0.403705 -0.00472388 4.66526e-21)
(0.460796 -0.0476768 -2.91661e-19)
(0.519901 -0.093795 -1.36751e-19)
(0.582746 -0.141309 4.50422e-19)
(0.638296 -0.191427 -2.99249e-19)
(0.71504 -0.236235 0)
(-0.0127321 0.031967 8.65437e-20)
(-0.0298746 0.085563 8.78342e-20)
(-0.0369734 0.129969 -8.29795e-20)
(-0.036199 0.164069 -1.5509e-19)
(-0.0289525 0.188083 1.46014e-19)
(-0.0161675 0.203042 -1.37456e-19)
(0.00140572 0.210295 1.94006e-19)
(0.0232229 0.211223 -6.21652e-20)
(0.048958 0.207039 1.15783e-19)
(0.0784699 0.19868 0)
(0.111758 0.186776 1.07556e-19)
(0.148917 0.171679 -1.99807e-19)
(0.190104 0.153511 1.96887e-19)
(0.235509 0.132248 -1.84909e-19)
(0.28533 0.10778 0)
(0.339708 0.0799624 1.72689e-19)
(0.398637 0.0486609 3.33761e-19)
(0.461966 0.013877 -3.14731e-19)
(0.52916 -0.0242294 -1.49257e-19)
(0.59966 -0.0650407 -1.46141e-19)
(0.670834 -0.108445 4.0623e-19)
(0.745318 -0.151281 1.21595e-19)
(0.806842 -0.197415 -1.15824e-19)
(0.891988 -0.234056 1.01856e-19)
(-0.0127696 0.0266508 -8.65558e-20)
(-0.0304289 0.0723312 2.66284e-19)
(-0.037843 0.110942 -8.39988e-20)
(-0.0364942 0.141049 1.55718e-19)
(-0.0274965 0.162525 -1.46604e-19)
(-0.0117066 0.176019 -4.37184e-23)
(0.0101055 0.182512 6.45571e-20)
(0.0373318 0.183079 2.44439e-19)
(0.0695761 0.178723 2.13296e-21)
(0.106649 0.17026 -1.0918e-19)
(0.148543 0.158274 0)
(0.195371 0.143126 -1.01471e-19)
(0.247342 0.125002 1.89966e-19)
(0.30468 0.103939 1.86142e-19)
(0.367516 0.0798945 -8.73268e-20)
(0.435813 0.0528087 -1.86174e-21)
(0.509225 0.0227096 -8.20927e-20)
(0.587012 -0.010212 1.52396e-19)
(0.667802 -0.0456511 1.49224e-19)
(0.750157 -0.0826337 -1.41026e-19)
(0.830231 -0.121374 1.26426e-19)
(0.910085 -0.157424 -1.1662e-19)
(0.972323 -0.197555 0)
(1.0532 -0.223625 -1.01841e-19)
(-0.0127347 0.0221241 8.73166e-20)
(-0.0305147 0.0600465 -8.91307e-20)
(-0.0379472 0.0921137 8.39465e-20)
(-0.0357978 0.117065 0)
(-0.0248442 0.13474 0)
(-0.00579798 0.145598 1.37334e-19)
(0.0206492 0.150373 -1.29144e-19)
(0.0539383 0.149901 1.21749e-19)
(0.0937139 0.144985 -5.73874e-19)
(0.139826 0.136309 -1.05311e-21)
(0.192303 0.124388 1.02943e-19)
(0.251281 0.109575 0)
(0.316869 0.0920649 -1.90623e-19)
(0.38904 0.071945 3.61538e-19)
(0.4675 0.0492768 -2.58855e-19)
(0.551525 0.0241489 -4.17432e-19)
(0.639848 -0.00325775 -4.32309e-21)
(0.730617 -0.0325954 2.92678e-19)
(0.821318 -0.0634298 0)
(0.909323 -0.0946713 0)
(0.990406 -0.12665 -1.26432e-19)
(1.06486 -0.154695 1.1663e-19)
(1.11934 -0.187224 -4.03816e-19)
(1.18104 -0.202679 3.78303e-19)
(-0.0128701 0.0186218 0)
(-0.0303548 0.0494041 0)
(-0.0370498 0.0746733 -2.51841e-19)
(-0.0331538 0.0937737 8.01844e-20)
(-0.0191342 0.106782 1.02988e-21)
(0.00448735 0.114156 1.38355e-19)
(0.0371855 0.116516 0)
(0.0785485 0.11454 -1.21059e-19)
(0.128332 0.108888 1.14476e-19)
(0.186436 0.100131 -2.16217e-19)
(0.252802 0.0887118 -1.21796e-21)
(0.327285 0.0749429 1.96456e-19)
(0.409494 0.0590314 2.92795e-21)
(0.498613 0.04113 1.81705e-19)
(0.593273 0.0213728 -2.52215e-19)
(0.691484 -7.40637e-05 0)
(0.790648 -0.0229622 3.06403e-19)
(0.887673 -0.046936 -4.34673e-19)
(0.979189 -0.0715232 1.3155e-19)
(1.06192 -0.0959582 0)
(1.13249 -0.120247 1.11984e-19)
(1.19011 -0.141062 4.16707e-19)
(1.22797 -0.165804 -3.91136e-19)
(1.26162 -0.173765 -4.1545e-19)
(-0.0132768 0.0161165 2.64607e-19)
(-0.0298485 0.0406004 -3.62801e-19)
(-0.0344294 0.0592899 1.31893e-21)
(-0.0269348 0.0724179 8.02564e-20)
(-0.00760697 0.0804863 -1.48647e-19)
(0.0232283 0.0841021 -1.3795e-19)
(0.0652371 0.0838897 2.58012e-19)
(0.118142 0.0804649 -5.50919e-22)
(0.181698 0.0743954 -2.2776e-19)
(0.255585 0.0661631 4.30971e-19)
(0.339239 0.0561385 2.33933e-21)
(0.431667 0.0445895 -1.92097e-19)
(0.531302 0.0316948 0)
(0.635911 0.0175729 0)
(0.742618 0.00231706 -8.36955e-20)
(0.848028 -0.0139683 -1.53876e-19)
(0.948469 -0.0311206 -2.94076e-19)
(1.04028 -0.0489431 2.76054e-19)
(1.12024 -0.0670416 -1.31634e-19)
(1.18577 -0.0852059 2.33374e-19)
(1.23554 -0.102768 -1.18249e-19)
(1.26954 -0.118967 1.86129e-19)
(1.28696 -0.137008 -4.473e-19)
(1.29551 -0.142668 8.27051e-20)
(-0.0138281 0.0143323 8.90617e-20)
(-0.0284418 0.0333375 0)
(-0.0288137 0.0460499 1.70973e-19)
(-0.0149303 0.0536664 -1.61055e-19)
(0.0130486 0.0571933 1.48788e-19)
(0.0549107 0.0574759 0)
(0.110381 0.055225 0)
(0.179063 0.0510504 -1.21777e-19)
(0.260292 0.0454614 -6.61323e-24)
(0.352947 0.0388511 1.07331e-19)
(0.455264 0.0314839 -1.01933e-19)
(0.564727 0.0234976 1.9123e-19)
(0.678091 0.0149199 0)
(0.791523 0.00569917 3.4325e-19)
(0.900879 -0.00425277 -6.45012e-19)
(1.00206 -0.0150152 4.56998e-19)
(1.09141 -0.0266045 2.80973e-19)
(1.16606 -0.0389882 -2.63777e-19)
(1.22432 -0.051904 0)
(1.2656 -0.0654534 0)
(1.29109 -0.0784473 0)
(1.30219 -0.0927537 0)
(1.30244 -0.104757 8.51043e-20)
(1.29582 -0.115159 -2.85024e-19)
(-0.0809993 -0.259894 -7.8802e-21)
(-0.069427 -0.330108 7.94485e-21)
(-0.0565602 -0.398779 -2.32438e-22)
(-0.0442545 -0.462107 0)
(-0.0331777 -0.517007 -5.47962e-21)
(-0.0232963 -0.560502 1.01866e-20)
(-0.0132217 -0.589506 -3.85007e-22)
(0.000489398 -0.599752 -4.21817e-21)
(0.0218988 -0.586234 0)
(0.054927 -0.543209 0)
(0.102057 -0.467033 -2.06647e-22)
(0.162634 -0.358813 -2.06919e-22)
(0.23271 -0.223334 -3.8838e-21)
(0.307129 -0.068661 3.57184e-21)
(0.382192 0.0956833 0)
(0.455058 0.255443 0)
(0.522286 0.391983 2.40134e-21)
(0.579225 0.48976 -4.07715e-22)
(0.621867 0.544433 -1.77248e-21)
(0.649216 0.562495 -8.04898e-23)
(0.663588 0.556108 0)
(0.665303 0.54276 0)
(0.650337 0.540612 0)
(0.619105 0.550026 0)
(0.585899 0.539815 0)
(0.5736 0.464334 0)
(0.594097 0.304411 6.36291e-22)
(0.641382 0.0872913 -1.04961e-21)
(0.699993 -0.129994 0)
(0.755555 -0.300104 0)
(0.796961 -0.403964 -4.8009e-22)
(0.821371 -0.450654 4.66588e-22)
(0.83261 -0.457262 1.63044e-22)
(0.831747 -0.452251 0)
(0.810805 -0.459967 0)
(0.767568 -0.473167 2.73291e-22)
(0.719563 -0.446949 -2.65663e-22)
(0.692313 -0.333961 0)
(0.696333 -0.152752 3.60704e-22)
(0.726627 0.0522365 -5.14122e-22)
(0.767334 0.209213 1.38915e-22)
(0.809727 0.314745 0)
(0.836012 0.366455 -1.79329e-22)
(0.829564 0.405928 1.7438e-22)
(0.793241 0.427511 0)
(0.750298 0.385449 0)
(0.731778 0.280015 -9.43662e-23)
(0.749725 0.0806902 2.88941e-22)
(0.78601 -0.0683549 0)
(0.824894 -0.21832 0)
(0.830162 -0.292089 -5.25181e-23)
(0.804097 -0.349459 9.92731e-25)
(0.781554 -0.370431 -3.78877e-24)
(0.776084 -0.233851 3.25196e-23)
(0.795429 -0.157281 0)
(0.809801 0.0855077 0)
(0.807802 0.193201 0)
(0.796104 0.292253 0)
(0.797883 0.382933 0)
(0.785461 0.113806 0)
(0.0526156 -0.27451 -8.65805e-22)
(0.0647003 -0.343631 -3.30928e-20)
(0.0768361 -0.411298 2.53197e-21)
(0.085938 -0.472455 2.86207e-20)
(0.0903318 -0.524214 3.8867e-22)
(0.0889944 -0.564892 0)
(0.0822322 -0.592915 -1.70502e-20)
(0.072517 -0.606121 3.20152e-20)
(0.0647515 -0.600767 -1.49492e-20)
(0.065813 -0.570395 1.27008e-20)
(0.0816403 -0.508498 -1.21382e-20)
(0.115406 -0.412111 1.21642e-20)
(0.16624 -0.284081 -1.17404e-20)
(0.229154 -0.132461 -3.34808e-22)
(0.299602 0.0311765 -1.11465e-20)
(0.373188 0.193412 1.08321e-20)
(0.445553 0.336445 -8.32639e-21)
(0.511547 0.444997 7.87965e-21)
(0.566079 0.512844 -5.63436e-21)
(0.606824 0.543501 1.01502e-20)
(0.633749 0.548318 -4.55832e-21)
(0.644667 0.546102 -2.49869e-22)
(0.63629 0.554116 -4.42941e-21)
(0.613306 0.567872 9.29633e-21)
(0.593546 0.552105 -4.85099e-21)
(0.597843 0.463453 4.02439e-22)
(0.632407 0.289484 7.62458e-21)
(0.688366 0.0627521 3.3234e-22)
(0.74917 -0.157698 -1.35837e-20)
(0.800997 -0.324111 1.15559e-20)
(0.834879 -0.419875 -5.10899e-21)
(0.849806 -0.458451 4.33668e-22)
(0.851099 -0.458746 -1.63362e-22)
(0.842917 -0.446702 2.65595e-22)
(0.81808 -0.445892 0)
(0.771557 -0.453726 0)
(0.71767 -0.430676 -1.1161e-21)
(0.682191 -0.328449 8.09609e-22)
(0.680234 -0.159627 9.77735e-22)
(0.7081 0.0372867 7.98808e-23)
(0.751937 0.192001 -1.2656e-21)
(0.798643 0.301446 2.05759e-22)
(0.829412 0.362167 0)
(0.825307 0.411893 0)
(0.792372 0.43919 0)
(0.754465 0.394882 0)
(0.739378 0.281407 4.28189e-22)
(0.759888 0.0741158 -1.97354e-22)
(0.794301 -0.078346 0)
(0.833964 -0.223784 0)
(0.838077 -0.289952 0)
(0.81164 -0.343278 -7.96773e-23)
(0.787755 -0.367206 2.00944e-23)
(0.779088 -0.235441 -7.13646e-23)
(0.79699 -0.160939 0)
(0.805958 0.0844364 0)
(0.80471 0.19407 4.12782e-23)
(0.792158 0.293196 9.10836e-23)
(0.79529 0.383729 0)
(0.785777 0.114949 0)
(0.209951 -0.284659 -2.34397e-21)
(0.224429 -0.352752 -7.47627e-20)
(0.235717 -0.418221 6.41764e-20)
(0.2433 -0.475737 -6.00266e-20)
(0.244137 -0.522316 -3.91219e-22)
(0.236489 -0.556826 0)
(0.219349 -0.579224 -3.42028e-20)
(0.193069 -0.590323 3.34352e-20)
(0.160932 -0.589176 2.10639e-22)
(0.130311 -0.570781 3.20252e-22)
(0.111087 -0.527024 2.81437e-22)
(0.110839 -0.450071 3.405e-22)
(0.133572 -0.337699 -1.92416e-20)
(0.176832 -0.195725 1.90368e-20)
(0.236075 -0.0362853 0)
(0.305621 0.125323 4.5699e-22)
(0.379232 0.272958 -1.3738e-20)
(0.451053 0.391128 1.3562e-20)
(0.515179 0.471827 0)
(0.567677 0.516023 0)
(0.605742 0.53408 -8.2461e-21)
(0.625279 0.544667 1.64829e-20)
(0.624513 0.562749 -1.69585e-20)
(0.611868 0.579603 -1.37194e-21)
(0.606963 0.55821 2.21247e-20)
(0.627517 0.458828 -2.68881e-20)
(0.67526 0.275125 2.88154e-20)
(0.739027 0.0427884 -8.07421e-22)
(0.801157 -0.178933 -1.50378e-20)
(0.848294 -0.341309 0)
(0.873995 -0.429798 0)
(0.879477 -0.461463 2.25988e-21)
(0.871113 -0.456984 -3.05117e-21)
(0.855725 -0.4395 -7.59462e-24)
(0.827551 -0.431 1.75826e-21)
(0.778918 -0.433459 -1.7088e-21)
(0.720243 -0.413609 0)
(0.676775 -0.322784 2.76437e-22)
(0.66846 -0.167453 2.52638e-21)
(0.69335 0.0203094 -4.69748e-21)
(0.739687 0.172313 1.98077e-21)
(0.789886 0.286015 1.6477e-22)
(0.8247 0.356368 -1.67554e-21)
(0.823152 0.416586 1.30754e-21)
(0.794191 0.449864 3.38428e-22)
(0.761798 0.403862 3.97895e-22)
(0.750306 0.283408 -4.29287e-22)
(0.773071 0.0689486 0)
(0.805064 -0.087197 0)
(0.844803 -0.228554 -1.22448e-21)
(0.847638 -0.287429 5.52445e-22)
(0.82061 -0.336628 -3.77868e-22)
(0.795014 -0.363832 4.31766e-22)
(0.783091 -0.236868 4.54477e-22)
(0.799857 -0.164364 -1.31264e-22)
(0.803537 0.0834057 1.89151e-22)
(0.802897 0.194905 -1.58248e-22)
(0.789151 0.2939 5.20122e-23)
(0.793655 0.384216 0)
(0.787162 0.115965 0)
(0.379351 -0.289869 -1.5858e-19)
(0.39528 -0.358543 1.06073e-20)
(0.406277 -0.422123 1.40686e-19)
(0.412174 -0.475663 -9.31864e-22)
(0.410284 -0.516696 0)
(0.399049 -0.543774 0)
(0.377161 -0.557226 -6.5987e-20)
(0.343252 -0.559829 1.03459e-20)
(0.297548 -0.554855 7.30602e-20)
(0.244163 -0.541828 -3.36352e-21)
(0.192907 -0.514303 -1.7531e-20)
(0.15573 -0.461336 -1.39199e-20)
(0.142861 -0.373809 1.3899e-20)
(0.157649 -0.251213 0)
(0.197282 -0.102983 -1.31334e-20)
(0.256196 0.0540486 1.19775e-20)
(0.326452 0.203708 0)
(0.400141 0.329656 0)
(0.470626 0.422341 7.86088e-21)
(0.532075 0.480536 -3.86209e-22)
(0.579058 0.513112 -6.80996e-21)
(0.606426 0.537164 -8.00045e-21)
(0.614175 0.564576 8.02128e-21)
(0.613463 0.58358 -1.0761e-20)
(0.624099 0.557588 -2.16629e-21)
(0.660374 0.45123 1.23244e-20)
(0.720355 0.262114 1.95567e-21)
(0.791041 0.027215 -9.88186e-24)
(0.854214 -0.19419 0)
(0.896604 -0.352568 1.14081e-20)
(0.913878 -0.434692 -1.1696e-20)
(0.910111 -0.460389 4.47573e-22)
(0.892542 -0.452335 0)
(0.869992 -0.431086 -2.61089e-22)
(0.838732 -0.415991 3.23479e-21)
(0.789142 -0.412724 -5.87812e-21)
(0.727227 -0.39531 -6.80682e-22)
(0.676415 -0.31624 -4.66027e-22)
(0.661379 -0.175645 3.15993e-21)
(0.682547 0.00189565 5.00174e-22)
(0.730529 0.150498 -3.08252e-21)
(0.783336 0.268584 2.62236e-21)
(0.821768 0.348914 2.55188e-23)
(0.823026 0.419674 1.33269e-21)
(0.798503 0.459238 -1.6353e-21)
(0.772031 0.412336 -3.04974e-21)
(0.764311 0.286201 7.664e-22)
(0.789049 0.0655147 1.86618e-21)
(0.818162 -0.09472 -3.3625e-21)
(0.857262 -0.232665 2.16371e-21)
(0.858683 -0.284615 -3.85244e-22)
(0.830877 -0.329501 5.78187e-22)
(0.803165 -0.360162 3.59177e-22)
(0.787893 -0.238101 -6.1913e-22)
(0.803895 -0.167608 -3.82923e-24)
(0.802482 0.0823874 -1.36625e-22)
(0.802329 0.195752 0)
(0.787075 0.294393 -6.7302e-23)
(0.793007 0.384382 1.0889e-22)
(0.78965 0.116847 0)
(0.554202 -0.291431 1.60324e-19)
(0.569152 -0.358998 -3.04431e-19)
(0.57963 -0.419778 1.42191e-19)
(0.583023 -0.469248 1.13931e-19)
(0.576831 -0.505771 -2.07755e-19)
(0.560844 -0.527524 1.52243e-20)
(0.534887 -0.533921 7.73048e-20)
(0.497973 -0.527239 4.91849e-20)
(0.448801 -0.512504 -4.81586e-20)
(0.38707 -0.494585 0)
(0.317172 -0.47334 -2.29788e-20)
(0.249781 -0.440082 4.16413e-20)
(0.199563 -0.381416 -1.88833e-20)
(0.178047 -0.287896 0)
(0.188615 -0.161404 0)
(0.228538 -0.0151589 3.27053e-22)
(0.28912 0.131527 -1.45503e-20)
(0.359926 0.262346 1.41354e-20)
(0.432717 0.365527 0)
(0.499478 0.43745 1.19088e-20)
(0.552783 0.484925 -2.36536e-20)
(0.587194 0.52233 2.60165e-20)
(0.604236 0.558204 -3.06623e-20)
(0.616619 0.579092 -4.24648e-21)
(0.642963 0.550487 4.56573e-20)
(0.693823 0.44128 -2.53351e-20)
(0.764818 0.250899 -9.95685e-22)
(0.842376 0.0156888 -1.52252e-20)
(0.907112 -0.203365 1.27192e-21)
(0.944913 -0.357509 1.40955e-20)
(0.95371 -0.43422 6.19676e-22)
(0.94102 -0.455169 -6.40094e-21)
(0.914988 -0.444774 1.09464e-20)
(0.885587 -0.421458 -5.08326e-21)
(0.85143 -0.401267 0)
(0.801824 -0.392317 -3.05942e-21)
(0.738341 -0.376322 2.982e-21)
(0.681226 -0.308617 -2.76469e-21)
(0.659307 -0.183665 3.4449e-21)
(0.675789 -0.0174474 -3.60699e-22)
(0.72428 0.126877 0)
(0.778798 0.249177 -2.88143e-22)
(0.820418 0.339541 8.7061e-22)
(0.824744 0.420802 0)
(0.80501 0.467031 3.85752e-21)
(0.784759 0.420251 -1.35634e-21)
(0.78097 0.289834 1.0003e-21)
(0.807493 0.0639055 1.08775e-21)
(0.833415 -0.100753 0)
(0.871164 -0.236019 0)
(0.871033 -0.281487 -1.39136e-21)
(0.842333 -0.321828 1.87689e-21)
(0.812073 -0.356089 -8.69264e-22)
(0.793297 -0.23915 2.09672e-22)
(0.808942 -0.170735 3.20981e-22)
(0.802711 0.0813577 1.36755e-22)
(0.802963 0.196649 -1.87924e-22)
(0.785915 0.294702 0)
(0.79337 0.384207 -1.68107e-22)
(0.793267 0.117586 -6.24785e-23)
(0.72936 -0.290196 1.58631e-19)
(0.740823 -0.353846 -1.57966e-19)
(0.749042 -0.40946 1.08119e-21)
(0.748377 -0.453894 -9.19093e-22)
(0.736323 -0.486205 8.13491e-22)
(0.713928 -0.504352 -6.74991e-22)
(0.682157 -0.507209 1.04953e-21)
(0.641356 -0.495761 0)
(0.591468 -0.473405 -6.03579e-22)
(0.531142 -0.446002 4.27381e-22)
(0.459217 -0.419381 2.87157e-22)
(0.378959 -0.392932 -2.6935e-22)
(0.301678 -0.356392 0)
(0.243675 -0.294886 0)
(0.217725 -0.199655 6.87246e-23)
(0.227698 -0.0752018 0)
(0.268848 0.0611268 -7.05294e-23)
(0.330367 0.192152 0)
(0.400386 0.303045 -7.40521e-21)
(0.468545 0.387465 1.52807e-20)
(0.525856 0.449352 -1.74684e-20)
(0.56678 0.499426 9.40012e-21)
(0.593805 0.542975 1.48574e-20)
(0.619984 0.565995 -1.44277e-20)
(0.661652 0.537216 -2.49967e-20)
(0.725782 0.429248 2.44597e-20)
(0.806639 0.241541 0)
(0.89135 0.00916902 1.01679e-21)
(0.958562 -0.206546 0)
(0.992222 -0.356381 0)
(0.992805 -0.428722 1.63976e-20)
(0.971657 -0.446236 -1.71326e-20)
(0.938067 -0.434575 6.52797e-22)
(0.902269 -0.410688 4.9603e-22)
(0.865289 -0.387058 -3.56899e-22)
(0.816358 -0.372762 -2.35032e-21)
(0.753007 -0.357024 2.28224e-21)
(0.691041 -0.299698 -2.86712e-21)
(0.662306 -0.190852 2.46137e-21)
(0.673047 -0.0376012 6.57348e-22)
(0.720702 0.101751 -2.28028e-21)
(0.776011 0.227785 -1.68582e-22)
(0.820397 0.327973 1.55096e-21)
(0.828029 0.419617 0)
(0.813313 0.473024 -1.39551e-21)
(0.799453 0.427478 3.12529e-21)
(0.799742 0.294341 -3.88749e-21)
(0.82797 0.0641056 -1.09467e-21)
(0.850599 -0.105122 0)
(0.886297 -0.238522 5.20614e-22)
(0.884476 -0.278062 -1.23246e-21)
(0.854853 -0.313568 -6.50271e-24)
(0.821638 -0.351468 -2.14879e-22)
(0.799124 -0.240013 2.21295e-22)
(0.814816 -0.173819 -2.63353e-22)
(0.804122 0.0802773 0)
(0.804745 0.197625 1.88012e-22)
(0.785657 0.294847 0)
(0.794761 0.383667 0)
(0.798033 0.118169 7.6034e-23)
(0.897899 -0.284114 -1.54253e-19)
(0.902378 -0.341777 1.52614e-19)