/*--------------------------------*- C++ -*----------------------------------*\
| =========                 |                                                 |
| \\      /  F ield         | OpenFOAM: The Open Source CFD Toolbox           |
|  \\    /   O peration     | Version:  2512                                  |
|   \\  /    A nd           | Website:  www.openfoam.com                      |
|    \\/     M anipulation  |                                                 |
\*---------------------------------------------------------------------------*/
FoamFile
{
    version     2.0;
    format      ascii;
    arch        "LSB;label=32;scalar=64";
    class       surfaceScalarField;
    location    "90.75";
    object      phi;
}
// * * * * * * * * * * * * * * * * * * * * * * * * * * * * * * * * * * * * * //

dimensions      [0 3 -1 0 0 0 0];

oriented        oriented;

internalField   nonuniform List<scalar> 
26232
(
0.000128146
0.000866644
-0.00099479
0.000600124
0.00138138
-0.00185336
0.00153545
0.000849185
-0.00178452
0.0030712
-0.000649976
-0.000885765
0.00535559
-0.00306453
0.000780143
0.00853812
-0.00635935
0.00317682
0.0127557
-0.0105028
0.00628521
0.0181154
-0.0154506
0.0100909
0.024676
-0.0211307
0.01457
0.0324319
-0.0274334
0.0196775
0.0413033
-0.0342098
0.0253384
0.0511353
-0.0412782
0.0314462
0.0617077
-0.0484383
0.0378659
0.072754
-0.0554888
0.0444425
0.0839865
-0.0622459
0.0510134
0.0951242
-0.0685591
0.0574214
0.105919
-0.0743223
0.0635277
0.116176
-0.0794797
0.0692223
0.12577
-0.0840233
0.0744293
0.134648
-0.0879948
0.0791171
0.142817
-0.0914493
0.0832805
0.150353
-0.0945241
0.0869883
0.157244
-0.0971791
0.0902881
-0.0998151
0.0936001
0.163459
0.000177608
0.000689036
0.000840156
0.000718831
0.00213732
-0.000447975
0.00422772
-0.00274038
0.00727192
-0.00610873
0.0114167
-0.0105042
0.0167731
-0.0158592
0.0233917
-0.0220692
0.0312423
-0.0289812
0.0402018
-0.036393
0.0500577
-0.0440656
0.0605249
-0.0517454
0.0712761
-0.0591894
0.0819774
-0.0661902
0.0923258
-0.0725942
0.102079
-0.0783125
0.111078
-0.0833215
0.119255
-0.0876564
0.12663
-0.0913981
0.133293
-0.0946579
0.139397
-0.0975535
0.145103
-0.10023
0.150631
-0.102707
-0.105363
0.156179
0.000236585
0.000452452
0.00111666
-0.000161245
0.00282056
-0.00215188
0.00552466
-0.00544448
0.00938913
-0.00997319
0.0145323
-0.0156473
0.0210001
-0.0223269
0.0287393
-0.0298084
0.0375847
-0.0378266
0.0472664
-0.0460746
0.0574373
-0.0542366
0.0677166
-0.0620247
0.0777381
-0.069211
0.0871954
-0.0756474
0.095874
-0.0812729
0.103668
-0.0861066
0.110579
-0.090232
0.116697
-0.0937744
0.122176
-0.0968774
0.127202
-0.0996838
0.131965
-0.102316
0.136622
-0.104887
0.141334
-0.107419
-0.11016
0.14613
0.000313448
0.000139004
0.00145197
-0.00129977
0.00361814
-0.00431804
0.00699186
-0.0088182
0.0117065
-0.0146878
0.0178121
-0.021753
0.0252419
-0.0297567
0.0337959
-0.0383624
0.0431525
-0.0471833
0.0529087
-0.0558308
0.0626376
-0.0639654
0.0719507
-0.0713379
0.0805494
-0.0778097
0.0882555
-0.0833535
0.0950184
-0.0880358
0.1009
-0.0919881
0.106043
-0.0953753
0.110635
-0.0983659
0.114869
-0.101112
0.11892
-0.103735
0.122928
-0.106325
0.126991
-0.10895
0.131188
-0.111616
-0.114495
0.135524
0.00041216
-0.000273156
0.00185372
-0.00274133
0.00453169
-0.00699601
0.00860308
-0.0128896
0.0141354
-0.0202201
0.0210635
-0.0286811
0.0291666
-0.0378598
0.0380815
-0.0472773
0.0473544
-0.0564563
0.056516
-0.0649923
0.065157
-0.0726064
0.0729861
-0.079167
0.0798574
-0.084681
0.0857657
-0.0892617
0.0908169
-0.093087
0.0951855
-0.0963568
0.0990701
-0.0992599
0.102658
-0.101954
0.106105
-0.104558
0.109523
-0.107154
0.112993
-0.109794
0.116555
-0.112513
0.12025
-0.115311
-0.118298
0.124053
0.000532015
-0.00080517
0.00231359
-0.00452291
0.00552903
-0.0102114
0.0102752
-0.0176357
0.0165079
-0.0264529
0.0240058
-0.036179
0.0323788
-0.0462328
0.0411289
-0.0560273
0.0497424
-0.0650697
0.057783
-0.073033
0.0649575
-0.0797809
0.0711392
-0.0853488
0.0763533
-0.0898951
0.0807341
-0.0936426
0.0844731
-0.096826
0.087771
-0.0996547
0.0908057
-0.102295
0.0937156
-0.104864
0.0965986
-0.107441
0.0995182
-0.110073
0.102513
-0.112789
0.105604
-0.115603
0.10881
-0.118517
-0.121591
0.112103
0.000668482
-0.00147365
0.00280955
-0.00666398
0.00654993
-0.0139518
0.0118829
-0.0229687
0.018611
-0.033181
0.0263383
-0.0439063
0.0345314
-0.0544258
0.0426284
-0.0641244
0.050153
-0.0725944
0.0567922
-0.0796721
0.0624207
-0.0854093
0.0670772
-0.0900053
0.0709113
-0.0937291
0.074123
-0.0968543
0.0769131
-0.0996161
0.0794521
-0.102194
0.081868
-0.10471
0.0842486
-0.107244
0.0866493
-0.109842
0.0891033
-0.112527
0.0916293
-0.115315
0.0942361
-0.11821
0.0969319
-0.121213
-0.12435
0.0996912
0.000814328
-0.00228798
0.00331007
-0.00915972
0.00751695
-0.0181587
0.0132831
-0.0287349
0.0202337
-0.0401316
0.0278156
-0.0514881
0.0354162
-0.0620265
0.0425019
-0.0712101
0.0487167
-0.0788091
0.0539138
-0.0848692
0.058128
-0.0896235
0.0615132
-0.0933905
0.0642742
-0.0964902
0.0666132
-0.0991932
0.0686978
-0.101701
0.0706513
-0.104147
0.0725559
-0.106615
0.0744626
-0.109151
0.0764013
-0.11178
0.078389
-0.114515
0.0804347
-0.117361
0.0825425
-0.120318
0.0847155
-0.123386
-0.126569
0.0869349
0.000960512
-0.00324849
0.00377836
-0.0119776
0.00834739
-0.0227277
0.0143409
-0.0347284
0.0212111
-0.0470018
0.0282998
-0.0585768
0.0349997
-0.0687263
0.040884
-0.0770945
0.0457575
-0.0836826
0.0496307
-0.0887424
0.052651
-0.0926439
0.0550255
-0.0957649
0.0569599
-0.0984246
0.0586242
-0.100858
0.0601416
-0.103218
0.061593
-0.105599
0.0630272
-0.108049
0.0644727
-0.110597
0.0659453
-0.113253
0.0674543
-0.116024
0.069004
-0.11891
0.0705968
-0.12191
0.0722327
-0.125022
-0.128237
0.0738999
0.00109669
-0.00434518
0.00417633
-0.0150572
0.008965
-0.0275164
0.0149519
-0.0407153
0.021452
-0.0535019
0.0277755
-0.0649003
0.0333967
-0.0743475
0.038039
-0.0817368
0.0416635
-0.0873072
0.0443971
-0.0914759
0.0464442
-0.094691
0.0480166
-0.0973373
0.0492913
-0.0996992
0.0503963
-0.101963
0.0514149
-0.104237
0.0523965
-0.10658
0.0533694
-0.109022
0.0543491
-0.111576
0.0553448
-0.114249
0.0563617
-0.117041
0.0574022
-0.119951
0.0584671
-0.122975
0.0595554
-0.12611
-0.129342
0.0606612
0.00121257
-0.00555775
0.00447002
-0.0183147
0.00931143
-0.0323578
0.0150579
-0.0464617
0.0209457
-0.0593897
0.026328
-0.0702826
0.0308104
-0.07883
0.0342713
-0.0851977
0.0367954
-0.0898313
0.0385762
-0.0932567
0.039831
-0.0959458
0.0407476
-0.098254
0.0414643
-0.100416
0.0420706
-0.102569
0.0426194
-0.104786
0.0431401
-0.107101
0.0436488
-0.109531
0.0441546
-0.112082
0.0446633
-0.114757
0.0451779
-0.117555
0.0456998
-0.120473
0.0462289
-0.123505
0.0467626
-0.126644
-0.129878
0.0472987
0.00130173
-0.00685948
0.00463665
-0.0216496
0.00935499
-0.0370762
0.0146503
-0.051757
0.0197502
-0.0644896
0.0241083
-0.0746407
0.0274786
-0.0822003
0.0298718
-0.0875909
0.0314528
-0.0914123
0.0324396
-0.0942436
0.0330337
-0.0965398
0.0333879
-0.0986082
0.0336031
-0.100631
0.0337387
-0.102704
0.0338272
-0.104874
0.0338858
-0.107159
0.0339238
-0.109569
0.0339472
-0.112106
0.0339598
-0.11477
0.0339642
-0.11756
0.0339615
-0.12047
0.0339513
-0.123494
0.0339302
-0.126623
0.0338987
-0.129847
-0.000242531
-0.00122604
0.00146857
-0.00085388
-0.00338303
0.00399438
-0.00176698
-0.00529384
0.00620694
-0.00292989
-0.00693959
0.00810251
-0.00429811
-0.00833526
0.00970347
-0.00583223
-0.00952798
0.0110621
-0.00749762
-0.0105819
0.0122473
-0.00926443
-0.0115626
0.0133294
-0.0111076
-0.0125246
0.0143678
-0.0130063
-0.0135055
0.0154041
-0.0149422
-0.0145231
0.016459
-0.0168985
-0.0155775
0.0175338
-0.0188571
-0.016654
0.0186127
-0.0207977
-0.0177255
0.0196661
-0.0226959
-0.0187548
0.0206529
-0.0245221
-0.0196952
0.0215214
-0.0262413
-0.020491
0.0222102
-0.0278128
-0.0210772
0.0226487
-0.0291918
-0.0213791
0.0227581
-0.0303312
-0.0213148
0.0224541
-0.0311842
-0.0207983
0.0216514
-0.0317108
-0.0197393
0.0202659
-0.0318958
-0.0180286
0.0182136
-0.0155694
-0.0317753
0.0154489
-0.0003104
-0.000915636
-0.00107336
-0.00262006
-0.00218942
-0.00417779
-0.00358459
-0.00554442
-0.00520048
-0.00671936
-0.00699064
-0.00773782
-0.00891853
-0.00865405
-0.010956
-0.00952515
-0.0130814
-0.0103992
-0.015278
-0.0113088
-0.0175317
-0.0122694
-0.0198287
-0.0132805
-0.0221539
-0.0143288
-0.0244892
-0.0153902
-0.0268124
-0.0164316
-0.0290962
-0.0174114
-0.031308
-0.0182793
-0.0334098
-0.0189754
-0.0353599
-0.0194289
-0.0371162
-0.0195585
-0.0386401
-0.0192743
-0.0398996
-0.0184798
-0.0408707
-0.0170575
-0.0148795
-0.0415606
-0.000355542
-0.000560094
-0.00121724
-0.00175836
-0.00246096
-0.00293407
-0.00399517
-0.00401022
-0.00574987
-0.00496466
-0.00767206
-0.00581563
-0.00972235
-0.00660376
-0.0118719
-0.00737557
-0.0140995
-0.00817159
-0.0163886
-0.00901974
-0.0187245
-0.00993347
-0.0210923
-0.0109128
-0.0234748
-0.0119463
-0.0258516
-0.0130135
-0.0281975
-0.0140857
-0.0304824
-0.0151265
-0.0326701
-0.0160916
-0.0347187
-0.0169268
-0.0365803
-0.0175672
-0.0382055
-0.0179334
-0.0395494
-0.0179304
-0.0405758
-0.0174535
-0.0412485
-0.0163848
-0.0145586
-0.0415694
-0.000373125
-0.000186969
-0.00127201
-0.00085948
-0.00255859
-0.00164749
-0.0041296
-0.00243922
-0.00590618
-0.00318808
-0.00782914
-0.00389267
-0.00985491
-0.004578
-0.0119515
-0.00527902
-0.0140945
-0.00602855
-0.0162639
-0.00685036
-0.0184406
-0.00775675
-0.0206045
-0.00874887
-0.0227326
-0.00981818
-0.0247981
-0.0109479
-0.0267698
-0.012114
-0.0286108
-0.0132856
-0.0302781
-0.0144242
-0.0317211
-0.0154839
-0.0328799
-0.0164084
-0.0336856
-0.0171277
-0.0340663
-0.0175498
-0.0339587
-0.017561
-0.033301
-0.0170425
-0.0157974
-0.0320622
-0.000361912
0.000174943
-0.0012339
1.251e-05
-0.00247581
-0.000405578
-0.00397879
-0.000936232
-0.00565782
-0.00150905
-0.00744758
-0.00210291
-0.00929847
-0.00272711
-0.0111724
-0.00340513
-0.0130383
-0.00416258
-0.0148689
-0.00501985
-0.0166367
-0.00598886
-0.0183131
-0.00707256
-0.0198658
-0.00826546
-0.0212592
-0.00955449
-0.0224537
-0.0109195
-0.0234056
-0.0123337
-0.0240662
-0.0137636
-0.0243808
-0.0151692
-0.0242857
-0.0165035
-0.0237029
-0.0177105
-0.0225361
-0.0187166
-0.0206838
-0.0194133
-0.0180624
-0.0196639
-0.0193466
-0.0145132
-0.000323903
0.000498846
-0.00110872
0.000797331
-0.00222222
0.000707916
-0.00355569
0.000397235
-0.00501998
-4.47576e-05
-0.00654315
-0.000579735
-0.00806726
-0.001203
-0.00954459
-0.0019278
-0.0109334
-0.00277374
-0.0121945
-0.00375879
-0.0132881
-0.00489528
-0.0141723
-0.00618832
-0.0148024
-0.00763538
-0.0151306
-0.00922631
-0.0151067
-0.0109434
-0.0146789
-0.0127615
-0.0137943
-0.0146483
-0.0123982
-0.0165653
-0.0104337
-0.018468
-0.00783612
-0.0203081
-0.00452092
-0.0220318
-0.000363232
-0.0235709
0.00476503
-0.0247921
-0.0254977
0.0109162
-0.000264332
0.000763178
-0.000910674
0.00144367
-0.00182228
0.00161952
-0.00289437
0.00146933
-0.00403456
0.00109543
-0.00516288
0.000548588
-0.00621065
-0.000155237
-0.00711702
-0.00102142
-0.00782498
-0.00206578
-0.00827894
-0.00330484
-0.0084224
-0.00475182
-0.00819693
-0.00641379
-0.00754215
-0.00829016
-0.0063967
-0.0103718
-0.00469974
-0.0126404
-0.00239269
-0.0150685
0.000579242
-0.0176202
0.0042653
-0.0202513
0.00871037
-0.022913
0.013955
-0.0255527
0.0200399
-0.0281167
0.0270379
-0.030569
0.0349512
-0.0327053
-0.0350163
0.0444698
-0.000190906
0.000954084
-0.000661821
0.00191459
-0.00131402
0.00227172
-0.0020478
0.0022031
-0.00276773
0.00181536
-0.00338534
0.00116619
-0.00381745
0.000276876
-0.00398751
-0.000851359
-0.00381977
-0.00223352
-0.00323965
-0.00388495
-0.00217215
-0.00581932
-0.000542314
-0.00804363
0.00172332
-0.0105558
0.00469433
-0.0133428
0.00843372
-0.0163798
0.0129952
-0.01963
0.0184212
-0.0230461
0.0247417
-0.0265718
0.031974
-0.0301454
0.0401255
-0.0337042
0.0491856
-0.0371768
0.0591866
-0.0405699
0.0700081
-0.0435269
-0.0472415
0.0822333
-0.000112619
0.0010667
-0.000387996
0.00218996
-0.000742885
0.00262661
-0.00108153
0.00254175
-0.00130443
0.00203827
-0.00131246
0.00117422
-0.00100857
-2.70171e-05
-0.000296522
-0.00156341
0.000917549
-0.00344759
0.00272633
-0.00569373
0.0052193
-0.00831229
0.0084804
-0.0113047
0.0125843
-0.0146597
0.0175921
-0.0183506
0.0235477
-0.0223354
0.0304747
-0.026557
0.0383749
-0.0309463
0.0472291
-0.0354261
0.0569991
-0.0399154
0.0676323
-0.0443374
0.0790631
-0.0486076
0.091245
-0.0527518
0.104038
-0.0563198
-0.0608936
0.11769
-3.79317e-05
0.00110464
-0.000113945
0.00226598
-0.00015327
0.00266594
-6.0464e-05
0.00244894
0.000270253
0.00170755
0.000949761
0.000494715
0.00209041
-0.00116767
0.00380537
-0.00327837
0.00620389
-0.00584611
0.00938919
-0.00887904
0.0134535
-0.0123766
0.0184721
-0.0163234
0.0244974
-0.0206849
0.0315533
-0.0254065
0.0396321
-0.0304142
0.0486934
-0.0356183
0.0586659
-0.0409189
0.0694527
-0.0462128
0.0809383
-0.051401
0.092995
-0.0563941
0.105501
-0.0611133
0.118311
-0.0655616
0.131383
-0.0693921
-0.0739738
0.144463
2.73983e-05
0.00107724
0.00014298
0.0021504
0.000423327
0.00238559
0.000969128
0.00190314
0.00189547
0.000781206
0.00332587
-0.000935685
0.00538708
-0.00322887
0.00820349
-0.00609478
0.0118903
-0.0095329
0.0165455
-0.0135343
0.0222411
-0.0180722
0.0290143
-0.0230965
0.0368607
-0.0285313
0.0457308
-0.0342767
0.0555307
-0.0402141
0.0661273
-0.0462148
0.0773577
-0.0521492
0.0890416
-0.0578968
0.100995
-0.0633544
0.113045
-0.0684437
0.125044
-0.0731124
0.136833
-0.0773509
0.148453
-0.0810118
-0.084751
0.15923
8.24476e-05
0.000379487
0.000980563
0.00199794
0.00355929
0.00580043
0.00885676
0.0128529
0.01789
0.0240332
0.0312994
0.0396491
0.0489836
0.0591495
0.0699488
0.0811554
0.0925338
0.103859
0.114934
0.125608
0.135776
0.145413
0.154689
0.163538
-0.0292655
-0.0178704
0.0153607
-0.026054
-0.0098611
0.00664956
-0.0221848
0.000304551
-0.00417373
-0.0176482
0.0126638
-0.0172004
-0.012541
0.0270799
-0.0321871
-0.00705547
0.0430307
-0.0485162
-0.00142593
0.0598751
-0.0655047
0.00404564
0.0768447
-0.0823162
0.00896364
0.09319
-0.098108
0.0131764
0.107952
-0.112165
0.0169602
0.120202
-0.123985
0.0209503
0.129099
-0.133089
0.0262748
0.133008
-0.138332
0.0340673
0.129753
-0.137546
0.0448001
0.117204
-0.127937
0.0579016
0.0943171
-0.107419
0.0721501
0.0615164
-0.0757649
0.0864868
0.0200841
-0.0344208
0.100272
-0.0271393
0.013354
0.112889
-0.0756226
0.0630058
0.123446
-0.11795
0.107393
0.131009
-0.148194
0.14063
0.1352
-0.165262
0.161071
0.136557
-0.171989
0.170632
0.135715
-0.172035
0.172877
0.132208
-0.170235
0.173743
0.12535
-0.172894
0.179751
0.116631
-0.180623
0.189342
0.110099
-0.18084
0.187372
0.109442
-0.154224
0.154881
0.115213
-0.0928832
0.0871122
0.125122
-0.0100563
0.00014757
0.135789
0.0724922
-0.083159
0.14472
0.136853
-0.145784
0.151008
0.177539
-0.183828
0.15422
0.196832
-0.200043
0.153118
0.210017
-0.208915
0.14721
0.22845
-0.222542
0.138925
0.245534
-0.237249
0.132687
0.231333
-0.225094
0.131544
0.163804
-0.162662
0.135502
0.0576706
-0.0616276
0.142289
-0.0588521
0.0520642
0.149369
-0.143083
0.136004
0.153463
-0.201097
0.197003
0.151642
-0.22444
0.226261
0.144481
-0.253141
0.260302
0.136393
-0.254395
0.262484
0.133023
-0.214406
0.217775
0.136406
-0.125553
0.12217
0.143304
0.0134918
-0.020389
0.147812
0.097516
-0.102024
0.146534
0.225205
-0.223927
0.141852
0.260708
-0.256026
0.138918
0.303954
-0.30102
0.139842
0.253808
-0.254731
0.142153
0.0838269
-0.0861378
0.142147
0.0326122
-0.0326065
0.139815
-0.246857
0.249189
-0.251166
0.253232
-0.0398233
-0.0196077
-0.0371524
-0.012532
-0.033575
-0.00327288
-0.0291345
0.00822325
-0.0238525
0.0217979
-0.0178494
0.0370276
-0.0112944
0.0533201
-0.00444625
0.0699965
0.00250516
0.0862386
0.00970812
0.100749
0.0171735
0.112736
0.0254869
0.120786
0.0353458
0.123149
0.047165
0.117934
0.0606959
0.103673
0.0750372
0.0799758
0.0890593
0.0474942
0.10205
0.00709347
0.113757
-0.0388468
0.123786
-0.0856508
0.131467
-0.125631
0.136216
-0.152943
0.137922
-0.166968
0.137204
-0.171271
0.1349
-0.169732
0.130685
-0.16602
0.123398
-0.165607
0.113749
-0.170974
0.105686
-0.172777
0.103743
-0.152281
0.109222
-0.0983622
0.11987
-0.0207036
0.13192
0.0604416
0.142605
0.126169
0.150669
0.169475
0.155263
0.192237
0.155111
0.210169
0.150066
0.233494
0.14271
0.25289
0.137079
0.236964
0.1358
0.165082
0.138839
0.0546319
0.144204
-0.0642172
0.149897
-0.148776
0.153142
-0.204343
0.150979
-0.222277
0.143637
-0.245799
0.135471
-0.246228
0.132158
-0.211094
0.135925
-0.129319
0.143064
0.00635251
0.147749
0.0928315
0.146579
0.226375
0.141874
0.265412
0.138979
0.30685
0.139971
0.252815
0.142691
0.0811075
0.142949
0.0323543
0.140628
-0.244536
-0.249128
-0.0405446
-0.0206325
-0.0385505
-0.0145261
-0.0354469
-0.00637646
-0.0312914
0.00406767
-0.0260831
0.0165896
-0.019821
0.0307654
-0.0124758
0.0459749
-0.00441586
0.0619366
0.00478087
0.0770419
0.0147335
0.0907965
0.0254545
0.102015
0.037195
0.109045
0.0501773
0.110167
0.0643015
0.10381
0.078971
0.0890034
0.0931944
0.0657524
0.106118
0.034571
0.117214
-0.00400245
0.12661
-0.0482437
0.13396
-0.0930004
0.138759
-0.13043
0.140764
-0.154949
0.140181
-0.166385
0.137664
-0.168753
0.134102
-0.166171
0.129402
-0.16132
0.122118
-0.158323
0.112038
-0.160894
0.102616
-0.163355
0.0991016
-0.148767
0.1038
-0.103061
0.114745
-0.0316487
0.12794
0.0472467
0.140289
0.11382
0.150106
0.159658
0.156136
0.186207
0.157119
0.209187
0.153179
0.237434
0.146867
0.259203
0.141783
0.242048
0.140237
0.166628
0.142247
0.0526219
0.146147
-0.0681171
0.1504
-0.153029
0.1528
-0.206743
0.150401
-0.219878
0.143002
-0.2384
0.134818
-0.238045
0.13152
-0.207795
0.135572
-0.133372
0.142891
-0.000967242
0.147782
0.0879407
0.146756
0.227401
0.142017
0.270151
0.139131
0.309736
0.140208
0.251739
0.143368
0.0779468
0.143916
0.0318064
0.141595
-0.242215
-0.247111
-0.0315384
-0.0211563
-0.0301058
-0.0159586
-0.0276235
-0.00885877
-0.0237012
0.000145382
-0.0186539
0.0115423
-0.012392
0.0245036
-0.00484015
0.0384231
0.00465999
0.0524365
0.0154008
0.0663011
0.0271649
0.0790323
0.0399586
0.0892215
0.0537157
0.095288
0.0682492
0.0956333
0.0831294
0.0889299
0.0976283
0.0745045
0.110861
0.0525195
0.122113
0.0233198
0.131249
-0.013139
0.138362
-0.0553571
0.143156
-0.0977939
0.145215
-0.13249
0.144617
-0.15435
0.141942
-0.16371
0.137893
-0.164704
0.133255
-0.161533
0.128179
-0.156244
0.121245
-0.151389
0.111354
-0.151003
0.100982
-0.152983
0.0956749
-0.143459
0.0990371
-0.106423
0.109785
-0.0423966
0.12384
0.033192
0.13772
0.0999398
0.149237
0.148141
0.156759
0.178685
0.159067
0.206879
0.156446
0.240055
0.151264
0.264385
0.146645
0.246666
0.14471
0.168563
0.145644
0.0516876
0.148077
-0.0705503
0.150869
-0.155821
0.152415
-0.208288
0.149858
-0.217321
0.142509
-0.231051
0.134363
-0.229898
0.13104
-0.204473
0.135284
-0.137615
0.142755
-0.00843821
0.147896
0.0827993
0.147065
0.228233
0.142301
0.274915
0.1394
0.312636
0.14056
0.250579
0.144183
0.0743247
0.145045
0.0309441
0.142713
-0.239883
-0.245111
-0.0145292
-0.0211404
-0.0137341
-0.0167537
-0.0117641
-0.0108288
-0.00834892
-0.00326979
-0.00369003
0.00688339
0.0028218
0.0179917
0.0111618
0.0300831
0.0209301
0.0426682
0.0320626
0.0551686
0.0444891
0.0666058
0.0580341
0.0756765
0.0724025
0.0809196
0.0871429
0.0808929
0.101639
0.0744336
0.115145
0.060999
0.126906
0.040758
0.136464
0.0137622
0.14378
-0.0204556
0.148799
-0.0603762
0.151159
-0.100154
0.150602
-0.131932
0.147576
-0.151324
0.143041
-0.159175
0.13776
-0.159423
0.132294
-0.156066
0.126922
-0.150871
0.120524
-0.144991
0.111381
-0.141861
0.10068
-0.142283
0.0936524
-0.136431
0.0951662
-0.107937
0.105095
-0.0523259
0.119641
0.0186463
0.134834
0.0847474
0.147951
0.135024
0.157009
0.169627
0.160825
0.203062
0.159714
0.241166
0.155744
0.268355
0.151518
0.250892
0.149096
0.170986
0.148936
0.0518472
0.149947
-0.071561
0.15128
-0.157154
0.151957
-0.208965
0.14931
-0.214674
0.142103
-0.223845
0.134033
-0.221828
0.130647
-0.201086
0.135001
-0.141969
0.142614
-0.016051
0.148065
0.0773479
0.1475
0.228797
0.14274
0.279675
0.139806
0.31557
0.141038
0.249346
0.145129
0.0702332
0.146329
0.0297446
0.143974
-0.237529
-0.243121
0.00996753
-0.0201918
0.00976114
-0.0165473
0.0109389
-0.0120065
0.0135597
-0.00589059
0.0181618
0.00228128
0.0240756
0.012078
0.0316263
0.0225323
0.0408536
0.033441
0.051624
0.0443982
0.0637707
0.0544591
0.0770131
0.0624341
0.0909176
0.0670151
0.104896
0.066914
0.118266
0.061064
0.130337
0.0489284
0.14055
0.0305443
0.148579
0.00573295
0.154393
-0.0262695
0.157578
-0.0635609
0.157661
-0.100237
0.15468
-0.128951
0.149505
-0.14615
0.143387
-0.153057
0.137152
-0.153188
0.131113
-0.150028
0.125508
-0.145266
0.119675
-0.139158
0.111702
-0.133888
0.101413
-0.131994
0.0930577
-0.128076
0.0923905
-0.10727
0.100869
-0.0608048
0.115389
0.00412638
0.131559
0.068578
0.146108
0.120475
0.156725
0.159011
0.162208
0.197579
0.16279
0.240583
0.160114
0.271031
0.156247
0.254759
0.153266
0.173967
0.152037
0.0530764
0.151699
-0.0712229
0.151601
-0.157056
0.151391
-0.208755
0.148705
-0.211988
0.141723
-0.216862
0.133758
-0.213864
0.130261
-0.197589
0.134654
-0.146362
0.142418
-0.023815
0.148254
0.0715119
0.148049
0.229003
0.143347
0.284377
0.140367
0.31855
0.141647
0.248066
0.146204
0.0656764
0.147759
0.0281897
0.145372
-0.235142
-0.241137
0.0417335
-0.0174555
0.0399298
-0.0147436
0.0393013
-0.011378
0.0401409
-0.00673027
0.0431397
-0.000717436
0.0475158
0.00770185
0.0537558
0.0162923
0.0618037
0.0253931
0.0715181
0.0346838
0.0826693
0.0433079
0.0948934
0.05021
0.10768
0.054228
0.120392
0.0542021
0.132345
0.0491119
0.142918
0.038355
0.151651
0.0218117
0.15855
-0.00116658
0.162973
-0.0306919
0.164437
-0.0650255
0.162401
-0.0982006
0.157259
-0.123809
0.150284
-0.139175
0.142901
-0.145674
0.135968
-0.146255
0.129604
-0.143664
0.123857
-0.139519
0.118482
-0.133783
0.111853
-0.127259
0.102697
-0.122837
0.0937247
-0.119103
0.0908451
-0.10439
0.0973093
-0.0672691
0.111149
-0.00971362
0.127843
0.0518841
0.143581
0.104737
0.15573
0.146861
0.163012
0.190298
0.165462
0.238133
0.164189
0.272305
0.160694
0.258254
0.157129
0.177531
0.154833
0.0553724
0.153269
-0.0696582
0.151797
-0.155585
0.150678
-0.207636
0.147994
-0.209304
0.141312
-0.210181
0.133473
-0.206025
0.12981
-0.193926
0.134169
-0.150721
0.142115
-0.0317613
0.148419
0.065208
0.14869
0.228731
0.144125
0.288942
0.141097
0.321579
0.142394
0.246769
0.147404
0.0606665
0.149321
0.0262724
0.146894
-0.232715
-0.239158
0.077871
-0.0130932
0.0743758
-0.0112484
0.0719178
-0.00891997
0.0707541
-0.00556663
0.0711539
-0.00111717
0.0733466
0.00550914
0.0774117
0.0122271
0.0834134
0.0193914
0.0912471
0.0268501
0.100658
0.033897
0.111239
0.0396288
0.122443
0.0430239
0.133617
0.0430282
0.144088
0.0386412
0.153284
0.0291591
0.160773
0.0143223
0.166444
-0.00683731
0.169533
-0.0337813
0.169247
-0.0647395
0.165211
-0.0941641
0.158218
-0.116817
0.149846
-0.130802
0.141556
-0.137384
0.134155
-0.138854
0.127665
-0.137174
0.121901
-0.133755
0.11684
-0.128722
0.111455
-0.121874
0.103934
-0.115317
0.0952322
-0.110401
0.090533
-0.0996911
0.0945863
-0.0713224
0.106985
-0.0221119
0.123661
0.0352074
0.140268
0.0881301
0.153871
0.133259
0.16302
0.181148
0.167457
0.233695
0.167712
0.27205
0.16468
0.261286
0.160577
0.181635
0.157236
0.0587135
0.154583
-0.0670053
0.151825
-0.152826
0.149778
-0.205589
0.147118
-0.206644
0.140818
-0.203881
0.133127
-0.198334
0.129234
-0.190033
0.133486
-0.154972
0.141638
-0.0399135
0.148508
0.0583373
0.149395
0.227845
0.145071
0.293266
0.142004
0.324646
0.143281
0.245492
0.148715
0.0552318
0.151012
0.0239758
0.148531
-0.230233
-0.237184
0.112741
-0.00814461
0.108475
-0.00698204
0.104989
-0.00543438
0.102493
-0.00306994
0.100964
0.000411532
0.101083
0.00539053
0.102826
0.0104833
0.106384
0.0158342
0.111756
0.0214778
0.118778
0.0268746
0.127109
0.0312985
0.13624
0.0338926
0.145547
0.0337208
0.154367
0.0298221
0.162098
0.0214272
0.168228
0.00819269
0.172484
-0.0110928
0.173978
-0.0352753
0.171816
-0.0625776
0.165925
-0.0882734
0.157452
-0.108344
0.148116
-0.121466
0.13928
-0.128548
0.131622
-0.131196
0.125143
-0.130695
0.1195
-0.128113
0.114665
-0.123886
0.110246
-0.117455
0.104531
-0.109602
0.0969555
-0.102826
0.0912011
-0.0939367
0.0927206
-0.0728418
0.10304
-0.0324315
0.119028
0.0192198
0.136097
0.0710607
0.150994
0.118362
0.162043
0.170099
0.168622
0.227116
0.170549
0.270123
0.168077
0.263758
0.163484
0.186227
0.159181
0.0630165
0.155555
-0.0633793
0.151624
-0.148895
0.148637
-0.202603
0.146009
-0.204015
0.140184
-0.198057
0.132682
-0.190832
0.128488
-0.185839
0.132539
-0.159024
0.140931
-0.0483052
0.148462
0.0508055
0.150124
0.226184
0.146168
0.297222
0.143092
0.327722
0.144312
0.244271
0.150134
0.0494105
0.152811
0.0212986
0.150269
-0.227692
-0.23522
0.139946
-0.00362766
0.135956
-0.00299219
0.132481
-0.00195917
0.129787
-0.000375588
0.127558
0.0026397
0.126731
0.00621811
0.127131
0.0100837
0.128901
0.0140634
0.132159
0.0182198
0.136853
0.0221805
0.142772
0.0253798
0.149548
0.0271171
0.156661
0.0266071
0.163496
0.0229873
0.169476
0.0154475
0.173967
0.0037012
0.176445
-0.0135706
0.175997
-0.0348275
0.171892
-0.0584719
0.164401
-0.0807825
0.154881
-0.0988244
0.145003
-0.111587
0.13594
-0.119485
0.128207
-0.123463
0.121824
-0.124311
0.116426
-0.122714
0.111832
-0.119292
0.108075
-0.113698
0.104011
-0.105538
0.0981659
-0.096981
0.0923298
-0.0881006
0.091657
-0.0721691
0.0994283
-0.0402027
0.114018
0.00463004
0.131049
0.0540295
0.147004
0.102407
0.159867
0.157235
0.168586
0.218398
0.172324
0.266385
0.170627
0.265455
0.165721
0.191133
0.160627
0.0681106
0.156133
-0.0588851
0.151157
-0.143918
0.14723
-0.198676
0.144611
-0.201396
0.139364
-0.19281
0.132122
-0.18359
0.127555
-0.181271
0.131285
-0.162754
0.139933
-0.0569535
0.148219
0.0425198
0.150828
0.223575
0.147391
0.300659
0.144355
0.330758
0.145487
0.24314
0.151648
0.0432495
0.154705
0.0182415
0.152099
-0.225086
-0.233275
0.155739
-0.000136328
0.152624
0.000122191
0.149685
0.000980276
0.147051
0.00225802
0.145478
0.00421262
0.144854
0.00684275
0.145077
0.00985996
0.146185
0.0129559
0.148419
0.015986
0.151717
0.0188824
0.155924
0.0211723
0.160764
0.0222771
0.165861
0.0215104
0.17071
0.0181386
0.174707
0.0114502
0.177104
0.00130412
0.177774
-0.0142402
0.175373
-0.0324269
0.169593
-0.0526924
0.161003
-0.0721919
0.150995
-0.0888166
0.141024
-0.101616
0.132028
-0.11049
0.124375
-0.11581
0.118108
-0.118043
0.112962
-0.117569
0.108618
-0.114949
0.105228
-0.110308
0.102372
-0.102683
0.0984208
-0.0930292
0.0934022
-0.083082
0.0912419
-0.0700088
0.096273
-0.0452338
0.108769
-0.00786567
0.125133
0.0376652
0.141842
0.0856987
0.156541
0.142536
0.16759
0.207349
0.173278
0.260696
0.172348
0.266385
0.167309
0.196173
0.161614
0.0738053
0.156403
-0.053674
0.150515
-0.13803
0.145678
-0.193839
0.14298
-0.198699
0.138372
-0.188201
0.131467
-0.176685
0.126481
-0.176285
0.129731
-0.166003
0.138601
-0.0658235
0.147699
0.0334212
0.151457
0.219817
0.148705
0.303411
0.145773
0.33369
0.1468
0.242113
0.153253
0.0367959
0.156669
0.0148256
0.154009
-0.222426
-0.231361
0.161031
0.00237121
0.15842
0.00273278
0.156134
0.00326647
0.154348
0.004044
0.153263
0.00529731
0.153009
0.00709765
0.153586
0.00928206
0.154929
0.0116135
0.156941
0.0139742
0.15964
0.0161834
0.162927
0.0178851
0.16658
0.0186237
0.170268
0.0178231
0.173565
0.0148408
0.175951
0.00906436
0.177213
4.20338e-05
0.175746
-0.0127732
0.171753
-0.0284338
0.164968
-0.0459067
0.156123
-0.0633474
0.146411
-0.0791045
0.136931
-0.092136
0.128373
-0.101932
0.121003
-0.10844
0.114881
-0.111921
0.109911
-0.112599
0.105763
-0.110801
0.102492
-0.107037
0.100259
-0.100449
0.0978896
-0.0906602
0.0942122
-0.0794046
0.0914192
-0.0672158
0.0939769
-0.0477916
0.103623
-0.0175116
0.118611
0.0226773
0.135281
0.0690287
0.151202
0.126615
0.164456
0.194095
0.172396
0.252756
0.172738
0.266043
0.168037
0.200873
0.162123
0.0797198
0.156295
-0.0478456
0.149704
-0.13144
0.144092
-0.188227
0.141218
-0.195824
0.137245
-0.184229
0.130737
-0.170176
0.125317
-0.170865
0.128
-0.168686
0.137003
-0.0748267
0.146885
0.0235392
0.151935
0.214766
0.150063
0.305283
0.147337
0.336416
0.148247
0.241203
0.154939
0.0301042
0.158688
0.011077
0.156002
-0.219741
-0.229461
0.185526
0.00493541
-0.18809
0.183444
0.00481439
0.181509
0.00520209
0.179682
0.00587056
0.178107
0.00687223
0.176947
0.00825803
0.176292
0.00993711
0.176167
0.0117382
0.176653
0.013488
0.177872
0.014965
0.179899
0.0158578
0.18276
0.0157628
0.186397
0.0141862
0.190608
0.0106296
0.194959
0.0047133
0.199059
-0.00405786
0.201984
-0.0156988
0.203126
-0.029575
0.201955
-0.0447361
0.198488
-0.0598807
0.193139
-0.0737552
0.186459
-0.0854563
0.178995
-0.0944676
0.171188
-0.100633
0.163363
-0.104096
0.155786
-0.105022
0.148446
-0.103461
0.141298
-0.0998896
0.134694
-0.0938457
0.128347
-0.0843129
0.12088
-0.0719372
0.112513
-0.0588494
0.106596
-0.041874
0.106503
-0.0174189
0.111595
0.017586
0.118856
0.0617671
0.125519
0.119953
0.131156
0.188457
0.136787
0.247126
0.144174
0.258656
0.154319
0.190729
0.163779
0.0702592
0.169048
-0.0531145
0.16792
-0.130312
0.162777
-0.183084
0.157109
-0.190156
0.150202
-0.177322
0.141436
-0.16141
0.133492
-0.162921
0.130751
-0.165945
0.132843
-0.0769192
0.135417
0.0209658
0.135614
0.214569
0.133377
0.30752
0.13292
0.336872
0.137473
0.23665
0.14502
0.0225577
0.148768
0.00732936
0.145084
-0.216058
-0.22536
0.197199
0.00640087
-0.198664
0.195818
0.00619538
0.194587
0.00643267
0.193504
0.00695399
0.192659
0.00771686
0.19218
0.00873757
0.192152
0.00996521
0.192628
0.0112621
0.193664
0.0124519
0.195306
0.0133229
0.197568
0.0135953
0.200412
0.0129192
0.203701
0.0108973
0.207185
0.00714535
0.210557
0.00134158
0.213319
-0.00682016
0.214852
-0.0172317
0.214692
-0.0294149
0.212562
-0.0426065
0.208502
-0.0558201
0.202818
-0.0680713
0.195956
-0.0785942
0.188403
-0.086915
0.180591
-0.0928205
0.172795
-0.0963001
0.165244
-0.0974703
0.157997
-0.0962146
0.150918
-0.0928101
0.144239
-0.0871668
0.138156
-0.0782304
0.131579
-0.06536
0.123767
-0.0510374
0.116956
-0.035063
0.114804
-0.0152668
0.118473
0.0139172
0.125428
0.0548115
0.132815
0.112565
0.139703
0.181569
0.146958
0.239871
0.156298
0.249315
0.167837
0.17919
0.177853
0.0602429
0.182729
-0.0579898
0.180725
-0.128309
0.174351
-0.176709
0.167712
-0.183517
0.160387
-0.169997
0.151347
-0.15237
0.142728
-0.154301
0.139379
-0.162597
0.141186
-0.0787269
0.1441
0.0180518
0.14492
0.21375
0.14326
0.309179
0.143227
0.336906