/*--------------------------------*- C++ -*----------------------------------*\
| =========                 |                                                 |
| \\      /  F ield         | OpenFOAM: The Open Source CFD Toolbox           |
|  \\    /   O peration     | Version:  2512                                  |
|   \\  /    A nd           | Website:  www.openfoam.com                      |
|    \\/     M anipulation  |                                                 |
\*---------------------------------------------------------------------------*/
FoamFile
{
    version     2.0;
    format      ascii;
    arch        "LSB;label=32;scalar=64";
    class       volScalarField;
    location    "138";
    object      p;
}
// * * * * * * * * * * * * * * * * * * * * * * * * * * * * * * * * * * * * * //

dimensions      [0 2 -2 0 0 0 0];

internalField   nonuniform List<scalar> 
13248
(
-0.376333
-0.374872
-0.373295
-0.371617
-0.369757
-0.36759
-0.364904
-0.361439
-0.356913
-0.351067
-0.343692
-0.334664
-0.323967
-0.3117
-0.29807
-0.283371
-0.267948
-0.252161
-0.23635
-0.220824
-0.205789
-0.191506
-0.177791
-0.165005
-0.384983
-0.382528
-0.379991
-0.377371
-0.37457
-0.371472
-0.367868
-0.363476
-0.358001
-0.351182
-0.342834
-0.332883
-0.32138
-0.308495
-0.294495
-0.279705
-0.264467
-0.24911
-0.233921
-0.219134
-0.204911
-0.191401
-0.178518
-0.166515
-0.394376
-0.390873
-0.387319
-0.383698
-0.379882
-0.375761
-0.37111
-0.365627
-0.359004
-0.350996
-0.341467
-0.330418
-0.317984
-0.30441
-0.290006
-0.275109
-0.260038
-0.245072
-0.230436
-0.216299
-0.202763
-0.189929
-0.177707
-0.166191
-0.404833
-0.400194
-0.395578
-0.390922
-0.386032
-0.380777
-0.374903
-0.368085
-0.360024
-0.350527
-0.339548
-0.327194
-0.313697
-0.299365
-0.284533
-0.269521
-0.2546
-0.239985
-0.225833
-0.212249
-0.199294
-0.187026
-0.175353
-0.164427
-0.4166
-0.410716
-0.404994
-0.399269
-0.393223
-0.386671
-0.379321
-0.370844
-0.360998
-0.349699
-0.337034
-0.323236
-0.308622
-0.29354
-0.278311
-0.263206
-0.248427
-0.23412
-0.220376
-0.20725
-0.194769
-0.182952
-0.171731
-0.161227
-0.429772
-0.422536
-0.415667
-0.408818
-0.401478
-0.393377
-0.384202
-0.373674
-0.361677
-0.348295
-0.333779
-0.31848
-0.302767
-0.286982
-0.271394
-0.256203
-0.241538
-0.227477
-0.214058
-0.201299
-0.189199
-0.177752
-0.166909
-0.156761
-0.444241
-0.43558
-0.427524
-0.419453
-0.41059
-0.400582
-0.38915
-0.376152
-0.361679
-0.346025
-0.329602
-0.312835
-0.2961
-0.279682
-0.263777
-0.248504
-0.23392
-0.22005
-0.206892
-0.194432
-0.182652
-0.171525
-0.161019
-0.151166
-0.459679
-0.449578
-0.44029
-0.430828
-0.420111
-0.407744
-0.393583
-0.377735
-0.360561
-0.342571
-0.32429
-0.306163
-0.288511
-0.271539
-0.255354
-0.239997
-0.22547
-0.21175
-0.198807
-0.186605
-0.175107
-0.164277
-0.154089
-0.14451
-0.475525
-0.464037
-0.45346
-0.442358
-0.429357
-0.414128
-0.396806
-0.377843
-0.357892
-0.337637
-0.317645
-0.298313
-0.279872
-0.262428
-0.246005
-0.230579
-0.216101
-0.202518
-0.189772
-0.177811
-0.166584
-0.156049
-0.146173
-0.136866
-0.490983
-0.47822
-0.466266
-0.453191
-0.437423
-0.418867
-0.398081
-0.375917
-0.353285
-0.330959
-0.30947
-0.289117
-0.270024
-0.252199
-0.235591
-0.220124
-0.205712
-0.192274
-0.179733
-0.168019
-0.15707
-0.146838
-0.137268
-0.128244
-0.505045
-0.491154
-0.477684
-0.462239
-0.443231
-0.420995
-0.396622
-0.371351
-0.346266
-0.322135
-0.299393
-0.278216
-0.258612
-0.240507
-0.223788
-0.208335
-0.194034
-0.18078
-0.168479
-0.157046
-0.146411
-0.136513
-0.127266
-0.118563
-0.516588
-0.501756
-0.486612
-0.468379
-0.445694
-0.419526
-0.391556
-0.363357
-0.336089
-0.310436
-0.286691
-0.264893
-0.244944
-0.226692
-0.209974
-0.194633
-0.180529
-0.167539
-0.155553
-0.144476
-0.13423
-0.12474
-0.115894
-0.107636
-0.34958
-0.351582
-0.352731
-0.353491
-0.354327
-0.35543
-0.356883
-0.358715
-0.360924
-0.363491
-0.366394
-0.369607
-0.373096
-0.376815
-0.380695
-0.384643
-0.388529
-0.392186
-0.395413
-0.397973
-0.399585
-0.399937
-0.398838
-0.396543
-0.343111
-0.345864
-0.347416
-0.348353
-0.349215
-0.350175
-0.351288
-0.352561
-0.353961
-0.355439
-0.35694
-0.3584
-0.359751
-0.360917
-0.361809
-0.362324
-0.362346
-0.361746
-0.360391
-0.358147
-0.354834
-0.350206
-0.344326
-0.338331
-0.33785
-0.341179
-0.343047
-0.34412
-0.344985
-0.345788
-0.346557
-0.347269
-0.347863
-0.348258
-0.348363
-0.348077
-0.347299
-0.345921
-0.343835
-0.340931
-0.337103
-0.332251
-0.3263
-0.319201
-0.310869
-0.301092
-0.290067
-0.279816
-0.33429
-0.337981
-0.340058
-0.341228
-0.342082
-0.342738
-0.343192
-0.343391
-0.343247
-0.342648
-0.341467
-0.339574
-0.336837
-0.333126
-0.328318
-0.322301
-0.314985
-0.306301
-0.296222
-0.28478
-0.272015
-0.257815
-0.242344
-0.228074
-0.332742
-0.336561
-0.338732
-0.339953
-0.340787
-0.341315
-0.3415
-0.34126
-0.34048
-0.339018
-0.336722
-0.333435
-0.329002
-0.323279
-0.316139
-0.30748
-0.297234
-0.285376
-0.27193
-0.256998
-0.240757
-0.223296
-0.204614
-0.186928
-0.33332
-0.337032
-0.339175
-0.340395
-0.341193
-0.341609
-0.341572
-0.340975
-0.339675
-0.337505
-0.334292
-0.329858
-0.324036
-0.316674
-0.307653
-0.296893
-0.284364
-0.270094
-0.254176
-0.236782
-0.218193
-0.198717
-0.177689
-0.156799
-0.335938
-0.339316
-0.341307
-0.34246
-0.343193
-0.343502
-0.343283
-0.342402
-0.340692
-0.337967
-0.334034
-0.328702
-0.321797
-0.313173
-0.302728
-0.290412
-0.276247
-0.260323
-0.242808
-0.223949
-0.204066
-0.183491
-0.162492
-0.14077
-0.34034
-0.343191
-0.344891
-0.345893
-0.346507
-0.346688
-0.346299
-0.345179
-0.343139
-0.339975
-0.335481
-0.329459
-0.321736
-0.31218
-0.300717
-0.287343
-0.272137
-0.255265
-0.236979
-0.217604
-0.197552
-0.177101
-0.157443
-0.135911
-0.346139
-0.348291
-0.349579
-0.350327
-0.350738
-0.350725
-0.350129
-0.348761
-0.346412
-0.342861
-0.337891
-0.331304
-0.322938
-0.312687
-0.300517
-0.286481
-0.270726
-0.253495
-0.235114
-0.215964
-0.196574
-0.176962
-0.159155
-0.13913
-0.352924
-0.354257
-0.354999
-0.355359
-0.35544
-0.355124
-0.354226
-0.352537
-0.349826
-0.34586
-0.340417
-0.333304
-0.324381
-0.31358
-0.300919
-0.286518
-0.270596
-0.253462
-0.235501
-0.217111
-0.198863
-0.18069
-0.164582
-0.14714
-0.360334
-0.360771
-0.360839
-0.360655
-0.36024
-0.359458
-0.358112
-0.35597
-0.352786
-0.348315
-0.342337
-0.334674
-0.325218
-0.31395
-0.30095
-0.286403
-0.27059
-0.253865
-0.236629
-0.21929
-0.202313
-0.185833
-0.171075
-0.156189
-0.36815
-0.367646
-0.366924
-0.366038
-0.364951
-0.363528
-0.361565
-0.358816
-0.355019
-0.349922
-0.34331
-0.335028
-0.325009
-0.313288
-0.300009
-0.285415
-0.269828
-0.253617
-0.23716
-0.220833
-0.204951
-0.189822
-0.175948
-0.16302
-0.392248
-0.383792
-0.37038
-0.352031
-0.329222
-0.303306
-0.276206
-0.250679
-0.229121
-0.214653
-0.209359
-0.213856
-0.226645
-0.243745
-0.259171
-0.266025
-0.259252
-0.236822
-0.202685
-0.165032
-0.131709
-0.107002
-0.0917708
-0.084985
-0.0852264
-0.0924085
-0.107813
-0.129761
-0.150007
-0.157375
-0.147859
-0.126192
-0.101989
-0.0828655
-0.0714859
-0.0667462
-0.0683158
-0.0782164
-0.0951666
-0.109546
-0.110409
-0.0981209
-0.0800077
-0.06488
-0.0544502
-0.0498549
-0.0518943
-0.0565812
-0.0577517
-0.0544052
-0.0478675
-0.0425867
-0.0380546
-0.0354846
-0.0354444
-0.0352673
-0.0314134
-0.0268467
-0.0161314
-0.00278661
-0.331514
-0.32277
-0.310919
-0.296016
-0.27868
-0.260264
-0.241529
-0.225712
-0.213698
-0.209278
-0.213727
-0.226728
-0.245906
-0.266834
-0.28366
-0.290154
-0.28109
-0.255263
-0.217061
-0.175319
-0.138299
-0.11029
-0.0919267
-0.0820612
-0.0792417
-0.0830016
-0.0943431
-0.112338
-0.130255
-0.13825
-0.131514
-0.113917
-0.0936948
-0.0780681
-0.0696772
-0.0674763
-0.0716126
-0.0843188
-0.103865
-0.119825
-0.120244
-0.10633
-0.0853596
-0.0673616
-0.0544373
-0.04772
-0.0474879
-0.0502268
-0.0508894
-0.0482857
-0.0438468
-0.0403213
-0.0380758
-0.0375995
-0.0389533
-0.0396746
-0.0350663
-0.0298429
-0.0176235
-0.00282499
-0.270494
-0.260751
-0.24982
-0.237688
-0.225022
-0.214997
-0.204118
-0.196998
-0.19496
-0.200281
-0.213493
-0.233523
-0.257449
-0.280862
-0.298461
-0.30471
-0.294486
-0.266665
-0.226029
-0.181772
-0.142321
-0.111941
-0.0910856
-0.0785222
-0.072797
-0.0732383
-0.0805374
-0.0944602
-0.10985
-0.118162
-0.11413
-0.100519
-0.0842631
-0.0721746
-0.066834
-0.06723
-0.0739357
-0.0892983
-0.111193
-0.128659
-0.128927
-0.113607
-0.0900794
-0.069392
-0.0541441
-0.045514
-0.0432518
-0.0442107
-0.0443443
-0.042278
-0.0397293
-0.0378667
-0.037998
-0.0397095
-0.0424368
-0.0439833
-0.038576
-0.0326921
-0.0190595
-0.00287227
-0.216857
-0.205179
-0.19447
-0.184389
-0.172839
-0.175498
-0.169336
-0.169416
-0.175861
-0.18916
-0.209098
-0.234084
-0.261054
-0.285886
-0.303896
-0.310102
-0.299531
-0.271037
-0.229589
-0.184444
-0.143936
-0.112181
-0.0895483
-0.0747999
-0.066515
-0.0638824
-0.0673481
-0.0771972
-0.0897939
-0.0979666
-0.0963373
-0.0864541
-0.0739969
-0.065344
-0.0629662
-0.0658659
-0.0749751
-0.092734
-0.116778
-0.135759
-0.136125
-0.119772
-0.0940744
-0.0709652
-0.0536079
-0.0432952
-0.0392767
-0.0386455
-0.0382261
-0.0364697
-0.0355759
-0.0352488
-0.0378173
-0.041791
-0.0458639
-0.048151
-0.041901
-0.0353602
-0.0204208
-0.00292558
-0.176693
-0.161149
-0.149973
-0.143707
-0.137847
-0.137401
-0.138917
-0.145608
-0.158225
-0.176995
-0.201252
-0.229127
-0.257609
-0.282948
-0.301058
-0.307317
-0.296949
-0.268939
-0.228258
-0.183859
-0.143635
-0.111423
-0.0876425
-0.0712107
-0.0607917
-0.0555043
-0.0554796
-0.0613508
-0.0709316
-0.0784466
-0.0787654
-0.0721483
-0.0631686
-0.0577029
-0.0580551
-0.0632468
-0.0744971
-0.0943616
-0.120375
-0.140842
-0.141551
-0.12468
-0.0972876
-0.0721031
-0.0528821
-0.0411132
-0.0356101
-0.0335949
-0.032619
-0.0309475
-0.0314471
-0.0324927
-0.037525
-0.0438147
-0.0491959
-0.0521233
-0.0449962
-0.0378129
-0.0216897
-0.00298205
-0.147966
-0.131889
-0.121055
-0.114277
-0.110676
-0.111544
-0.116771
-0.127177
-0.14324
-0.164855
-0.191072
-0.21995
-0.24864
-0.273731
-0.291614
-0.297822
-0.287984
-0.261351
-0.222793
-0.180591
-0.141842
-0.110021
-0.0856686
-0.0679927
-0.0558473
-0.0483507
-0.0453855
-0.0475727
-0.0539765
-0.0603092
-0.0621576
-0.0579895
-0.0520553
-0.0493997
-0.0521502
-0.0593571
-0.0724372
-0.0940568
-0.121791
-0.143704
-0.145071
-0.128248
-0.0996718
-0.0728216
-0.0520079
-0.0389977
-0.0322672
-0.0290838
-0.0275806
-0.0257857
-0.0273976
-0.0296241
-0.0371064
-0.0457402
-0.0523903
-0.0558488
-0.0478177
-0.0400185
-0.0228464
-0.00303738
-0.131846
-0.116266
-0.104304
-0.0971915
-0.0942825
-0.0960172
-0.102539
-0.114267
-0.131396
-0.153578
-0.179754
-0.208042
-0.235814
-0.26025
-0.277295
-0.28316
-0.274037
-0.249539
-0.214217
-0.175348
-0.139014
-0.108288
-0.0838673
-0.0653292
-0.051813
-0.0425057
-0.0371219
-0.0361295
-0.0393966
-0.0441009
-0.0465982
-0.0443408
-0.0410005
-0.0406794
-0.0454237
-0.054306
-0.0688165
-0.0917711
-0.120929
-0.144312
-0.146638
-0.130429
-0.101184
-0.073125
-0.0510121
-0.0369655
-0.0292357
-0.0250943
-0.0231319
-0.0210424
-0.0234793
-0.0266694
-0.036541
-0.0475176
-0.0554017
-0.0592807
-0.0503295
-0.0419501
-0.0238735
-0.00308552
-0.128322
-0.114798
-0.0997337
-0.0908372
-0.0874902
-0.088871
-0.0950481
-0.106302
-0.122666
-0.143671
-0.168261
-0.194638
-0.220427
-0.243588
-0.259285
-0.264586
-0.256428
-0.234729
-0.203474
-0.16871
-0.135434
-0.106338
-0.0822909
-0.0632462
-0.0486878
-0.0379418
-0.0306267
-0.0270105
-0.0273813
-0.0301631
-0.0323774
-0.0316795
-0.0304011
-0.0318541
-0.0381114
-0.0482596
-0.0637762
-0.0875893
-0.117846
-0.142775
-0.146292
-0.13121
-0.101797
-0.07302
-0.0499187
-0.0350283
-0.0265027
-0.021591
-0.0192503
-0.0167164
-0.0197451
-0.0236577
-0.0358045
-0.0490922
-0.0581806
-0.062376
-0.0525053
-0.0435878
-0.0247625
-0.00312031
-0.132265
-0.118952
-0.103814
-0.0933365
-0.0887482
-0.0885982
-0.0930805
-0.102465
-0.116681
-0.135211
-0.157055
-0.180544
-0.203493
-0.223264
-0.238353
-0.243343
-0.236552
-0.218174
-0.191494
-0.161238
-0.131373
-0.104275
-0.0809817
-0.0617773
-0.0464877
-0.0346417
-0.0258265
-0.0201298
-0.0179617
-0.0187017
-0.0202363
-0.0204485
-0.0205943
-0.0232388
-0.0304972
-0.0414421
-0.0574353
-0.0816478
-0.112765
-0.139304
-0.144793
-0.130637
-0.101566
-0.0725996
-0.0488288
-0.0332385
-0.0240789
-0.018564
-0.0159254
-0.0129318
-0.0162381
-0.0206165
-0.0348671
-0.0504082
-0.0606838
-0.0650984
-0.054319
-0.0449165
-0.0255132
-0.00313887
-0.140411
-0.128804
-0.113737
-0.10223
-0.0957903
-0.0933424
-0.0951771
-0.101714
-0.11278
-0.127907
-0.1462
-0.166144
-0.18572
-0.203577
-0.216403
-0.221156
-0.216114
-0.201439
-0.179552
-0.153917
-0.127614
-0.102758
-0.0805262
-0.0614581
-0.0456725
-0.0329498
-0.0229292
-0.0155624
-0.0112224
-0.00990412
-0.0103907
-0.0109136
-0.0118058
-0.0150881
-0.0228308
-0.0341315
-0.0502348
-0.074366
-0.105844
-0.134069
-0.146868
-0.128803
-0.100631
-0.072041
-0.0479293
-0.0317105
-0.0219754
-0.0159867
-0.0131984
-0.00966337
-0.0129638
-0.0175783
-0.0337066
-0.051404
-0.0628657
-0.067401
-0.0557468
-0.0459226
-0.0261109
-0.003137
-0.148855
-0.137686
-0.124372
-0.113012
-0.105093
-0.100683
-0.0996606
-0.102798
-0.110069
-0.121254
-0.135643
-0.151826
-0.168279
-0.18342
-0.194248
-0.198962
-0.196016
-0.185291
-0.168266
-0.147273
-0.124619
-0.102167
-0.08119
-0.062457
-0.0463316
-0.0328575
-0.0218324
-0.0131213
-0.00694399
-0.00362965
-0.00286823
-0.00315915
-0.00427669
-0.00772204
-0.0154006
-0.026461
-0.0420272
-0.0657622
-0.0977796
-0.126887
-0.13927
-0.125193
-0.0987342
-0.0710805
-0.0470226
-0.0303464
-0.0200538
-0.0136575
-0.0109292
-0.00700649
-0.0100114
-0.0145494
-0.0322505
-0.0520522
-0.0646882
-0.0692074
-0.0567429
-0.0465845
-0.0264978
-0.00308728
-0.1551
-0.145576
-0.134712
-0.123827
-0.114823
-0.108791
-0.105912
-0.106051
-0.10948
-0.11629
-0.125955
-0.137713
-0.149966
-0.163574
-0.171853
-0.175808
-0.17446
-0.167074
-0.15426
-0.137408
-0.118193
-0.0982377
-0.0788413
-0.0609373
-0.0450406
-0.0313558
-0.0198836
-0.0104977
-0.00314312
0.00180614
0.00375462
0.0036476
0.00221289
-0.0013457
-0.00869619
-0.0193145
-0.0340787
-0.0567515
-0.0881584
-0.117316
-0.129243
-0.119037
-0.0947883
-0.0683966
-0.0448796
-0.0283515
-0.0178559
-0.0112253
-0.00855052
-0.00449788
-0.00729371
-0.0117162
-0.0305607
-0.0522309
-0.0660696
-0.0705367
-0.0572354
-0.0468783
-0.0266064
-0.00293634
-0.151301
-0.146281
-0.136616
-0.126314
-0.117889
-0.112008
-0.108622
-0.107779
-0.109873
-0.115012
-0.122876
-0.132998
-0.145379
-0.153127
-0.15946
-0.162224
-0.160153
-0.152851
-0.140881
-0.125416
-0.10786
-0.0895853
-0.0716974
-0.0550063
-0.0399752
-0.0267973
-0.0155173
-0.00606997
0.0016475
0.00742515
0.0105331
0.011192
0.0102002
0.00638052
-0.000112331
-0.00954361
-0.0233615
-0.0460848
-0.0794731
-0.111599
-0.125346
-0.115063
-0.0903783
-0.0643851
-0.0414279
-0.0255064
-0.0153844
-0.00886612
-0.005981
-0.00129657
-0.00378603
-0.00799808
-0.0281248
-0.0522044
-0.0674041
-0.0719643
-0.0574193
-0.0468412
-0.0265013
-0.00272905
-0.147549
-0.144212
-0.135404
-0.125846
-0.118159
-0.1128
-0.10959
-0.108533
-0.109841
-0.113566
-0.119448
-0.126969
-0.13502
-0.14112
-0.145378
-0.146473
-0.143625
-0.136626
-0.125891
-0.112289
-0.096875
-0.0807114
-0.0646835
-0.0494879
-0.0355532
-0.023093
-0.0122409
-0.00297801
0.00484923
0.0110723
0.0147691
0.0156884
0.0143145
0.011454
0.00603293
-0.00214192
-0.014861
-0.0371768
-0.0713993
-0.104403
-0.117563
-0.107614
-0.0838432
-0.0593255
-0.0378244
-0.0228078
-0.0130429
-0.00671602
-0.00384089
0.000918842
-0.00143631
-0.00519214
-0.0260867
-0.0521093
-0.0681729
-0.0725351
-0.0570663
-0.0462562
-0.0261538
-0.00261397
-0.141592
-0.139639
-0.132295
-0.123815
-0.116928
-0.112186
-0.109322
-0.108158
-0.10873
-0.111046
-0.114917
-0.119888
-0.125121
-0.129233
-0.131636
-0.131564
-0.128465
-0.122127
-0.112754
-0.100923
-0.0874061
-0.0730443
-0.0585823
-0.0446428
-0.0316496
-0.0198329
-0.00935361
-0.000271343
0.00750919
0.013916
0.0180696
0.0194928
0.0184172
0.0158777
0.011142
0.00367543
-0.00853488
-0.0303463
-0.0634085
-0.0950225
-0.107859
-0.0988018
-0.0766589
-0.053996
-0.0340946
-0.0200388
-0.0107311
-0.00462139
-0.00180099
0.00294433
0.000513185
-0.003078
-0.0245076
-0.0518173
-0.0683051
-0.0724295
-0.0562539
-0.0452462
-0.0256297
-0.00254424
-0.133417
-0.13355
-0.127996
-0.120707
-0.114594
-0.110372
-0.107748
-0.106414
-0.106307
-0.10744
-0.109698
-0.112715
-0.115838
-0.118234
-0.119303
-0.11845
-0.115206
-0.109355
-0.101003
-0.0905566
-0.0786003
-0.0658002
-0.0527672
-0.0400305
-0.0279806
-0.0168498
-0.00680678
0.00203111
0.00966676
0.0161165
0.0206621
0.0227171
0.0221486
0.0201792
0.0162286
0.00936765
-0.00241675
-0.0231881
-0.0541435
-0.0844128
-0.0970356
-0.0889318
-0.0687613
-0.0482087
-0.0301353
-0.017203
-0.00845364
-0.00257391
0.000168106
0.00486686
0.00234185
-0.00117077
-0.0228061
-0.0509212
-0.0677631
-0.0716654
-0.0549722
-0.043819
-0.024877
-0.0024968
-0.124769
-0.126567
-0.122602
-0.116482
-0.111113
-0.107338
-0.104907
-0.103463
-0.102879
-0.103143
-0.104166
-0.105687
-0.107257
-0.108315
-0.108331
-0.106818
-0.103404
-0.0979132
-0.090399
-0.0811393
-0.0705551
-0.0591511
-0.0474165
-0.0357956
-0.0246443
-0.0141996
-0.00463328
0.00391613
0.0113606
0.0177411
0.0225183
0.0251961
0.0252658
0.0241572
0.0212639
0.0153328
0.00442053
-0.0149603
-0.0440222
-0.0729683
-0.0850941
-0.0781253
-0.0602861
-0.042109
-0.026029
-0.014336
-0.00622568
-0.000583613
0.00206345
0.00663488
0.00405984
0.000736282
-0.0206395
-0.0492352
-0.0664136
-0.0700758
-0.0531532
-0.0419444
-0.0238717
-0.00246065
-0.116022
-0.118785
-0.116169
-0.111195
-0.106576
-0.10324
-0.101022
-0.0995577
-0.0986655
-0.0983055
-0.098423
-0.0988435
-0.0992617
-0.099268
-0.0984437
-0.0964149
-0.092894
-0.0877305
-0.080933
-0.0726784
-0.0632647
-0.0530743
-0.0424995
-0.0319117
-0.0216243
-0.0118682
-0.0028188
0.0053884
0.012603
0.0188392
0.0236988
0.0270159
0.0276224
0.0275259
0.0259494
0.0213692
0.0116522
-0.00648878
-0.0337647
-0.0608992
-0.0723256
-0.066689
-0.0514793
-0.0358379
-0.0218358
-0.0114618
-0.00406128
0.00133283
0.00388128
0.00824893
0.00566443
0.00263877
-0.0179857
-0.0466385
-0.064033
-0.0675114
-0.0507461
-0.0396213
-0.0225932
-0.00242062
-0.106941
-0.110415
-0.108967
-0.105061
-0.101177
-0.0982828
-0.096295
-0.0948692
-0.0937961
-0.0930185
-0.0925038
-0.0921406
-0.0917154
-0.0909395
-0.0895021
-0.0871168
-0.0835542
-0.0786825
-0.0724854
-0.0650764
-0.0566673
-0.0475449
-0.0380175
-0.0283899
-0.018932
-0.00985829
-0.00135134
0.00646364
0.0134114
0.0194623
0.0242474
0.0272027
0.0291413
0.0300489
0.0298516
0.0268555
0.0184107
0.00140243
-0.0238333
-0.0485856
-0.059123
-0.0549926
-0.0426067
-0.0295621
-0.0176368
-0.00861065
-0.00197187
0.00316286
0.00562798
0.00972511
0.00716355
0.00447249
-0.0148787
-0.0429771
-0.0604274
-0.0638688
-0.04773
-0.0368722
-0.0210316
-0.00236016
-0.0978141
-0.101807
-0.10129
-0.0983096
-0.0951105
-0.0926459
-0.0908989
-0.0895599
-0.0884125
-0.087385
-0.0864546
-0.0855566
-0.0845508
-0.0832352
-0.0813797
-0.0787648
-0.0752104
-0.0706078
-0.0649318
-0.0582534
-0.0507202
-0.0425432
-0.0339613
-0.0252222
-0.016557
-0.00815702
-0.000206149
0.00717754
0.0138202
0.019667
0.0244014
0.0277492
0.0300007
0.0316325
0.0325613
0.0310217
0.0238597
0.00820272
-0.014564
-0.0363965
-0.0459321
-0.0434574
-0.0339602
-0.0234591
-0.0135204
-0.00581295
3.80386e-05
0.00490005
0.00731329
0.0110845
0.00858572
0.00622749
-0.0112926
-0.0381465
-0.0554919
-0.0591037
-0.0441176
-0.0337448
-0.0191923
-0.0022627
-0.0889613
-0.0931743
-0.0933407
-0.0911418
-0.0885616
-0.0865062
-0.0850061
-0.0837909
-0.082648
-0.0814978
-0.0803241
-0.0790942
-0.0777186
-0.0760563
-0.073939
-0.0712029
-0.0677107
-0.0633755
-0.058169
-0.0521332
-0.0453696
-0.0380331
-0.0303075
-0.0223919
-0.0144822
-0.00674469
0.000644604
0.00757126
0.0138734
0.0194899
0.024152
0.0277028
0.0302185
0.0322762
0.0338727
0.0333453
0.027438
0.0136136
-0.00612703
-0.0247082
-0.0333335
-0.0325636
-0.0258274
-0.017694
-0.00957725
-0.00310347
0.00196683
0.00654413
0.00894781
0.0123615
0.01
0.00796674
-0.00721734
-0.0321753
-0.0492413
-0.0532584
-0.0399649
-0.0303135
-0.0170996
-0.00211401
-0.0804009
-0.0846344
-0.085299
-0.0837474
-0.0817116
-0.0800335
-0.0787759
-0.0777065
-0.0766249
-0.0754489
-0.0741646
-0.0727579
-0.0711745
-0.0693186
-0.0670702
-0.0643092
-0.060932
-0.05687
-0.0520962
-0.046635
-0.0405563
-0.0339737
-0.0270277
-0.0198763
-0.0126839
-0.00559379
0.00123335
0.00768729
0.0136196
0.0189681
0.0235114
0.0271384
0.0298369
0.0320852
0.0339071
0.0338694
0.0291412
0.0176003
0.00126726
-0.0141214
-0.0220044
-0.0227724
-0.01845
-0.0123987
-0.00588969
-0.000522418
0.00380874
0.0080968
0.0105404
0.013612
0.0115089
0.00977937
-0.00273164
-0.0252619
-0.0418542
-0.0464904
-0.0353762
-0.0266764
-0.0148001
-0.00190431
-0.0721678
-0.0763169
-0.0773277
-0.0762932
-0.0747205
-0.0733793
-0.0723514
-0.0714383
-0.0704561
-0.0693236
-0.0680253
-0.0665579
-0.0648919
-0.0629644
-0.0606908
-0.0579838
-0.0547665
-0.0509864
-0.0466204
-0.0416828
-0.0362222
-0.0303217
-0.0240883
-0.0176469
-0.0111334
-0.00467129
0.00159771
0.00756979
0.01311
0.0181529
0.0225232
0.0261263
0.0289104
0.0311939
0.0329639
0.0330724
0.029389
0.020214
0.00720247
-0.00531403
-0.0124886
-0.0143909
-0.0119789
-0.00765716
-0.00252191
0.00188828
0.00554994
0.0095513
0.0120805
0.0148983
0.0132116
0.0117472
0.00199393
-0.0177871
-0.0337013
-0.0390847
-0.0305
-0.0229471
-0.0123655
-0.00163042
-0.0643498
-0.0683189
-0.0695449
-0.0689129
-0.0677267
-0.0666796
-0.0658621
-0.0651049
-0.0642409
-0.0632009
-0.061958
-0.0605155
-0.0588606
-0.0569535
-0.0547357
-0.0521446
-0.0491241
-0.0456354
-0.0416602
-0.0372073
-0.0323108
-0.027032
-0.0214526
-0.0156709
-0.00979881
-0.00394115
0.00177881
0.00726443
0.0123967
0.0171089
0.021252
0.0247428
0.0275165
0.0297361
0.0313331
0.0314461
0.0286051
0.0215083
0.0113905
0.00138163
-0.0049787
-0.0075069
-0.00646448
-0.00350639
0.000484082
0.0040908
0.00717259
0.0108895
0.0135199
0.0162393
0.0151522
0.0139315
0.00671655
-0.0102952
-0.0253241
-0.0314334
-0.0255153
-0.0192421
-0.00989242
-0.00129991
-0.0569751
-0.0606971
-0.0620406
-0.0617175
-0.0608494
-0.060054
-0.0594238
-0.0588124
-0.0580617
-0.0571561
-0.0560164
-0.0546573
-0.053079
-0.0512584
-0.0491559
-0.0467272
-0.0439321
-0.0407424
-0.0371446
-0.0331449
-0.0287678
-0.0240593
-0.0190822
-0.0139139
-0.00864547
-0.00336616
0.00181866
0.0068208
0.0115339
0.0158924
0.0197687
0.0230822
0.0257608
0.0278513
0.0292475
0.02933
0.0271221
0.0217101
0.01399
0.00612232
0.000664377
-0.00204108
-0.00188174
5.27252e-05
0.00310854
0.00605481
0.00865743
0.012088
0.0147847
0.0175581
0.0172461
0.0163035
0.0111193
-0.00340835
-0.0173322
-0.0239691
-0.02061
-0.0156673
-0.00749418
-0.000934259
-0.050058
-0.0534979
-0.0548854
-0.0547933
-0.0541832
-0.0536017
-0.0531409
-0.052677
-0.0520699
-0.0512796
-0.0502559
-0.0490116
-0.0475513
-0.0458617
-0.0439157
-0.0416819
-0.0391315
-0.0362448
-0.033012
-0.0294386
-0.025543
-0.0213603
-0.0169389
-0.0123404
-0.00763859
-0.00290916
0.00175861
0.00628556
0.0105764
0.0145676
0.0181481
0.021239
0.0237606
0.0256895
0.0269023
0.0269675
0.0252528
0.0211795
0.015383
0.00929683
0.00475844
0.00218427
0.00183787
0.0030408
0.00535025
0.00775947
0.00998248
0.0131186
0.0158125
0.0186919
0.0192032
0.0185936
0.0147875
0.00234608
-0.0102334
-0.0170719
-0.0159585
-0.0123134
-0.00528542
-0.000565756
-0.0436133
-0.0467488
-0.0481236
-0.0481989
-0.0477952
-0.0473929
-0.047082
-0.0467625
-0.0463254
-0.0456181
-0.0447117
-0.0435997
-0.0422828
-0.0407523
-0.038989
-0.0369702
-0.0346753
-0.0320908
-0.0292103
-0.0260389
-0.0225909
-0.0188941
-0.0149861
-0.0109163
-0.00674439
-0.00253449
0.00163834
0.00570393
0.00957831
0.0131978
0.0164636
0.0193036
0.0216344
0.0233954
0.0244627
0.0245446
0.0232444
0.0202259
0.0159343
0.0113088
0.00765089
0.00537285
0.00478461
0.00549128
0.0072206
0.00919395
0.0111206
0.0139451
0.0165663
0.0194709
0.0206393
0.0203114
0.0172954
0.00668278
-0.00432643
-0.0110109
-0.0117041
-0.00925658
-0.00337041
-0.000229467
-0.037631
-0.0404568
-0.0417811
-0.0419733
-0.0417301
-0.041469
-0.0412727
-0.0410527
-0.0407009
-0.040149
-0.0393917
-0.0384327
-0.0372772
-0.0359226
-0.0343564
-0.0325625
-0.0305262
-0.0282385
-0.0256957
-0.0229028
-0.0198714
-0.0166238
-0.0131898
-0.00960951
-0.00593101
-0.00220855
0.00149492
0.00511774
0.00858564
0.0118371
0.0147857
0.0173648
0.0194913
0.021094
0.022057
0.0221894
0.0212493
0.0190608
0.0159317
0.0124859
0.00961989
0.00771221
0.00705546
0.00744595
0.00873753
0.0103554
0.0120413
0.0145311
0.0170116
0.0197714
0.0212599
0.0210619
0.0184617
0.00959476
0.000272321
-0.00595335
-0.00795221
-0.00655813
-0.00182465
4.44921e-05
-0.0321006
-0.0346253
-0.0358748
-0.0361447
-0.0360248
-0.0358756
-0.0357723
-0.0356405
-0.0353869
-0.0349583
-0.0343403
-0.0335336
-0.0325431
-0.0313694
-0.0300044
-0.0284366
-0.0266553
-0.0246546
-0.0224327
-0.0199946
-0.0173499
-0.0145171
-0.0115198
-0.00839105
-0.00516967
-0.0019014
0.00136077
0.00456315
0.00764048
0.0105362
0.0131741
0.0154922
0.0174207
0.0188811
0.0197734
0.0199795
0.0193522
0.017817
0.0155837
0.0130725
0.0108905
0.00936521
0.00874778
0.00895279
0.00992237
0.0112463
0.012723
0.0148619
0.0171242
0.0195631
0.0210363
0.020841
0.0184814
0.0112757
0.00357939
-0.00198321
-0.00477459
-0.00425313
-0.000662778
0.000240037
-0.0270146
-0.0292506
-0.0304091
-0.0307269
-0.0307009
-0.0306403
-0.0306131
-0.0305571
-0.0303911
-0.030069
-0.0295788
-0.0289177
-0.0280883
-0.027092
-0.025924
-0.0245761
-0.0230404
-0.0213128
-0.0193927
-0.017285
-0.0149979
-0.0125466
-0.00995031
-0.00723616
-0.00443582
-0.00158782
0.00126337
0.0040715
0.00678028
0.0093396
0.0116799
0.0137347
0.0154889
0.0168235
0.0176688
0.0179575
0.0175978
0.0165729
0.0150261
0.0132507
0.0116419
0.0104749
0.00995354
0.0100622
0.0107996
0.0118761
0.0131618
0.0149452
0.0169253
0.018938
0.0201835
0.0199261
0.0177527
0.0120143
0.00572701
0.000632201
-0.00220302
-0.00236179
0.000160773
0.000362574
-0.0223538
-0.0243182
-0.0253784
-0.0257227
-0.0257678
-0.0257772
-0.0258107
-0.0258174
-0.0257266
-0.0254966
-0.0251217
-0.0245953
-0.0239176
-0.0230894
-0.0221084
-0.020969
-0.0196648
-0.0181931
-0.0165536
-0.0147511
-0.0127923
-0.0106902
-0.00846025
-0.00612485
-0.0037099
-0.00124764
0.00122484
0.00366795
0.00603412
0.00828172
0.0103558
0.0122252
0.0137542
0.0149656
0.0157753
0.016142
0.0160039
0.0153769
0.014357
0.0131503
0.0120081
0.0111571
0.0107571
0.010826
0.0113973
0.012266
0.0133672
0.0148088
0.0164637
0.0180395
0.0189635
0.0186267
0.0166432
0.012116
0.00700402
0.00274164
-0.000172597
-0.000871999
0.000716915
0.000433757
-0.0180956
-0.019811
-0.0207719
-0.0211277
-0.021226
-0.0212898
-0.0213715
-0.0214295
-0.0214048
-0.0212613
-0.0209813
-0.0205728
-0.0200328
-0.0193598
-0.018552
-0.0176056
-0.0165157
-0.0152799
-0.0138983
-0.012375
-0.0107156
-0.00893094
-0.00703358
-0.00504202
-0.00297746
-0.000866502
0.00125998
0.00336883
0.00541962
0.00737599
0.0091898
0.0108249
0.0122088
0.0133222
0.0141047
0.0145368
0.0145778
0.0142577
0.013636
0.0128633
0.0120927
0.0115091
0.0112327
0.0112948
0.0117479
0.0124411
0.0133609
0.0144926
0.0158096
0.0169944
0.0175822
0.0171728
0.0153937
0.0118279
0.00765978
0.00413378
0.00135226
0.000254063
0.00108092
0.000477623
-0.0142206
-0.0157101
-0.016574
-0.0169304
-0.0170675
-0.0171726
-0.0172911
-0.0173887
-0.0174159
-0.0173388
-0.0171467
-0.0168447
-0.0164299
-0.0158987
-0.0152487
-0.014478
-0.013583
-0.0125618
-0.0114143
-0.0101437
-0.00875487
-0.0072566
-0.00565912
-0.00397755
-0.00222904
-0.000435551
0.00137741
0.0031826
0.00494609
0.00663642
0.0082112
0.00964143
0.0108794
0.011903
0.0126582
0.013139
0.0133179
0.013227
0.0129
0.012459
0.0119767
0.0116093
0.0114458
0.011518
0.011885
0.0124303
0.0131769
0.0140374
0.0150246
0.0157852
0.0161661
0.01571
0.0141359
0.0113195
0.00789943
0.00498429
0.00244685
0.00107795
0.00131707
0.00050905
-0.0107072
-0.0119937
-0.0127654
-0.0131151
-0.0132801
-0.0134163
-0.0135628
-0.0136911
-0.0137604
-0.0137428
-0.0136283
-0.0134145
-0.013107
-0.0127012
-0.0121926
-0.0115792
-0.0108588
-0.0100299
-0.00909225
-0.00804816
-0.00690149
-0.00565936
-0.00433008
-0.00292571
-0.00146022
4.85398e-05
0.00158006
0.00311139
0.0046145
0.00606489
0.00742602
0.00867279
0.00977374
0.0107043
0.0114276
0.0119384
0.0122152
0.0122889
0.0121773
0.011961
0.0117135
0.0115193
0.0114531
0.011541
0.0118423
0.012266
0.0128534
0.0134845
0.014187
0.0146815
0.0148205
0.0143253
0.0129372
0.0106985
0.00787545
0.005443
0.00319837
0.00169729
0.00147138
0.000533451
-0.00753225
-0.00863854
-0.00932482
-0.00966342
-0.00984794
-0.0100072
-0.0101742
-0.010326
-0.0104285
-0.0104587
-0.0104064
-0.0102717
-0.0100559
-0.00975927
-0.0093759
-0.00890224
-0.00833643
-0.00767772
-0.00692585
-0.00608246
-0.0051504
-0.00413526
-0.00304367
-0.00188525
-0.000671165
0.000584377
0.00186459
0.00315118
0.00442169
0.00565517
0.00682365
0.00790721
0.00887381
0.00971351
0.0103953
0.0109183
0.0112596
0.011448
0.0114931
0.0114464
0.0113585
0.0112931
0.0113034
0.011406
0.0116556
0.0119801
0.012425
0.0128673
0.013329
0.013614
0.0135769
0.0130577
0.0118315
0.0100303
0.00769226
0.00562404
0.00361737
0.00213674
0.00156721
0.000551832
-0.00467414
-0.00562213
-0.00623066
-0.0065555
-0.00675327
-0.00692932
-0.00711109
-0.00728037
-0.00740916
-0.00747811
-0.00747877
-0.00740853
-0.00726872
-0.00706571
-0.00679109
-0.00644003
-0.00600991
-0.00550015
-0.00491082
-0.00424318
-0.0034993
-0.00268338
-0.00180062
-0.000858562
0.000134033
0.00116598
0.00222399
0.00329354
0.00435647
0.00539631
0.00639089
0.00732448
0.00817081
0.00891963
0.00954926
0.0100632
0.0104413
0.0107024
0.0108466
0.0109208
0.0109475
0.0109739
0.0110389
0.0111518
0.0113588
0.0116017
0.0119236
0.0122173
0.0125077
0.0126109
0.0124462
0.0119188
0.0108321
0.0093554
0.00741523
0.00563349
0.00389614
0.0024341
0.00162257
0.000561715
-0.00211199
-0.00292204
-0.00346077
-0.00377066
-0.00397704
-0.00416505
-0.0043573
-0.00453939
-0.00468872
-0.00478945
-0.00483467
-0.00482269
-0.00475364
-0.00462215
-0.00443532
-0.0041874
-0.00387387
-0.00349298
-0.00304431
-0.00252882
-0.00194815
-0.00130538
-0.000604383
0.000149068
0.000948176
0.00178433
0.00264715
0.00352525
0.00440437
0.00527168
0.00610947
0.0069054
0.00763962
0.00830407
0.00888038
0.00936687
0.0097517
0.0100499
0.010258