/*--------------------------------*- C++ -*----------------------------------*\
| =========                 |                                                 |
| \\      /  F ield         | OpenFOAM: The Open Source CFD Toolbox           |
|  \\    /   O peration     | Version:  2512                                  |
|   \\  /    A nd           | Website:  www.openfoam.com                      |
|    \\/     M anipulation  |                                                 |
\*---------------------------------------------------------------------------*/
FoamFile
{
    version     2.0;
    format      ascii;
    arch        "LSB;label=32;scalar=64";
    class       surfaceScalarField;
    location    "135";
    object      phi;
}
// * * * * * * * * * * * * * * * * * * * * * * * * * * * * * * * * * * * * * //

dimensions      [0 3 -1 0 0 0 0];

oriented        oriented;

internalField   nonuniform List<scalar> 
26232
(
-5.91872e-05
0.000944379
-0.000885192
2.64462e-05
0.00175677
-0.0018424
0.00048248
0.00168807
-0.0021441
0.00151799
0.000797511
-0.00183302
0.00333282
-0.000898795
-0.000916036
0.0061188
-0.00340547
0.000619487
0.010054
-0.00673226
0.00279707
0.0152903
-0.0108788
0.00564241
0.0219374
-0.0158199
0.00917285
0.0300446
-0.021496
0.0133888
0.039586
-0.0278086
0.0182673
0.0504508
-0.0346237
0.0237588
0.0624438
-0.0417798
0.0297868
0.0752938
-0.0491013
0.0362512
0.0886719
-0.0564123
0.0430342
0.102215
-0.0635509
0.0500074
0.115556
-0.0703809
0.05704
0.12835
-0.0768023
0.0640087
0.140306
-0.0827528
0.0707963
0.151201
-0.0882262
0.0773319
0.160916
-0.0932118
0.0834969
0.169359
-0.097883
0.0894397
0.176485
-0.101936
0.0948103
-0.106407
0.100808
0.182083
2.5362e-05
0.000919017
0.000357315
0.00142482
0.00123549
0.000809893
0.00288765
-0.000854645
0.00553083
-0.00354198
0.00936247
-0.0072371
0.0145438
-0.0119136
0.0211777
-0.0175127
0.0292866
-0.0239288
0.0387954
-0.0310048
0.0495257
-0.038539
0.0612045
-0.0463024
0.0734852
-0.0540605
0.0859804
-0.0615965
0.0982994
-0.0687313
0.110086
-0.0753375
0.121052
-0.0813472
0.131002
-0.0867523
0.139847
-0.0915979
0.147593
-0.0959721
0.154359
-0.0999779
0.160242
-0.103766
0.165604
-0.107297
-0.111168
0.170365
0.000123804
0.000795213
0.000747252
0.000801369
0.00212115
-0.00056401
0.00448471
-0.0032182
0.00805518
-0.00711245
0.0130062
-0.0121882
0.0194392
-0.0183465
0.0273547
-0.0254282
0.0366334
-0.0332075
0.0470343
-0.0414057
0.058214
-0.0497187
0.0697635
-0.0578519
0.0812565
-0.0655536
0.0922999
-0.0726399
0.102577
-0.0790082
0.111878
-0.0846388
0.120115
-0.0895843
0.127315
-0.0939518
0.133596
-0.0978787
0.139135
-0.101511
0.144128
-0.104971
0.148751
-0.108389
0.153175
-0.111721
-0.115395
0.157403
0.000233185
0.000562027
0.00118307
-0.000148516
0.00310726
-0.0024882
0.00624201
-0.00635295
0.0107776
-0.0116481
0.0168222
-0.0182328
0.024365
-0.0258894
0.0332528
-0.0343159
0.0431914
-0.0431461
0.0537769
-0.0519912
0.0645497
-0.0604915
0.0750594
-0.0683616
0.0849257
-0.0754199
0.093883
-0.0815971
0.101802
-0.0869271
0.108685
-0.0915221
0.114642
-0.0955415
0.119849
-0.0991586
0.124504
-0.102534
0.128789
-0.105796
0.132853
-0.109036
0.136783
-0.112319
0.140683
-0.115621
-0.119207
0.144495
0.000353458
0.000208569
0.00165874
-0.0014538
0.00416942
-0.00499889
0.00809548
-0.010279
0.0135617
-0.0171143
0.0205605
-0.0252315
0.0289196
-0.0342484
0.0383041
-0.0437004
0.0482583
-0.0531004
0.0582786
-0.0620115
0.0678951
-0.0701079
0.0767418
-0.0772084
0.0845994
-0.0832775
0.0914036
-0.0884013
0.0972231
-0.0927465
0.102217
-0.0965157
0.106583
-0.099908
0.110517
-0.103093
0.114179
-0.106196
0.117687
-0.109303
0.121113
-0.112463
0.124499
-0.115704
0.127889
-0.119011
-0.122538
0.13122
0.000486066
-0.000277496
0.00216986
-0.00313759
0.00528072
-0.00810975
0.0099683
-0.0149666
0.0162448
-0.0233908
0.0239391
-0.0329258
0.0326916
-0.0430009
0.0420039
-0.0530127
0.0513292
-0.0624257
0.0601735
-0.0708558
0.0681755
-0.07811
0.0751469
-0.0841797
0.0810678
-0.0891985
0.0860492
-0.0933827
0.090277
-0.0969743
0.0939574
-0.100196
0.097276
-0.103227
0.100377
-0.106193
0.103358
-0.109177
0.10628
-0.112225
0.109179
-0.115362
0.11207
-0.118596
0.114978
-0.121919
-0.12541
0.11785
0.000630907
-0.000908403
0.00270547
-0.00521215
0.00639819
-0.0118025
0.0117556
-0.020324
0.018631
-0.0302662
0.0266624
-0.0409572
0.03532
-0.0516585
0.0440124
-0.061705
0.0522089
-0.0706223
0.0595345
-0.0781813
0.0658097
-0.0843853
0.0710379
-0.0894079
0.075353
-0.0935136
0.0789553
-0.096985
0.0820532
-0.100072
0.0848258
-0.102969
0.0874061
-0.105807
0.0898828
-0.10867
0.092309
-0.111603
0.0947141
-0.114631
0.0971132
-0.117761
0.0995125
-0.120995
0.101922
-0.124328
-0.127791
0.104302
0.000784502
-0.00169291
0.00324355
-0.0076712
0.00745807
-0.016017
0.0133271
-0.026193
0.020514
-0.0374531
0.0284758
-0.048919
0.0365762
-0.059759
0.044232
-0.0693608
0.0510289
-0.0774192
0.0567709
-0.0839233
0.0614618
-0.0890762
0.0652441
-0.0931902
0.0683255
-0.096595
0.070917
-0.0995765
0.0731955
-0.102351
0.0752897
-0.105063
0.0772834
-0.107801
0.0792258
-0.110612
0.0811437
-0.113521
0.0830508
-0.116538
0.0849534
-0.119663
0.0868545
-0.122896
0.0887581
-0.126232
-0.129673
0.0906399
0.000939673
-0.00263258
0.00375177
-0.0104833
0.00838231
-0.0206475
0.0145477
-0.0323585
0.0217196
-0.044625
0.0292249
-0.0564242
0.0364125
-0.0669466
0.0428008
-0.0757492
0.0481467
-0.0827651
0.0524311
-0.0882077
0.0557911
-0.0924361
0.0584368
-0.095836
0.0605838
-0.098742
0.0624118
-0.101404
0.0640502
-0.103989
0.0655823
-0.106595
0.0670563
-0.109275
0.068498
-0.112054
0.0699206
-0.114944
0.0713308
-0.117948
0.0727317
-0.121064
0.0741249
-0.124289
0.0755112
-0.127618
-0.131039
0.0768771
0.00108642
-0.003719
0.00419217
-0.0135891
0.00909197
-0.0255473
0.0153049
-0.0385714
0.0221435
-0.0514636
0.0288829
-0.0631637
0.0349461
-0.0730098
0.0400085
-0.0808115
0.0439997
-0.0867563
0.0470346
-0.0912425
0.0493202
-0.0947217
0.0510778
-0.0975935
0.0524943
-0.100159
0.0537052
-0.102615
0.054797
-0.105081
0.0558195
-0.107617
0.0567992
-0.110254
0.0577497
-0.113004
0.0586777
-0.115872
0.0595871
-0.118857
0.0604795
-0.121957
0.0613558
-0.125166
0.0622154
-0.128477
-0.131876
0.0630531
0.00121397
-0.00493297
0.00452852
-0.0169036
0.00952289
-0.0305417
0.0155307
-0.0445792
0.0217661
-0.057699
0.0275363
-0.0689338
0.0323981
-0.0778716
0.0361951
-0.0846085
0.0389963
-0.0895575
0.0409951
-0.0932413
0.0424173
-0.0961439
0.0434612
-0.0986374
0.044273
-0.10097
0.0449467
-0.103289
0.0455366
-0.105671
0.0460712
-0.108152
0.046565
-0.110748
0.0470256
-0.113465
0.0474571
-0.116303
0.0478619
-0.119262
0.0482411
-0.122336
0.0485948
-0.125519
0.048921
-0.128804
-0.132174
0.0492189
0.0013151
-0.00624807
0.0047352
-0.0203237
0.00963775
-0.0354442
0.0152105
-0.050152
0.0206448
-0.0631333
0.0253463
-0.0736354
0.0290301
-0.0815553
0.0316853
-0.0872638
0.0334729
-0.0913451
0.0346174
-0.0943858
0.0353301
-0.0968566
0.0357727
-0.09908
0.0360515
-0.101249
0.0362283
-0.103466
0.0363357
-0.105778
0.03639
-0.108206
0.0363992
-0.110757
0.0363681
-0.113434
0.0362997
-0.116235
0.0361961
-0.119158
0.0360586
-0.122198
0.0358871
-0.125348
0.0356792
-0.128596
0.0354368
-0.131932
-0.000318326
-0.00110491
0.00142324
-0.00108331
-0.00208949
0.00285448
-0.00218513
-0.0022182
0.00332002
-0.00354963
-0.00174525
0.00310976
-0.00512535
-0.000876643
0.00245236
-0.00687563
0.000240574
0.00150971
-0.00877139
0.00151863
0.000377124
-0.0107891
0.00292095
-0.000903237
-0.0129031
0.00444994
-0.0023359
-0.0150871
0.00613034
-0.00394643
-0.0173114
0.00799568
-0.00577135
-0.0195424
0.0100778
-0.00784678
-0.0217407
0.0124003
-0.010202
-0.0238601
0.0149751
-0.0128558
-0.0258456
0.0178
-0.0158144
-0.0276334
0.020857
-0.0190692
-0.0291498
0.0241102
-0.0225938
-0.0303124
0.0275036
-0.026341
-0.0310312
0.0309596
-0.0302407
-0.0312124
0.0343795
-0.0341984
-0.0307616
0.0376465
-0.0380973
-0.0295912
0.0406302
-0.0418006
-0.0276345
0.0431982
-0.0451549
0.045266
-0.0248783
-0.0480222
-0.000300007
-0.000804906
-0.00101057
-0.00137893
-0.00201862
-0.00121015
-0.00324782
-0.000516054
-0.00464609
0.000521629
-0.00617631
0.00177079
-0.00780828
0.00315059
-0.00951299
0.00462566
-0.0112582
0.00619513
-0.0130068
0.00787899
-0.0147163
0.00970511
-0.0163376
0.0116992
-0.0178154
0.013878
-0.0190864
0.0162461
-0.0200792
0.0187928
-0.0207136
0.0214915
-0.0209012
0.0242977
-0.0205463
0.0271488
-0.0195487
0.0299619
-0.0178056
0.0326364
-0.0152156
0.0350565
-0.011688
0.0371026
-0.00714901
0.0386592
0.0397086
-0.00159161
-0.00026264
-0.000542266
-0.000876714
-0.000764853
-0.00173191
-0.000354946
-0.00275116
0.000503195
-0.00388082
0.00165129
-0.00508152
0.00297149
-0.00631968
0.00438876
-0.0075609
0.00586688
-0.00876552
0.00739975
-0.00988657
0.00900005
-0.0108693
0.0106878
-0.0116513
0.0124812
-0.012163
0.0143897
-0.0123275
0.0164107
-0.0120615
0.0185268
-0.011275
0.020705
-0.00987133
0.022894
-0.00775309
0.0250305
-0.00482039
0.0270292
-0.000975742
0.0287918
0.00387182
0.030209
0.00980924
0.0311652
0.016914
0.0315544
0.0313177
0.0253049
-0.000217718
-0.000324548
-0.000718097
-0.000264474
-0.00139511
0.000322066
-0.00217009
0.00127817
-0.002986
0.0024672
-0.00379925
0.00378473
-0.00457156
0.00516107
-0.00526321
0.00655853
-0.00582838
0.00796491
-0.00621273
0.0093844
-0.00635293
0.010828
-0.00617732
0.0123056
-0.00560666
0.013819
-0.00455603
0.01536
-0.00293536
0.0169061
-0.000651351
0.018421
0.00238778
0.0198549
0.00627904
0.0211392
0.0111116
0.0221966
0.0169678
0.0229356
0.0239221
0.0232546
0.0320406
0.0230468
0.041359
0.022236
0.020571
0.0521057
-0.000176794
-0.000147754
-0.000571506
0.000130238
-0.0010795
0.000830063
-0.0016185
0.00181717
-0.00212575
0.00297446
-0.00255154
0.00421053
-0.00285188
0.0054614
-0.00298202
0.00668867
-0.00289174
0.00787463
-0.00252255
0.00901521
-0.0018073
0.0101128
-0.000670561
0.0111688
0.000969228
0.0121792
0.00319937
0.0131299
0.00610934
0.0139962
0.00978924
0.014741
0.0143289
0.0153153
0.0198108
0.0156573
0.0263123
0.0156951
0.0339009
0.015347
0.0426293
0.0145262
0.0525624
0.0131136
0.0636555
0.011143
0.0078999
0.0763266
-0.000149125
1.37053e-06
-0.000465923
0.000447036
-0.000842273
0.00120641
-0.00118918
0.00216407
-0.00143626
0.00322154
-0.00152633
0.0043006
-0.00140895
0.00534403
-0.00103453
0.00631425
-0.00034972
0.00718983
0.000705198
0.00796029
0.0021979
0.00862009
0.00420292
0.00916381
0.00680067
0.00958148
0.0100749
0.00985569
0.0141111
0.00995997
0.0189942
0.00985793
0.0248064
0.00950307
0.0316247
0.00883906
0.0395203
0.00779954
0.048558
0.00630932
0.0587806
0.00430359
0.0702843
0.00160995
0.0829183
-0.00149111
-0.00653966
0.0973579
-0.000139103
0.000140473
-0.000415435
0.000723369
-0.00071116
0.00150214
-0.000928021
0.00238093
-0.000986642
0.00328016
-0.000821473
0.00413543
-0.000374923
0.00489748
0.000408008
0.00553132
0.00158434
0.0060135
0.00321594
0.00632869
0.00537074
0.0064653
0.00812301
0.00641153
0.0115524
0.00615206
0.0157426
0.00566551
0.0207796
0.00492298
0.0267502
0.00388733
0.0337403
0.00251299
0.0418317
0.000747602
0.0511063
-0.00147506
0.061641
-0.00422534
0.0734777
-0.0075331
0.0867746
-0.011687
0.101241
-0.0159573
-0.0229924
0.117694
-0.000144915
0.000285388
-0.000413681
0.000992135
-0.000673395
0.00176185
-0.000814412
0.00252195
-0.000747029
0.00321278
-0.000395891
0.00378429
0.000305883
0.0041957
0.00142208
0.00441512
0.00301773
0.00441784
0.00516232
0.00418411
0.0079315
0.00369611
0.0114078
0.00293523
0.0156802
0.00187966
0.0208429
0.000502832
0.0269941
-0.00122824
0.0342333
-0.00335185
0.0426582
-0.00591195
0.0523632
-0.00895737
0.0634266
-0.0125385
0.07592
-0.0167187
0.0898605
-0.0214737
0.105337
-0.0271637
0.12205
-0.0326702
-0.0414282
0.140486
-0.000158239
0.000443627
-0.000433387
0.00126728
-0.000674031
0.0020025
-0.000756938
0.00260486
-0.000579479
0.00303532
-5.26751e-05
0.00325749
0.000905012
0.00323801
0.00237358
0.00294655
0.00443562
0.0023558
0.00717912
0.00144061
0.0106993
0.000175913
0.0150983
-0.00146371
0.0204832
-0.00350525
0.0269634
-0.0059774
0.0346453
-0.00891013
0.0436269
-0.0123335
0.0539908
-0.0162758
0.0657958
-0.0207624
0.0790663
-0.025809
0.0937841
-0.0314365
0.109879
-0.0375681
0.127199
-0.044484
0.145576
-0.0510473
-0.0605005
0.164648
-0.000166273
0.000609901
-0.000432828
0.00153384
-0.000628597
0.00219827
-0.000613881
0.00259014
-0.000268389
0.00268983
0.000516945
0.00247215
0.00184708
0.00190788
0.00382742
0.000966207
0.00656816
-0.000384941
0.0101831
-0.00217438
0.0147909
-0.00443187
0.0205091
-0.00718184
0.0274484
-0.0104446
0.0357051
-0.0142341
0.0453515
-0.0185565
0.0564264
-0.0234084
0.0689264
-0.0287758
0.0827979
-0.0346338
0.0979297
-0.0409408
0.114148
-0.0476548
0.131236
-0.0546566
0.1488
-0.0620478
0.16679
-0.069037
-0.0777453
0.184035
-0.00015604
0.000765941
-0.000369374
0.00174717
-0.000450229
0.00227912
-0.000239061
0.00237897
0.000407444
0.00204332
0.00162549
0.0012541
0.00354992
-1.65519e-05
0.00631536
-0.00179923
0.0100575
-0.00412704
0.0149086
-0.00702553
0.0209885
-0.0105117
0.0283958
-0.0145891
0.0371964
-0.0192453
0.0474126
-0.0244503
0.0590133
-0.0301572
0.0719077
-0.0363028
0.0859418
-0.04281
0.100901
-0.0495927
0.116511
-0.0565513
0.132462
-0.0636056
0.148415
-0.0706101
0.163978
-0.0776107
0.179051
-0.0841097
-0.0910981
0.192404
-0.000119251
-0.000214483
-7.94664e-05
0.000466485
0.00159377
0.00346736
0.00624788
0.0100911
0.0151369
0.0215001
0.0292557
0.0384254
0.048967
0.0607679
0.0736449
0.0873495
0.10158
0.115996
0.130241
0.143967
0.156854
0.168683
0.179383
0.189093
-0.0191101
0.062436
-0.0682042
-0.012037
0.0628612
-0.0699343
-0.00372499
0.0605287
-0.0688408
0.00571053
0.0550061
-0.0644416
0.0160365
0.0459064
-0.0562324
0.0269
0.0329749
-0.0438384
0.0380124
0.0161971
-0.0273095
0.0489804
-0.00429969
-0.00666836
0.059796
-0.0280952
0.0172797
0.0702346
-0.0544757
0.044037
0.0801813
-0.0817534
0.0718067
0.0892571
-0.107321
0.0982448
0.0968439
-0.12828
0.120694
0.102365
-0.142665
0.137144
0.105513
-0.150172
0.147024
0.106009
-0.152064
0.151568
0.103341
-0.15124
0.153909
0.0975573
-0.151563
0.157347
0.0905557
-0.15429
0.161292
0.0859384
-0.154094
0.158711
0.0868275
-0.140355
0.139466
0.093715
-0.10496
0.0980722
0.104917
-0.0493408
0.0381388
0.11789
0.0161434
-0.0291164
0.13032
0.0782567
-0.0906871
0.140307
0.126702
-0.136689
0.146951
0.158395
-0.165039
0.1506
0.17533
-0.178978
0.151733
0.182165
-0.183299
0.149831
0.1875
-0.185597
0.1444
0.19928
-0.193848
0.137016
0.214005
-0.206621
0.131221
0.210301
-0.204506
0.12993
0.167712
-0.166421
0.133562
0.0837653
-0.0873969
0.140289
-0.0165795
0.00985198
0.147604
-0.106428
0.0991125
0.153743
-0.166995
0.160856
0.157333
-0.198396
0.194806
0.156724
-0.214817
0.215427
0.151055
-0.226886
0.232554
0.142394
-0.240473
0.249134
0.135182
-0.222467
0.229679
0.133371
-0.168148
0.169958
0.137349
-0.0616431
0.057666
0.144756
0.0439026
-0.0513103
0.150984
0.135376
-0.141604
0.151968
0.204907
-0.205891
0.147337
0.246164
-0.241533
0.141179
0.288368
-0.28221
0.138416
0.231202
-0.228439
0.141267
0.164595
-0.167446
0.145873
0.0169652
-0.0215714
0.147685
-0.0981298
0.0963187
0.145784
-0.186452
0.188353
0.143215
-0.319243
0.321812
0.142235
-0.244128
0.245109
0.14191
-0.260392
0.260717
0.140567
-0.0497535
0.051097
0.156569
-0.154611
0.00582191
0.0550225
0.0141089
0.0545742
0.0231876
0.05145
0.0328811
0.0453127
0.042904
0.0358835
0.0529412
0.0229377
0.0627537
0.00638459
0.0720988
-0.0136448
0.0809458
-0.0369422
0.0892118
-0.0627417
0.0967376
-0.0892793
0.103141
-0.113724
0.107889
-0.133028
0.110547
-0.145323
0.111046
-0.150671
0.109521
-0.15054
0.105654
-0.147374
0.0988887
-0.144798
0.0900535
-0.145455
0.0823716
-0.146412
0.079944
-0.137928
0.0847286
-0.109744
0.0955748
-0.0601869
0.109701
0.00201765
0.124047
0.06391
0.136235
0.114514
0.145093
0.149537
0.15074
0.169682
0.153418
0.179487
0.152663
0.188254
0.148369
0.203574
0.142282
0.220092
0.137473
0.21511
0.136325
0.16886
0.139104
0.0809857
0.1444
-0.0218746
0.149979
-0.112008
0.154381
-0.171396
0.156593
-0.200608
0.155193
-0.213417
0.149075
-0.220767
0.140006
-0.231404
0.132495
-0.214956
0.130891
-0.166544
0.135691
-0.0664434
0.144064
0.0355297
0.15105
0.128391
0.152464
0.203493
0.1482
0.250428
0.142163
0.294405
0.13922
0.234145
0.141899
0.161915
0.146457
0.0124079
0.148324
-0.0999967
0.146186
-0.184314
0.14344
-0.316498
0.142332
-0.24302
0.141791
-0.259851
0.140293
-0.048255
0.158583
0.0333839
0.0469435
0.0421081
0.04585
0.0512427
0.0423155
0.0605518
0.0360036
0.0697605
0.0266747
0.0785994
0.0140988
0.0869228
-0.00193879
0.0945532
-0.0212752
0.10145
-0.0438395
0.107545
-0.0688358
0.112623
-0.0943575
0.116303
-0.117405
0.118192
-0.134916
0.118079
-0.14521
0.116105
-0.148697
0.112698
-0.147133
0.107872
-0.142548
0.100801
-0.137727
0.0912029
-0.135857
0.08131
-0.136519
0.0755873
-0.132205
0.0775735
-0.111731
0.0872162
-0.0698296
0.101829
-0.0125948
0.117647
0.0480917
0.131842
0.100319
0.142898
0.138481
0.150598
0.161982
0.154942
0.175143
0.155581
0.187615
0.152739
0.206416
0.148107
0.224724
0.144258
0.218959
0.143017
0.170101
0.144726
0.0792771
0.148422
-0.0255704
0.152212
-0.115798
0.154883
-0.174067
0.155758
-0.201484
0.153693
-0.211352
0.147347
-0.214421
0.13806
-0.222117
0.13029
-0.207186
0.128771
-0.165024
0.134208
-0.0718806
0.143403
0.026335
0.15113
0.120664
0.153061
0.201561
0.149271
0.254218
0.143405
0.300271
0.140244
0.237307
0.142679
0.15948
0.147154
0.00793302
0.149089
-0.101931
0.1467
-0.181926
0.143725
-0.313523
0.142506
-0.241801
0.141805
-0.25915
0.140189
-0.0466394
0.160639
0.0603689
0.0386802
0.0689986
0.0372203
0.0777554
0.0335586
0.0863763
0.0273828
0.0946221
0.0184289
0.102221
0.00649965
0.109219
-0.00893693
0.115336
-0.0273918
0.120529
-0.0490327
0.124647
-0.0729536
0.12739
-0.0971002
0.128383
-0.118398
0.127423
-0.133957
0.124646
-0.142432
0.120437
-0.144489
0.11535
-0.142046
0.109714
-0.136911
0.102836
-0.13085
0.0935671
-0.126587
0.0826926
-0.125645
0.0741565
-0.123669
0.0727753
-0.110349
0.0802608
-0.0773151
0.0943503
-0.0266843
0.111139
0.0313029
0.127077
0.0843814
0.14026
0.125298
0.150035
0.152207
0.156163
0.169015
0.158435
0.185344
0.157297
0.207553
0.154258
0.227764
0.151299
0.221917
0.14984
0.17156
0.150272
0.0788447
0.152267
-0.0275656
0.154268
-0.117799
0.155255
-0.175054
0.154828
-0.201057
0.152178
-0.208703
0.145795
-0.208037
0.136495
-0.212818
0.128527
-0.199218
0.126956
-0.163453
0.132839
-0.077764
0.142721
0.0164531
0.15119
0.112195
0.153743
0.199008
0.150547
0.257414
0.144923
0.305895
0.141519
0.24071
0.143625
0.157374
0.147947
0.00361084
0.149965
-0.103949
0.147322
-0.179283
0.144064
-0.310265
0.142747
-0.240484
0.141938
-0.258341
0.140245
-0.0449468
0.162719
0.0844816
0.0305253
0.0927339
0.0289681
0.100921
0.0253714
0.108797
0.0195066
0.116121
0.0111052
0.122944
-0.000323792
0.128848
-0.0148407
0.133807
-0.0323503
0.137604
-0.05283
0.139933
-0.075282
0.140401
-0.0975688
0.138744
-0.11674
0.135061
-0.130275
0.12986
-0.137231
0.12378
-0.138409
0.117381
-0.135646
0.111076
-0.130606
0.104536
-0.12431
0.096356
-0.118408
0.0858668
-0.115155
0.0756186
-0.113421
0.0708029
-0.105534
0.0751092
-0.0816213
0.087637
-0.0392121
0.104637
0.0143026
0.121903
0.0671153
0.137027
0.110174
0.148827
0.140407
0.156827
0.161015
0.160934
0.181237
0.161714
0.206773
0.160394
0.229083
0.158326
0.223985
0.15652
0.173366
0.155613
0.0797521
0.155841
-0.027794
0.156087
-0.118044
0.155462
-0.174428
0.153781
-0.199376
0.150611
-0.205533
0.144349
-0.201774
0.135237
-0.203707
0.127154
-0.191135
0.125401
-0.1617
0.13152
-0.0838828
0.141959
0.00601438
0.151179
0.102975
0.154473
0.195714
0.152009
0.259878
0.146709
0.311195
0.143054
0.244366
0.144738
0.15569
0.148829
-0.000479521
0.150934
-0.106054
0.148041
-0.17639
0.14445
-0.306674
0.143044
-0.239078
0.142176
-0.257473
0.140448
-0.0432188
0.164803
0.105172
0.0227111
0.112951
0.0211894
0.120592
0.0177301
0.127875
0.0122235
0.134508
0.00447227
0.140709
-0.0065247
0.145791
-0.0199224
0.149754
-0.0363139
0.152228
-0.0553036
0.152771
-0.0758256
0.150993
-0.0957904
0.146833
-0.112581
0.14073
-0.124171
0.133497
-0.129998
0.125973
-0.130885
0.118698
-0.128371
0.111967
-0.123875
0.105719
-0.118062
0.0988639
-0.111553
0.0898713
-0.106163
0.0794224
-0.102972
0.0718573
-0.0979686
0.0723218
-0.0820859
0.0820644
-0.0489547
0.0983254
-0.00195847
0.116311
0.0491294
0.133044
0.0934418
0.146728
0.126723
0.156627
0.151117
0.162711
0.175153
0.165577
0.203907
0.166093
0.228568
0.164967
0.225111
0.162825
0.175508
0.160563
0.0820146
0.159041
-0.0262721
0.157596
-0.116599
0.155459
-0.172292
0.152588
-0.196506
0.14894
-0.201884
0.142919
-0.195754
0.134181
-0.194968
0.126084
-0.183038
0.12404
-0.159656
0.130183
-0.0900257
0.141043
-0.00484526
0.151031
0.0929865
0.155194
0.191551
0.153611
0.26146
0.148735
0.316071
0.144842
0.248259
0.146001
0.15453
0.149791
-0.00426989
0.151973
-0.108235
0.148845
-0.173262
0.144876
-0.302706
0.143388
-0.23759
0.142504
-0.256589
0.140783
-0.0414978
0.166866
0.124615
0.0157897
0.131618
0.0141868
0.138537
0.0108111
0.144989
0.00577106
0.151219
-0.00175809
0.156435
-0.0117407
0.160609
-0.0240957
0.163353
-0.0390583
0.164232
-0.056182
0.162776
-0.0743699
0.158719
-0.0917331
0.152273
-0.106136
0.144177
-0.116075
0.135433
-0.121254
0.126943
-0.122395
0.119205
-0.120633
0.112343
-0.117012
0.106334
-0.112054
0.100606
-0.105824
0.09361
-0.0991668
0.084458
-0.0938198
0.0755877
-0.0890983
0.072319
-0.0788172
0.0783202
-0.0549559
0.0924061
-0.0160444
0.110361
0.0311749
0.128206
0.0755964
0.14353
0.111399
0.155279
0.139369
0.163409
0.167022
0.168468
0.198848
0.170909
0.226126
0.170833
0.225187
0.168494
0.177847
0.164938
0.0855708
0.161764
-0.0230987
0.158715
-0.11355
0.155194
-0.168771
0.151215
-0.192526
0.147115
-0.197784
0.141418
-0.190057
0.133211
-0.186761
0.125212
-0.175039
0.122797
-0.157241
0.12876
-0.0959881
0.139898
-0.015984
0.150669
0.0822162
0.155834
0.186386
0.155289
0.262005
0.150947
0.320413
0.146857
0.252349
0.14741
0.153977
0.150804
-0.00766367
0.153055
-0.110486
0.149716
-0.169923
0.145337
-0.298327
0.143769
-0.236022
0.142907
-0.255727
0.141235
-0.0398266
0.168875
0.145674
0.0106012
0.151226
0.00863524
0.156827
0.00520983
0.161941
0.000657203
0.166858
-0.00667489
0.170668
-0.0155512
0.173291
-0.0267184
0.174242
-0.0400092
0.173071
-0.0550114
0.169395
-0.0706933
0.16316
-0.085498
0.154834
-0.0978102
0.145332
-0.106573
0.135692
-0.111613
0.126737
-0.113441
0.118887
-0.112782
0.112152
-0.110277
0.106413
-0.106315
0.101446
-0.100858
0.0962664
-0.0939869
0.0893393
-0.0868926
0.0809741
-0.0807331
0.0751213
-0.0729644
0.0768479
-0.0566825
0.0875292
-0.0267257
0.104243
0.014461
0.122478
0.057361
0.139084
0.0947932
0.152556
0.125896
0.16272
0.156858
0.169984
0.191584
0.174395
0.221715
0.175454
0.224128
0.173098
0.180203
0.168562
0.0901076
0.163891
-0.0184286
0.159359
-0.109017
0.154604
-0.164016
0.149618
-0.18754
0.14508
-0.193247
0.139753
-0.184729
0.132205
-0.179213
0.124417
-0.167251
0.121585
-0.15441
0.127179
-0.101582
0.138455
-0.02726
0.150008
0.0706632
0.156303
0.180092
0.156951
0.261357
0.153274
0.32409
0.14905
0.256572
0.148943
0.154085
0.151842
-0.0105627
0.154151
-0.112795
0.150633
-0.166406
0.145822
-0.293515
0.144179
-0.234379
0.143368
-0.254915
0.141789
-0.0382475
0.170796
0.167603
0.00764673
0.171092
0.00514581
0.174429
0.00187329
0.17796
-0.00287409
0.180483
-0.00919829
0.182199
-0.017267
0.182608
-0.0271267
0.181286
-0.0386881
0.177842
-0.051567
0.17205
-0.064901
0.164066
-0.0775148
0.154509
-0.0882524
0.144304
-0.0963685
0.134385
-0.101694
0.125419
-0.104475
0.117716
-0.105079
0.111259
-0.10382
0.105863
-0.100919
0.101399
-0.0963934
0.0974795
-0.0900678
0.0928591
-0.0822722
0.0864586
-0.0743327
0.0799504
-0.0664561
0.0780215
-0.0547536
0.0843497
-0.0330539
0.0983771
0.000433564
0.115951
0.0397868
0.13329
0.0774543
0.148255
0.110932
0.16039
0.144724
0.169913
0.182061
0.176378
0.21525
0.178635
0.221871
0.176403
0.182435
0.171168
0.0953432
0.16528
-0.0125409
0.159421
-0.103158
0.15359
-0.158186
0.147725
-0.181675
0.142762
-0.188284
0.137825
-0.179792
0.131049
-0.172437
0.123576
-0.159778
0.120308
-0.151142
0.125383
-0.106657
0.136645
-0.0385216
0.148964
0.0583437
0.156504
0.172553
0.158501
0.25936
0.155621
0.326971
0.15136
0.260833
0.150563
0.154882
0.152878
-0.0128776
0.155226
-0.115143
0.151574
-0.162754
0.146325
-0.288266
0.144613
-0.232667
0.143874
-0.254176
0.14243
-0.0368034
0.172589
0.18505
0.00663196
0.186511
0.00368477
0.187796
0.000588186
0.188721
-0.00379981
0.189033
-0.00950941
0.188464
-0.0166981
0.186609
-0.0252721
0.183137
-0.0352164
0.177772
-0.0462017
0.170455
-0.0575842
0.161473
-0.0685328
0.151457
-0.0782363
0.141221
-0.0861322
0.131515
-0.0919877
0.122845
-0.0958051
0.115439
-0.0976738
0.109302
-0.0976828
0.104285
-0.0959024
0.100246
-0.0923539
0.0970937
-0.0869156
0.0942452
-0.0794237
0.0903745
-0.0704619
0.0851594
-0.061241
0.0813908
-0.050985
0.0835214
-0.0351845
0.0935581
-0.00960313
0.109056
0.0242892
0.126231
0.0602795
0.142278
0.0948846
0.156208
0.130794
0.167858
0.170411
0.176344
0.206763
0.179996
0.218219
0.178197
0.184233
0.172674
0.100867
0.16589
-0.00575683
0.158854
-0.0961221
0.15208
-0.151412
0.145484
-0.175078
0.140112
-0.182911
0.135552
-0.175233
0.12965
-0.166535
0.122603
-0.152731
0.118883
-0.147423
0.123309
-0.111083
0.134412
-0.0496252
0.14746
0.0452962
0.156333
0.16368
0.159807
0.255885
0.157875
0.328903
0.153701
0.265006
0.152237
0.156346
0.153886
-0.0145264
0.156245
-0.117502
0.152516
-0.159025
0.146842
-0.282592
0.145067
-0.230892
0.144409
-0.253518
0.143144
-0.035538
0.174209
0.192609
0.00642673
0.192636
0.00365813
0.192244
0.000979945
0.191481
-0.00303662
0.190139
-0.00816771
0.187892
-0.0144512
0.18447
-0.0218499
0.17963
-0.0303769
0.173226
-0.0397973
0.165314
-0.0496725
0.156216
-0.0594348
0.146484
-0.0685043
0.136764
-0.0764114
0.127621
-0.0828447
0.119437
-0.0876212
0.112397
-0.0906336
0.106539
-0.0918257
0.101811
-0.0911743
0.0980998
-0.0886424
0.0953649
-0.0841807
0.0935151
-0.0775739
0.0917515
-0.0686984
0.0888801
-0.0583696
0.0854673
-0.0475722
0.0848862
-0.0346034
0.0906466
-0.0153636
0.102674
0.0122618
0.118365
0.0445886
0.13475
0.0785
0.150274
0.115269
0.164203
0.156482
0.17495
0.196017
0.179963
0.213205
0.178611
0.185586
0.17321
0.106268
0.165904
0.0015491
0.157881
-0.0880989
0.150259
-0.14379
0.143077
-0.167896
0.137294
-0.177129
0.13301
-0.170948
0.128023
-0.161548
0.121496
-0.146204
0.117313
-0.14324
0.120937
-0.114707
0.131718
-0.0604057
0.145407
0.0316069
0.155711
0.153376
0.160808
0.250788
0.159939
0.329772
0.155995
0.26895
0.153921
0.15842
0.15486
-0.0154653
0.157189
-0.119831
0.153441
-0.155278
0.14738
-0.276531
0.145539
-0.229051
0.144964
-0.252943
0.143919
-0.0344935
0.17561
0.189072
0.0064477
0.188253
0.00447709
0.187435
0.0017987
0.186088
-0.00169028
0.184029
-0.00610834
0.181099
-0.0115213
0.177158
-0.0179092
0.172041
-0.0252592
0.165682
-0.0334384
0.158186
-0.0421774
0.149845
-0.0510935
0.141091
-0.0597501
0.1324
-0.0677203
0.124184
-0.0746287
0.116735
-0.0801721
0.110218
-0.0841172
0.104698
-0.0863054
0.100185
-0.0866613
0.0966411
-0.0850985
0.0940249
-0.0815645
0.0924293
-0.0759783
0.0916958
-0.0679649
0.0908245
-0.0574983
0.0890138
-0.0457615
0.0876833
-0.0332729
0.0899097
-0.01759
0.0979254
0.00424603
0.110665
0.0318491
0.125851
0.063314
0.141755
0.099365
0.157312
0.140925
0.170244
0.183085
0.177073
0.206377
0.177149
0.18551
0.172727
0.110689
0.165507
0.00876878
0.156518
-0.0791098
0.148245
-0.135517
0.140696
-0.160347
0.134532
-0.170965
0.130347
-0.166764
0.126227
-0.157427
0.120285
-0.140262
0.115655
-0.13861
0.118411
-0.117463
0.128698
-0.0706921
0.142828
0.0174767
0.154467
0.141737
0.161258
0.243997
0.161648
0.329382
0.158154
0.272444
0.155567
0.161006
0.155773
-0.015671
0.158029
-0.122087
0.154331
-0.151579
0.147929
-0.270129
0.146
-0.227122
0.145538
-0.25248
0.144748
-0.0337036
0.176743
0.20718
0.00627897
-0.207012
0.207856
0.00380185
0.208463
0.00119182
0.209065
-0.00229257
0.209471
-0.00651439
0.209536
-0.0115864
0.209096
-0.0174692
0.207948
-0.0241114
0.205917
-0.0314066
0.202898
-0.0391586
0.198882
-0.0470781
0.193951
-0.0548181
0.188244
-0.062014
0.181933
-0.0683179
0.175194
-0.0734322
0.168197
-0.0771202
0.161097
-0.0792063
0.154035
-0.0795992
0.147125
-0.0781882
0.140415
-0.0748548
0.133999
-0.0695614
0.128053
-0.0620189
0.122306
-0.0517521
0.115861
-0.0393165
0.1086
-0.0260117
0.102494
-0.0114842
0.0999064
0.006834
0.10179
0.0299654
0.107138
0.0579662
0.114278
0.0922253
0.122296
0.132906
0.130893
0.174488
0.141194
0.196075
0.155069
0.171636
0.169773
0.0959853
0.17887
-0.000328388
0.181023
-0.0812628
0.177317
-0.131811
0.17007
-0.1531
0.161654
-0.16255
0.154058
-0.159167
0.146629
-0.149999
0.137887
-0.131519
0.129609
-0.130333
0.12642
-0.114273
0.128813
-0.0730856
0.133673
0.012617
0.137465
0.137945
0.139714
0.241748
0.141546
0.327551
0.144303
0.269687
0.148338
0.156971
0.152642
-0.0199747
0.155271
-0.124715
0.15172
-0.148029
0.143908
-0.262316
0.139358
-0.222573
0.135749
-0.248872
0.132345
-0.0302996
0.178302
0.21775
0.00602497
-0.217496
0.218117
0.00343504
0.218705
0.000603774
0.219164
-0.00275242
0.219354
-0.00670434
0.219133
-0.0113654
0.218379
-0.0167153
0.216955
-0.0226869
0.214734
-0.0291853
0.211633
-0.0360581
0.207634
-0.0430793
0.202784
-0.0499682
0.197187
-0.0564168
0.190989
-0.0621201
0.184362
-0.0668053
0.177489
-0.0702464
0.170538
-0.0722556
0.163651
-0.0727121
0.156948
-0.0714859
0.150507
-0.0684131
0.144364
-0.0634183
0.138668
-0.0563231
0.133491
-0.0465753
0.128263
-0.0340887
0.122233
-0.0199816
0.115878
-0.00512871
0.11151
0.011202
0.110955
0.03052
0.114581
0.05434
0.121441
0.0853653
0.130281
0.124066
0.140402
0.164367
0.15319
0.183287
0.169502
0.155324
0.185134
0.0803535
0.193997
-0.00919168
0.194766
-0.0820312
0.189677
-0.126722
0.181369
-0.144792
0.172122
-0.153303
0.163931
-0.150976
0.156451
-0.142518
0.147739
-0.122808
0.139004
-0.121598
0.135059
-0.110329
0.13702
-0.0750465
0.142103
0.00753429
0.146529
0.133519
0.149749
0.238528
0.152736
0.324564
0.156344
0.266079
0.160576
0.152738
0.164435
-0.0238332
0.166809
-0.12709
0.162632
-0.143852
0.153817
-0.253501
0.148622
-0.217378
0.144638
-0.244887
0.140987
-0.0266489
0.179893
0.227586
0.00565104
-0.227212
0.227995
0.00302544
0.228413
0.000186267
0.228694