/*--------------------------------*- C++ -*----------------------------------*\
| =========                 |                                                 |
| \\      /  F ield         | OpenFOAM: The Open Source CFD Toolbox           |
|  \\    /   O peration     | Version:  2512                                  |
|   \\  /    A nd           | Website:  www.openfoam.com                      |
|    \\/     M anipulation  |                                                 |
\*---------------------------------------------------------------------------*/
FoamFile
{
    version     2.0;
    format      ascii;
    arch        "LSB;label=32;scalar=64";
    class       volScalarField;
    location    "120.5";
    object      p;
}
// * * * * * * * * * * * * * * * * * * * * * * * * * * * * * * * * * * * * * //

dimensions      [0 2 -2 0 0 0 0];

internalField   nonuniform List<scalar> 
13248
(
-0.379407
-0.377537
-0.374458
-0.370457
-0.365939
-0.361325
-0.357006
-0.353312
-0.350473
-0.348595
-0.347646
-0.34745
-0.347709
-0.348037
-0.348005
-0.34719
-0.345229
-0.341851
-0.336887
-0.330305
-0.321976
-0.312116
-0.299506
-0.285088
-0.388007
-0.385413
-0.381758
-0.37733
-0.372483
-0.367598
-0.362996
-0.358915
-0.355477
-0.352682
-0.350401
-0.348399
-0.346369
-0.343978
-0.340913
-0.336919
-0.331825
-0.325548
-0.318073
-0.309419
-0.299596
-0.288637
-0.27627
-0.263383
-0.398947
-0.395324
-0.390907
-0.385937
-0.380669
-0.37541
-0.370381
-0.365688
-0.36133
-0.357202
-0.353127
-0.348879
-0.344233
-0.338994
-0.333024
-0.326252
-0.318669
-0.310303
-0.301197
-0.291397
-0.280898
-0.269784
-0.257856
-0.245763
-0.412104
-0.407211
-0.401871
-0.396234
-0.390407
-0.384587
-0.378856
-0.373174
-0.367425
-0.36146
-0.355128
-0.348308
-0.340927
-0.332967
-0.324454
-0.315444
-0.306001
-0.296182
-0.286028
-0.275562
-0.264794
-0.253777
-0.242417
-0.23132
-0.427341
-0.421007
-0.414622
-0.408196
-0.401628
-0.394961
-0.388119
-0.380937
-0.373251
-0.364956
-0.356026
-0.34651
-0.33651
-0.32615
-0.315554
-0.304822
-0.294023
-0.283193
-0.272345
-0.261479
-0.250591
-0.239698
-0.228748
-0.218112
-0.444499
-0.436622
-0.429116
-0.421774
-0.414214
-0.406292
-0.397794
-0.388503
-0.378317
-0.367287
-0.355579
-0.343424
-0.331053
-0.318664
-0.3064
-0.294343
-0.282528
-0.270957
-0.259612
-0.248469
-0.23751
-0.226724
-0.216084
-0.205822
-0.463333
-0.453879
-0.445201
-0.43678
-0.427875
-0.418152
-0.407341
-0.395308
-0.382145
-0.368135
-0.353649
-0.339046
-0.324614
-0.310549
-0.296953
-0.283863
-0.27127
-0.259137
-0.247424
-0.236086
-0.225088
-0.2144
-0.204006
-0.193989
-0.48343
-0.472429
-0.462534
-0.452796
-0.442063
-0.429881
-0.416072
-0.400746
-0.384292
-0.367246
-0.350127
-0.333344
-0.317162
-0.301718
-0.287052
-0.273141
-0.259936
-0.247371
-0.235383
-0.223912
-0.212909
-0.202331
-0.192164
-0.182376
-0.504148
-0.491693
-0.480512
-0.469116
-0.455964
-0.440626
-0.423214
-0.404226
-0.384385
-0.364426
-0.344928
-0.326264
-0.308622
-0.292051
-0.276523
-0.261963
-0.248285
-0.235399
-0.223223
-0.211683
-0.200718
-0.190278
-0.180331
-0.170767
-0.524586
-0.510824
-0.498237
-0.484741
-0.468527
-0.449411
-0.427988
-0.405216
-0.38211
-0.359504
-0.337941
-0.317699
-0.298856
-0.281377
-0.265166
-0.250105
-0.236079
-0.222975
-0.210697
-0.199156
-0.188279
-0.178009
-0.168285
-0.158966
-0.543613
-0.528708
-0.514528
-0.498419
-0.478531
-0.455179
-0.429578
-0.40313
-0.377038
-0.352126
-0.32883
-0.307296
-0.287494
-0.269306
-0.252582
-0.237168
-0.222921
-0.209712
-0.197428
-0.185968
-0.175248
-0.165199
-0.155721
-0.146689
-0.559968
-0.544118
-0.528124
-0.50887
-0.484768
-0.45687
-0.427081
-0.397175
-0.368427
-0.341561
-0.316857
-0.294317
-0.273802
-0.255122
-0.238077
-0.22248
-0.208166
-0.194988
-0.18282
-0.17155
-0.161089
-0.151349
-0.142207
-0.133599
-0.348718
-0.349974
-0.350708
-0.35123
-0.351887
-0.352859
-0.354247
-0.356111
-0.358484
-0.36139
-0.364854
-0.368905
-0.373572
-0.378876
-0.384822
-0.391383
-0.398495
-0.406039
-0.413838
-0.421651
-0.429139
-0.435907
-0.441508
-0.445619
-0.353368
-0.353715
-0.353907
-0.354107
-0.354555
-0.355431
-0.356861
-0.358924
-0.361673
-0.365156
-0.369423
-0.374526
-0.380521
-0.387449
-0.395328
-0.404137
-0.413799
-0.424161
-0.434984
-0.446036
-0.456719
-0.466584
-0.474945
-0.481221
-0.357697
-0.357164
-0.356801
-0.35663
-0.356789
-0.357461
-0.358793
-0.360883
-0.363805
-0.367622
-0.3724
-0.378206
-0.385105
-0.393145
-0.402346
-0.41268
-0.424053
-0.436286
-0.449099
-0.462106
-0.474776
-0.486474
-0.49639
-0.50357
-0.361267
-0.359974
-0.359078
-0.358491
-0.358265
-0.35859
-0.359635
-0.361524
-0.364352
-0.368195
-0.373129
-0.379223
-0.386541
-0.395128
-0.404991
-0.416089
-0.428303
-0.441427
-0.455146
-0.469022
-0.482487
-0.494797
-0.505248
-0.512131
-0.363839
-0.361983
-0.360618
-0.359582
-0.358874
-0.358694
-0.359244
-0.360679
-0.363118
-0.366658
-0.371379
-0.37735
-0.384626
-0.393239
-0.403179
-0.414381
-0.426704
-0.439914
-0.453667
-0.467482
-0.480768
-0.492642
-0.502792
-0.508344
-0.365378
-0.363205
-0.361467
-0.359972
-0.358701
-0.357877
-0.35774
-0.358484
-0.360264
-0.363202
-0.367388
-0.372893
-0.379761
-0.388006
-0.397597
-0.408443
-0.420376
-0.433125
-0.446304
-0.45939
-0.471834
-0.482417
-0.491433
-0.494686
-0.366051
-0.363815
-0.361816
-0.359874
-0.357996
-0.356435
-0.355474
-0.355358
-0.356285
-0.358409
-0.36184
-0.366652
-0.372885
-0.380531
-0.389536
-0.399769
-0.411017
-0.422971
-0.435201
-0.447055
-0.458025
-0.466592
-0.473589
-0.473799
-0.366211
-0.364129
-0.361967
-0.359609
-0.357121
-0.354798
-0.352968
-0.351928
-0.351925
-0.353152
-0.355745
-0.359785
-0.365304
-0.372266
-0.38058
-0.39007
-0.40045
-0.411308
-0.422135
-0.432185
-0.440962
-0.446821
-0.450834
-0.447623
-0.366369
-0.364569
-0.36231
-0.359574
-0.356517
-0.353479
-0.350834
-0.348927
-0.348054
-0.348443
-0.350251
-0.35356
-0.358382
-0.364649
-0.372188
-0.380729
-0.389888
-0.399158
-0.407951
-0.415492
-0.421287
-0.423905
-0.42428
-0.417767
-0.367153
-0.36564
-0.363296
-0.360218
-0.356667
-0.353026
-0.349707
-0.347095
-0.345516
-0.345221
-0.346369
-0.349027
-0.353151
-0.35859
-0.365079
-0.372235
-0.379568
-0.386508
-0.392446
-0.39674
-0.399003
-0.398319
-0.39537
-0.386426
-0.369224
-0.367875
-0.365394
-0.362001
-0.358045
-0.353945
-0.350134
-0.347012
-0.344914
-0.344081
-0.344644
-0.34661
-0.349856
-0.354132
-0.359063
-0.364172
-0.368913
-0.372723
-0.375073
-0.375576
-0.374042
-0.370304
-0.365038
-0.35542
-0.373178
-0.371739
-0.369018
-0.365314
-0.361031
-0.356604
-0.352463
-0.348993
-0.3465
-0.345178
-0.345092
-0.346162
-0.34817
-0.350769
-0.353515
-0.355905
-0.357428
-0.357628
-0.356131
-0.352769
-0.347411
-0.340434
-0.332272
-0.322818
-0.448826
-0.446576
-0.438202
-0.422637
-0.399461
-0.369397
-0.334318
-0.297035
-0.260451
-0.227945
-0.202446
-0.18615
-0.180428
-0.185155
-0.197684
-0.212512
-0.222346
-0.220623
-0.204587
-0.177309
-0.146186
-0.118506
-0.0985135
-0.0873039
-0.0839692
-0.0873259
-0.0979637
-0.117443
-0.143021
-0.164709
-0.171541
-0.15615
-0.1302
-0.103209
-0.0824165
-0.0697213
-0.063683
-0.064147
-0.0730201
-0.0872853
-0.0970689
-0.0945091
-0.0819562
-0.0680453
-0.0576216
-0.0515779
-0.0516731
-0.0569961
-0.0614622
-0.0602802
-0.0537997
-0.0471514
-0.040081
-0.0340774
-0.0315583
-0.0297175
-0.0273637
-0.0252672
-0.0172015
-0.00343368
-0.486967
-0.485659
-0.476475
-0.458871
-0.432303
-0.397494
-0.356537
-0.312536
-0.269065
-0.229591
-0.197047
-0.17355
-0.160399
-0.157958
-0.164638
-0.176038
-0.185457
-0.186127
-0.174902
-0.153816
-0.128952
-0.106748
-0.0913193
-0.0839594
-0.0839245
-0.0903513
-0.10436
-0.127547
-0.156438
-0.17991
-0.185117
-0.167991
-0.138597
-0.108317
-0.0845961
-0.0693527
-0.0610419
-0.059091
-0.0651925
-0.0769494
-0.0855935
-0.0837522
-0.073705
-0.0627834
-0.0552558
-0.0516888
-0.054348
-0.0622897
-0.0681709
-0.0667268
-0.0585303
-0.0499784
-0.0409409
-0.0329891
-0.0289927
-0.0256721
-0.0234997
-0.0216882
-0.014959
-0.00310657
-0.511138
-0.510668
-0.500897
-0.481831
-0.452862
-0.414596
-0.369232
-0.320098
-0.271039
-0.225834
-0.187496
-0.158013
-0.138505
-0.129393
-0.129973
-0.137209
-0.145524
-0.148589
-0.141938
-0.12719
-0.108793
-0.0923238
-0.0817318
-0.0784062
-0.0817241
-0.0911696
-0.108282
-0.134648
-0.16627
-0.191287
-0.19597
-0.177262
-0.145145
-0.11213
-0.0859138
-0.0684197
-0.0580555
-0.0538744
-0.0573043
-0.0665765
-0.0740956
-0.0728979
-0.0652564
-0.0571721
-0.0524768
-0.0514302
-0.0567536
-0.0674132
-0.0747817
-0.0729584
-0.0630665
-0.0525337
-0.0416215
-0.0318733
-0.0265093
-0.0217135
-0.0196595
-0.0180816
-0.012707
-0.00278307
-0.520383
-0.520392
-0.510722
-0.491201
-0.461099
-0.420975
-0.373094
-0.320879
-0.268315
-0.219253
-0.176684
-0.142487
-0.117666
-0.102653
-0.0971869
-0.0995179
-0.105583
-0.109819
-0.107479
-0.0987244
-0.0865448
-0.0757272
-0.0699504
-0.0705399
-0.0769921
-0.0891075
-0.108787
-0.137717
-0.171653
-0.198297
-0.203328
-0.183698
-0.149664
-0.114568
-0.0863933
-0.0670381
-0.0548954
-0.0487353
-0.049695
-0.0565721
-0.0629517
-0.0623093
-0.0568123
-0.0513195
-0.0493164
-0.0507443
-0.0587426
-0.0721705
-0.0811359
-0.0798324
-0.0673616
-0.0547847
-0.0421029
-0.0307299
-0.0241302
-0.0178762
-0.0158813
-0.0144823
-0.0104649
-0.00246795
-0.515793
-0.515265
-0.506194
-0.487439
-0.457582
-0.417351
-0.369198
-0.316428
-0.262842
-0.212142
-0.167184
-0.129713
-0.100639
-0.0804379
-0.0692032
-0.0661461
-0.0687359
-0.0727816
-0.0736956
-0.069734
-0.0631163
-0.0575196
-0.0561752
-0.060279
-0.0694567
-0.0837678
-0.105426
-0.136313
-0.172215
-0.200561
-0.206719
-0.187132
-0.152127
-0.11569
-0.086126
-0.0653306
-0.0517209
-0.0438733
-0.0426105
-0.0472402
-0.0524941
-0.0525454
-0.0485544
-0.0453301
-0.045792
-0.0495626
-0.0601705
-0.0763597
-0.0869832
-0.086034
-0.0713197
-0.0567046
-0.0423742
-0.0295576
-0.0218718
-0.0141915
-0.0122007
-0.0109232
-0.00825034
-0.00216584
-0.499563
-0.497378
-0.489211
-0.472128
-0.443727
-0.405097
-0.358857
-0.307977
-0.25584
-0.205792
-0.16042
-0.121309
-0.0892736
-0.0647956
-0.0482382
-0.0395646
-0.0376096
-0.0396676
-0.0419666
-0.041528
-0.0395623
-0.0384196
-0.0407979
-0.0478323
-0.0592357
-0.0752447
-0.0982835
-0.13049
-0.167925
-0.19803
-0.20595
-0.187484
-0.152535
-0.115573
-0.0852028
-0.0633934
-0.048636
-0.0393994
-0.0362202
-0.0387953
-0.0429349
-0.0430594
-0.0406264
-0.0393048
-0.0419293
-0.0478394
-0.0609114
-0.079781
-0.0920953
-0.0913214
-0.0748613
-0.0582738
-0.0424259
-0.0283503
-0.0197421
-0.010686
-0.00864719
-0.00743403
-0.0060774
-0.00188122
-0.474649
-0.469756
-0.462531
-0.447656
-0.421689
-0.386196
-0.343768
-0.296803
-0.248138
-0.200669
-0.156633
-0.117437
-0.0838484
-0.0563232
-0.0353169
-0.0212665
-0.0140867
-0.0125281
-0.0140083
-0.0155197
-0.0169054
-0.019181
-0.0244361
-0.0337007
-0.0467483
-0.0639262
-0.0877697
-0.120669
-0.159165
-0.191043
-0.201224
-0.184792
-0.150949
-0.11431
-0.0837089
-0.0612964
-0.0457035
-0.0353682
-0.0305854
-0.0313353
-0.0344253
-0.034494
-0.0332062
-0.0333595
-0.0377817
-0.0455559
-0.0608629
-0.082269
-0.0962956
-0.0958225
-0.0779197
-0.0594757
-0.0422549
-0.0271029
-0.0177362
-0.00737752
-0.00524434
-0.00404118
-0.00395629
-0.00161859
-0.443497
-0.435442
-0.429332
-0.416926
-0.394099
-0.362977
-0.325777
-0.28413
-0.240297
-0.196718
-0.155295
-0.117272
-0.0833994
-0.05415
-0.0299674
-0.0114209
0.000949158
0.00717007
0.00841478
0.00676375
0.00403577
-0.000442755
-0.0076817
-0.0184365
-0.0325318
-0.0503987
-0.074589
-0.10764
-0.146725
-0.180243
-0.192963
-0.179294
-0.14748
-0.111976
-0.0817035
-0.0590798
-0.0429561
-0.0318004
-0.0257238
-0.0248885
-0.0270193
-0.0269612
-0.0264353
-0.0276212
-0.03342
-0.0427307
-0.059965
-0.0836947
-0.0994312
-0.0994996
-0.0804423
-0.0603021
-0.0418704
-0.0258234
-0.0158579
-0.0042747
-0.00200792
-0.000767503
-0.00189395
-0.00138285
-0.408504
-0.398093
-0.393477
-0.383394
-0.36403
-0.338003
-0.306726
-0.271024
-0.23264
-0.193581
-0.155462
-0.11942
-0.0862265
-0.0564174
-0.0304251
-0.0087645
0.00790651
0.0189344
0.0242729
0.0249757
0.0225746
0.0172368
0.00898275
-0.00253481
-0.0171257
-0.0352947
-0.0595419
-0.0924859
-0.131763
-0.166568
-0.181769
-0.171374
-0.142381
-0.108776
-0.0793711
-0.0568916
-0.0405111
-0.0287732
-0.0216741
-0.0194731
-0.0207236
-0.0204862
-0.0203981
-0.0222128
-0.0289347
-0.0393816
-0.0581914
-0.0839857
-0.101414
-0.102347
-0.0824031
-0.0607758
-0.0413084
-0.0245349
-0.0141444
-0.00140049
0.00105357
0.0023683
0.000106006
-0.00117949
-0.373196
-0.362404
-0.359337
-0.350865
-0.334849
-0.313979
-0.28853
-0.25867
-0.225711
-0.19123
-0.156593
-0.122883
-0.0909327
-0.0613679
-0.0346525
-0.0112285
0.00838376
0.023423
0.0331645
0.0375922
0.0376105
0.0330162
0.0249495
0.0133859
-0.00125488
-0.0194668
-0.0436103
-0.0761315
-0.11514
-0.150846
-0.168183
-0.161603
-0.136159
-0.105198
-0.0771627
-0.0550928
-0.0386311
-0.0264586
-0.0185055
-0.0150867
-0.0155318
-0.0151045
-0.0151455
-0.0172194
-0.024396
-0.0356326
-0.0555947
-0.0830887
-0.102199
-0.104585
-0.0837769
-0.0609523
-0.0406174
-0.0232471
-0.0126092
0.00118542
0.00392287
0.00534994
0.00204212
-0.00101506
-0.341567
-0.332839
-0.330545
-0.322644
-0.309617
-0.293448
-0.273289
-0.248893
-0.221134
-0.191141
-0.160021
-0.128802
-0.098386
-0.0694084
-0.0423962
-0.0178874
0.00362246
0.0215498
0.0352245
0.0439678
0.0479933
0.045447
0.0391712
0.0286083
0.0145316
-0.0034002
-0.0273486
-0.0596803
-0.098552
-0.134348
-0.153558
-0.15006
-0.128616
-0.101044
-0.0749019
-0.0534943
-0.0370905
-0.0246463
-0.0159987
-0.0114641
-0.0111755
-0.0107181
-0.010608
-0.0128621
-0.0198922
-0.0314021
-0.0521325
-0.0811792
-0.101787
-0.107887
-0.0843639
-0.0607583
-0.0397159
-0.0218835
-0.0111021
0.00350559
0.00657624
0.00814523
0.00392055
-0.000895654
-0.314245
-0.31027
-0.306709
-0.297727
-0.286475
-0.27355
-0.257468
-0.237719
-0.214691
-0.189072
-0.161678
-0.133363
-0.104968
-0.0772412
-0.0508306
-0.0263172
-0.00419444
0.0150684
0.0309547
0.0429506
0.0498097
0.0529644
0.0494979
0.0409858
0.0282473
0.0111786
-0.0119907
-0.043266
-0.0808141
-0.115779
-0.133631
-0.134324
-0.117429
-0.093724
-0.0700483
-0.0499274
-0.0341203
-0.0219514
-0.0131346
-0.00787437
-0.00697547
-0.00658889
-0.00681944
-0.00902706
-0.0157442
-0.0272399
-0.0480885
-0.0779718
-0.0999051
-0.106245
-0.0836265
-0.0597803
-0.038251
-0.0202399
-0.00936203
0.00587018
0.00911249
0.0107722
0.00572294
-0.000834334
-0.287733
-0.296238
-0.290187
-0.27877
-0.26676
-0.253999
-0.238887
-0.2206
-0.199289
-0.175594
-0.150271
-0.124061
-0.0976678
-0.0717311
-0.046822
-0.0234509
-0.00206752
0.0169497
0.0331883
0.0460394
0.0549004
0.0595585
0.0588112
0.0526569
0.0416452
0.0256684
0.00264245
-0.0302143
-0.0706335
-0.107604
-0.129867
-0.124544
-0.107146
-0.084707
-0.0628045
-0.044266
-0.0295897
-0.0181555
-0.00968694
-0.00429083
-0.00301576
-0.00233324
-0.00224144
-0.00373224
-0.00992483
-0.0213568
-0.0427343
-0.0745052
-0.0986446
-0.106607
-0.0826859
-0.0581346
-0.0363086
-0.0184107
-0.00755818
0.00835747
0.0116779
0.0133971
0.00745636
-0.000851299
-0.260251
-0.272335
-0.267211
-0.25502
-0.242516
-0.230267
-0.216539
-0.200142
-0.181036
-0.159809
-0.137144
-0.113639
-0.0898386
-0.0662687
-0.0434359
-0.021812
-0.00180813
0.0162289
0.0319867
0.0450174
0.0544931
0.0603043
0.0612499
0.0569574
0.0476875
0.0330833
0.0106948
-0.0222736
-0.0622263
-0.0969101
-0.113959
-0.109563
-0.0938049
-0.0741935
-0.0551117
-0.0386631
-0.0253671
-0.0148383
-0.00683449
-0.00143735
6.21202e-05
0.000774387
0.000745011
-0.000338526
-0.00583779
-0.0167595
-0.0381047
-0.0708644
-0.0958915
-0.101568
-0.0803263
-0.0556566
-0.0339988
-0.0163852
-0.00571196
0.0104242
0.0136602
0.0156736
0.00892095
-0.000854477
-0.2352
-0.247487
-0.243816
-0.232462
-0.220406
-0.208972
-0.196671
-0.182167
-0.165227
-0.146322
-0.126059
-0.104947
-0.0834346
-0.0619691
-0.0410079
-0.0209873
-0.00229926
0.0147158
0.0297633
0.0424937
0.0520968
0.0582132
0.0599438
0.0567032
0.0484973
0.0347685
0.0131567
-0.0180047
-0.0538504
-0.0833569
-0.0970998
-0.0937015
-0.0805896
-0.0641356
-0.0477983
-0.033319
-0.0213118
-0.0116338
-0.00414187
0.00116211
0.00284683
0.00359254
0.0035298
0.00260921
-0.00268711
-0.0133805
-0.0344565
-0.0668497
-0.0914879
-0.0973525
-0.0771028
-0.0526734
-0.0314176
-0.0142157
-0.00381275
0.0123584
0.0154992
0.0177521
0.0102551
-0.0008146
-0.212541
-0.223757
-0.221317
-0.2114
-0.200249
-0.189626
-0.178503
-0.165618
-0.150597
-0.133777
-0.115687
-0.0967795
-0.0774313
-0.0580129
-0.0389159
-0.020532
-0.00322975
0.0126659
0.0268481
0.0388831
0.0482354
0.0544207
0.0566431
0.0542018
0.0469157
0.0341991
0.0142622
-0.0133883
-0.043931
-0.068515
-0.0800102
-0.0779062
-0.0676252
-0.0542429
-0.0405659
-0.0280485
-0.0173418
-0.0085267
-0.00160393
0.00353155
0.00537999
0.00625214
0.0062376
0.00547602
0.000331667
-0.0101902
-0.0305502
-0.0617482
-0.0858557
-0.0924164
-0.0729654
-0.0491755
-0.0285492
-0.0118981
-0.00184512
0.0141456
0.0172259
0.0196642
0.0115293
-0.00073459
-0.191169
-0.201533
-0.200033
-0.191523
-0.181449
-0.171708
-0.161678
-0.150265
-0.137024
-0.122157
-0.106104
-0.0892637
-0.0719581
-0.0544938
-0.0372047
-0.0204427
-0.0045549
0.0101407
0.0233228
0.0345755
0.043478
0.049543
0.0520623
0.0503398
0.0440991
0.0328631
0.0155038
-0.00788147
-0.0331731
-0.0533276
-0.0633447
-0.0627421
-0.055298
-0.0448439
-0.0336518
-0.0229927
-0.0135424
-0.0055582
0.000776137
0.00568272
0.00765929
0.00871004
0.00878512
0.00823186
0.00343049
-0.00662339
-0.0257699
-0.0555432
-0.0790477
-0.0860552
-0.0678508
-0.0451494
-0.0254191
-0.00945652
0.000180651
0.0157572
0.0187948
0.0213923
0.0127486
-0.000616873
-0.171425
-0.181
-0.18011
-0.172823
-0.163883
-0.15512
-0.146169
-0.136117
-0.124508
-0.111442
-0.0972728
-0.0823473
-0.0669469
-0.0513309
-0.0357844
-0.0206187
-0.00615503
0.00730142
0.0194351
0.0298688
0.0382183
0.0440385
0.0467354
0.0456955
0.040613
0.0311335
0.0166641
-0.00240146
-0.0227477
-0.0389656
-0.0481309
-0.0489777
-0.0440568
-0.036164
-0.027163
-0.0182029
-0.00994979
-0.00275624
0.00299529
0.00762499
0.00968533
0.0109457
0.0111894
0.0108724
0.0066144
-0.00265707
-0.0202913
-0.0483985
-0.0710116
-0.0783179
-0.0617795
-0.0406214
-0.0220665
-0.00692226
0.00225369
0.0171676
0.0201686
0.0228945
0.0138784
-0.000452989
-0.153489
-0.162048
-0.161554
-0.155362
-0.147548
-0.139795
-0.131894
-0.123093
-0.112964
-0.101543
-0.0891056
-0.0759512
-0.062326
-0.0484524
-0.0345724
-0.0209575
-0.00789774
0.00431894
0.01539
0.0249747
0.0327213
0.0382369
0.0410386
0.0406183
0.0366839
0.0289988
0.0173597
0.00227189
-0.0137853
-0.0263889
-0.0351703
-0.0370666
-0.0341215
-0.0283285
-0.0211908
-0.013739
-0.00660397
-0.000153025
0.00504734
0.00937056
0.0114789
0.0129632
0.0134695
0.0133992
0.00982993
0.00151824
-0.0143693
-0.0404029
-0.0618594
-0.0693785
-0.0548397
-0.0356453
-0.0185415
-0.00433482
0.0043614
0.0183599
0.0213245
0.0241284
0.0148886
-0.000224644
-0.136922
-0.144543
-0.144393
-0.139187
-0.13243
-0.125651
-0.118746
-0.111094
-0.102307
-0.0923812
-0.0815327
-0.0700128
-0.0580357
-0.0457925
-0.0334891
-0.0213603
-0.00966442
0.0013336
0.0113501
0.0200781
0.0272031
0.032384
0.0352322
0.0353434
0.0324744
0.0264889
0.017396
0.00564793
-0.00709465
-0.0186665
-0.0248496
-0.0271186
-0.0255614
-0.0214013
-0.0157964
-0.00964457
-0.00353103
0.00222635
0.00692509
0.0109326
0.0130669
0.0147655
0.0156272
0.0158237
0.0130402
0.00582283
-0.00808849
-0.0317263
-0.051856
-0.0594929
-0.0471927
-0.0303094
-0.0149037
-0.00173814
0.00648834
0.0193326
0.0222584
0.0250664
0.0157732
9.49602e-05
-0.121638
-0.128501
-0.128632
-0.124281
-0.118479
-0.112609
-0.106632
-0.100032
-0.0924614
-0.0838926
-0.0744932
-0.0644731
-0.0540163
-0.0432872
-0.0324612
-0.0217405
-0.0113522
-0.0015342
0.00745596
0.0153435
0.0218502
0.0266839
0.0295353
0.0300926
0.0281665
0.0236823
0.0167381
0.0077206
-0.00215523
-0.0111817
-0.016608
-0.0189902
-0.0183317
-0.0153864
-0.0110094
-0.00595066
-0.000748248
0.0043631
0.00861629
0.0123208
0.0144721
0.0163558
0.0176406
0.0181828
0.0162836
0.0102943
-0.00155548
-0.022697
-0.0413806
-0.0490115
-0.039075
-0.0247377
-0.0112191
0.000824094
0.00861264
0.0201083
0.0229947
0.0257031
0.0165487
0.000541995
-0.107764
-0.113875
-0.114187
-0.110572
-0.105631
-0.100597
-0.0954748
-0.0898321
-0.0833597
-0.0760156
-0.0679299
-0.0592768
-0.0502135
-0.0408803
-0.0314264
-0.0220243
-0.0128711
-0.00417847
0.00382824
0.0109081
0.0168154
0.0213031
0.024125
0.0250428
0.0239152
0.0206999
0.0155311
0.00875814
0.00128539
-0.00563007
-0.0102169
-0.0124691
-0.0123311
-0.0102516
-0.00683491
-0.0026765
0.00173453
0.00624775
0.0101044
0.0135382
0.0157092
0.0177411
0.0194662
0.0205167
0.0196207
0.014938
0.00498638
-0.0137757
-0.0309066
-0.0383814
-0.0307906
-0.0190874
-0.00755545
0.00331361
0.0107022
0.0207405
0.0235929
0.02606
0.0172521
0.001162
-0.0951555
-0.100526
-0.100967
-0.0979998
-0.0938335
-0.0895578
-0.0852098
-0.0804288
-0.0749411
-0.0686958
-0.061793
-0.0543771
-0.0465811
-0.0385243
-0.0303324
-0.0221505
-0.0141484
-0.00651183
0.000566941
0.00687991
0.0122147
0.0163625
0.0191273
0.0203263
0.0198569
0.0177006
0.0139974
0.00905148
0.00353237
-0.00166635
-0.00535862
-0.0073218
-0.00743358
-0.00594248
-0.00325835
0.000171306
0.00391218
0.00787979
0.0113772
0.0145757
0.0167792
0.0189302
0.0210481
0.0228044
0.0229756
0.0195773
0.0111534
-0.00548437
-0.0209391
-0.0280755
-0.0226746
-0.0135389
-0.0039812
0.0056991
0.0127121
0.0213109
0.0241401
0.0261909
0.017939
0.00200092
-0.0836252
-0.0883661
-0.088921
-0.0865167
-0.0830338
-0.079434
-0.0757773
-0.0717638
-0.0671517
-0.0618847
-0.0560392
-0.0497339
-0.0430806
-0.0361801
-0.0291372
-0.0220736
-0.0151322
-0.00847005
-0.00225652
0.00333638
0.00812958
0.0119475
0.0146316
0.0160433
0.0161091
0.0148244
0.0123153
0.00883605
0.00489085
0.00109505
-0.00174018
-0.00332797
-0.00350535
-0.00239062
-0.000250066
0.00259849
0.00578353
0.00926291
0.0124332
0.0154183
0.0176627
0.0199155
0.0223318
0.0248579
0.0259671
0.0236981
0.0164355
0.00174378
-0.0118849
-0.0185108
-0.0150535
-0.00827924
-0.000565493
0.00794896
0.0145818
0.0219105
0.0247241
0.0261822
0.0186669
0.00307943
-0.073181
-0.0773594
-0.0779791
-0.0760481
-0.0731629
-0.0701622
-0.0671178
-0.0637818
-0.0599417
-0.0555391
-0.0506309
-0.0453143
-0.0396827
-0.0338198
-0.0278127
-0.0217622
-0.0157865
-0.0100164
-0.00459579
0.000330502
0.00461473
0.00811211
0.0106954
0.0122578
0.0127461
0.0121623
0.0106139
0.00830467
0.00561341
0.00294785
0.000889139
-0.000289366
-0.000413631
0.000480154
0.00222993
0.00462166
0.00735256
0.0104026
0.0132764
0.0160575
0.0183302
0.0206557
0.023252
0.0261648
0.02804
0.0266183
0.0203597
0.00767186
-0.00401557
-0.0100247
-0.00821642
-0.00347836
0.00262363
0.0100226
0.0162339
0.022599
0.0254165
0.026137
0.0194538
0.00435255
-0.0637631
-0.0674073
-0.0680544
-0.0665224
-0.0641571
-0.0616838
-0.0591778
-0.0564343
-0.0532686
-0.0496228
-0.0455384
-0.0410941
-0.0363672
-0.0314267
-0.026344
-0.021201
-0.0160935
-0.0111315
-0.00643206
-0.00211825
0.0016923
0.00488065
0.00734381
0.00899961
0.00980858
0.00977348
0.00898157
0.00759216
0.00588425
0.00412948
0.00274626
0.00197035
0.00196817
0.00274996
0.0042281
0.00626586
0.00862937
0.0113068
0.0139122
0.0164907
0.0187556
0.0211035
0.0237533
0.0266988
0.0288553
0.0279791
0.0227382
0.0121993
0.00244915
-0.00289923
-0.0023697
0.000742013
0.00552379
0.0118732
0.0175867
0.0233397
0.0262161
0.0261461
0.020236
0.00567117
-0.0552471
-0.0584208
-0.0590715
-0.0578803
-0.0559634
-0.0539468
-0.0519074
-0.0496762
-0.0470939
-0.0441048
-0.0407377
-0.0370558
-0.0331224
-0.0289939
-0.0247275
-0.0203888
-0.016057
-0.0118203
-0.00777227
-0.00401457
-0.000641903
0.00224913
0.00457593
0.00627359
0.00731042
0.00769174
0.00748386
0.00680548
0.00583056
0.00481945
0.0040098
0.00360619
0.00375801
0.00449969
0.00579546
0.00756183
0.00962927
0.011986
0.0143471
0.016724
0.0189296
0.0212259
0.023781
0.0264944
0.0285246
0.027959
0.0237276
0.0153233
0.00738011
0.00252396
0.00240397
0.00432712
0.00807875
0.0134568
0.0185837
0.0239691
0.0269783
0.0262357
0.0208626
0.00679318
-0.047558
-0.0503285
-0.0509905
-0.0500659
-0.0485245
-0.0468965
-0.0452569
-0.0434649
-0.0413828
-0.038958
-0.0362098
-0.0331879
-0.0299442
-0.026524
-0.0229721
-0.0193404
-0.0156922
-0.0120993
-0.00863822
-0.00538349
-0.00241316
0.000193986
0.00236993
0.00406438
0.00525102
0.00593456
0.00616407
0.0060348
0.00563419
0.00517466
0.00483023
0.00475112
0.0050627
0.00580782
0.00698458
0.00854409
0.0103724
0.0124534
0.0145888
0.0167655
0.0188616
0.0210362
0.0233379
0.0257036
0.0274152
0.0270145
0.0236873
0.0172071
0.0108939
0.00675909
0.00617851
0.00728288
0.0102385
0.0147348
0.0192211
0.0242609
0.0273835
0.0262642
0.0211111
0.00748888
-0.0406438
-0.0430504
-0.0436993
-0.0430155
-0.0417854
-0.0404835
-0.0391803
-0.0377605
-0.0361035
-0.0341595
-0.0319403
-0.0294849
-0.0268344
-0.0240252
-0.0210932
-0.0180783
-0.0150296
-0.0120032
-0.00906045
-0.00625902
-0.00365824
-0.0013234
0.000690214
0.00234299
0.00361173
0.00449783
0.00503425
0.00527109
0.00533357
0.00530411
0.00532851
0.00551857
0.00597785
0.00674823
0.00784797
0.00924906
0.0108824
0.0127263
0.0146504
0.0166287
0.0185733
0.0205718
0.0225783
0.0245353
0.0258862
0.025577
0.0230087
0.0181439
0.0132362
0.00987105
0.00906179
0.00964331
0.0119682
0.0156696
0.0195263
0.02406
0.027159
0.0259122
0.0207352
0.00766515
-0.0344315
-0.0365112
-0.0371361
-0.0366452
-0.0356928
-0.034666
-0.0336389
-0.0325286
-0.0312278
-0.0296896
-0.0279188
-0.0259449
-0.0238005
-0.0215144
-0.0191146
-0.0166319
-0.0141033
-0.0115726
-0.00908697
-0.00669266
-0.00442761
-0.00235129
-0.000508256
0.00107057
0.00236504
0.00337559
0.00412215
0.00464249
0.00500979
0.0052959
0.00560043
0.00600285
0.00658717
0.00738866
0.00843663
0.00971409
0.0111854
0.0128256
0.0145512
0.0163328
0.0180975
0.0198849
0.0216029
0.0231752
0.0241954
0.023952
0.0219992
0.0184261
0.0146837
0.0120212
0.0111752
0.0114476
0.0132568
0.0162403
0.0194982
0.0233144
0.0261198
0.0248746
0.0196102
0.00738599
-0.0288495
-0.0306449
-0.0312411
-0.0309064
-0.0301816
-0.0293954
-0.028611
-0.0277507
-0.0267373
-0.0255334
-0.0241378
-0.0225696
-0.0208533
-0.0190112
-0.0170642
-0.0150353
-0.0129532
-0.0108517
-0.00877088
-0.00675561
-0.00477836
-0.00294429
-0.00127742
0.00020096
0.00147271
0.00254489
0.00341905
0.0041234
0.00470432
0.00521341
0.00572062
0.00628141
0.00696244
0.00779041
0.00879905
0.00997663
0.0113099
0.0127737
0.0143146
0.0159041
0.0174755
0.0190423
0.0204925
0.0217447
0.0224994
0.0223174
0.0208552
0.0182794
0.0154815
0.0134184
0.0126377
0.0127394
0.0141207
0.0164485
0.0191334
0.0220902
0.0243449
0.02311
0.0178466
0.006786
-0.0238456
-0.0253929
-0.0259556
-0.0257451
-0.0252064
-0.0246151
-0.0240277
-0.0233851
-0.0226178
-0.0216884
-0.020598
-0.0193639
-0.0180049
-0.0165358
-0.0149714
-0.013328
-0.011625
-0.00988297
-0.00812876
-0.00637778
-0.00473415
-0.00315369
-0.00167188
-0.000312542
0.000911252
0.00198504
0.00292063
0.00373147
0.0044474
0.00510292
0.00574696
0.00641689
0.00716437
0.00800793
0.00898074
0.0100733
0.0112859
0.0125948
0.0139656
0.0153715
0.0167531
0.0181065
0.0193189
0.0203211
0.0208826
0.0207613
0.0196871
0.0178637
0.0158089
0.0142388
0.0135631
0.013571
0.014596
0.0163268
0.0184622
0.020553
0.022113
0.020836
0.0157235
0.00600522
-0.0193681
-0.0206972
-0.0212227
-0.02111
-0.020723
-0.0202911
-0.0198644
-0.0193962
-0.0188274
-0.0181268
-0.017292
-0.016335
-0.0152701
-0.0141101
-0.0128668
-0.0115522
-0.0101801
-0.00874917
-0.0073002
-0.00585159
-0.00443343
-0.00305841
-0.00174919
-0.000518664
0.000621711
0.00166477
0.00261098
0.00346898
0.00425716
0.00499739
0.00572336
0.00645909
0.00724354
0.00808842
0.00902323
0.0100392
0.0111434
0.0123146
0.0135304
0.0147665
0.0159701
0.0171288
0.0181383
0.0189516
0.0193818
0.0193193
0.0185503
0.017282
0.015796
0.0146221
0.0140576
0.0140034
0.014731
0.0159347
0.0175421
0.0188683
0.0197052
0.0183428
0.0135316
0.0051665
-0.0153645
-0.0165036
-0.0169909
-0.0169546
-0.0166903
-0.0163879
-0.016091
-0.0157627
-0.0153544
-0.0148387
-0.0142119
-0.0134822
-0.0126601
-0.0117544
-0.0107722
-0.00972067
-0.00861029
-0.00747016
-0.00629544
-0.00509473
-0.00389809
-0.00271962
-0.00157423
-0.000473989
0.000569882
0.00155229
0.00247152
0.00333168
0.00414326
0.0049193
0.0056823
0.00644685
0.0072414
0.00807216
0.00896346
0.00990716
0.0109122
0.0119597
0.0130351
0.0141177
0.0151599
0.016148
0.0169911
0.0176626
0.0180082
0.0179994
0.0174674
0.0166012
0.0155404
0.014674
0.0142089
0.014102
0.0145823
0.0153372
0.0164472
0.0171541
0.0173351
0.0158685
0.0114701
0.0043601
-0.0117901
-0.0127646
-0.0132139
-0.0132362
-0.0130701
-0.0128717
-0.0126787
-0.0124622
-0.012182
-0.0118148
-0.0113562
-0.0108116
-0.0101888
-0.00949386
-0.00873178
-0.00790784
-0.00702973
-0.0061069
-0.00514705
-0.0041685
-0.00317427
-0.00217722
-0.0011903
-0.000223659
0.000713288
0.00161591
0.00248124
0.0033103
0.00410841
0.00488245
0.00564691
0.00640979
0.00719094
0.00799285
0.00883404
0.00970686
0.0106195
0.0115558
0.0125049
0.0134495
0.0143496
0.0151936
0.0159025
0.0164665
0.0167593
0.0167959
0.0164442
0.0158639
0.0151157
0.0144752
0.0140902
0.013932
0.0142057
0.0145978
0.0152519
0.0154708
0.0151328
0.0135679
0.00963566
0.00363729
-0.00860568
-0.0094375
-0.00984927
-0.00991543
-0.00982713
-0.00971162
-0.009601
-0.00947261
-0.00929384
-0.00904492
-0.00872112
-0.00832606
-0.0078652
-0.00734275
-0.00676193
-0.0061258
-0.00543911
-0.00470773
-0.0039392
-0.00314192
-0.00232245
-0.00148857
-0.000649468
0.000187055
0.00101317
0.00182451
0.00261778
0.00339229
0.00415006
0.00489393
0.00563253
0.00636954
0.00711803
0.00787798
0.00866251
0.00946435
0.0102897
0.0111253
0.0119613
0.012784
0.0135609
0.0142836
0.0148849
0.0153661
0.015626
0.0156979
0.0154791
0.015096
0.0145727
0.0140926
0.0137651
0.013553
0.0136575
0.0137678
0.014023
0.0138839
0.0131652
0.0115256
0.00805723
0.00301747
-0.00577439
-0.0064829
-0.00685853
-0.00695688
-0.00692964
-0.00687948
-0.00683342
-0.0067739
-0.00667462
-0.00651898
-0.00630238
-0.00602698
-0.00569658
-0.00531394
-0.00488089
-0.00439901
-0.00387089
-0.00330017
-0.00269183
-0.0020515
-0.00138565
-0.000698067
5.04218e-06
0.00071763
0.00143325
0.00214787
0.00285824
0.00356285
0.0042618
0.00495539
0.0056482
0.00634107
0.00704204
0.00774934
0.00847143
0.00920186
0.00994387
0.010687
0.0114225
0.0121389
0.0128093