/*--------------------------------*- C++ -*----------------------------------*\
| =========                 |                                                 |
| \\      /  F ield         | OpenFOAM: The Open Source CFD Toolbox           |
|  \\    /   O peration     | Version:  2512                                  |
|   \\  /    A nd           | Website:  www.openfoam.com                      |
|    \\/     M anipulation  |                                                 |
\*---------------------------------------------------------------------------*/
FoamFile
{
    version     2.0;
    format      ascii;
    arch        "LSB;label=32;scalar=64";
    class       volScalarField;
    location    "135.25";
    object      p;
}
// * * * * * * * * * * * * * * * * * * * * * * * * * * * * * * * * * * * * * //

dimensions      [0 2 -2 0 0 0 0];

internalField   nonuniform List<scalar> 
13248
(
-0.303571
-0.302878
-0.301092
-0.298414
-0.295009
-0.290963
-0.286351
-0.281257
-0.275782
-0.270042
-0.264166
-0.258288
-0.252534
-0.247012
-0.241802
-0.236945
-0.23244
-0.228251
-0.224301
-0.220524
-0.216745
-0.212995
-0.208573
-0.203997
-0.311229
-0.309579
-0.307048
-0.303785
-0.299907
-0.295498
-0.290616
-0.285314
-0.279649
-0.273691
-0.267526
-0.261242
-0.254929
-0.248667
-0.242513
-0.236503
-0.230645
-0.224925
-0.21931
-0.213752
-0.208164
-0.202485
-0.196456
-0.190526
-0.320562
-0.317782
-0.314351
-0.310374
-0.305906
-0.301023
-0.295751
-0.290089
-0.284035
-0.277605
-0.270839
-0.263802
-0.256573
-0.249239
-0.241879
-0.234563
-0.227342
-0.220248
-0.213288
-0.206454
-0.19968
-0.192959
-0.186098
-0.179479
-0.331541
-0.327484
-0.323036
-0.318241
-0.313076
-0.307585
-0.301741
-0.29547
-0.288706
-0.281422
-0.273648
-0.265463
-0.256984
-0.248344
-0.239675
-0.23109
-0.222677
-0.214488
-0.206543
-0.19883
-0.191309
-0.183968
-0.176669
-0.16981
-0.344185
-0.338738
-0.333191
-0.327502
-0.32153
-0.315252
-0.308566
-0.301324
-0.293419
-0.284831
-0.275634
-0.265975
-0.256044
-0.246035
-0.23612
-0.226433
-0.217058
-0.20804
-0.199382
-0.191066
-0.183053
-0.175318
-0.167771
-0.160689
-0.358502
-0.351582
-0.344891
-0.338246
-0.331321
-0.323994
-0.316079
-0.307388
-0.297838
-0.287489
-0.276522
-0.265185
-0.25374
-0.242417
-0.231393
-0.22078
-0.210639
-0.200982
-0.191793
-0.18304
-0.17468
-0.166677
-0.158967
-0.151736
-0.3744
-0.365959
-0.358102
-0.350418
-0.342319
-0.333559
-0.323908
-0.313217
-0.301524
-0.289042
-0.276094
-0.263018
-0.250112
-0.237599
-0.225619
-0.214241
-0.203482
-0.193324
-0.18373
-0.174654
-0.166049
-0.157866
-0.150066
-0.142728
-0.391598
-0.381643
-0.372605
-0.363738
-0.354131
-0.343435
-0.331465
-0.318235
-0.303996
-0.289159
-0.274169
-0.259413
-0.24517
-0.231611
-0.218815
-0.206799
-0.195536
-0.184979
-0.175074
-0.165763
-0.15699
-0.148705
-0.140874
-0.133485
-0.409587
-0.398185
-0.387936
-0.377655
-0.36609
-0.352874
-0.338016
-0.321816
-0.3048
-0.28756
-0.270609
-0.254314
-0.238892
-0.224435
-0.210953
-0.198409
-0.18674
-0.175876
-0.165743
-0.156275
-0.147409
-0.13909
-0.131281
-0.123898
-0.4276
-0.414877
-0.40335
-0.391323
-0.377265
-0.360955
-0.34276
-0.323357
-0.303538
-0.28401
-0.26528
-0.247639
-0.23121
-0.215999
-0.201952
-0.188985
-0.177004
-0.165919
-0.155642
-0.146093
-0.137203
-0.128914
-0.121168
-0.113843
-0.444635
-0.430748
-0.417815
-0.403623
-0.386522
-0.366644
-0.344853
-0.322223
-0.299747
-0.278157
-0.257882
-0.239106
-0.221844
-0.206025
-0.191538
-0.178261
-0.166073
-0.154865
-0.144536
-0.134996
-0.126166
-0.117981
-0.110349
-0.103158
-0.459544
-0.444693
-0.430194
-0.413379
-0.392714
-0.368901
-0.343397
-0.317639
-0.292728
-0.269338
-0.247773
-0.228084
-0.210185
-0.19393
-0.179157
-0.165711
-0.153448
-0.142243
-0.131981
-0.122565
-0.11391
-0.105937
-0.0985295
-0.091627
-0.339161
-0.341858
-0.343387
-0.344293
-0.345043
-0.345752
-0.34644
-0.3471
-0.347692
-0.348183
-0.348488
-0.348536
-0.348255
-0.347576
-0.346441
-0.344814
-0.342691
-0.340108
-0.337159
-0.334002
-0.330853
-0.327957
-0.325647
-0.324463
-0.328329
-0.330923
-0.332261
-0.332845
-0.333113
-0.333168
-0.333037
-0.332724
-0.332209
-0.331462
-0.330444
-0.329122
-0.327473
-0.325495
-0.32321
-0.320678
-0.317997
-0.315312
-0.312822
-0.310774
-0.309453
-0.309137
-0.310129
-0.31311
-0.319041
-0.321386
-0.322475
-0.322738
-0.322558
-0.322022
-0.32116
-0.319986
-0.318496
-0.316682
-0.314537
-0.312065
-0.309293
-0.306275
-0.303103
-0.29991
-0.296873
-0.294212
-0.292188
-0.291098
-0.291254
-0.292914
-0.296281
-0.302055
-0.311247
-0.31327
-0.314087
-0.314046
-0.313462
-0.312405
-0.310904
-0.308981
-0.306654
-0.303936
-0.30085
-0.297439
-0.29377
-0.289946
-0.28611
-0.28245
-0.279196
-0.276607
-0.274979
-0.27462
-0.275832
-0.278873
-0.283836
-0.291113
-0.304819
-0.306521
-0.307075
-0.306754
-0.305807
-0.304287
-0.302222
-0.299646
-0.296593
-0.293104
-0.289232
-0.285052
-0.280668
-0.276221
-0.271885
-0.26789
-0.264489
-0.261965
-0.260615
-0.260737
-0.262604
-0.266449
-0.272417
-0.280138
-0.299631
-0.30107
-0.301389
-0.300806
-0.299522
-0.297578
-0.295001
-0.291837
-0.288141
-0.28398
-0.279435
-0.274613
-0.26965
-0.264713
-0.260007
-0.255772
-0.252278
-0.249809
-0.248651
-0.249078
-0.25133
-0.255527
-0.262124
-0.269526
-0.295626
-0.296884
-0.297001
-0.296166
-0.294559
-0.292212
-0.289159
-0.285459
-0.281187
-0.276435
-0.271317
-0.265966
-0.260545
-0.255248
-0.250292
-0.245933
-0.242441
-0.240091
-0.239143
-0.239823
-0.242359
-0.246567
-0.253445
-0.260051
-0.292852
-0.293998
-0.293933
-0.292849
-0.290924
-0.288197
-0.284709
-0.280534
-0.275769
-0.270531
-0.264959
-0.259217
-0.253496
-0.248017
-0.242969
-0.238655
-0.235327
-0.233233
-0.232599
-0.233559
-0.236372
-0.240397
-0.247381
-0.252615
-0.291471
-0.292515
-0.292262
-0.290924
-0.288695
-0.285623
-0.281765
-0.277209
-0.272073
-0.266496
-0.26064
-0.254692
-0.248854
-0.243348
-0.23846
-0.234385
-0.231365
-0.229605
-0.229275
-0.230389
-0.23322
-0.236763
-0.243098
-0.246918
-0.291698
-0.292575
-0.292095
-0.290491
-0.287977
-0.284616
-0.280477
-0.275667
-0.270315
-0.264576
-0.258628
-0.25267
-0.246916
-0.241588
-0.236916
-0.233102
-0.230326
-0.228724
-0.228386
-0.229253
-0.231494
-0.234222
-0.238988
-0.241478
-0.293738
-0.294302
-0.293512
-0.291613
-0.288823
-0.285223
-0.280892
-0.275941
-0.270505
-0.264741
-0.258832
-0.25297
-0.247358
-0.242194
-0.237662
-0.233915
-0.23106
-0.229154
-0.228199
-0.228133
-0.228956
-0.230315
-0.232922
-0.23422
-0.297702
-0.297748
-0.296527
-0.294269
-0.291183
-0.287357
-0.282873
-0.277836
-0.272374
-0.266635
-0.260782
-0.254988
-0.249424
-0.244246
-0.239583
-0.235523
-0.232104
-0.229313
-0.227081
-0.225342
-0.223956
-0.222984
-0.222575
-0.222522
-0.324928
-0.327964
-0.33426
-0.343524
-0.354935
-0.366925
-0.377935
-0.383773
-0.382606
-0.371175
-0.348303
-0.314151
-0.271926
-0.227318
-0.186488
-0.153919
-0.131554
-0.119182
-0.115832
-0.12133
-0.135937
-0.157121
-0.177122
-0.185609
-0.177112
-0.154664
-0.127057
-0.102327
-0.0848315
-0.0754749
-0.0730114
-0.0768771
-0.088833
-0.109055
-0.130135
-0.139695
-0.13096
-0.109717
-0.0872745
-0.0704683
-0.0600797
-0.0558418
-0.0592115
-0.0685956
-0.0751965
-0.0724386
-0.0637387
-0.0540772
-0.0468228
-0.0432869
-0.0433211
-0.0454102
-0.0453279
-0.0414779
-0.0371559
-0.0301693
-0.020713
-0.0166651
-0.0126827
-0.00557041
-0.319993
-0.329974
-0.343289
-0.359029
-0.375987
-0.392312
-0.40571
-0.413122
-0.412288
-0.399997
-0.37475
-0.336935
-0.290106
-0.240518
-0.19481
-0.157634
-0.130889
-0.114286
-0.106741
-0.107722
-0.117353
-0.133967
-0.151344
-0.16035
-0.154986
-0.137515
-0.114869
-0.0943397
-0.0803401
-0.0739783
-0.0741292
-0.0806269
-0.095589
-0.118825
-0.142058
-0.151918
-0.141499
-0.117443
-0.0919006
-0.0721756
-0.0593661
-0.0528255
-0.0537408
-0.0608194
-0.0660004
-0.0639048
-0.0571195
-0.0501885
-0.0451901
-0.0440872
-0.0464991
-0.0501212
-0.0507076
-0.0455886
-0.0401901
-0.0315202
-0.0203605
-0.0151248
-0.0102335
-0.00438625
-0.313925
-0.329159
-0.34706
-0.366966
-0.387399
-0.406346
-0.42145
-0.430217
-0.429407
-0.416691
-0.390196
-0.350301
-0.300744
-0.248095
-0.199239
-0.158911
-0.128873
-0.108708
-0.0972479
-0.0937436
-0.0982899
-0.110026
-0.124326
-0.133387
-0.130984
-0.118483
-0.100811
-0.0846012
-0.0742619
-0.0710167
-0.07384
-0.0829413
-0.100679
-0.126558
-0.151712
-0.162048
-0.15033
-0.12392
-0.0956675
-0.0733127
-0.0582934
-0.0496674
-0.0483206
-0.0532369
-0.0570609
-0.0555698
-0.0504371
-0.0460787
-0.043287
-0.0447296
-0.049667
-0.054871
-0.0560459
-0.0495268
-0.0429965
-0.0327464
-0.0199788
-0.0136022
-0.0078325
-0.0032343
-0.306143
-0.324438
-0.344816
-0.366861
-0.38904
-0.409247
-0.425249
-0.434548
-0.434206
-0.421546
-0.394767
-0.354292
-0.303925
-0.250268
-0.200177
-0.158238
-0.126061
-0.10318
-0.0884157
-0.0808893
-0.0805367
-0.0872117
-0.0978909
-0.106307
-0.106303
-0.0983922
-0.0854175
-0.0734391
-0.0667308
-0.0665223
-0.0718816
-0.0833406
-0.103456
-0.131629
-0.158609
-0.169704
-0.15719
-0.128981
-0.0984992
-0.0739008
-0.0569436
-0.0464917
-0.0431371
-0.046086
-0.0486107
-0.0475351
-0.0438038
-0.0418128
-0.0411239
-0.0451674
-0.0527422
-0.0595797
-0.0612708
-0.0532413
-0.0455375
-0.0338215
-0.0195668
-0.0121161
-0.00549978
-0.00212296
-0.296553
-0.31617
-0.337327
-0.35992
-0.382444
-0.402725
-0.41898
-0.428598
-0.428416
-0.415999
-0.389678
-0.349947
-0.300615
-0.248023
-0.198564
-0.156433
-0.12313
-0.0982939
-0.0808487
-0.0698996
-0.0652131
-0.0669364
-0.0735718
-0.0806154
-0.0834066
-0.0779969
-0.0691955
-0.0611664
-0.0578431
-0.0604132
-0.0680435
-0.0814993
-0.103548
-0.133648
-0.162351
-0.174499
-0.161867
-0.132544
-0.100393
-0.0739961
-0.0554101
-0.0434055
-0.0383125
-0.0395197
-0.0408314
-0.0399731
-0.0373346
-0.037453
-0.0387041
-0.0453463
-0.0556259
-0.0641375
-0.0662878
-0.0566822
-0.0477785
-0.0347224
-0.0191237
-0.0106828
-0.00325326
-0.00105983
-0.286195
-0.305776
-0.326317
-0.348224
-0.370098
-0.389982
-0.40543
-0.414433
-0.414011
-0.401926
-0.376637
-0.338818
-0.292155
-0.242411
-0.195191
-0.154127
-0.120606
-0.0944898
-0.0749508
-0.0611719
-0.0528152
-0.0500738
-0.0524829
-0.0571931
-0.060089
-0.0577697
-0.0527081
-0.0481664
-0.0477903
-0.0527692
-0.0623402
-0.0773891
-0.100857
-0.132417
-0.162697
-0.176218
-0.164255
-0.13457
-0.101358
-0.0736449
-0.0537607
-0.0404776
-0.0339141
-0.0336246
-0.0338461
-0.0330412
-0.0311364
-0.0330586
-0.0360362
-0.0452092
-0.0582021
-0.0684261
-0.0710028
-0.0598013
-0.0496917
-0.0354252
-0.0186458
-0.00931502
-0.00110782
-5.01078e-05
-0.276476
-0.2948
-0.31343
-0.33357
-0.353883
-0.372195
-0.386511
-0.393991
-0.392965
-0.38128
-0.357614
-0.322802
-0.280187
-0.23467
-0.190885
-0.151856
-0.118871
-0.0920589
-0.0709466
-0.0548956
-0.0435299
-0.0369664
-0.0353064
-0.0371166
-0.0392921
-0.0388349
-0.0366585
-0.0349368
-0.0369496
-0.0438759
-0.0549819
-0.0711468
-0.095439
-0.127935
-0.1596
-0.174801
-0.164297
-0.135042
-0.101415
-0.0728788
-0.0520401
-0.0377453
-0.0299643
-0.0284178
-0.0277048
-0.0268349
-0.0252947
-0.0286956
-0.0331391
-0.0446972
-0.0603542
-0.0723276
-0.0753202
-0.0625521
-0.0512554
-0.0359128
-0.0181286
-0.00801896
0.000925864
0.000903601
-0.26798
-0.283693
-0.29933
-0.31696
-0.335886
-0.350715
-0.362639
-0.368569
-0.367003
-0.355975
-0.334607
-0.303759
-0.266192
-0.225782
-0.186164
-0.149813
-0.117958
-0.0909818
-0.0687837
-0.0509915
-0.0372589
-0.0275961
-0.0223004
-0.020969
-0.0217161
-0.0222179
-0.0216695
-0.0220348
-0.0258026
-0.0341138
-0.0462739
-0.0630749
-0.0876088
-0.120446
-0.153264
-0.170371
-0.161978
-0.13396
-0.10059
-0.0717214
-0.0502775
-0.0352304
-0.0264647
-0.0238819
-0.0223965
-0.0213965
-0.019871
-0.0244344
-0.0300456
-0.0437596
-0.0619712
-0.0757122
-0.0791367
-0.0649038
-0.0524567
-0.0361834
-0.0175778
-0.00680136
0.00284174
0.00180127
-0.259723
-0.27145
-0.283663
-0.298176
-0.312005
-0.325708
-0.335108
-0.339754
-0.337896
-0.328045
-0.309671
-0.283454
-0.25144
-0.216473
-0.181293
-0.147937
-0.117628
-0.0909651
-0.0681577
-0.0491262
-0.0336303
-0.0215924
-0.0132873
-0.00888999
-0.00760354
-0.00783412
-0.0081536
-0.00996342
-0.0148214
-0.0239006
-0.0365894
-0.053501
-0.0777505
-0.110493
-0.144167
-0.163221
-0.157499
-0.131475
-0.0990266
-0.0703072
-0.0485909
-0.0330165
-0.023442
-0.0200091
-0.0179041
-0.0167431
-0.0148843
-0.0203516
-0.0267921
-0.0423492
-0.0629565
-0.0784656
-0.0823632
-0.0668313
-0.0532954
-0.0362481
-0.0170137
-0.00568768
0.00463358
0.00264555
-0.250003
-0.257121
-0.266594
-0.278786
-0.289367
-0.298943
-0.306238
-0.309907
-0.308208
-0.300147
-0.28526
-0.263917
-0.237453
-0.207811
-0.177011
-0.146754
-0.118264
-0.0923112
-0.0693208
-0.0494556
-0.0326456
-0.0187932
-0.00807636
-0.000875518
0.00285637
0.00397521
0.00350604
0.000945762
-0.00434277
-0.0136238
-0.0263584
-0.0430427
-0.0666494
-0.0986778
-0.132793
-0.153755
-0.151165
-0.127869
-0.0970422
-0.0689301
-0.0472184
-0.0312757
-0.020959
-0.0167692
-0.0142072
-0.0129387
-0.0103099
-0.0164995
-0.0234427
-0.0404665
-0.0632151
-0.0804914
-0.0849115
-0.0683205
-0.0537851
-0.0361008
-0.0164418
-0.00470622
0.00628489
0.0034404
-0.238096
-0.242111
-0.249686
-0.258318
-0.265141
-0.272308
-0.278351
-0.28144
-0.28045
-0.274587
-0.263332
-0.246754
-0.225575
-0.201004
-0.174468
-0.147355
-0.120849
-0.0958454
-0.0729441
-0.0525024
-0.0346446
-0.0193482
-0.00669561
0.00297384
0.00932373
0.0124149
0.0128568
0.0104464
0.0053327
-0.0035859
-0.0157915
-0.0317111
-0.0543683
-0.0859457
-0.120329
-0.142282
-0.143054
-0.122849
-0.0944045
-0.0673516
-0.0459317
-0.0298296
-0.0188722
-0.0139424
-0.0110605
-0.00996471
-0.0062995
-0.0130156
-0.0199879
-0.0380095
-0.0627628
-0.0817451
-0.0866443
-0.0692967
-0.0539043
-0.0356563
-0.0157927
-0.003805
0.00778988
0.00418819
-0.224715
-0.228623
-0.233245
-0.236545
-0.241725
-0.246875
-0.251133
-0.253401
-0.252807
-0.248617
-0.240302
-0.227683
-0.210999
-0.190893
-0.168309
-0.144344
-0.120089
-0.0964895
-0.0742735
-0.0539368
-0.035749
-0.0198314
-0.00623956
0.00492951
0.0133998
0.0185358
0.0198551
0.0186254
0.013725
0.00547425
-0.00593743
-0.0209766
-0.0423139
-0.0723703
-0.105833
-0.128413
-0.131207
-0.114822
-0.0892519
-0.0637237
-0.0431498
-0.0274549
-0.0164189
-0.0110409
-0.00792557
-0.0072194
-0.00802165
-0.00999702
-0.0167614
-0.0351804
-0.0614233
-0.0820673
-0.0875382
-0.0695485
-0.0535194
-0.0347732
-0.0149334
-0.00283319
0.00923379
0.00490128
-0.21244
-0.220977
-0.224198
-0.226265
-0.228234
-0.231477
-0.234576
-0.235927
-0.234611
-0.230049
-0.22185
-0.209884
-0.194356
-0.175804
-0.155027
-0.132957
-0.110534
-0.0885769
-0.0677198
-0.0484023
-0.0308772
-0.0152842
-0.00170143
0.00979768
0.0190611
0.0255455
0.0287816
0.0279657
0.0235917
0.0164522
0.00648861
-0.00736176
-0.0284887
-0.0602735
-0.0968836
-0.122318
-0.125881
-0.107968
-0.0827219
-0.0582659
-0.0388186
-0.0239369
-0.0134014
-0.00813626
-0.00491756
-0.00401424
-0.00341177
-0.00572524
-0.0122147
-0.0311806
-0.0595641
-0.082444
-0.0889852
-0.0695789
-0.0526989
-0.0336385
-0.0139628
-0.00181602
0.0106158
0.00556537
-0.198422
-0.209194
-0.211816
-0.210856
-0.212127
-0.214097
-0.215864
-0.216064
-0.213848
-0.208807
-0.200735
-0.189585
-0.175522
-0.158949
-0.140469
-0.120801
-0.100688
-0.0807981
-0.0616774
-0.0437321
-0.0272194
-0.0123223
0.000868485
0.0123345
0.0219685
0.0291419
0.0329868
0.0330055
0.0298593
0.0241292
0.0157416
0.00316172
-0.0176233
-0.050316
-0.0878696
-0.112814
-0.114956
-0.0978215
-0.0744499
-0.0521526
-0.0344227
-0.0207377
-0.010795
-0.00560348
-0.00242673
-0.00157725
-0.000523823
-0.00283906
-0.00879268
-0.0278242
-0.0576127
-0.0818244
-0.088837
-0.0687451
-0.0511393
-0.0321338
-0.0129018
-0.000826287
0.0116709
0.00604085
-0.183642
-0.195268
-0.198065
-0.196922
-0.196445
-0.196988
-0.197568
-0.196907
-0.194189
-0.189093
-0.181516
-0.171438
-0.158951
-0.144308
-0.127936
-0.110389
-0.0922688
-0.0741483
-0.0565177
-0.0397668
-0.0241623
-0.00989856
0.00289663
0.0141506
0.0237906
0.0313336
0.0360386
0.0369476
0.034748
0.0301569
0.0228726
0.0109064
-0.00991516
-0.0420586
-0.0776166
-0.100663
-0.102368
-0.0869177
-0.0660349
-0.0460713
-0.0300488
-0.0175511
-0.00824366
-0.00321236
-8.4086e-05
0.000715847
0.00218287
-0.000434886
-0.00626175
-0.0252543
-0.0554739
-0.079989
-0.0875348
-0.0672549
-0.0490912
-0.0303514
-0.0117357
0.000154228
0.0125497
0.00641987
-0.169402
-0.180677
-0.183721
-0.182497
-0.18108
-0.180604
-0.180352
-0.179151
-0.176211
-0.171236
-0.164167
-0.155009
-0.143821
-0.130778
-0.116197
-0.100511
-0.0842086
-0.0677678
-0.0516091
-0.0360845
-0.0214533
-0.00791319
0.00438551
0.0153085
0.0247981
0.0325172
0.0377493
0.0396214
0.0386107
0.0353096
0.029194
0.0178649
-0.00266134
-0.0333784
-0.0665342
-0.0876269
-0.088896
-0.0753861
-0.0572716
-0.0398034
-0.025579
-0.014351
-0.00576031
-0.00095971
0.00213909
0.00295924
0.00473436
0.00188179
-0.00393105
-0.0225881
-0.052483
-0.0769914
-0.0851598
-0.0650866
-0.0465986
-0.0282574
-0.010443
0.00110927
0.0132598
0.00672145
-0.155105
-0.165841
-0.169053
-0.167902
-0.166097
-0.165012
-0.164191
-0.162625
-0.159591
-0.154805
-0.148233
-0.139905
-0.129878
-0.118276
-0.105327
-0.0913543
-0.0767406
-0.0618776
-0.0471246
-0.0327996
-0.0191539
-0.00639051
0.00533418
0.0158461
0.0250611
0.0327278
0.0382388
0.0409374
0.0410785
0.0391337
0.034443
0.0242137
0.00449795
-0.0246078
-0.0550752
-0.0736441
-0.0746701
-0.0634764
-0.0484124
-0.0335487
-0.0211333
-0.0111853
-0.00335856
0.0011546
0.00423598
0.00511174
0.00705317
0.00415631
-0.00147892
-0.0193262
-0.0484632
-0.0727907
-0.0814884
-0.062133
-0.0436388
-0.0258619
-0.0090235
0.0020227
0.0137772
0.00693044
-0.1409
-0.151189
-0.154477
-0.153474
-0.151564
-0.150146
-0.148961
-0.147179
-0.144162
-0.139644
-0.133598
-0.126069
-0.11711
-0.106808
-0.0953217
-0.0828911
-0.0698154
-0.0564174
-0.043004
-0.029858
-0.0172146
-0.00527618
0.00579914
0.0158201
0.0246736
0.0321672
0.0377667
0.0410038
0.0420251
0.0412066
0.0378189
0.0288269
0.0104155
-0.0163081
-0.0431396
-0.0587821
-0.0602349
-0.0516677
-0.0397208
-0.027436
-0.0167832
-0.00808423
-0.00104652
0.00313084
0.00619036
0.00715963
0.00917239
0.00638003
0.00111315
-0.0155203
-0.0434731
-0.067257
-0.0763911
-0.0583243
-0.0402288
-0.0231959
-0.00748131
0.00288149
0.0140803
0.00703023
-0.1274
-0.136997
-0.140229
-0.139401
-0.137535
-0.135984
-0.134619
-0.132764
-0.129864
-0.125675
-0.120172
-0.113402
-0.105416
-0.0962789
-0.0861024
-0.0750657
-0.0634017
-0.0513728
-0.0392375
-0.0272439
-0.0156072
-0.00452541
0.00584228
0.0153045
0.0237351
0.03097
0.0364989
0.0400363
0.041623
0.0415055
0.0389434
0.0310948
0.0147818
-0.00834206
-0.030952
-0.0442276
-0.0463414
-0.0404373
-0.0314459
-0.0215965
-0.0126104
-0.00508712
0.00116541
0.00497707
0.00799889
0.00910816
0.0111284
0.00854171
0.00375082
-0.01134
-0.0375401
-0.0603721
-0.0698726
-0.0536453
-0.0364099
-0.0203091
-0.00582962
0.00367755
0.0141563
0.00701229
-0.114572
-0.12332
-0.126446
-0.125824
-0.124107
-0.122563
-0.121157
-0.119337
-0.116622
-0.112795
-0.107832
-0.10178
-0.0946871
-0.0866037
-0.0776114
-0.0678423
-0.0574758
-0.0467229
-0.0358001
-0.0249233
-0.0142872
-0.00408075
0.00553868
0.0143851
0.022321
0.0291654
0.0345773
0.0382508
0.0401553
0.0403953
0.038289
0.0316142
0.0180729
-0.000827674
-0.0193313
-0.0307662
-0.0337171
-0.0302131
-0.0238067
-0.0161384
-0.00868188
-0.00223255
0.00326634
0.00670681
0.00966944
0.0109657
0.012954
0.0106437
0.00640069
-0.0068368
-0.0307436
-0.0522888
-0.0620714
-0.0481369
-0.0322461
-0.0172705
-0.00409118
0.00441314
0.0140053
0.00687749
-0.102297
-0.11029
-0.113306
-0.112886
-0.111363
-0.109909
-0.108552
-0.106839
-0.104354
-0.100907
-0.0964751
-0.0911026
-0.0848342
-0.0777114
-0.0697933
-0.0611776
-0.0520019
-0.0424355
-0.0326586
-0.0228575
-0.0132063
-0.0038806
0.00496675
0.0131564
0.02054
0.0268991
0.0321533
0.0358391
0.0379063
0.0383538
0.036615
0.0311674
0.0204504
0.00555774
-0.00932558
-0.0192298
-0.0228661
-0.021268
-0.0169512
-0.011139
-0.00504801
0.000440884
0.00524172
0.0083286
0.0112134
0.01274
0.0146963
0.0127339
0.0091226
-0.00203776
-0.0232984
-0.0433125
-0.0532432
-0.0419075
-0.0278229
-0.0141642
-0.00229877
0.0051065
0.013647
0.00663877
-0.090796
-0.0980616
-0.100917
-0.100658
-0.099337
-0.0980225
-0.0967746
-0.0952161
-0.0929912
-0.0899305
-0.0860145
-0.081283
-0.0757773
-0.0695314
-0.0625895
-0.0550241
-0.0469412
-0.0384761
-0.0297777
-0.0210054
-0.012313
-0.00386065
0.00420607
0.0117195
0.018534
0.0244633
0.0293967
0.0329891
0.035125
0.035731
0.0343621
0.0300392
0.0217455
0.0102422
-0.00155012
-0.0100159
-0.013948
-0.013689
-0.0109499
-0.00664644
-0.00174286
0.00289808
0.00707435
0.00984133
0.0126356
0.0144263
0.0164199
0.0149048
0.0119901
0.00295565
-0.0155432
-0.0338755
-0.0437995
-0.0351537
-0.0232435
-0.0110808
-0.000495187
0.0057954
0.0131258
0.00632599
-0.0801544
-0.086638
-0.0892881
-0.0891717
-0.0880631
-0.0869139
-0.0858066
-0.0844299
-0.0824775
-0.0797994
-0.076377
-0.0722458
-0.0674434
-0.0619987
-0.0559449
-0.0493366
-0.0422553
-0.034809
-0.0271201
-0.019324
-0.011555
-0.00395674
0.00333432
0.0101654
0.0163992
0.0218679
0.0264446
0.0298732
0.0320077
0.0327345
0.0317161
0.0283442
0.0219965
0.0132353
0.00404469
-0.00301746
-0.00686185
-0.00742714
-0.00581093
-0.0026846
0.00121337
0.00511093
0.00874475
0.0112387
0.0139323
0.015992
0.0181586
0.0172324
0.015044
0.00797766
-0.00791406
-0.0245079
-0.0342574
-0.0281534
-0.0186255
-0.00810633
0.00126767
0.00653342
0.0125115
0.0059888
-0.0702551
-0.0760056
-0.0784545
-0.0784646
-0.07756
-0.0765845
-0.0756326
-0.0744477
-0.0727668
-0.070457
-0.0674998
-0.063926
-0.0597697
-0.0550556
-0.0498092
-0.0440717
-0.037906
-0.031398
-0.0246482
-0.0177707
-0.0108818
-0.00410885
0.00242505
0.00858152
0.0142305
0.0192199
0.0234247
0.026644
0.0287259
0.0295443
0.028852
0.0262834
0.0214882
0.0149081
0.00784838
0.0021052
-0.00137869
-0.00236196
-0.00149961
0.000741826
0.00381139
0.007063
0.0102311
0.0125095
0.0150956
0.0173791
0.0198508
0.0196801
0.0182346
0.0127898
-0.00089986
-0.0157652
-0.025114
-0.0212253
-0.0140957
-0.00531223
0.00293279
0.00737241
0.0118893
0.00569286
-0.0610975
-0.0661941
-0.0684426
-0.0685485
-0.0678304
-0.0670244
-0.0662299
-0.0652358
-0.0638158
-0.0618524
-0.0593273
-0.0562668
-0.0527008
-0.0486506
-0.0441361
-0.0391885
-0.0338565
-0.0282084
-0.0223263
-0.0163056
-0.0102465
-0.00426019
0.00154412
0.00704261
0.0121147
0.016624
0.0204546
0.0234405
0.0254415
0.0263357
0.0259459
0.0240625
0.0205094
0.0156381
0.0103043
0.0057621
0.00277754
0.00165541
0.00204442
0.0036437
0.00604932
0.00875034
0.0115153
0.013631
0.0161074
0.0185352
0.0213393
0.0219884
0.0212491
0.0169998
0.00506163
-0.00808754
-0.0167747
-0.0146824
-0.00978445
-0.00275366
0.00444358
0.00833158
0.0113302
0.00550294
-0.0527264
-0.0572041
-0.0592349
-0.0593849
-0.0588583
-0.058217
-0.0575746
-0.0567615
-0.0555846
-0.0539406
-0.0518113
-0.0492185
-0.0461881
-0.0427381
-0.0388842
-0.0346501
-0.0300734
-0.0252084
-0.0201221
-0.0148937
-0.00960825
-0.00436175
0.000748873
0.00561456
0.0101271
0.0141621
0.0176342
0.0203817
0.0222877
0.0232456
0.0231313
0.0218302
0.0192729
0.0157405
0.0117925
0.0082992
0.00585596
0.00477516
0.00489572
0.00604554
0.00793293
0.0101749
0.0125869
0.0145727
0.016931
0.0194208
0.0224458
0.0237513
0.0235243
0.0201075
0.00970913
-0.00169486
-0.00952623
-0.00880496
-0.0058176
-0.000469442
0.0057447
0.00936695
0.0108769
0.00544625
-0.045099
-0.049017
-0.0508747
-0.0511474
-0.0506866
-0.0501592
-0.0496454
-0.0489935
-0.0480359
-0.0466805
-0.0449086
-0.0427375
-0.0401888
-0.0372778
-0.0340167
-0.0304234
-0.026527
-0.0223705
-0.0180082
-0.0135054
-0.00893375
-0.00437456
8.72894e-05
0.00435664
0.00833636
0.0118976
0.0150446
0.0175576
0.0193611
0.0203696
0.0204997
0.0196893
0.0179301
0.015442
0.0125952
0.00998682
0.00807362
0.00713927
0.0071344
0.00798216
0.00947534
0.0113412
0.0134394
0.0153075
0.0175229
0.0199824
0.0230241
0.0246347
0.0246196
0.0218032
0.0130034
0.00335704
-0.00354299
-0.00380513
-0.00230299
0.00152234
0.00678429
0.0103368
0.0105338
0.00549073
-0.0381255
-0.0415286
-0.043186
-0.0434672
-0.0431615
-0.0427714
-0.0423869
-0.0418864
-0.0411277
-0.040031
-0.0385786
-0.0367839
-0.0346649
-0.0322342
-0.0295014
-0.0264799
-0.0231921
-0.0196718
-0.0159626
-0.012118
-0.0081977
-0.00426997
-0.000406173
0.00331374
0.00681608
0.0100328
0.0127657
0.0150318
0.016727
0.0177714
0.0181076
0.0177032
0.0165773
0.0148956
0.012925
0.0110478
0.00961665
0.00887769
0.00884167
0.00949608
0.0106945
0.0122567
0.0140731
0.0158143
0.0178493
0.0201725
0.0230461
0.0245856
0.0245531
0.0221919
0.0150593
0.00709733
0.00112762
0.000214244
0.000685018
0.00322636
0.00752798
0.0110153
0.0102562
0.00555073
-0.0317926
-0.0347383
-0.0362139
-0.0365198
-0.0363249
-0.0360456
-0.0357721
-0.0354049
-0.0348223
-0.0339542
-0.0327838
-0.0313217
-0.0295825
-0.0275763
-0.0253107
-0.0227955
-0.0200479
-0.0170941
-0.0139692
-0.0107163
-0.00738445
-0.00403042
-0.00071439
0.00249599
0.00553401
0.00832602
0.0107729
0.0128287
0.0144203
0.0154853
0.015985
0.0159039
0.0152731
0.0142177
0.0129443
0.0116419
0.0106313
0.010105
0.0100962
0.0106335
0.0116137
0.0129315
0.0144944
0.0160865
0.0178995
0.0199826
0.0226552
0.0238032
0.0236753
0.0216577
0.0160799
0.00965267
0.00458366
0.00327616
0.00310963
0.00464779
0.00796957
0.0112219
0.00994561
0.00549047
-0.0260686
-0.0286058
-0.0299149
-0.0302368
-0.0301259
-0.02994
-0.0297626
-0.0295127
-0.029084
-0.0284149
-0.0274904
-0.0263185
-0.0249114
-0.0232771
-0.0214211
-0.0193506
-0.0170785
-0.014625
-0.0120179
-0.00929158
-0.00648608
-0.0036479
-0.000826927
0.0019191
0.00453128
0.00694544
0.00910145
0.0109672
0.0124575
0.0135239
0.0141448
0.0143119
0.0140572
0.0134685
0.0126586
0.0118821
0.0112395
0.010921
0.0109708
0.0114418
0.0122619
0.0133806
0.0147145
0.0161352
0.0176952
0.0194028
0.0209655
0.022482
0.0223503
0.0206088
0.0163341
0.0112382
0.00701878
0.00549797
0.00497477
0.00577554
0.00811835
0.0109129
0.00949844
0.00518318
-0.0209039
-0.023081
-0.0242387
-0.0245685
-0.0245323
-0.0244305
-0.0243308
-0.0241755
-0.0238763
-0.0233779
-0.0226653
-0.0217442
-0.0206245
-0.0193127
-0.0178126
-0.0161293
-0.0142721
-0.0122565
-0.0101042
-0.00784211
-0.0055025
-0.00312279
-0.000743767
0.00158667
0.00381782
0.00589005
0.00773286
0.00945323
0.0108408
0.0118867
0.0125867
0.0129365
0.0129628
0.0127327
0.0123217
0.0118982
0.0115477
0.0114134
0.0115325
0.0119685
0.0126705
0.0136253
0.0147526
0.0159918
0.0173071
0.0187108
0.0200023
0.0210362
0.0208549
0.0193453
0.0160902
0.0120991
0.00864068
0.00703049
0.00631683
0.00659694
0.00801605
0.0101392
0.00813357
0.0045863
-0.016256
-0.0181194
-0.0191416
-0.0194738
-0.0194977
-0.0194637
-0.0194322
-0.019355
-0.0191633
-0.0188091
-0.0182772
-0.0175707
-0.0166974
-0.0156624
-0.0144686
-0.0131192
-0.0116209
-0.00998508
-0.00822839
-0.00637187
-0.00444069
-0.00246456
-0.000475444
0.00149012
0.00339553
0.00520578
0.00691818
0.008326
0.00956375
0.0105619
0.011301
0.0117739
0.0120015
0.0120292
0.0119131
0.0117592
0.0116375
0.0116557
0.0118416
0.0122601
0.0128722
0.0136899
0.0146354
0.0156931
0.0167784
0.0179059
0.0189004
0.0195732
0.0193453
0.0180415
0.0155551
0.0124442
0.00963705
0.0080255
0.00720048
0.00712023
0.00773816
0.00914648
0.00722548
0.00387174
-0.0120874
-0.0136777
-0.0145783
-0.0149083
-0.0149804
-0.0150031
-0.0150279
-0.0150154
-0.0149109
-0.0146761
-0.0142959
-0.0137711
-0.0131071
-0.0123076
-0.0113749
-0.0103108
-0.00911993
-0.00781056
-0.00639515
-0.00488973
-0.00331381
-0.00169025
-4.42739e-05
0.0015949
0.00319901
0.00473377
0.00616644
0.00744542
0.00856892
0.00951383
0.0102632
0.0108124
0.0111767
0.0113832
0.0114752
0.0115218
0.0115728
0.0117098
0.011952
0.0123597
0.0129008
0.0136022
0.0143896
0.0152722
0.0161475
0.0170281
0.0177563
0.0181629
0.0179022
0.0167848
0.0148668
0.0124297
0.0101616
0.00861612
0.00770833
0.00737701
0.00735821
0.00808417
0.00628884
0.00316038
-0.00835832
-0.00971183
-0.0105044
-0.0108287
-0.0109392
-0.0110082
-0.0110799
-0.0111223
-0.0110883
-0.0109493
-0.0106938
-0.0103205
-0.00983227
-0.00923138
-0.00851913
-0.00769659
-0.00676674
-0.00573538
-0.00461174
-0.00340778
-0.00213817
-0.000820432
0.000525808
0.00187768
0.00321231
0.00450216
0.00572236
0.00684243
0.00784892
0.00872005
0.0094531
0.0100394
0.0104854
0.0108105
0.0110423
0.0112293
0.0114037
0.0116271
0.0119107
0.0123073
0.0127893
0.0133902
0.0140408
0.0147623
0.0154546
0.0161202
0.0166286
0.0168427
0.0165629
0.0156103
0.0141096
0.0121777
0.0103369
0.00889852
0.00792379
0.00741233
0.00693651
0.00706543
0.00539591
0.00253804
-0.00503094
-0.00618094
-0.0068785
-0.00719469
-0.00733532
-0.00744124
-0.00755004
-0.0076368
-0.00766268
-0.00760134
-0.0074458
-0.00719586
-0.00685287
-0.00641752
-0.00589002
-0.00527039
-0.00456039
-0.00376383
-0.00288731
-0.00193972
-0.000932034
0.000122615
0.00120937
0.00231076
0.0034091
0.00448329
0.00551469
0.00648135
0.00737021
0.00816501
0.00885807
0.00944316
0.00992643
0.0103186
0.0106368
0.0109139
0.0111695
0.0114492
0.0117579
0.0121397
0.0125697
0.0130822
0.0136159
0.0141946
0.0147303
0.0152161
0.0155522
0.0156295
0.0153406
0.014527
0.0133311
0.0117789
0.010261
0.00894193
0.00791159
0.00728125
0.00651186
0.0061602
0.00459299
0.00203454
-0.00207143
-0.00304731
-0.00366156
-0.00396812
-0.00413173
-0.00426665
-0.00440441
-0.00452576
-0.00459952
-0.00460376
-0.00452907
-0.00437657
-0.00415113
-0.00385198
-0.00347777
-0.00302712
-0.0025007
-0.00190082
-0.00123199
-0.000500701
0.000284921
0.00111524
0.0019793
0.00286404
0.00375611
0.00463959
0.00550035
0.00632209
0.00709371
0.00780153
0.00843932
0.00900109
0.00948904
0.0099095
0.0102721
0.0105989
0.0109006
0.0112103
0.0115282
0.0118896
0.0122719
0.0127058
0.0131403
0.0135952
0.0139992
0.0143403
0.0145451
0.0145261
0.0142343
0.0135347
0.0125605
0.0112927
0.0100131
0.00882624
0.00778598
0.00704098
0.00610178
0.00539758
0.00391017
0.00164662
0.00055198
-0.000275512
-0.000817102
-0.00111305
-0.00129381
-0.00145106
-0.00161089
-0.00175853
-0.00186917
-0.00192504
-0.00191866
-0.00184912
-0.00171664
-0.00152407
-0.00127461
-0.000962757
-0.000588084
-0.000151538
0.000344068
0.000894286
0.00149316
0.00213367
0.00280791
0.00350637
0.0042192
0.00493467
0.00564209
0.00632896
0.00698623
0.00760325
0.00817443
0.0086941
0.00916197
0.00958111
0.00995595
0.0103007
0.0106203
0.010938
0.0112508
0.0115856
0.0119225
0.0122859