/*--------------------------------*- C++ -*----------------------------------*\
| =========                 |                                                 |
| \\      /  F ield         | OpenFOAM: The Open Source CFD Toolbox           |
|  \\    /   O peration     | Version:  2512                                  |
|   \\  /    A nd           | Website:  www.openfoam.com                      |
|    \\/     M anipulation  |                                                 |
\*---------------------------------------------------------------------------*/
FoamFile
{
    version     2.0;
    format      ascii;
    arch        "LSB;label=32;scalar=64";
    class       surfaceScalarField;
    location    "123.75";
    object      phi;
}
// * * * * * * * * * * * * * * * * * * * * * * * * * * * * * * * * * * * * * //

dimensions      [0 3 -1 0 0 0 0];

oriented        oriented;

internalField   nonuniform List<scalar> 
26232
(
-4.9379e-05
0.000879282
-0.000829903
3.32863e-05
0.00156733
-0.00164999
0.000458706
0.00138625
-0.00181167
0.00142804
0.000403908
-0.00137324
0.00313617
-0.00135715
-0.000350975
0.00577077
-0.00389571
0.00126111
0.00950544
-0.00721621
0.00348153
0.0144883
-0.0113134
0.00633048
0.020827
-0.0161584
0.00981973
0.0285724
-0.0216896
0.0139443
0.0377051
-0.0278092
0.0186764
0.0481281
-0.0343862
0.0239632
0.0596668
-0.0412658
0.0297271
0.0720781
-0.0482818
0.0358704
0.0850668
-0.05527
0.0422813
0.0983069
-0.0620819
0.0488419
0.111466
-0.068595
0.0554355
0.124232
-0.0747214
0.0619559
0.136334
-0.0804089
0.0683064
0.147559
-0.0856556
0.0744305
0.157778
-0.0904572
0.0802383
0.166895
-0.0949664
0.0858498
0.174872
-0.0989584
0.0909814
-0.103255
0.0966939
0.181433
3.78664e-05
0.000841416
0.000376326
0.00122887
0.00123736
0.000525215
0.00283763
-0.00119636
0.00538589
-0.00390541
0.0090731
-0.00758292
0.014056
-0.0121991
0.0204363
-0.0176937
0.0282401
-0.0239622
0.0374023
-0.0308518
0.0477615
-0.0381684
0.0590679
-0.0456926
0.0710034
-0.0532014
0.083211
-0.0604894
0.0953289
-0.0673879
0.107025
-0.0737776
0.118025
-0.0795955
0.128138
-0.0848344
0.137266
-0.0895367
0.145396
-0.0937858
0.152618
-0.0976788
0.159016
-0.101364
0.164868
-0.10481
-0.10856
0.170172
0.000133516
0.0007079
0.000760191
0.000602195
0.00211365
-0.000828246
0.00442072
-0.00350343
0.00788954
-0.00737423
0.012688
-0.0123814
0.0189163
-0.0184274
0.0265798
-0.0253572
0.035571
-0.0329534
0.0456676
-0.0409485
0.0565504
-0.0490511
0.0678368
-0.056979
0.0791259
-0.0644904
0.0900446
-0.0714081
0.100289
-0.0776318
0.109651
-0.0831398
0.118035
-0.0879795
0.125451
-0.0922511
0.132
-0.0960857
0.13784
-0.0996252
0.143154
-0.102993
0.148109
-0.106319
0.152879
-0.109581
-0.113169
0.157488
0.000237532
0.000470368
0.00118089
-0.00034116
0.00307248
-0.00271984
0.00613708
-0.00656803
0.0105575
-0.0117946
0.0164397
-0.0182636
0.0237775
-0.0257652
0.0324299
-0.0340096
0.0421219
-0.0426455
0.0524731
-0.0512997
0.0630476
-0.0596256
0.0734149
-0.0673462
0.0832071
-0.0742827
0.0921622
-0.0803632
0.100145
-0.0856149
0.107147
-0.0901414
0.113261
-0.094094
0.118651
-0.0976405
0.123505
-0.10094
0.128002
-0.104123
0.132295
-0.107285
0.136474
-0.110499
0.14064
-0.113746
-0.117273
0.144744
0.000352216
0.000118151
0.00163951
-0.00162845
0.00410301
-0.00518335
0.00794377
-0.0104088
0.0132829
-0.0171337
0.0201161
-0.0250968
0.0282828
-0.0339319
0.0374666
-0.0431934
0.0472342
-0.0524131
0.057103
-0.0611684
0.0666185
-0.0691411
0.0754218
-0.0761496
0.0832915
-0.0821524
0.0901541
-0.0872258
0.0960657
-0.0915264
0.101173
-0.0952488
0.105667
-0.0985878
0.109739
-0.101712
0.113551
-0.104752
0.117223
-0.107795
0.120833
-0.110896
0.124421
-0.114087
0.12803
-0.117355
-0.120848
0.131605
0.00048005
-0.000361899
0.00213533
-0.00328373
0.0051858
-0.00823382
0.00977596
-0.0149989
0.0159197
-0.0232775
0.0234557
-0.0326328
0.0320421
-0.0425182
0.0412015
-0.0523528
0.0504064
-0.061618
0.0591754
-0.0699374
0.0671508
-0.0771164
0.0741391
-0.0831379
0.0801103
-0.0881237
0.0851638
-0.0922793
0.0894762
-0.0958388
0.0932489
-0.0990215
0.096667
-0.102006
0.0998766
-0.104922
0.10298
-0.107855
0.106039
-0.110854
0.109091
-0.113948
0.112151
-0.117146
0.11524
-0.120444
-0.123918
0.11831
0.000621077
-0.000982976
0.00265848
-0.00532113
0.00628068
-0.011856
0.0115338
-0.0202521
0.018279
-0.0300227
0.0261702
-0.040524
0.0346976
-0.0510457
0.0432885
-0.0609437
0.0514237
-0.0697532
0.0587298
-0.0772436
0.0650219
-0.0834085
0.0702924
-0.0884085
0.0746652
-0.0924965
0.078333
-0.095947
0.0815009
-0.0990067
0.0843482
-0.101869
0.0870105
-0.104668
0.0895791
-0.107491
0.0921094
-0.110385
0.094632
-0.113377
0.0971619
-0.116477
0.0997046
-0.119689
0.102268
-0.123008
-0.126464
0.104814
0.000771577
-0.00175455
0.00318685
-0.0077364
0.00732453
-0.0159937
0.0130886
-0.0260162
0.0201562
-0.0370902
0.0280034
-0.0483712
0.0360128
-0.0590551
0.0436128
-0.0685437
0.0503915
-0.0765318
0.0561469
-0.082999
0.060873
-0.0881346
0.0647026
-0.0922381
0.0678367
-0.0956305
0.0704835
-0.0985938
0.0728202
-0.101343
0.0749778
-0.104026
0.0770425
-0.106733
0.0790656
-0.109514
0.0810749
-0.112394
0.0830844
-0.115386
0.0851001
-0.118493
0.0871234
-0.121713
0.089157
-0.125041
-0.128483
0.0911758
0.000924211
-0.00267876
0.00368798
-0.0105002
0.00823938
-0.0205451
0.0143053
-0.0320821
0.021375
-0.0441599
0.0287947
-0.0557909
0.0359269
-0.0661872
0.0422938
-0.0749106
0.0476477
-0.0818857
0.0519603
-0.0873117
0.0553595
-0.0915337
0.0580489
-0.0949276
0.0602412
-0.0978229
0.0621162
-0.100469
0.0638051
-0.103032
0.0653934
-0.105615
0.0669309
-0.10827
0.0684447
-0.111027
0.0699485
-0.113898
0.0714484
-0.116886
0.072947
-0.119992
0.0744449
-0.12321
0.0759413
-0.126538
-0.129963
0.077422
0.00106896
-0.00374773
0.00412392
-0.0135551
0.00894626
-0.0253674
0.0150701
-0.0382059
0.0218271
-0.050917
0.0285086
-0.0624724
0.0345444
-0.072223
0.0396075
-0.0799737
0.0436198
-0.085898
0.046687
-0.0903789
0.0490096
-0.0938563
0.0508054
-0.0967233
0.052261
-0.0992785
0.0535132
-0.101721
0.0546504
-0.10417
0.0557239
-0.106688
0.0567614
-0.109308
0.0577767
-0.112043
0.0587768
-0.114898
0.0597649
-0.117875
0.0607419
-0.120969
0.0617078
-0.124176
0.0626608
-0.127491
-0.130897
0.0635944
0.00119512
-0.00494285
0.00445853
-0.0168185
0.00938056
-0.0302895
0.0153128
-0.0441382
0.0214877
-0.0570918
0.027223
-0.0682078
0.032077
-0.077077
0.0358872
-0.0837838
0.0387141
-0.0887249
0.0407442
-0.092409
0.0421993
-0.0953114
0.0432766
-0.0978006
0.044123
-0.100125
0.0448341
-0.102432
0.0454656
-0.104801
0.046047
-0.10727
0.0465934
-0.109854
0.0471124
-0.112562
0.0476078
-0.115394
0.0480816
-0.118348
0.0485341
-0.121421
0.0489647
-0.124607
0.0493703
-0.127896
-0.131276
0.0497492
0.00129548
-0.00623833
0.00466606
-0.0201891
0.00950403
-0.0351274
0.0150161
-0.0496503
0.0204086
-0.0624843
0.0250929
-0.0728921
0.028781
-0.0807651
0.031455
-0.0864579
0.0332687
-0.0905386
0.0344417
-0.093582
0.0351835
-0.0960531
0.0356558
-0.0982729
0.035966
-0.100435
0.0361773
-0.102643
0.0363233
-0.104947
0.0364206
-0.107367
0.0364775
-0.109911
0.0364987
-0.112583
0.0364869
-0.115382
0.0364438
-0.118305
0.0363699
-0.121347
0.0362645
-0.124501
0.0361243
-0.127756
0.0359501
-0.131102
-0.000297927
-0.00188897
0.0021869
-0.00103326
-0.00414296
0.0048783
-0.0021103
-0.0053241
0.00640113
-0.0034589
-0.00571033
0.00705894
-0.00502704
-0.0055374
0.00710553
-0.00677709
-0.00498914
0.00673918
-0.00868167
-0.00419183
0.00609641
-0.0107194
-0.00321616
0.00525391
-0.0128715
-0.00208601
0.00423811
-0.015119
-0.000791164
0.00303866
-0.0174383
0.000698475
0.00162077
-0.0198062
0.00242181
-5.38455e-05
-0.022193
0.00441775
-0.00203099
-0.0245643
0.00672033
-0.00434905
-0.0268752
0.00935519
-0.0070443
-0.0290733
0.0123358
-0.0101377
-0.0310975
0.015661
-0.0136368
-0.0328782
0.0193123
-0.0175316
-0.0343384
0.023251
-0.0217908
-0.0353969
0.0274173
-0.0263588
-0.0359722
0.0317295
-0.0311541
-0.035987
0.0360855
-0.0360708
-0.03538
0.0403775
-0.0409844
0.0445244
-0.0341512
-0.0457531
-0.000320586
-0.00156838
-0.00109206
-0.00337149
-0.00219701
-0.00421914
-0.00355202
-0.00435532
-0.00509837
-0.00399104
-0.00679555
-0.00329196
-0.00861461
-0.00237277
-0.010532
-0.00129879
-0.0125245
-9.34699e-05
-0.0145659
0.00125017
-0.0166249
0.00275755
-0.0186645
0.00446136
-0.0206402
0.0063935
-0.0224997
0.00857978
-0.0241809
0.0110364
-0.0256121
0.013767
-0.0267116
0.0167606
-0.0273884
0.019989
-0.027543
0.0234057
-0.0270711
0.0269454
-0.0258686
0.030527
-0.0238403
0.0340572
-0.0209011
0.0374383
0.0406036
-0.0169803
-0.000320056
-0.00124833
-0.00107663
-0.00261492
-0.002139
-0.00315678
-0.00341336
-0.00308095
-0.00483387
-0.00257054
-0.0063548
-0.00177103
-0.00794258
-0.000784989
-0.00956842
0.000327056
-0.0112025
0.00154062
-0.0128101
0.00285781
-0.0143493
0.00429674
-0.0157698
0.00588183
-0.0170126
0.00763632
-0.0180097
0.0095769
-0.0186836
0.0117103
-0.0189472
0.0140306
-0.0187044
0.0165177
-0.017851
0.0191356
-0.0162754
0.0218301
-0.013861
0.024531
-0.0104891
0.0271551
-0.00604031
0.0296084
-0.000409089
0.0318071
0.0337934
0.00640108
-0.000304083
-0.000944244
-0.00101227
-0.00190673
-0.00198616
-0.00218289
-0.00312338
-0.00194374
-0.00435013
-0.00134378
-0.00561343
-0.000507727
-0.00687268
0.000474255
-0.00809196
0.00154634
-0.00923381
0.00268247
-0.0102549
0.00387887
-0.0111035
0.00514532
-0.0117186
0.00649696
-0.0120299
0.00794763
-0.011958
0.00950497
-0.0114149
0.0111672
-0.0103048
0.0129206
-0.00852487
0.0147378
-0.00596789
0.0165786
-0.00252469
0.0183869
0.00191509
0.0200912
0.0074641
0.021606
0.014228
0.0228445
0.0223115
0.0237235
0.0241556
0.0319494
-0.000281991
-0.000662253
-0.000928233
-0.00126049
-0.00179536
-0.00131576
-0.00277327
-0.000965831
-0.00377968
-0.000337371
-0.00475307
0.000465662
-0.0056443
0.00136549
-0.00640941
0.00231145
-0.00700326
0.00327632
-0.00737514
0.00425074
-0.00746617
0.00523636
-0.00720843
0.00623922
-0.00652498
0.00726418
-0.00533066
0.00831066
-0.00353351
0.00937
-0.00103613
0.0104232
0.00226145
0.0114402
0.00646278
0.0123773
0.01167
0.0131796
0.0179816
0.0137797
0.0254903
0.0140973
0.0342955
0.0140393
0.0444487
0.0135703
0.0122663
0.0563379
-0.000261902
-0.000400351
-0.000849662
-0.000672728
-0.00161505
-0.000550366
-0.00244069
-0.000140194
-0.00323603
0.000457966
-0.00393035
0.00115998
-0.00446585
0.00190099
-0.00479035
0.00263595
-0.00485155
0.00333752
-0.00459275
0.00399194
-0.00395031
0.00459392
-0.00285264
0.00514155
-0.00122047
0.00563201
0.00103207
0.00605811
0.0039964
0.00640568
0.00776728
0.00665231
0.0124414
0.00676608
0.0181138
0.00670485
0.024878
0.00641545
0.0328225
0.00583515
0.042024
0.0048958
0.0525929
0.00347045
0.064457
0.00170629
-0.0015532
0.0782765
-0.000248204
-0.000152147
-0.000789737
-0.000131194
-0.00147017
0.000130067
-0.00216514
0.000554773
-0.00277605
0.00106888
-0.00322364
0.00160757
-0.00344119
0.00211853
-0.00336811
0.00256287
-0.00294459
0.002914
-0.00210757
0.00315493
-0.000788346
0.00327469
0.00108853
0.00326467
0.00360526
0.00311528
0.00684992
0.00281346
0.010915
0.00234063
0.0158958
0.0016715
0.0218888
0.000773101
0.0289878
-0.000394193
0.0372873
-0.00188405
0.0468754
-0.00375294
0.0578136
-0.00604238
0.0702517
-0.00896764
0.0839571
-0.0119992
-0.0173894
0.0997933
-0.000239962
8.78146e-05
-0.000744754
0.000373598
-0.00135219
0.000737499
-0.00193076
0.00113335
-0.00237381
0.00151193
-0.00259285
0.00182661
-0.00251093
0.00203661
-0.00205668
0.00210862
-0.00115931
0.00201663
0.00025516
0.00174046
0.00226596
0.00126389
0.00495894
0.000571693
0.00842621
-0.000351989
0.0127651
-0.00152547
0.0180768
-0.00297098
0.0244633
-0.00471501
0.0320253
-0.00678896
0.0408601
-0.00922899
0.0510512
-0.0120751
0.0626781
-0.0153799
0.0757675
-0.0191318
0.0904486
-0.0236487
0.106392
-0.0279423
-0.0352928
0.124295
-0.000231107
0.000318921
-0.000694763
0.000837254
-0.00121991
0.00126265
-0.00166693
0.00158036
-0.00191921
0.00176421
-0.001876
0.00178339
-0.0014457
0.00160632
-0.000540126
0.00120305
0.000929524
0.000546975
0.00305682
-0.00038684
0.00593948
-0.00161877
0.00968152
-0.00317034
0.01439
-0.00506051
0.0201729
-0.00730828
0.0271343
-0.00993243
0.0353706
-0.0129513
0.0449643
-0.0163826
0.0559784
-0.0202432
0.0684485
-0.0245452
0.0823807
-0.0293121
0.0977254
-0.0344765
0.114431
-0.0403539
0.132263
-0.0457745
-0.0542416
0.151212
-0.000212801
0.000531722
-0.000610613
0.00123507
-0.00101335
0.00166539
-0.00127096
0.00183797
-0.0012529
0.00174615
-0.000840633
0.00137113
7.85967e-05
0.000687091
0.00161757
-0.000335921
0.00388883
-0.00172429
0.00700943
-0.00350744
0.0110978
-0.00570711
0.0162687
-0.00834127
0.0226296
-0.0114214
0.0302731
-0.0149518
0.0392703
-0.0189296
0.0496634
-0.0233444
0.0614592
-0.0281784
0.0746239
-0.0334079
0.0890786
-0.0389999
0.104695
-0.0449283
0.121309
-0.051091
0.138621
-0.0576657
0.156582
-0.0637352
-0.0719431
0.174283
-0.000177231
0.000708954
-0.000465893
0.00152373
-0.000677302
0.0018768
-0.000647983
0.00180865
-0.00022883
0.001327
0.000721669
0.000420629
0.00234212
-0.000933358
0.00476929
-0.00276309
0.00814028
-0.00509529
0.0125839
-0.00795104
0.0182172
-0.0113404
0.0251357
-0.0152597
0.033404
-0.0196897
0.0430475
-0.0245953
0.0540448
-0.0299269
0.0663235
-0.0356231
0.0797587
-0.0416135
0.0941748
-0.0478241
0.109349
-0.0541745
0.125025
-0.0606035
0.140932
-0.0669982
0.156702
-0.0734354
0.172344
-0.0793776
-0.0861933
0.186594
-0.000120949
-0.000247215
-0.000182087
0.000253321
0.00122935
0.00291108
0.00545925
0.00902664
0.0137511
0.0197443
0.0270804
0.0357838
0.0458212
0.0570963
0.0694507
0.0826694
0.0964914
0.110623
0.124755
0.138582
0.151822
0.164237
0.17584
0.186341
-0.0300902
0.0645419
-0.0686029
-0.0247233
0.0700719
-0.0754388
-0.0179339
0.0736531
-0.0804425
-0.00963849
0.0745803
-0.0828758
0.000134401
0.0721349
-0.0819078
0.0112082
0.0656983
-0.0767722
0.0232064
0.0548435
-0.0668417
0.0357006
0.0393856
-0.0518798
0.048265
0.0193689
-0.0319333
0.0604103
-0.00483343
-0.00731189
0.0722047
-0.0326737
0.0208793
0.0834279
-0.0630443
0.051821
0.0938415
-0.0934244
0.0830108
0.102861
-0.120216
0.111197
0.109757
-0.140155
0.133258
0.114089
-0.151955
0.147623
0.115889
-0.156468
0.154668
0.115126
-0.155942
0.156705
0.111336
-0.15414
0.15793
0.104678
-0.155196
0.161854
0.0973333
-0.158861
0.166205
0.0930806
-0.156769
0.161022
0.0947466
-0.136232
0.134566
0.1023
-0.0906904
0.0831371
0.113723
-0.0260425
0.0146197
0.126246
0.0434538
-0.0559776
0.137468
0.103443
-0.114665
0.145731
0.146378
-0.15464
0.150799
0.171773
-0.176841
0.153188
0.183526
-0.185916
0.15266
0.189055
-0.188526
0.148422
0.199406
-0.195167
0.141243
0.215362
-0.208183
0.13432
0.220911
-0.213988
0.131103
0.189849
-0.186633
0.132956
0.114286
-0.116139
0.138665
0.0120976
-0.0178072
0.145766
-0.0855351
0.0784344
0.152283
-0.155169
0.148651
0.156489
-0.19627
0.192065
0.156436
-0.213745
0.213798
0.15111
-0.232111
0.237437
0.142483
-0.239985
0.248612
0.135334
-0.231175
0.238324
0.133486
-0.168045
0.169893
0.137718
-0.0663728
0.0621412
0.145087
0.0420516
-0.0494202
0.150695
0.142519
-0.148127
0.150739
0.198195
-0.198238
0.145751
0.270492
-0.265505
0.140186
0.26775
-0.262185
0.139044
0.245097
-0.243954
0.142391
0.133652
-0.136999
0.1462
-0.00663956
0.00283117
0.146585
-0.0920028
0.0916176
0.144134
-0.268352
0.270802
0.142353
-0.254625
0.256406
0.141504
-0.305491
0.30634
0.140233
-0.186347
0.187618
0.0717843
-0.0698609
-0.0107863
0.0583479
-0.00339563
0.0626813
0.00522342
0.065034
0.0149976
0.0648061
0.0257399
0.0613925
0.0371514
0.0542868
0.0488594
0.0431355
0.060441
0.027804
0.071541
0.0082689
0.081916
-0.0152084
0.0915567
-0.0423144
0.100371
-0.0718587
0.108085
-0.101138
0.114171
-0.126302
0.118076
-0.144061
0.119553
-0.153431
0.118866
-0.155781
0.116357
-0.153434
0.111632
-0.149415
0.104134
-0.147698
0.0950885
-0.149815
0.0881663
-0.149847
0.0873176
-0.135383
0.0936952
-0.097068
0.105491
-0.0378385
0.119512
0.0294333
0.132713
0.0902422
0.143102
0.135989
0.150225
0.164649
0.154311
0.179441
0.155015
0.18835
0.151842
0.202579
0.145852
0.221352
0.14
0.226762
0.137153
0.192696
0.138394
0.113046
0.14289
0.00760131
0.14832
-0.0909652
0.153115
-0.159963
0.155951
-0.199107
0.155112
-0.212906
0.149374
-0.226373
0.140388
-0.230999
0.132971
-0.223758
0.131379
-0.166453
0.136335
-0.0713286
0.144582
0.0338048
0.150742
0.136359
0.151186
0.19775
0.14646
0.275219
0.140894
0.273316
0.139646
0.246345
0.142879
0.13042
0.146858
-0.0106191
0.1472
-0.0923449
0.144549
-0.2657
0.142645
-0.252722
0.141631
-0.304477
0.140209
-0.184925
0.0737814
0.0139852
0.0507638
0.0225666
0.0540998
0.0320492
0.0555514
0.0422873
0.0545681
0.053021
0.0506589
0.0639199
0.0433879
0.0746221
0.0324333
0.0847874
0.0176388
0.0941552
-0.00109892
0.102586
-0.0236393
0.11005
-0.0497786
0.116448
-0.0782564
0.12145
-0.10614
0.124588
-0.129441
0.125554
-0.145027
0.124373
-0.152249
0.121481
-0.152889
0.117454
-0.149407
0.112112
-0.144073
0.104445
-0.140031
0.0945542
-0.139925
0.0854594
-0.140752
0.0818442
-0.131768
0.0863656
-0.101589
0.0978223
-0.0492952
0.112828
0.0144271
0.127709
0.075362
0.140143
0.123555
0.149343
0.155449
0.155199
0.173584
0.157327
0.186222
0.155512
0.204394
0.150938
0.225926
0.146172
0.231528
0.143543
0.195325
0.143971
0.112618
0.147061
0.00451148
0.150772
-0.0946757
0.153837
-0.163028
0.155326
-0.200596
0.153812
-0.211392
0.147862
-0.220424
0.138701
-0.221837
0.131055
-0.216112
0.129607
-0.165006
0.135106
-0.0768276
0.144113
0.0247985
0.150825
0.129646
0.151758
0.196817
0.147373
0.279604
0.141821
0.278868
0.140419
0.247747
0.143492
0.127347
0.147639
-0.0147663
0.147955
-0.092661
0.145061
-0.262805
0.143011
-0.250672
0.141867
-0.303333
0.140342
-0.1834
0.07583
0.0402382
0.042475
0.0492689
0.0450691
0.0589054
0.045915
0.0689483
0.0445251
0.0791074
0.0404998
0.0890629
0.0334325
0.0985091
0.022987
0.107122
0.009026
0.11488
-0.00885693
0.12154
-0.0302997
0.127063
-0.0553011
0.131239
-0.0824326
0.133659
-0.10856
0.133938
-0.12972
0.132066
-0.143154
0.128441
-0.148624
0.123646
-0.148094
0.118317
-0.144078
0.112552
-0.138308
0.105266
-0.132744
0.0955213
-0.13018
0.0851016
-0.130332
0.0787512
-0.125418
0.0806578
-0.103496
0.0908998
-0.0595372
0.106239
-0.000912486
0.122433
0.059168
0.136776
0.109212
0.148031
0.144194
0.155725
0.16589
0.159466
0.182481
0.159272
0.204588
0.156295
0.228904
0.152627
0.235196
0.150076
0.197876
0.149589
0.113105
0.151047
0.00305283
0.153075
-0.0967034
0.15445
-0.164404
0.154612
-0.200757
0.152492
-0.209272
0.146501
-0.214433
0.137355
-0.212692
0.129533
-0.20829
0.128104
-0.163576
0.133977
-0.0827008
0.143631
0.0151443
0.150918
0.12236
0.152442
0.195293
0.148498
0.283547
0.142997
0.284369
0.141393
0.24935
0.144236
0.124504
0.14853
-0.0190596
0.148838
-0.0929694
0.145666
-0.259634
0.143445
-0.24845
0.142201
-0.302089
0.140619
-0.181818
0.0779053
0.0648212
0.0339917
0.0737667
0.0361236
0.0830824
0.0365992
0.0925692
0.0350384
0.101927
0.0311421
0.110862
0.0244973
0.119141
0.0147084
0.12652
0.00164705
0.132992
-0.0153288
0.13828
-0.0355882
0.142184
-0.0592056
0.144308
-0.0845561
0.144205
-0.108457
0.141719
-0.127234
0.137229
-0.138664
0.13149
-0.142886
0.125211
-0.141814
0.118917
-0.137785
0.11284
-0.132231
0.106177
-0.126082
0.0973987
-0.121402
0.0867838
-0.119717
0.0782446
-0.116879
0.0770382
-0.10229
0.085064
-0.0675629
0.0998654
-0.0157139
0.116898
0.0421359
0.132905
0.093205
0.146113
0.130986
0.155675
0.156328
0.161193
0.176964
0.162848
0.202933
0.16163
0.230122
0.159101
0.237724
0.156555
0.200422
0.15499
0.114671
0.154843
0.00319989
0.155168
-0.0970288
0.154918
-0.164154
0.153788
-0.199626
0.151116
-0.2066
0.145225
-0.208542
0.136276
-0.203743
0.128342
-0.200356
0.126816
-0.162051
0.132879
-0.0887637
0.14308
0.00494326
0.150976
0.114463
0.153209
0.19306
0.149823
0.286933
0.144432
0.289761
0.142587
0.251195
0.145112
0.121979
0.149515
-0.0234626
0.149834
-0.0932893
0.146359
-0.256158
0.143942
-0.246034
0.142622
-0.300769
0.141026
-0.180222
0.0799799
0.0864602
0.025808
0.094934
0.0276497
0.103672
0.027861
0.112466
0.0262445
0.121016
0.0225919
0.129077
0.0164364
0.136291
0.00749471
0.143072
-0.00513382
0.14844
-0.0206972
0.152552
-0.0396999
0.154941
-0.0615944
0.155062
-0.084677
0.15254
-0.105935
0.147539
-0.122233
0.140814
-0.131939
0.133387
-0.135459
0.126048
-0.134476
0.119171
-0.130908
0.112914
-0.125973
0.106855
-0.120023
0.0994956
-0.114042
0.0898291
-0.110051
0.0801536
-0.107203
0.0758412
-0.0979772
0.0807911
-0.0725128
0.0939053
-0.0288281
0.111156
0.024885
0.128434
0.0759276
0.143391
0.116028
0.154792
0.144927
0.162203
0.169553
0.16588
0.199256
0.166576
0.229426
0.165271
0.239029
0.162738
0.202955
0.160068
0.117341
0.158287
0.00498056
0.156974
-0.0957159
0.155195
-0.162375
0.152823
-0.197254
0.149633
-0.20341
0.143951
-0.20286
0.135363
-0.195155
0.127395
-0.192387
0.125667
-0.160323
0.131745
-0.0948419
0.142389
-0.00570131
0.150944
0.105909
0.154015
0.189989
0.151319
0.28963
0.146121
0.294959
0.144005
0.253311
0.146114
0.11987
0.150575
-0.0279237
0.150925
-0.0936395
0.147129
-0.252362
0.144496
-0.2434
0.143119
-0.299392
0.141546
-0.178649
0.0820232
0.106873
0.0187283
0.114346
0.0201771
0.122167
0.0200394
0.130059
0.0183527
0.137727
0.0149236
0.144979
0.00918519
0.15148
0.000993137
0.157218
-0.0108712
0.161651
-0.0251308
0.164475
-0.0425242
0.165157
-0.0622759
0.163157
-0.0826773
0.158313
-0.101092
0.151135
-0.115055
0.14267
-0.123474
0.134054
-0.126842
0.126068
-0.126489
0.118955
-0.123795
0.112691
-0.119709
0.107094
-0.114426
0.101146
-0.108094
0.0932497
-0.102155
0.0838287
-0.0977823
0.0771402
-0.0912887
0.0784209
-0.0737935
0.0888631
-0.0392704
0.105366
0.00838187
0.123326
0.0579682
0.139711
0.0996433
0.152841
0.131797
0.162191
0.160202
0.168008
0.193439
0.170746
0.226688
0.17077
0.239005
0.16837
0.205356
0.164684
0.121026
0.161244
0.00842057
0.158414
-0.0928855
0.155228
-0.159188
0.151686
-0.193712
0.147995
-0.199719
0.142598
-0.197463
0.134511
-0.187069
0.12659
-0.184466
0.124577
-0.15831
0.130501
-0.100765
0.141486
-0.0166865
0.150752
0.0966421
0.154797
0.185944
0.152937
0.291489
0.148036
0.299861
0.145637
0.25571
0.147236
0.11827
0.15169
-0.0323772
0.152088
-0.0940376
0.147968
-0.248241
0.145102
-0.240534
0.143679
-0.29797
0.142166
-0.177136
0.0840024
0.129324
0.0136996
0.135061
0.0144397
0.141321
0.0137792
0.147734
0.0119397
0.154054
0.00860431
0.15989
0.00334906
0.165621
-0.00473839
0.169828
-0.0150781
0.172754
-0.028056
0.173799
-0.04357
0.172409
-0.0608857
0.168185
-0.0784531
0.161248
-0.0941551
0.152387
-0.106193
0.142778
-0.113865
0.13351
-0.117574
0.125253
-0.118232
0.118162
-0.116705
0.11207
-0.113617
0.106825
-0.109181
0.101957
-0.103226
0.0960662
-0.0962641
0.0881728
-0.0898889
0.0805297
-0.0836456
0.0783686
-0.0716323
0.0851677
-0.0460695
0.099785
-0.00623539
0.117617
0.0401359
0.134978
0.0822829
0.149644
0.11713
0.160901
0.148946
0.168881
0.185459
0.173713
0.221856
0.17517
0.237548
0.173063
0.207462
0.16858
0.12551
0.163672
0.0133282
0.159402
-0.088615
0.154951
-0.154737
0.150332
-0.189094
0.146147
-0.195533
0.141084
-0.1924
0.133615
-0.1796
0.125821
-0.176671
0.123465
-0.155954
0.129073
-0.106374
0.140297
-0.0279105
0.150324
0.0866156
0.155473
0.180795
0.154606
0.292356
0.150125
0.304342
0.147455
0.258379
0.148464
0.117261
0.152834
-0.0367472
0.153297
-0.0944999
0.148861
-0.243806
0.145753
-0.237426
0.144293
-0.296509
0.142869
-0.175713
0.0858815
0.153842
0.0110695
0.157396
0.0108854
0.161487
0.00968827
0.16577
0.00765681
0.17005
0.00432373
0.174285
-0.000885766
0.177734
-0.00818683
0.180035
-0.0173794
0.180851
-0.0288723
0.179671
-0.0423896
0.176033
-0.0572482
0.169761
-0.0721806
0.161222
-0.0856163
0.15133
-0.0963013
0.141211
-0.103746
0.13179
-0.108153
0.123572
-0.110014
0.116656
-0.109789
0.110849
-0.10781
0.10594
-0.104271
0.101774
-0.0990611
0.0975748
-0.0920645
0.0919014
-0.0842155
0.0849554
-0.0766996
0.0805161
-0.0671931
0.0834015
-0.0489549
0.0947715
-0.0176054
0.11147
0.0234374
0.12916
0.0645933
0.145054
0.101236
0.158105
0.135895
0.168279
0.175285
0.175312
0.214822
0.178282
0.234578
0.176567
0.209178
0.171512
0.130565
0.165406
0.019434
0.159832
-0.0830408
0.154269
-0.149175
0.148693
-0.183518
0.144016
-0.190856
0.139314
-0.187699
0.132573
-0.172858
0.124982
-0.16908
0.122241
-0.153213
0.127402
-0.111535
0.138751
-0.0392596
0.149575
0.075792
0.155955
0.174415
0.156245
0.292066
0.15232
0.308267
0.14942
0.261279
0.149773
0.116908
0.15398
-0.0409541
0.154523
-0.0950422
0.149793
-0.239076
0.146443
-0.234076
0.144946
-0.295012
0.143641
-0.174408
0.0876204
0.175095
0.0102576
0.176704
0.00927674
0.178609
0.00778344
0.180692
0.00557326
0.182842
0.00217358
0.184789
-0.00283257
0.185829
-0.00922714
0.185854
-0.0174041
0.184391
-0.0274097
0.181024
-0.0390224
0.175454
-0.0516777
0.167708
-0.0644345
0.158284
-0.0761925
0.14806
-0.0860772
0.137984
-0.0936699
0.128773
-0.098942
0.120795
-0.102036
0.114122
-0.103117
0.108628
-0.102316
0.104092
-0.099735
0.100417
-0.0953854
0.0973739
-0.0890217
0.0938849
-0.0807266
0.0888916
-0.0717063
0.0839887
-0.0622902
0.083625
-0.0485911
0.0910268
-0.0250073
0.105304
0.00916055
0.122374
0.0475233
0.139016
0.0845943
0.153645
0.121265
0.165873
0.163058
0.175035
0.20566
0.179653
0.22996
0.178632
0.210199
0.173343
0.135854
0.166369
0.0264077
0.159655
-0.0763268
0.153114
-0.142634
0.146721
-0.177124
0.141557
-0.185693
0.137212
-0.183353
0.131309
-0.166955
0.124008
-0.16178
0.120841
-0.150046
0.125416
-0.116111
0.136797
-0.0506401
0.148431
0.0641576
0.156142
0.166704
0.15774
0.290468
0.154532
0.311475
0.151487
0.264325
0.151136
0.117259
0.155101
-0.0449184
0.155737
-0.0956791
0.150753
-0.234092
0.147164
-0.230486
0.145625
-0.293473
0.144466
-0.173249
0.0891758
0.186666
0.0101858
0.187067
0.0088757
0.187482
0.00736813
0.188008
0.00504784
0.188379
0.00180198
0.188343
-0.00279592
0.187595
-0.00847945
0.185797
-0.0156058
0.182601
-0.0242138
0.177721
-0.0341421
0.171027
-0.0449846
0.16268
-0.0560867
0.153184
-0.0666968
0.143277
-0.0761704
0.133687
-0.08408
0.124946
-0.0902007
0.117332
-0.0944217
0.11092
-0.0967054
0.10567
-0.0970659
0.101442
-0.095506
0.0981085
-0.0920524
0.0956858
-0.0865991
0.0937499
-0.0787906
0.091053
-0.0690094
0.0873317
-0.058569
0.0853129
-0.0465723
0.0889625
-0.028657
0.0997966
-0.00167348
0.115011
0.0323093
0.13163
0.0679748
0.147568
0.105327
0.161926
0.148699
0.173442
0.194144
0.179763
0.223639
0.179378
0.210584
0.174257
0.140975
0.166668
0.033997
0.159068
-0.0687265
0.15165
-0.135216
0.144586
-0.17006
0.138926
-0.180033
0.134847
-0.179275
0.129833
-0.16194
0.122916
-0.154863
0.119276
-0.146406
0.123121
-0.119956
0.134362
-0.0618807
0.146804
0.0517155
0.155955
0.157553
0.159026
0.287397
0.156674
0.313827
0.153577
0.267422
0.152542
0.118294
0.156179
-0.0485559
0.156916
-0.0964159
0.151736
-0.228913
0.147903
-0.226653
0.146319
-0.291889
0.145333
-0.172263
0.0905019
0.186468
0.0100589
0.18626
0.00908401
0.18607
0.00755822
0.185805
0.00531214
0.185444
0.00216355
0.184426
-0.00177812
0.182699
-0.00675234
0.179991
-0.0128982
0.176055
-0.0202772
0.17072
-0.028808
0.163968
-0.038232
0.156005
-0.0481236
0.147266
-0.057958
0.138306
-0.0672109
0.129648
-0.0754212
0.121674
-0.0822275
0.114614
-0.0873616
0.108557
-0.0906481
0.103518
-0.0920272
0.0994625
-0.0914503
0.0962885
-0.0888783
0.0940301
-0.0843407
0.0927501
-0.0775106
0.0917115
-0.0679708
0.0898039
-0.0566614
0.0877906
-0.044559
0.088889
-0.0297553
0.0955319
-0.00831629
0.10789
0.0199511
0.123135
0.0527297
0.139227
0.0892355
0.154993
0.132933
0.168729
0.180409
0.177082
0.215285
0.178102
0.209564
0.173846
0.145231
0.166596
0.041247
0.158073
-0.0602037
0.149953
-0.127096
0.14245
-0.162557
0.136321
-0.173904
0.132361
-0.175314
0.128194
-0.157774
0.121748
-0.148417
0.117603
-0.142261
0.120666
-0.123018
0.131559
-0.0727739
0.144706
0.0385684
0.155222
0.147037
0.1599
0.282718
0.158613
0.315114
0.15563
0.270405
0.153961
0.119963
0.157187
-0.0517816
0.158032
-0.0972607
0.15273
-0.223611
0.148632
-0.222555
0.147028
-0.290284
0.146237
-0.171472
0.0915515
0.202975
0.00991666
-0.202833
0.203709
0.00834998
0.204609
0.00665821
0.20565
0.00427179
0.206605
0.00120799
0.207591
-0.00276443
0.208377
-0.00753815
0.208769
-0.0132896
0.208514
-0.0200223
0.207368
-0.0276624
0.205151
-0.0360145
0.201788
-0.044761
0.197332
-0.0535016
0.191931
-0.0618097
0.185781
-0.0692719
0.17909
-0.0755364
0.172059
-0.0803307
0.16487
-0.0834591
0.157678
-0.0848348
0.150618
-0.0843907
0.143749
-0.0820086
0.137094
-0.0776861
0.130848
-0.0712648
0.124961
-0.062084
0.118603
-0.050303
0.11124
-0.0371959
0.104421
-0.0229362
0.101196
-0.00509166
0.102619
0.0185284
0.107967
0.0473811
0.115088
0.0821144
0.122671
0.12535
0.130499
0.172581
0.13925
0.206534
0.150874
0.197939
0.164688
0.131417
0.174783
0.0311518
0.178753
-0.0641733
0.176482
-0.124825
0.170013
-0.156088
0.161937
-0.165828
0.154546
-0.167923
0.147138
-0.150366
0.138084
-0.139363
0.130236
-0.134413
0.127506
-0.120288
0.130155
-0.0754224
0.134572
0.0341512
0.137694
0.143915
0.139149
0.281263
0.140419
0.313844
0.143289
0.267535
0.147522
0.11573
0.152705
-0.0569645
0.154116
-0.098671
0.148268
-0.217764
0.142309
-0.216596
0.138105
-0.28608
0.134302
-0.167669
0.0936108
0.214365
0.00947022
-0.213918
0.215021
0.00769402
0.215941
0.00573782
0.216875
0.00333767
0.217772
0.0003109
0.218465
-0.00345724
0.218877
-0.00794998
0.218825
-0.0132373
0.218126
-0.0193239
0.216608
-0.0261436
0.214139
-0.0335459
0.210663
-0.0412855
0.206206
-0.049044
0.200865
-0.0564686
0.194796
-0.0632032
0.18819
-0.0689306
0.181252
-0.0733926
0.174178
-0.0763852
0.167126
-0.0777822
0.160222
-0.0774871
0.153558
-0.0753448
0.147142
-0.0712699
0.141074
-0.0651964
0.13553
-0.0565402
0.130129
-0.0449015
0.123987
-0.0310545
0.117376
-0.0163251
0.112342
-5.74726e-05
0.111486
0.0193845
0.115032
0.0438352
0.121774
0.0753718
0.13019
0.116934
0.139379
0.163393
0.150135
0.195778
0.164161
0.183913
0.179353
0.116225
0.189846
0.0206587
0.192732
-0.0670596
0.189194
-0.121287
0.181603
-0.148497
0.172563
-0.156788
0.164538
-0.159899
0.157034
-0.142861
0.147923
-0.130253
0.139541
-0.126031
0.136072
-0.116819
0.13842
-0.0777702
0.143095
0.029476
0.146927
0.140082
0.149382
0.278809
0.151699
0.311527
0.155255
0.263979
0.15938
0.111605
0.164343
-0.061928
0.16549
-0.0998174
0.158826
-0.2111
0.152015
-0.209785
0.147239
-0.281304
0.143134
-0.163564