/*--------------------------------*- C++ -*----------------------------------*\
| =========                 |                                                 |
| \\      /  F ield         | OpenFOAM: The Open Source CFD Toolbox           |
|  \\    /   O peration     | Version:  2512                                  |
|   \\  /    A nd           | Website:  www.openfoam.com                      |
|    \\/     M anipulation  |                                                 |
\*---------------------------------------------------------------------------*/
FoamFile
{
    version     2.0;
    format      ascii;
    arch        "LSB;label=32;scalar=64";
    class       volVectorField;
    location    "164.25";
    object      U;
}
// * * * * * * * * * * * * * * * * * * * * * * * * * * * * * * * * * * * * * //

dimensions      [0 1 -1 0 0 0 0];

internalField   nonuniform List<vector> 
13248
(
(-0.0122582 0.0124372 9.90444e-20)
(-0.0178675 0.0251512 0)
(-0.00430985 0.0306957 -1.87463e-19)
(0.0264992 0.0303974 1.76582e-19)
(0.0731959 0.0257774 1.65848e-19)
(0.134711 0.018299 0)
(0.209913 0.00916544 0)
(0.297343 -0.000670701 4.07518e-19)
(0.394964 -0.0104777 -8.20811e-22)
(0.499993 -0.0197267 -3.57931e-19)
(0.608911 -0.0280753 3.32229e-19)
(0.717664 -0.0353475 -2.08027e-19)
(0.822012 -0.0415058 0)
(0.917967 -0.0466153 -3.46792e-19)
(1.00221 -0.0508005 6.41033e-19)
(1.0724 -0.054203 -1.53412e-19)
(1.12739 -0.0569449 -2.55221e-19)
(1.16719 -0.0591131 2.39622e-19)
(1.19286 -0.0607144 0)
(1.20621 -0.0618585 0)
(1.20965 -0.0620872 0)
(1.2049 -0.0629848 0)
(1.19583 -0.0600606 5.89476e-20)
(1.17913 -0.067132 1.93167e-19)
(-0.010262 0.00932462 -2.98803e-19)
(-0.00882062 0.0162955 2.0345e-19)
(0.0147905 0.0176185 -1.55397e-21)
(0.0585031 0.0147605 -2.69102e-19)
(0.120756 0.00924927 -1.6567e-19)
(0.200018 0.00250475 -1.56795e-19)
(0.294284 -0.00436616 -2.90639e-19)
(0.400766 -0.0105681 2.73925e-19)
(0.515735 -0.0156053 0)
(0.634586 -0.0192744 1.35686e-21)
(0.752174 -0.0216359 1.96906e-21)
(0.863339 -0.0229532 2.05185e-19)
(0.963489 -0.0236074 0)
(1.04911 -0.0240027 0)
(1.11809 -0.0244819 2.2795e-19)
(1.16984 -0.0252673 -4.28226e-19)
(1.20514 -0.0264358 2.44573e-19)
(1.22589 -0.0279259 -2.29637e-19)
(1.23464 -0.0295697 -9.70876e-20)
(1.23424 -0.0311454 -1.69079e-19)
(1.22739 -0.0323248 -6.45409e-20)
(1.2164 -0.0332185 -1.18807e-19)
(1.20328 -0.0318686 1.83085e-19)
(1.18753 -0.0348052 4.98556e-20)
(-0.0072968 0.00629368 0)
(0.00392781 0.00777259 0)
(0.0409176 0.00547872 9.5224e-20)
(0.101077 0.0009578 8.81393e-20)
(0.182212 -0.004266 -1.56448e-21)
(0.28174 -0.00884811 -1.60455e-19)
(0.396063 -0.0118903 0)
(0.520366 -0.0129533 -1.3647e-19)
(0.648773 -0.0120318 1.27306e-19)
(0.774865 -0.0094977 -5.32408e-22)
(0.892432 -0.00598883 -2.17619e-19)
(0.996261 -0.00225379 -1.97263e-19)
(1.08273 0.00100815 5.55306e-21)
(1.15013 0.0032756 -1.56877e-19)
(1.19859 0.0042767 3.82063e-19)
(1.2298 0.00399767 0)
(1.2465 0.00263945 -2.34769e-19)
(1.2519 0.000540223 1.15291e-19)
(1.24921 -0.00189544 9.70088e-20)
(1.2412 -0.0043112 0)
(1.23012 -0.00626863 7.52051e-20)
(1.21742 -0.00794125 -2.50132e-19)
(1.20434 -0.00783448 2.34808e-19)
(1.19052 -0.0113559 1.38676e-19)
(-0.00289904 0.00324215 -1.04506e-19)
(0.0214275 -0.00032473 -1.07789e-19)
(0.0754304 -0.0051822 9.81366e-20)
(0.155516 -0.00993139 0)
(0.258214 -0.0131975 0)
(0.379098 -0.0138793 -2.4652e-21)
(0.512204 -0.0115362 0)
(0.650226 -0.00638327 -4.11245e-19)
(0.785257 0.000831063 3.81607e-19)
(0.909851 0.0090203 -4.71326e-19)
(1.01806 0.0170107 1.08131e-19)
(1.10616 0.0237853 0)
(1.17286 0.0286578 1.74886e-19)
(1.2191 0.0313448 -3.21956e-19)
(1.24744 0.0319366 7.68696e-20)
(1.26141 0.0307987 1.895e-19)
(1.26472 0.0284429 -1.21286e-20)
(1.26076 0.0254083 -2.0791e-19)
(1.25229 0.0221726 0)
(1.24132 0.0191091 0)
(1.2292 0.0165089 -7.00161e-20)
(1.21671 0.0143213 6.16611e-20)
(1.2045 0.0135322 2.1271e-19)
(1.19197 0.00983435 -1.99754e-19)
(0.00342422 0.000156784 -1.08973e-19)
(0.0446588 -0.0077483 -1.0906e-19)
(0.11931 -0.0136999 3.07088e-19)
(0.222217 -0.0168063 -1.87346e-19)
(0.34782 -0.0161346 1.76336e-19)
(0.489002 -0.0111493 3.22033e-19)
(0.636907 -0.00222947 -2.26986e-19)
(0.781876 0.00945498 -2.74978e-19)
(0.914909 0.0222789 6.21566e-21)
(1.02906 0.0345566 3.53044e-19)
(1.12033 0.0448974 0)
(1.18778 0.0524334 9.52421e-20)
(1.23311 0.0568796 0)
(1.25976 0.0584496 -1.52768e-19)
(1.27194 0.0576848 2.14696e-19)
(1.27383 0.0552662 2.24115e-21)
(1.26899 0.0518605 -5.47481e-20)
(1.26016 0.0480251 1.01078e-19)
(1.24922 0.0441738 8.63036e-20)
(1.23737 0.0405817 -7.64023e-20)
(1.22532 0.0374197 6.99976e-20)
(1.21346 0.0346846 -6.16441e-20)
(1.20201 0.0328676 0)
(1.19072 0.0289972 -4.61272e-20)
(0.0121139 -0.00282727 1.08957e-19)
(0.0743633 -0.0139672 1.13747e-19)
(0.172949 -0.0191418 -1.02751e-19)
(0.300486 -0.0184387 1.91522e-19)
(0.44846 -0.0118164 -1.80257e-19)
(0.606439 0.00023832 1.63389e-19)
(0.762757 0.0161528 -7.81296e-20)
(0.906407 0.0336603 2.06476e-19)
(1.02898 0.0504249 -1.29147e-19)
(1.12582 0.0645715 2.27005e-19)
(1.19616 0.0749881 -5.22043e-19)
(1.24234 0.0813696 1.90594e-19)
(1.26864 0.0840589 -1.65448e-19)
(1.28 0.0837868 1.55413e-19)
(1.28107 0.0814157 1.32101e-19)
(1.27567 0.077749 1.14394e-19)
(1.26657 0.0734322 -3.17736e-19)
(1.25562 0.0689277 1.96486e-19)
(1.24395 0.0645379 -8.63051e-20)
(1.23217 0.0604449 2.22048e-19)
(1.22064 0.0567468 -7.17426e-20)
(1.20949 0.0534669 -1.70897e-19)
(1.19882 0.0508336 1.57159e-19)
(1.18842 0.046869 4.61129e-20)
(0.0234993 -0.00542657 0)
(0.1109 -0.0181644 7.0358e-22)
(0.235989 -0.0203225 2.12605e-19)
(0.388459 -0.0135468 -1.99666e-19)
(0.556148 0.000730764 -1.80623e-19)
(0.725239 0.0205172 3.35657e-19)
(0.882213 0.04284 -1.55863e-19)
(1.01649 0.0645176 2.07379e-19)
(1.12215 0.0829891 -4.89083e-21)
(1.19817 0.0967627 -1.16916e-19)
(1.24738 0.105451 2.53912e-19)
(1.27484 0.109516 -3.73276e-19)
(1.28631 0.109899 0)
(1.28704 0.107673 -7.233e-20)
(1.28121 0.103809 -1.91912e-19)
(1.27179 0.0990639 6.04939e-20)
(1.26066 0.0939674 2.76947e-21)
(1.24893 0.0888588 -1.29065e-19)
(1.2372 0.083941 9.47527e-21)
(1.22576 0.0793275 1.48573e-19)
(1.21475 0.0750748 -6.50041e-20)
(1.2042 0.0712157 -2.43106e-20)
(1.1941 0.0677735 7.62486e-20)
(1.18432 0.0636277 0)
(0.0377585 -0.00723803 0)
(0.154138 -0.0193144 5.74818e-20)
(0.307217 -0.0159428 -2.7513e-19)
(0.483165 -0.000996424 1.00329e-19)
(0.665927 0.021997 -9.44246e-20)
(0.839078 0.0492072 -8.58607e-20)
(0.989016 0.0764031 -1.5222e-19)
(1.10763 0.100026 7.58601e-20)
(1.19296 0.117944 6.63032e-20)
(1.24796 0.12955 0)
(1.27848 0.135388 1.49406e-19)
(1.29117 0.136635 -2.21086e-19)
(1.29211 0.134631 1.64727e-19)
(1.28605 0.130567 7.23679e-20)
(1.27627 0.125359 -5.86622e-20)
(1.26482 0.119633 -4.8577e-20)
(1.25287 0.113783 -4.50255e-20)
(1.24101 0.10804 1.35868e-19)
(1.22952 0.102534 0)
(1.21852 0.0973356 6.7098e-20)
(1.20802 0.0924837 5.55954e-20)
(1.198 0.0879985 -1.3888e-19)
(1.18841 0.0838161 -9.34555e-20)
(1.17916 0.0794691 8.66865e-20)
(0.0548807 -0.00778376 -6.07347e-20)
(0.203383 -0.016319 -1.71451e-21)
(0.384565 -0.00480539 5.57337e-20)
(0.580772 0.0199574 1.55106e-19)
(0.77255 0.051846 4.49549e-20)
(0.942496 0.0852124 -8.68535e-20)
(1.0791 0.115113 7.9698e-20)
(1.17838 0.138361 -7.00779e-20)
(1.24285 0.153849 1.24844e-19)
(1.27894 0.162106 5.32062e-20)
(1.29438 0.164565 -1.50447e-19)
(1.29631 0.162908 4.44111e-20)
(1.29029 0.158636 7.54498e-20)
(1.28016 0.152891 -3.71674e-20)
(1.26827 0.146442 0)
(1.25591 0.139764 5.50169e-20)
(1.24372 0.133129 9.26811e-20)
(1.232 0.126687 1.55344e-20)
(1.22084 0.120518 -7.69657e-20)
(1.21025 0.114669 3.21261e-20)
(1.20021 0.109164 0)
(1.19066 0.104002 -2.50286e-20)
(1.18152 0.0991065 -2.32524e-20)
(1.1727 0.0944443 0)
(0.0746309 -0.00656363 0)
(0.257354 -0.00816021 3.16836e-20)
(0.465227 0.013974 5.86264e-20)
(0.677011 0.0494998 -1.57096e-19)
(0.871191 0.089523 5.04144e-20)
(1.03158 0.127053 0)
(1.15071 0.157276 7.60579e-20)
(1.22956 0.17811 -1.06038e-19)
(1.27477 0.18983 -6.20858e-20)
(1.29518 0.194105 2.82016e-20)
(1.29928 0.193046 -4.45985e-20)
(1.29384 0.188587 1.08584e-19)
(1.28349 0.182202 5.43848e-20)
(1.27108 0.17488 -3.78652e-20)
(1.25816 0.167216 -3.62226e-21)
(1.24549 0.159546 -1.03301e-19)
(1.23338 0.152048 4.70064e-20)
(1.22193 0.144815 -1.06019e-21)
(1.21114 0.137898 0)
(1.20099 0.131327 -3.2159e-20)
(1.1914 0.125112 0)
(1.18229 0.119232 7.23488e-20)
(1.1736 0.113657 -8.60777e-20)
(1.16518 0.108578 3.91588e-20)
(0.0965277 -0.00310587 -1.61807e-20)
(0.314226 0.00596828 -7.92524e-20)
(0.545896 0.0408201 8.98075e-20)
(0.767658 0.0872108 5.29982e-20)
(0.957976 0.133791 -2.54305e-20)
(1.10411 0.173119 4.25392e-20)
(1.20388 0.201429 -2.07381e-20)
(1.2632 0.218282 3.45492e-20)
(1.29189 0.225429 0)
(1.30009 0.225489 7.82801e-20)
(1.29613 0.220986 -3.15433e-21)
(1.2859 0.213886 -6.32807e-20)
(1.27302 0.205511 2.71565e-20)
(1.25946 0.196654 -3.06777e-20)
(1.24616 0.187748 -1.17188e-20)
(1.23351 0.179016 1.34642e-20)
(1.22164 0.170567 -1.04589e-20)
(1.21055 0.162459 -5.64611e-20)
(1.20018 0.154722 3.46366e-20)
(1.19048 0.14737 7.12352e-21)
(1.18135 0.140398 6.26934e-21)
(1.1727 0.133775 5.5177e-21)
(1.16443 0.127547 0)
(1.15641 0.121916 0)
(0.119922 0.00299739 1.61919e-20)
(0.371877 0.026578 -1.62713e-20)
(0.623226 0.0756355 -2.98549e-20)
(0.849087 0.132134 0)
(1.03027 0.183139 -1.25652e-20)
(1.15926 0.221883 -1.12122e-20)
(1.23962 0.246434 -1.93018e-20)
(1.2815 0.258252 0)
(1.2968 0.260443 0)
(1.29594 0.256301 0)
(1.28654 0.248508 0)
(1.27341 0.238906 0)
(1.2592 0.228604 -1.70748e-20)
(1.24519 0.218199 7.78304e-21)
(1.23192 0.207988 1.35542e-20)
(1.21953 0.198108 6.32312e-21)
(1.20803 0.188621 1.57242e-20)
(1.19738 0.179557 0)
(1.18751 0.17093 -3.79038e-21)
(1.17832 0.162742 -3.57617e-21)
(1.16971 0.154974 -6.27924e-21)
(1.16156 0.147604 -5.52645e-21)
(1.15378 0.140747 0)
(1.14624 0.134451 3.99258e-21)
(-0.00232944 0.0126707 9.12485e-21)
(-0.00977897 0.0182572 -9.48508e-21)
(-0.0225045 0.0114656 -1.79786e-20)
(-0.037811 -0.00243539 0)
(-0.0543154 -0.0198408 -2.3995e-20)
(-0.0713683 -0.0386342 7.45687e-21)
(-0.0884897 -0.0578661 -1.4349e-20)
(-0.105296 -0.077376 0)
(-0.121492 -0.0974176 0)
(-0.136845 -0.118367 0)
(-0.151169 -0.14053 0)
(-0.164304 -0.164063 0)
(-0.176099 -0.188941 -2.31375e-22)
(-0.186404 -0.214979 -9.28422e-21)
(-0.195057 -0.241831 1.78602e-20)
(-0.201884 -0.269008 2.49111e-20)
(-0.206695 -0.295869 7.98811e-21)
(-0.209299 -0.321625 0)
(-0.209514 -0.345348 6.6985e-21)
(-0.2072 -0.366006 -1.89723e-20)
(-0.20222 -0.382512 -1.17887e-20)
(-0.194349 -0.393761 -1.09443e-20)
(-0.183519 -0.398628 0)
(-0.170804 -0.396282 0)
(-0.00370705 0.0183762 -2.76966e-20)
(-0.0123506 0.0314091 4.76496e-20)
(-0.025449 0.0293915 -1.83883e-20)
(-0.0406882 0.0185071 -3.45659e-20)
(-0.0568888 0.00291542 4.86095e-20)
(-0.0735023 -0.0149162 -3.09237e-20)
(-0.0900956 -0.0338063 4.34332e-20)
(-0.106308 -0.0534346 2.81127e-20)
(-0.121867 -0.0739461 0)
(-0.136567 -0.0956521 -2.42198e-20)
(-0.150258 -0.118824 -1.99209e-22)
(-0.162823 -0.143604 2.13461e-20)
(-0.174166 -0.169978 3.12778e-20)
(-0.184197 -0.19778 3.88902e-20)
(-0.192826 -0.226697 -1.7897e-20)
(-0.199961 -0.256268 -5.0972e-20)
(-0.205509 -0.28588 1.6186e-20)
(-0.209373 -0.31476 -6.02471e-20)
(-0.211484 -0.341981 0)
(-0.211816 -0.366483 1.26703e-20)
(-0.210308 -0.387113 1.1776e-20)
(-0.206655 -0.402652 1.09326e-20)
(-0.200765 -0.411836 0)
(-0.194833 -0.413708 0)
(-0.00559154 0.0236821 0)
(-0.0157249 0.0440007 9.95767e-20)
(-0.0287285 0.0469069 -3.74772e-20)
(-0.0430031 0.0392739 3.51884e-20)
(-0.0577312 0.0257191 -1.01449e-19)
(-0.0725343 0.00904479 0)
(-0.0870531 -0.00930873 -6.06377e-20)
(-0.100952 -0.0288286 2.89496e-20)
(-0.113978 -0.0495328 -5.52876e-20)
(-0.125951 -0.0716291 2.72515e-20)
(-0.136731 -0.0953472 1.47014e-19)
(-0.146227 -0.120815 -6.9094e-20)
(-0.154381 -0.148027 -1.07845e-19)
(-0.161154 -0.176838 -4.17661e-20)
(-0.16653 -0.206964 1.65456e-22)
(-0.170507 -0.237979 1.43045e-19)
(-0.1731 -0.269309 -6.69651e-20)
(-0.174342 -0.30022 -1.18564e-21)
(-0.174296 -0.329818 0)
(-0.173085 -0.357053 -5.29612e-20)
(-0.170782 -0.380722 0)
(-0.167061 -0.399508 -4.16303e-20)
(-0.16157 -0.412108 1.55966e-19)
(-0.157568 -0.417643 -2.6894e-21)
(-0.00781068 0.0280011 0)
(-0.0196068 0.0548041 1.31437e-21)
(-0.0320393 0.0624874 3.93945e-20)
(-0.0444799 0.0582237 -3.75278e-20)
(-0.0565986 0.0469012 3.37741e-20)
(-0.0682373 0.031589 1.99007e-19)
(-0.0791486 0.0139769 -6.23157e-20)
(-0.0890534 -0.00521709 -6.03886e-20)
(-0.0976822 -0.0258468 1.1257e-19)
(-0.104844 -0.0480254 -1.59596e-19)
(-0.110424 -0.0719055 5.12262e-20)
(-0.114322 -0.097588 4.88296e-20)
(-0.116494 -0.125058 0)
(-0.116937 -0.15417 4.16628e-20)
(-0.115691 -0.184647 0)
(-0.112843 -0.216071 7.61306e-20)
(-0.10853 -0.247888 -1.37794e-19)
(-0.102938 -0.279401 3.40196e-20)
(-0.0963038 -0.309772 1.19073e-19)
(-0.0889345 -0.338014 5.29058e-20)
(-0.0811504 -0.362957 0)
(-0.0728584 -0.383247 -1.26766e-19)
(-0.0631878 -0.397541 4.08787e-20)
(-0.0542168 -0.405133 0)
(-0.0101127 0.0308724 0)
(-0.0235834 0.0627859 -1.2624e-19)
(-0.035028 0.0747815 -4.07445e-20)
(-0.0448989 0.0738496 -7.59783e-20)
(-0.053422 0.0648963 7.15447e-20)
(-0.0606969 0.0511383 -6.70125e-20)
(-0.0666102 0.0344653 1.29876e-19)
(-0.0709382 0.0158003 6.15619e-20)
(-0.0734463 -0.0045382 -1.7329e-19)
(-0.0739069 -0.0265468 1.11206e-19)
(-0.0721644 -0.0502941 -1.56608e-19)
(-0.0681331 -0.0758328 3.50784e-19)
(-0.0617611 -0.103116 -1.87412e-19)
(-0.0530662 -0.131975 8.98832e-20)
(-0.0421382 -0.162105 2.49807e-19)
(-0.0291497 -0.193061 -7.75232e-20)
(-0.0143637 -0.224262 -7.505e-20)
(0.0018644 -0.255 -6.6779e-20)
(0.0190946 -0.284462 0)
(0.0368058 -0.311737 -1.06247e-19)
(0.054373 -0.335802 -8.88264e-20)
(0.0712368 -0.355464 1.34341e-19)
(0.0877492 -0.369197 1.42278e-19)
(0.108677 -0.374364 -1.33449e-19)
(-0.0122174 0.0320506 0)
(-0.0271884 0.0672715 -1.7548e-19)
(-0.0373234 0.082787 -1.69965e-21)
(-0.0440877 0.0849316 1.55482e-19)
(-0.0482543 0.0783569 0)
(-0.0501929 0.0662783 0)
(-0.0499449 0.0507068 0)
(-0.0473626 0.0327328 -6.3087e-20)
(-0.04223 0.0128389 -1.26166e-21)
(-0.034324 -0.00882484 1.13468e-19)
(-0.0234565 -0.032253 -1.61159e-19)
(-0.00951939 -0.0574184 -4.37875e-22)
(0.00752716 -0.0842265 0)
(0.027633 -0.112465 -8.98256e-20)
(0.0506419 -0.141778 8.59583e-20)
(0.0762729 -0.171666 -2.39952e-19)
(0.104113 -0.201481 2.92058e-19)
(0.133619 -0.230456 6.20454e-20)
(0.164126 -0.257733 -9.59949e-21)
(0.194889 -0.28241 -2.24728e-19)
(0.225034 -0.303607 -9.68358e-20)
(0.25383 -0.32036 2.89278e-19)
(0.280549 -0.331194 -1.87781e-19)
(0.314638 -0.33165 0)
(-0.0138783 0.0315408 8.79835e-20)
(-0.0299845 0.0680338 8.8276e-20)
(-0.0385759 0.0859709 -8.55056e-20)
(-0.0418955 0.0906593 -1.6029e-19)
(-0.0411828 0.0862663 1.50927e-19)
(-0.0370563 0.0758554 -1.44136e-19)
(-0.0297214 0.0614609 2.04353e-19)
(-0.0191217 0.044286 -6.34484e-20)
(-0.005081 0.0249511 1.22276e-19)
(0.012604 0.00373396 0)
(0.0341269 -0.019238 1.12793e-19)
(0.0595976 -0.0438595 -2.10682e-19)
(0.0890062 -0.0699715 1.97921e-19)
(0.122218 -0.0972983 -1.85889e-19)
(0.15894 -0.125424 0)
(0.198701 -0.153784 1.61042e-19)
(0.240849 -0.181674 2.94143e-19)
(0.284563 -0.208274 -2.75688e-19)
(0.328892 -0.232695 -1.22246e-19)
(0.372835 -0.254022 -1.03524e-19)
(0.415208 -0.271465 2.96084e-19)
(0.455933 -0.283988 7.55242e-20)
(0.490161 -0.291996 -7.78709e-20)
(0.539585 -0.287663 5.87452e-20)
(-0.0149412 0.029584 -8.79953e-20)
(-0.0316371 0.0653144 2.7619e-19)
(-0.0384728 0.0843249 -8.7427e-20)
(-0.0381399 0.0907266 1.63731e-19)
(-0.0321877 0.0880625 -1.54163e-19)
(-0.0214382 0.0791174 5.32428e-22)
(-0.00625031 0.0658505 6.94613e-20)
(0.0133261 0.0495091 2.66523e-19)
(0.0374116 0.0308167 2.34263e-21)
(0.0661776 0.0101769 -1.16937e-19)
(0.0997645 -0.0121663 0)
(0.13821 -0.036015 -1.0721e-19)
(0.181386 -0.0611171 1.99799e-19)
(0.228961 -0.0871156 1.87063e-19)
(0.280366 -0.113523 -8.82811e-20)
(0.334781 -0.139717 -1.1742e-22)
(0.391153 -0.164958 -7.44014e-20)
(0.448238 -0.188426 1.34345e-19)
(0.504673 -0.209281 1.22191e-19)
(0.559193 -0.226661 -1.08788e-19)
(0.610039 -0.240097 9.36615e-20)
(0.658509 -0.247964 -8.08439e-20)
(0.694833 -0.25348 0)
(0.751575 -0.244811 -5.86539e-20)
(-0.0153665 0.0265884 9.12217e-20)
(-0.0319613 0.0597313 -9.27317e-20)
(-0.0367426 0.0783368 8.89964e-20)
(-0.0325091 0.0853809 0)
(-0.0209512 0.0837438 0)
(-0.00301632 0.0758614 1.50969e-19)
(0.020817 0.0635422 -1.40209e-19)
(0.0503984 0.0480174 1.35098e-19)
(0.0857653 0.0300801 -6.31753e-19)
(0.127003 0.0102344 -5.93785e-22)
(0.174125 -0.0111653 1.13168e-19)
(0.226968 -0.0338023 0)
(0.285117 -0.057319 -2.00242e-19)
(0.347841 -0.0812702 3.74801e-19)
(0.414073 -0.105104 -2.62725e-19)
(0.482429 -0.128171 -3.98641e-19)
(0.551274 -0.149751 9.03657e-21)
(0.618832 -0.169099 2.69089e-19)
(0.683299 -0.185526 0)
(0.743197 -0.1983 0)
(0.796442 -0.207429 -9.36473e-20)
(0.845099 -0.210841 8.08334e-20)
(0.87816 -0.213771 -2.58095e-19)
(0.929431 -0.20195 2.42125e-19)
(-0.0152208 0.0230232 0)
(-0.03088 0.0521262 0)
(-0.0330769 0.0688906 -2.68565e-19)
(-0.0244418 0.0753919 8.50743e-20)
(-0.00665053 0.0739255 -2.82597e-22)
(0.0193089 0.0665732 1.51607e-19)
(0.0528833 0.0549573 0)
(0.0938255 0.0402559 -1.34554e-19)
(0.14204 0.0232934 1.26671e-19)
(0.197411 0.0046559 -2.4063e-19)
(0.25965 -0.0151929 -2.12873e-22)
(0.328161 -0.0358272 2.12855e-19)
(0.401948 -0.0567985 -9.47536e-22)
(0.479582 -0.0776046 1.82956e-19)
(0.559229 -0.0976872 -2.61864e-19)
(0.638752 -0.116451 0)
(0.715866 -0.1333 2.83139e-19)
(0.788331 -0.147681 -3.97567e-19)
(0.854147 -0.15914 1.143e-19)
(0.911831 -0.167237 0)
(0.959888 -0.172213 8.8231e-20)
(0.999944 -0.172346 2.97332e-19)
(1.02455 -0.173049 -2.79077e-19)
(1.05927 -0.160047 -2.69467e-19)
(-0.0146223 0.0193136 2.83037e-19)
(-0.0283395 0.0433803 -3.88788e-19)
(-0.0270215 0.0570877 6.03986e-22)
(-0.0129893 0.0619525 8.64962e-20)
(0.0122032 0.0598399 -1.62007e-19)
(0.0475929 0.0525331 -1.51081e-19)
(0.0925727 0.041478 2.86469e-19)
(0.146748 0.0277794 4.2461e-22)
(0.209751 0.0122689 -2.54071e-19)
(0.281035 -0.00440688 4.79802e-19)
(0.359684 -0.0217131 5.68555e-22)
(0.444288 -0.0391673 -2.11828e-19)
(0.532901 -0.0563039 0)
(0.623099 -0.0726628 0)
(0.712132 -0.0877969 -8.54132e-20)
(0.797147 -0.101293 -1.52531e-19)
(0.875459 -0.112793 -2.74993e-19)
(0.944783 -0.122029 2.58151e-19)
(1.00349 -0.128802 -1.14359e-19)
(1.05063 -0.133069 1.91695e-19)
(1.08611 -0.13491 -1.01276e-19)
(1.11105 -0.133754 1.31942e-19)
(1.12353 -0.13311 -3.34546e-19)
(1.13774 -0.121683 5.56905e-20)
(-0.0136489 0.0157473 9.56298e-20)
(-0.0241554 0.0342323 0)
(-0.0178293 0.0440537 1.8484e-19)
(0.00329857 0.0465114 -1.74116e-19)
(0.037824 0.0432196 1.62153e-19)
(0.0848085 0.0357513 0)
(0.143515 0.0254066 0)
(0.213221 0.0132155 -1.35636e-19)
(0.29298 -8.30103e-06 -4.7013e-23)
(0.381394 -0.0136199 1.19472e-19)
(0.476459 -0.0271013 -1.11156e-19)
(0.575532 -0.0400311 2.10131e-19)
(0.675446 -0.0520683 0)
(0.772742 -0.0629448 3.55953e-19)
(0.86399 -0.0724629 -6.59666e-19)
(0.946123 -0.0804919 4.582e-19)
(1.01674 -0.0869591 2.65564e-19)
(1.07429 -0.09186 -2.49316e-19)
(1.11825 -0.0951792 0)
(1.14889 -0.0971295 0)
(1.16764 -0.0974295 0)
(1.17579 -0.0969757 0)
(1.17598 -0.0952929 6.36749e-20)
(1.17336 -0.0889627 -2.07016e-19)
(-0.155574 -0.385665 -6.91452e-21)
(-0.129159 -0.359852 6.93998e-21)
(-0.0963204 -0.316609 -2.04132e-22)
(-0.0572524 -0.256051 0)
(-0.0125438 -0.178553 -6.74616e-21)
(0.0364204 -0.0859342 1.3093e-20)
(0.0885899 0.0193972 -1.37516e-22)
(0.142673 0.133228 -6.04166e-21)
(0.197339 0.249412 0)
(0.251519 0.359129 0)
(0.303891 0.454018 -2.42969e-22)
(0.351869 0.52652 -2.04824e-22)
(0.392122 0.57291 -2.84017e-21)
(0.420996 0.595695 2.59436e-21)
(0.434324 0.60393 0)
(0.429818 0.608011 0)
(0.412867 0.608513 1.83109e-21)
(0.399015 0.588896 1.69249e-22)
(0.406915 0.523143 -1.76299e-21)
(0.445067 0.395749 -1.46427e-22)
(0.506899 0.214175 0)
(0.579363 0.00495114 0)
(0.651118 -0.195898 0)
(0.712571 -0.353592 0)
(0.757728 -0.451827 0)
(0.78421 -0.496802 0)
(0.794455 -0.505411 3.05351e-22)
(0.794468 -0.493677 -5.01829e-22)
(0.784946 -0.481309 0)
(0.758302 -0.485988 0)
(0.713762 -0.497621 -3.79604e-22)
(0.668509 -0.471356 3.6895e-22)
(0.647716 -0.361009 2.21457e-22)
(0.659884 -0.173866 0)
(0.697471 0.0407755 0)
(0.742357 0.219177 3.99086e-22)
(0.785698 0.335567 -3.87924e-22)
(0.819713 0.389168 0)
(0.838004 0.41592 2.20499e-22)
(0.827289 0.441545 -3.17469e-22)
(0.789727 0.456486 1.04191e-22)
(0.745091 0.425885 0)
(0.725073 0.300131 -2.73593e-22)
(0.730715 0.12436 2.66037e-22)
(0.766696 -0.078316 0)
(0.803991 -0.210689 0)
(0.837309 -0.303787 -7.65769e-23)
(0.831615 -0.354442 2.10258e-22)
(0.798924 -0.375741 0)
(0.760051 -0.368259 0)
(0.754831 -0.226689 -5.56177e-23)
(0.772783 -0.10996 5.05985e-24)
(0.812216 0.0927445 -4.11986e-24)
(0.814482 0.204997 3.68482e-23)
(0.807447 0.307007 0)
(0.7898 0.384891 0)
(0.797662 0.233906 0)
(0.79292 0.209668 0)
(0.809834 -0.076253 0)
(0.789332 -0.215696 0)
(-0.191891 -0.408058 -6.15418e-22)
(-0.180658 -0.390218 -2.5459e-20)
(-0.161668 -0.354393 2.93559e-22)
(-0.135647 -0.300957 2.36475e-20)
(-0.101709 -0.229594 3.32172e-22)
(-0.0602379 -0.141668 0)
(-0.012267 -0.0400236 -2.091e-20)
(0.0403197 0.0709304 4.03931e-20)
(0.095253 0.18912 -1.94828e-20)
(0.151686 0.300688 1.58362e-20)
(0.208878 0.399784 -1.51488e-20)
(0.2636 0.479768 1.13829e-20)
(0.311779 0.53724 -1.10362e-20)
(0.348806 0.574298 -2.61277e-22)
(0.370822 0.597733 -7.70639e-21)
(0.378445 0.612909 7.48946e-21)
(0.380724 0.614823 -7.67335e-21)
(0.393644 0.585382 7.20985e-21)
(0.43076 0.503825 -9.54005e-21)
(0.492736 0.362837 1.96323e-20)
(0.569369 0.173754 -1.00498e-20)
(0.648773 -0.0375344 -6.7808e-22)
(0.720691 -0.235195 -9.02018e-21)
(0.775972 -0.385152 1.61063e-20)
(0.810677 -0.472586 -7.13397e-21)
(0.825487 -0.506608 3.06806e-22)
(0.824362 -0.507095 3.52343e-21)
(0.814166 -0.489889 -3.8473e-22)
(0.797687 -0.471035 -5.30166e-21)
(0.767538 -0.467451 4.97886e-21)
(0.719334 -0.474613 -2.43247e-21)
(0.666661 -0.453786 3.29049e-22)
(0.635347 -0.357365 -2.21898e-22)
(0.638726 -0.184924 4.25401e-22)
(0.671641 0.0208461 0)
(0.71724 0.197521 0)
(0.765381 0.317113 -1.17457e-21)
(0.806593 0.377223 8.92536e-22)
(0.830476 0.41351 6.5522e-22)
(0.823779 0.449362 1.0867e-22)
(0.790737 0.470058 -9.35285e-22)
(0.752167 0.437418 2.5528e-22)
(0.739029 0.303977 0)
(0.747274 0.119387 0)
(0.783176 -0.0886721 0)
(0.816153 -0.221146 0)
(0.847437 -0.307608 3.59008e-22)
(0.839893 -0.349417 -1.35906e-22)
(0.805916 -0.366157 0)
(0.765712 -0.362324 0)
(0.756886 -0.228464 0)
(0.774038 -0.117051 -8.46331e-23)
(0.808743 0.0877183 1.54702e-23)
(0.810879 0.20508 -8.26822e-23)
(0.803059 0.309436 0)
(0.786081 0.386053 0)
(0.797508 0.232942 5.57489e-23)
(0.794085 0.208486 1.77614e-22)
(0.8158 -0.0754682 0)
(0.793934 -0.214234 0)
(-0.164291 -0.416273 -1.85641e-21)
(-0.171693 -0.407343 -4.73304e-20)
(-0.170077 -0.380597 4.32696e-20)
(-0.162129 -0.33668 -4.05383e-20)
(-0.145084 -0.274382 -3.34487e-22)
(-0.11845 -0.19437 0)
(-0.0824038 -0.0991937 -3.44221e-20)
(-0.0348352 0.00754169 3.36067e-20)
(0.016575 0.121997 2.65975e-22)
(0.0690459 0.235803 3.74729e-22)
(0.127017 0.338707 3.30074e-22)
(0.184976 0.426275 3.56436e-22)
(0.238244 0.49513 -1.71089e-20)
(0.282342 0.546045 1.68898e-20)
(0.314911 0.582379 0)
(0.339038 0.604717 4.16033e-22)
(0.364904 0.6047 -1.55388e-20)
(0.405891 0.565557 1.53471e-20)
(0.469376 0.472812 0)
(0.550458 0.325205 0)
(0.637926 0.135053 -2.34147e-20)
(0.721646 -0.0734433 4.51143e-20)
(0.792148 -0.265208 -3.99875e-20)
(0.840289 -0.406575 3.60333e-21)
(0.863888 -0.484307 2.62687e-20)
(0.866935 -0.509453 -2.06701e-20)
(0.855124 -0.503803 1.50328e-20)
(0.835437 -0.483057 -1.49154e-21)
(0.812348 -0.459464 -5.37577e-21)
(0.77953 -0.448294 0)
(0.729309 -0.450499 0)
(0.670701 -0.434669 2.06916e-21)
(0.629148 -0.352821 -2.60592e-21)
(0.622922 -0.19636 -6.41417e-23)
(0.650165 -0.000779142 2.99943e-21)
(0.695723 0.172862 -2.91502e-21)
(0.747912 0.295327 0)
(0.795569 0.362468 2.50201e-22)
(0.824681 0.408946 1.9334e-21)
(0.822309 0.455381 -3.82605e-21)
(0.794483 0.482034 1.6983e-21)
(0.762293 0.44806 2.85254e-22)
(0.755989 0.308232 -3.25003e-21)
(0.766917 0.116334 2.53458e-21)
(0.802436 -0.0965486 6.21846e-22)
(0.830658 -0.229729 4.94186e-22)
(0.859335 -0.310391 -3.59905e-22)
(0.849894 -0.343945 0)
(0.814737 -0.356246 0)
(0.77325 -0.356402 -7.42915e-22)
(0.76077 -0.23036 3.63621e-22)
(0.776983 -0.124175 -3.09737e-22)
(0.806947 0.0826076 4.54156e-22)
(0.808913 0.205061 5.54318e-22)
(0.799956 0.311577 -1.4867e-22)
(0.783324 0.387012 2.55094e-22)
(0.798416 0.231584 -2.43114e-22)
(0.796474 0.206833 1.39625e-22)
(0.823005 -0.0747736 0)
(0.799588 -0.212672 0)
(-0.0672704 -0.406002 -8.98537e-20)
(-0.0931555 -0.405235 7.56436e-21)
(-0.109906 -0.388269 7.77388e-20)
(-0.122469 -0.355345 -5.87598e-22)
(-0.126739 -0.304649 0)
(-0.120825 -0.23571 0)
(-0.10364 -0.150476 -5.18419e-20)
(-0.0728966 -0.051243 2.29817e-21)
(-0.0311808 0.0547097 6.81274e-20)
(0.0141683 0.168657 -1.72633e-21)
(0.0655959 0.273311 -1.96679e-20)
(0.122532 0.367366 -1.50997e-20)
(0.178439 0.446186 1.50852e-20)
(0.229397 0.508465 0)
(0.274381 0.554153 -1.28145e-20)
(0.31744 0.580287 1.16631e-20)
(0.367605 0.577186 0)
(0.434192 0.531047 0)
(0.518955 0.433224 2.03051e-20)
(0.613722 0.285934 2.80853e-21)
(0.708442 0.100124 -2.11737e-20)
(0.794928 -0.102567 -2.30188e-20)
(0.863393 -0.287 2.29746e-20)
(0.90421 -0.41959 -1.62658e-20)
(0.916683 -0.488634 3.65866e-21)
(0.908116 -0.506606 1.16965e-20)
(0.88636 -0.496295 9.49463e-22)
(0.858074 -0.473516 9.33193e-24)
(0.828582 -0.447145 0)
(0.79348 -0.429439 4.0757e-21)
(0.742915 -0.425727 -4.18799e-21)
(0.680558 -0.413292 2.83861e-22)
(0.629637 -0.346085 0)
(0.613119 -0.207251 -3.65873e-22)
(0.633409 -0.0234313 5.23626e-21)
(0.677921 0.14569 -9.05979e-21)
(0.733283 0.270546 8.16686e-23)
(0.786498 0.344995 3.0568e-22)
(0.820479 0.401966 2.94198e-21)
(0.822695 0.459125 4.15297e-22)
(0.800577 0.491986 -4.11884e-21)
(0.774917 0.457733 3.45824e-21)
(0.775347 0.313096 -3.33478e-23)
(0.789043 0.115385 2.74379e-21)
(0.824041 -0.101809 -3.29117e-21)
(0.847319 -0.236415 -3.34548e-21)
(0.872844 -0.312291 9.83705e-22)
(0.8614 -0.338201 1.00078e-21)
(0.825108 -0.346037 -1.76997e-21)
(0.782347 -0.350303 1.14505e-21)
(0.766154 -0.232219 -3.15044e-22)
(0.781395 -0.131315 3.39131e-22)
(0.806743 0.0773619 2.57665e-22)
(0.808554 0.204944 -7.75167e-22)
(0.798158 0.313488 -7.76513e-24)
(0.781608 0.387809 -2.65348e-22)
(0.800429 0.229833 0)
(0.800111 0.204699 -1.26602e-22)
(0.831438 -0.0741552 3.70948e-22)
(0.806278 -0.210992 0)
(0.0929667 -0.378916 8.42206e-20)
(0.0523001 -0.382948 -1.54551e-19)
(0.0194799 -0.374475 6.98623e-20)
(-0.0118657 -0.352011 5.29896e-20)
(-0.0378366 -0.313791 -9.75369e-20)
(-0.0558559 -0.257553 4.80144e-21)
(-0.0628345 -0.186258 3.91335e-20)
(-0.0555538 -0.0987012 3.09633e-20)
(-0.0309912 0.00101806 -3.03824e-20)
(0.000211527 0.103535 0)
(0.0388193 0.206772 -2.37148e-20)
(0.0896634 0.304208 4.45049e-20)
(0.144732 0.389618 -2.10147e-20)
(0.200862 0.459633 0)
(0.257545 0.511398 0)
(0.318222 0.539548 3.7295e-22)
(0.389425 0.534353 -2.85073e-20)
(0.476142 0.485376 2.76901e-20)
(0.575732 0.38857 0)
(0.67894 0.247367 4.64397e-20)
(0.778005 0.0698264 -9.08547e-20)
(0.866312 -0.124751 9.06213e-20)
(0.932587 -0.300398 -8.42841e-20)
(0.966022 -0.423739 6.41354e-21)
(0.96764 -0.485056 5.59827e-20)
(0.947979 -0.497905 -2.42289e-20)
(0.917248 -0.484766 -4.78609e-22)
(0.881638 -0.461356 -4.85426e-21)
(0.84631 -0.434139 8.52344e-22)
(0.809088 -0.411639 4.09664e-21)
(0.759424 -0.401668 2.30532e-22)
(0.695708 -0.390563 -3.74334e-21)
(0.636951 -0.336842 7.84924e-21)
(0.609843 -0.216932 -4.5844e-21)
(0.621842 -0.0471588 0)
(0.663989 0.116367 -4.44476e-21)
(0.721402 0.243012 4.24814e-21)
(0.779144 0.324721 -2.77559e-21)
(0.81762 0.392176 3.44879e-21)
(0.824624 0.460112 -3.93285e-22)
(0.808566 0.499634 0)
(0.789424 0.466402 -5.82274e-22)
(0.796371 0.318617 2.09987e-21)
(0.812996 0.116422 0)
(0.847541 -0.104372 6.32488e-21)
(0.865881 -0.241032 -2.65858e-21)
(0.887749 -0.313215 7.77088e-22)
(0.874218 -0.332193 5.55577e-22)
(0.836803 -0.335536 0)
(0.792704 -0.343949 0)
(0.772705 -0.233961 -8.19246e-22)
(0.787014 -0.13848 1.21187e-21)
(0.808 0.07192 -6.67773e-22)
(0.809744 0.204717 2.04617e-22)
(0.797691 0.315219 4.55199e-22)
(0.78101 0.388473 2.65604e-22)
(0.803577 0.227696 -5.46494e-22)
(0.805009 0.202061 0)
(0.84107 -0.0735995 -5.38262e-22)
(0.813974 -0.209169 -1.46033e-22)
(0.294729 -0.339371 7.98731e-20)
(0.249899 -0.343761 -7.92005e-20)
(0.2055 -0.33977 4.92007e-22)
(0.160787 -0.324571 -3.47574e-22)
(0.118458 -0.296919 3.35476e-22)
(0.0786364 -0.256072 -2.83584e-22)
(0.0466156 -0.200093 2.91327e-22)
(0.0305907 -0.127202 0)
(0.0277041 -0.042481 -1.64574e-22)
(0.0368258 0.0463849 1.25717e-22)
(0.0618115 0.144735 1.13994e-22)
(0.100498 0.240392 -2.67725e-22)
(0.149698 0.327635 0)
(0.206723 0.401349 0)
(0.270833 0.456434 1.80503e-22)
(0.34397 0.485921 0)
(0.429755 0.480557 -3.22951e-22)
(0.529288 0.432848 0)
(0.636926 0.34184 -3.79938e-20)
(0.743933 0.210552 8.07669e-20)
(0.84541 0.0435888 -8.77997e-20)
(0.935019 -0.140619 4.49471e-20)
(0.99854 -0.305946 3.89938e-20)
(1.02435 -0.419738 -3.78622e-20)
(1.01566 -0.474413 -2.51093e-20)
(0.98585 -0.484127 2.4192e-20)
(0.947249 -0.469926 0)
(0.905669 -0.446959 3.47148e-22)
(0.865233 -0.420412 0)
(0.825871 -0.39513 0)
(0.77788 -0.379202 5.60474e-21)
(0.715178 -0.367296 -5.78066e-21)
(0.650871 -0.324911 3.44952e-22)
(0.613314 -0.224249 4.98097e-22)
(0.615902 -0.0705969 -4.06391e-22)
(0.654245 0.0855834 -3.23974e-21)
(0.712157 0.213008 3.14589e-21)
(0.77323 0.301575 -3.19453e-21)
(0.815812 0.379228 2.74153e-21)
(0.82771 0.457894 7.72254e-22)
(0.817898 0.504744 -4.28108e-21)
(0.805136 0.47402 -1.77318e-21)
(0.818295 0.324798 3.75372e-21)
(0.838071 0.119237 0)
(0.872448 -0.104232 -2.8422e-21)
(0.886036 -0.243456 2.8087e-21)
(0.903792 -0.313121 -3.79312e-21)
(0.888122 -0.325974 -5.5909e-22)
(0.849596 -0.324741 0)
(0.80405 -0.337204 2.60098e-22)
(0.7801 -0.235515 -5.34782e-22)
(0.793543 -0.145664 -3.82541e-23)
(0.810545 0.0662033 -1.2623e-22)