/*--------------------------------*- C++ -*----------------------------------*\
| =========                 |                                                 |
| \\      /  F ield         | OpenFOAM: The Open Source CFD Toolbox           |
|  \\    /   O peration     | Version:  2512                                  |
|   \\  /    A nd           | Website:  www.openfoam.com                      |
|    \\/     M anipulation  |                                                 |
\*---------------------------------------------------------------------------*/
FoamFile
{
    version     2.0;
    format      ascii;
    arch        "LSB;label=32;scalar=64";
    class       volScalarField;
    location    "199";
    object      p;
}
// * * * * * * * * * * * * * * * * * * * * * * * * * * * * * * * * * * * * * //

dimensions      [0 2 -2 0 0 0 0];

internalField   nonuniform List<scalar> 
13248
(
-0.436128
-0.433555
-0.431188
-0.429082
-0.427218
-0.425565
-0.423941
-0.422028
-0.419423
-0.415674
-0.410342
-0.403054
-0.393555
-0.381745
-0.367696
-0.351634
-0.333907
-0.314935
-0.295158
-0.275004
-0.254776
-0.234839
-0.214843
-0.195227
-0.44503
-0.441675
-0.438414
-0.435322
-0.432389
-0.429591
-0.42674
-0.423488
-0.419403
-0.414031
-0.406969
-0.397929
-0.386784
-0.373575
-0.358508
-0.341903
-0.324151
-0.305661
-0.286813
-0.267939
-0.249286
-0.231093
-0.213274
-0.196292
-0.454849
-0.450608
-0.446414
-0.442327
-0.4383
-0.434296
-0.430089
-0.425297
-0.419475
-0.412203
-0.40317
-0.392224
-0.379394
-0.364866
-0.348947
-0.332004
-0.314415
-0.296528
-0.278638
-0.260982
-0.243728
-0.227042
-0.210857
-0.19534
-0.46597
-0.460693
-0.455512
-0.45041
-0.445242
-0.439911
-0.434138
-0.427512
-0.419617
-0.41013
-0.398894
-0.385934
-0.371439
-0.355712
-0.339108
-0.321982
-0.304653
-0.287379
-0.270364
-0.253758
-0.237672
-0.222211
-0.207313
-0.193181
-0.478589
-0.472114
-0.465878
-0.459713
-0.453297
-0.446434
-0.438793
-0.429974
-0.419657
-0.407692
-0.394124
-0.379164
-0.363131
-0.346385
-0.329269
-0.312077
-0.295038
-0.278321
-0.262046
-0.246297
-0.231135
-0.21661
-0.202679
-0.189483
-0.492696
-0.484887
-0.477524
-0.470205
-0.462349
-0.453647
-0.443746
-0.432333
-0.419272
-0.40465
-0.388729
-0.371876
-0.354477
-0.336884
-0.319379
-0.302165
-0.285385
-0.269125
-0.253442
-0.238371
-0.223933
-0.210144
-0.196975
-0.184523
-0.508076
-0.498847
-0.490288
-0.481663
-0.472077
-0.461121
-0.448503
-0.434103
-0.418059
-0.40072
-0.382538
-0.363969
-0.345397
-0.32711
-0.3093
-0.292081
-0.275512
-0.25962
-0.244411
-0.229883
-0.21603
-0.20284
-0.190295
-0.178422
-0.524297
-0.513635
-0.503809
-0.493654
-0.48194
-0.468233
-0.452432
-0.434728
-0.415586
-0.395596
-0.375334
-0.355263
-0.335704
-0.316849
-0.298793
-0.281569
-0.26517
-0.249575
-0.234755
-0.22068
-0.20732
-0.194649
-0.182649
-0.171277
-0.540716
-0.52868
-0.517498
-0.505508
-0.491185
-0.474211
-0.454833
-0.43365
-0.41145
-0.389
-0.366904
-0.345563
-0.325194
-0.305884
-0.287638
-0.27042
-0.254174
-0.238841
-0.224364
-0.21069
-0.197774
-0.185578
-0.174072
-0.163157
-0.556461
-0.543171
-0.530514
-0.516308
-0.498865
-0.478178
-0.454993
-0.430349
-0.405295
-0.380672
-0.357028
-0.334652
-0.313643
-0.293986
-0.275612
-0.258429
-0.242343
-0.227265
-0.213117
-0.199826
-0.187332
-0.175587
-0.164541
-0.154064
-0.570466
-0.556067
-0.541768
-0.524916
-0.503883
-0.479184
-0.452156
-0.424243
-0.39665
-0.370188
-0.345289
-0.322106
-0.300621
-0.280733
-0.262309
-0.245217
-0.22933
-0.214537
-0.200737
-0.187845
-0.175786
-0.164501
-0.153903
-0.143879
-0.581565
-0.566239
-0.550112
-0.530182
-0.505146
-0.476246
-0.44545
-0.414528
-0.38473
-0.35676
-0.33089
-0.307129
-0.28535
-0.265376
-0.247022
-0.230119
-0.214514
-0.200077
-0.18669
-0.174256
-0.162692
-0.151923
-0.141835
-0.132365
-0.341041
-0.343624
-0.345154
-0.346114
-0.346954
-0.347826
-0.348804
-0.349925
-0.351199
-0.352618
-0.354175
-0.355864
-0.35769
-0.359663
-0.361803
-0.364133
-0.366676
-0.369451
-0.37247
-0.375729
-0.379171
-0.382637
-0.386009
-0.389593
-0.343788
-0.346935
-0.348866
-0.350161
-0.351326
-0.352495
-0.353716
-0.354995
-0.356306
-0.3576
-0.358819
-0.359902
-0.360787
-0.361417
-0.36174
-0.361713
-0.361301
-0.360479
-0.359245
-0.357613
-0.35555
-0.352906
-0.349787
-0.347422
-0.348162
-0.351642
-0.35386
-0.355446
-0.356918
-0.358387
-0.359867
-0.361332
-0.362716
-0.363926
-0.364849
-0.365362
-0.365334
-0.364633
-0.36313
-0.360705
-0.357255
-0.3527
-0.347006
-0.34019
-0.332225
-0.322943
-0.312618
-0.303561
-0.354286
-0.357827
-0.360192
-0.362002
-0.363748
-0.365506
-0.367253
-0.368929
-0.370427
-0.371609
-0.372308
-0.372338
-0.3715
-0.369588
-0.366396
-0.361732
-0.355425
-0.347342
-0.33741
-0.325635
-0.312025
-0.296445
-0.279144
-0.263105
-0.362039
-0.365363
-0.367717
-0.369663
-0.371622
-0.373631
-0.37563
-0.377517
-0.379148
-0.380339
-0.380872
-0.380502
-0.378967
-0.375992
-0.371305
-0.364653
-0.355814
-0.344617
-0.330962
-0.314844
-0.296347
-0.275502
-0.252355
-0.229246
-0.371084
-0.373937
-0.376118
-0.378085
-0.380165
-0.382345
-0.384529
-0.38658
-0.388311
-0.389496
-0.389868
-0.389131
-0.386965
-0.383041
-0.377038
-0.368662
-0.357666
-0.343875
-0.327199
-0.30765
-0.285388
-0.260692
-0.233695
-0.203685
-0.380932
-0.383115
-0.384962
-0.386807
-0.388868
-0.391092
-0.393342
-0.395442
-0.39717
-0.398254
-0.398388
-0.397229
-0.394412
-0.389569
-0.382352
-0.372456
-0.359647
-0.343791
-0.324869
-0.302991
-0.27842
-0.251474
-0.222613
-0.191124
-0.391046
-0.392431
-0.393797
-0.395357
-0.397221
-0.399303
-0.401437
-0.403409
-0.404956
-0.405773
-0.405512
-0.403792
-0.400219
-0.394407
-0.386005
-0.374732
-0.360408
-0.34298
-0.322541
-0.299331
-0.27377
-0.246164
-0.217969
-0.186779
-0.400956
-0.401492
-0.402252
-0.403351
-0.404814
-0.406534
-0.408325
-0.409942
-0.411088
-0.411421
-0.410559
-0.408096
-0.403625
-0.396761
-0.387185
-0.374675
-0.359137
-0.340635
-0.319393
-0.295767
-0.270353
-0.243373
-0.216847
-0.187723
-0.410364
-0.41006
-0.410118
-0.410587
-0.411438
-0.412567
-0.413776
-0.414798
-0.415306
-0.414928
-0.413254
-0.409865
-0.404355
-0.396371
-0.385652
-0.372066
-0.355636
-0.33655
-0.315154
-0.291905
-0.267456
-0.242071
-0.217526
-0.191385
-0.419205
-0.418109
-0.417393
-0.417079
-0.417128
-0.41745
-0.417853
-0.418054
-0.417701
-0.416395
-0.413709
-0.40922
-0.402546
-0.393389
-0.381576
-0.367086
-0.350062
-0.330806
-0.309744
-0.287394
-0.264348
-0.241024
-0.218572
-0.195445
-0.427668
-0.425823
-0.42428
-0.423075
-0.422177
-0.42153
-0.420952
-0.420148
-0.418742
-0.416312
-0.412416
-0.406644
-0.398661
-0.38825
-0.37535
-0.360062
-0.34264
-0.323465
-0.302988
-0.281711
-0.260083
-0.238619
-0.217936
-0.197917
-0.394297
-0.399155
-0.400904
-0.398295
-0.389022
-0.372748
-0.349632
-0.319946
-0.285854
-0.250729
-0.218283
-0.191671
-0.173145
-0.16428
-0.166184
-0.178776
-0.199088
-0.220382
-0.233604
-0.231336
-0.211443
-0.179502
-0.144912
-0.115356
-0.0943247
-0.0821162
-0.0774851
-0.0792621
-0.0881608
-0.105368
-0.127064
-0.143028
-0.143331
-0.128211
-0.10571
-0.0853962
-0.0721484
-0.0654653
-0.0649229
-0.0725264
-0.0870989
-0.0998659
-0.100265
-0.0886015
-0.072912
-0.0595606
-0.050916
-0.0473652
-0.049289
-0.0516035
-0.0499046
-0.0468339
-0.0422846
-0.0368076
-0.0339216
-0.0321197
-0.0300311
-0.03002
-0.023362
-0.00600635
-0.346346
-0.345859
-0.343598
-0.337994
-0.329322
-0.315868
-0.298307
-0.275362
-0.24897
-0.222014
-0.197564
-0.178459
-0.167053
-0.165223
-0.17411
-0.192977
-0.217865
-0.241397
-0.254226
-0.250287
-0.227191
-0.19138
-0.153034
-0.120216
-0.0963197
-0.081386
-0.0740957
-0.0731548
-0.0788221
-0.0922841
-0.110769
-0.125444
-0.127071
-0.11521
-0.0964605
-0.0797108
-0.0695646
-0.065506
-0.0674968
-0.0778838
-0.0950171
-0.109478
-0.109423
-0.0962353
-0.0777038
-0.061557
-0.050701
-0.0449474
-0.0449948
-0.0456732
-0.0442481
-0.0421226
-0.0392129
-0.0358327
-0.0346465
-0.0349826
-0.0333875
-0.033574
-0.0262031
-0.00672456
-0.296683
-0.289619
-0.282639
-0.274245
-0.262753
-0.252463
-0.237967
-0.222462
-0.203899
-0.185124
-0.168942
-0.157925
-0.154391
-0.160235
-0.176206
-0.200755
-0.229281
-0.254471
-0.26795
-0.262314
-0.237164
-0.198931
-0.158153
-0.12308
-0.0970276
-0.0798399
-0.0701505
-0.0666325
-0.0691875
-0.0788925
-0.0940464
-0.107321
-0.110224
-0.101386
-0.0863162
-0.0731216
-0.0660952
-0.0647082
-0.069259
-0.0823356
-0.101861
-0.117921
-0.117732
-0.103152
-0.0819967
-0.0631761
-0.0502699
-0.0425454
-0.0409344
-0.0400844
-0.0387821
-0.0373909
-0.0360143
-0.0347355
-0.0353184
-0.0378178
-0.0366753
-0.0369874
-0.0289344
-0.0074256
-0.250902
-0.236507
-0.224277
-0.212885
-0.203209
-0.18898
-0.176002
-0.165368
-0.154085
-0.142936
-0.134975
-0.132239
-0.136794
-0.150189
-0.172562
-0.201726
-0.232906
-0.259228
-0.272982
-0.267149
-0.241256
-0.202071
-0.160255
-0.124038
-0.0966173
-0.0777474
-0.0660504
-0.0602043
-0.0598713
-0.0659784
-0.0777385
-0.0893938
-0.0937466
-0.0871501
-0.0755861
-0.0658123
-0.0617937
-0.0629898
-0.0699711
-0.085536
-0.107278
-0.124922
-0.124891
-0.109193
-0.0857164
-0.0644149
-0.0496467
-0.0402007
-0.0371673
-0.0349125
-0.0335844
-0.0327041
-0.032727
-0.0335254
-0.0359275
-0.0406041
-0.0398618
-0.0402209
-0.0315214
-0.00810114
-0.213694
-0.192003
-0.174272
-0.157607
-0.143827
-0.128834
-0.116975
-0.113224
-0.104988
-0.100712
-0.100071
-0.104898
-0.116808
-0.136748
-0.164218
-0.196657
-0.229461
-0.25644
-0.270505
-0.265159
-0.239765
-0.201123
-0.159703
-0.123435
-0.0953753
-0.0753509
-0.0620751
-0.0542654
-0.0513752
-0.0541237
-0.0624943
-0.072214
-0.0768758
-0.0728335
-0.0645612
-0.0579419
-0.0566826
-0.0602588
-0.0694399
-0.0872484
-0.111
-0.130225
-0.130628
-0.114217
-0.0888122
-0.0652931
-0.048868
-0.0379412
-0.0337177
-0.0302067
-0.0287209
-0.0281309
-0.0293902
-0.0322091
-0.0364639
-0.043316
-0.0429098
-0.0432299
-0.0339303
-0.0087429
-0.187245
-0.158712
-0.137172
-0.114862
-0.10032
-0.0884607
-0.074588
-0.068132
-0.0639672
-0.064191
-0.069038
-0.0797242
-0.0972523
-0.121932
-0.152729
-0.186918
-0.220281
-0.247355
-0.261711
-0.257249
-0.23332
-0.196573
-0.156878
-0.121577
-0.0935684
-0.0728649
-0.0584023
-0.0489934
-0.0439891
-0.0437776
-0.0488624
-0.0563839
-0.0609469
-0.0589088
-0.0535424
-0.0496794
-0.0508241
-0.0565044
-0.0676017
-0.0873436
-0.112853
-0.133651
-0.134793
-0.118115
-0.0912376
-0.0658275
-0.0479613
-0.035778
-0.030584
-0.0259911
-0.0242405
-0.0237374
-0.026039
-0.0307909
-0.0369135
-0.0459219
-0.0457816
-0.0459741
-0.0361292
-0.00934179
-0.172207
-0.142347
-0.114689
-0.0904914
-0.0708379
-0.0552038
-0.0425553
-0.0367095
-0.0345282
-0.0371907
-0.0452595
-0.0594441
-0.0802185
-0.107391
-0.139575
-0.174028
-0.206931
-0.233585
-0.248027
-0.2446
-0.22288
-0.189134
-0.152257
-0.118783
-0.0914329
-0.0704686
-0.0551528
-0.0444741
-0.0377475
-0.0350843
-0.0371567
-0.0423547
-0.0464346
-0.0457971
-0.042854
-0.0412421
-0.0443725
-0.0518177
-0.0644678
-0.0857594
-0.112776
-0.135125
-0.137354
-0.120808
-0.0929442
-0.0660263
-0.0469461
-0.0337132
-0.0277412
-0.0222557
-0.0201723
-0.0195869
-0.0227031
-0.0292713
-0.0372591
-0.0483892
-0.0484422
-0.0484151
-0.0380888
-0.00988861
-0.167054
-0.137711
-0.107797
-0.0813162
-0.0589312
-0.04055
-0.0270562
-0.0199
-0.0176328
-0.0207732
-0.0297928
-0.04506
-0.0666748
-0.0941454
-0.125929
-0.15932
-0.19083
-0.216413
-0.230678
-0.228334
-0.209399
-0.179498
-0.146244
-0.115254
-0.0890683
-0.0682233
-0.052358
-0.0407095
-0.0326225
-0.0279917
-0.0274586
-0.0303776
-0.0336828
-0.0338721
-0.0328192
-0.0328941
-0.0375335
-0.046339
-0.0601455
-0.0825515
-0.110786
-0.134675
-0.138567
-0.122238
-0.0938965
-0.0659015
-0.0458423
-0.0317517
-0.0251691
-0.0189704
-0.0165184
-0.0157352
-0.0194058
-0.0276503
-0.037483
-0.0506847
-0.0508633
-0.0505183
-0.039784
-0.0103762
-0.168322
-0.141102
-0.111872
-0.0845534
-0.0606066
-0.0406414
-0.0254548
-0.0158988
-0.0121144
-0.0140196
-0.0220195
-0.0362913
-0.0567001
-0.0826278
-0.112513
-0.143768
-0.173281
-0.197128
-0.210735
-0.209598
-0.193936
-0.168437
-0.13931
-0.111244
-0.0866253
-0.0662492
-0.0501211
-0.0377728
-0.0286412
-0.0224793
-0.0197895
-0.0205611
-0.0229069
-0.0244719
-0.0237164
-0.0248917
-0.0305507
-0.0402626
-0.0547152
-0.0778112
-0.107003
-0.132387
-0.140615
-0.122387
-0.0941316
-0.0655408
-0.0447273
-0.0299257
-0.0228729
-0.0161377
-0.0132726
-0.0122203
-0.0161615
-0.0259258
-0.0375669
-0.0527762
-0.0530121
-0.0522585
-0.0411984
-0.0108014
-0.172854
-0.148563
-0.122154
-0.0962205
-0.0722591
-0.051471
-0.0347508
-0.0222488
-0.0158891
-0.0152627
-0.0207465
-0.0324458
-0.0500837
-0.0730355
-0.0998175
-0.128049
-0.154715
-0.176746
-0.18942
-0.189798
-0.177813
-0.157055
-0.132327
-0.107462
-0.0847094
-0.0650879
-0.0489183
-0.0360442
-0.0260714
-0.0186827
-0.014217
-0.0129998
-0.0141114
-0.0154086
-0.0156429
-0.0174378
-0.0236222
-0.0338034
-0.0485293
-0.071849
-0.101513
-0.128128
-0.137224
-0.121094
-0.0937339
-0.0651002
-0.0437483
-0.0282977
-0.0208344
-0.0137718
-0.0104798
-0.00908547
-0.012971
-0.0241048
-0.0374846
-0.0546307
-0.0548493
-0.0536191
-0.0423108
-0.0111586
-0.17757
-0.156155
-0.133123
-0.109115
-0.0855489
-0.0630777
-0.0463729
-0.0333711
-0.0253356
-0.0216742
-0.0236154
-0.031681
-0.0455061
-0.0645767
-0.0876487
-0.112415
-0.136232
-0.155565
-0.16734
-0.169443
-0.161422
-0.145638
-0.125512
-0.10407
-0.0834096
-0.0647557
-0.0487145
-0.0354246
-0.0247484
-0.0163753
-0.0104475
-0.00741043
-0.00720915
-0.00808379
-0.0089991
-0.0108263
-0.0170284
-0.0270927
-0.0414351
-0.064638
-0.0949161
-0.122336
-0.131574
-0.11835
-0.0924373
-0.0643604
-0.0427753
-0.026777
-0.018903
-0.0116752
-0.00812108
-0.00652157
-0.00983979
-0.02216
-0.0372181
-0.0562306
-0.0563241
-0.0545842
-0.0430805
-0.011419
-0.182782
-0.165874
-0.147128
-0.126317
-0.105578
-0.0857351
-0.0665004
-0.0507403
-0.0395993
-0.033317
-0.031816
-0.0354256
-0.0443942
-0.058227
-0.0759256
-0.0958695
-0.116253
-0.133332
-0.143874
-0.147037
-0.142544
-0.1313
-0.115484
-0.0974366
-0.0790937
-0.0618265
-0.0464446
-0.0332535
-0.0223596
-0.0135572
-0.0067638
-0.00230451
-0.000898912
-0.0015296
-0.00422347
-0.00510402
-0.0111168
-0.0208693
-0.0345407
-0.0569596
-0.0868633
-0.114583
-0.123898
-0.113558
-0.0893446
-0.0621988
-0.0408825
-0.0248154
-0.0167891
-0.0093721
-0.00572718
-0.0043508
-0.00685246
-0.0201822
-0.0367276
-0.0575017
-0.0574339
-0.0551386
-0.0435044
-0.0115336
-0.17323
-0.165099
-0.147702
-0.127741
-0.107528
-0.0891561
-0.0721729
-0.058004
-0.0473515
-0.0404696
-0.0376238
-0.0395026
-0.0463472
-0.0578112
-0.0729872
-0.0903651
-0.107729
-0.122082
-0.131054
-0.133421
-0.128902
-0.118549
-0.104239
-0.087939
-0.0712831
-0.0554404
-0.041131
-0.0286264
-0.0180725
-0.00934612
-0.00234417
0.0028109
0.00530409
0.00564029
0.00638037
0.00203146
-0.00344317
-0.0121993
-0.0250156
-0.0476203
-0.0794111
-0.109774
-0.120787
-0.110379
-0.0857862
-0.0588336
-0.0379289
-0.0223072
-0.0146293
-0.00695292
-0.00302368
0.000709313
-0.00324367
-0.017716
-0.0359153
-0.0587102
-0.0585131
-0.0554054
-0.0436914
-0.011528
-0.16417
-0.157748
-0.141492
-0.122455
-0.105446
-0.0901339
-0.0760344
-0.0637608
-0.054017
-0.0473452
-0.0442823
-0.0452766
-0.0504307
-0.0594328
-0.0714669
-0.0851792
-0.0985497
-0.10964
-0.116369
-0.117591
-0.113284
-0.104305
-0.092048
-0.0779993
-0.0634331
-0.0493157
-0.036299
-0.0246576
-0.0146244
-0.00616803
0.000842623
0.00635312
0.00939582
0.0100139
0.00956622
0.00660294
0.00196315
-0.00572607
-0.0174888
-0.0397353
-0.0724098
-0.103563
-0.1144
-0.104058
-0.0803878
-0.0546873
-0.0348511
-0.019868
-0.0124566
-0.00480638
-0.00106408
0.00204015
-0.00070351
-0.0157102
-0.0352475
-0.0595064
-0.0591563
-0.0550729
-0.0434417
-0.0114773
-0.154636
-0.149377
-0.13574
-0.119536
-0.104521
-0.0911818
-0.0790788
-0.0683784
-0.0596793
-0.0535673
-0.050469
-0.0506478
-0.0541377
-0.0606423
-0.0694628
-0.0795115
-0.0894543
-0.0975939
-0.102357
-0.102943
-0.0992585
-0.0917824
-0.0814466
-0.0693621
-0.0565659
-0.0438941
-0.0319747
-0.0210987
-0.0115248
-0.00330929
0.00360633
0.00925917
0.0127067
0.0136712
0.01314
0.0106585
0.00645895
-0.000672829
-0.011915
-0.0336396
-0.0654109
-0.0953389
-0.106155
-0.0964487
-0.0743143
-0.0502419
-0.0316207
-0.0173657
-0.0102781
-0.00274001
0.000773241
0.00375538
0.0012596
-0.014136
-0.0346826
-0.0598512
-0.0593621
-0.0542748
-0.0427925
-0.0113968
-0.143639
-0.140667
-0.129726
-0.115848
-0.102751
-0.091239
-0.0809268
-0.0717473
-0.0641033
-0.0584794
-0.0552294
-0.0545601
-0.0564895
-0.0607792
-0.0668952
-0.0739316
-0.0811288
-0.0868908
-0.0902034
-0.0903378
-0.0870739
-0.0806832
-0.0718264
-0.0613514
-0.0500939
-0.0387477
-0.0278807
-0.0177805
-0.00870766
-0.000777254
0.00596603
0.0116328
0.0154148
0.0168492
0.0165203
0.0145492
0.0109363
0.00426403
-0.00654544
-0.0271936
-0.0571112
-0.0858487
-0.0968456
-0.0878134
-0.0674711
-0.0453479
-0.0281884
-0.0148101
-0.0080938
-0.000738
0.0025619
0.00554035
0.00304667
-0.0125842
-0.0338325
-0.0596632
-0.0591209
-0.0530318
-0.0416946
-0.0112545
-0.13285
-0.131821
-0.123165
-0.111426
-0.100163
-0.090315
-0.081578
-0.0737476
-0.0670412
-0.0618451
-0.0584822
-0.0571378
-0.057829
-0.0603786
-0.0643952
-0.0693212
-0.0739677
-0.0777897
-0.0798304
-0.0794418
-0.0763891
-0.0708215
-0.0631838
-0.0540864
-0.0441792
-0.0340243
-0.024126
-0.0147703
-0.00621514
0.00140537
0.00794627
0.0135305
0.0175224
0.0193981
0.0194737
0.0182089
0.0154229
0.00946393
-0.000500473
-0.0195798
-0.0477048
-0.0753606
-0.0861048
-0.0781945
-0.0599561
-0.0400948
-0.0246099
-0.0122296
-0.00592078
0.00119825
0.00427925
0.00710633
0.00476747
-0.0108237
-0.0325115
-0.0588173
-0.05831
-0.0512832
-0.0400983
-0.0110228
-0.122663
-0.122769
-0.116064
-0.106339
-0.0968043
-0.0884513
-0.0810741
-0.0744146
-0.0685633
-0.0638174
-0.0604588
-0.0586509
-0.0584089
-0.0595918
-0.061892
-0.0648576
-0.067751
-0.0700066
-0.0709473
-0.0700685
-0.0671381
-0.0622009
-0.0555352
-0.0475711
-0.0388131
-0.0297138
-0.0207078
-0.0120668
-0.00404491
0.00323117
0.0095517
0.0149938
0.0190793
0.0213347
0.0219537
0.0215257
0.019779
0.014861
0.00606875
-0.0113722
-0.0377301
-0.0640028
-0.0745377
-0.0678416
-0.0519646
-0.0345762
-0.0209269
-0.00964835
-0.00377765
0.0030558
0.00592515
0.00844757
0.00640164
-0.00883316
-0.0306483
-0.0571061
-0.0567724
-0.0489818
-0.0379785
-0.0106749
-0.112536
-0.113542
-0.108584
-0.100699
-0.0927411
-0.0857215
-0.0795286
-0.0739004
-0.0688419
-0.0645646
-0.0612998
-0.0591895
-0.0582542
-0.0583899
-0.0593672
-0.060836
-0.0623155
-0.0633255
-0.063374
-0.062066
-0.0591803
-0.0547
-0.0487957
-0.0417651
-0.0339912
-0.0258302
-0.0176459
-0.0096846
-0.00219784
0.00470074
0.0107827
0.0160641
0.0201704
0.0227188
0.0238874
0.0243383
0.0237855
0.0201693
0.0126528
-0.0031912
-0.0276077
-0.0521451
-0.0623639
-0.0570692
-0.0437278
-0.0289188
-0.0171938
-0.00709363
-0.00168131
0.00482632
0.00751343
0.00958717
0.00790779
-0.00662479
-0.0281265
-0.0543095
-0.0543544
-0.0453575
-0.0353295
-0.0101877
-0.102565
-0.104416
-0.100936
-0.0946409
-0.0880774
-0.0822385
-0.0770824
-0.0723612
-0.0680236
-0.0642087
-0.0611007
-0.058824
-0.0574071
-0.0567775
-0.0567717
-0.0571266
-0.0575105
-0.0575553
-0.0568926
-0.0552142
-0.0523281
-0.0481882
-0.0428914
-0.0366353
-0.0297033
-0.0223717
-0.0149401
-0.00762332
-0.000663613
0.00583339
0.0116523
0.0167656
0.0208549
0.0236226
0.0252686
0.026492
0.0271339
0.0249912
0.0188148
0.00451655
-0.0178551
-0.0402767
-0.0499947
-0.0462397
-0.0355142
-0.0232743
-0.0134709
-0.00459037
0.00035619
0.00650608
0.00905985
0.0105726
0.00928587
-0.00414997
-0.0248105
-0.050259
-0.0508589
-0.0418636
-0.0322118
-0.00954541
-0.0931889
-0.095558
-0.093222
-0.0882677
-0.0829242
-0.0781236
-0.0738716
-0.0699428
-0.066253
-0.0628868
-0.0599875
-0.0576626
-0.0559447
-0.0547879
-0.0540749
-0.0536219
-0.0531875
-0.0525007
-0.0512882
-0.049315
-0.0464216
-0.0425482
-0.0377427
-0.032132
-0.0259219
-0.0193239
-0.012581
-0.00587462
0.000571988
0.00665566
0.0121855
0.0171137
0.0211628
0.0241009
0.0261272
0.0279241
0.029538
0.0287958
0.0239289
0.011166
-0.00895207
-0.0288065
-0.0378625
-0.0357429
-0.0276028
-0.0178064
-0.00982419
-0.00216173
0.00232678
0.00809525
0.0105828
0.0114946
0.0105991
-0.00133997
-0.0206305
-0.0448844
-0.0464279
-0.037858
-0.0286984
-0.00874448
-0.0843638
-0.0869623
-0.0855175
-0.0816955
-0.0774071
-0.0735078
-0.0700379
-0.0667989
-0.0636892
-0.0607532
-0.0580989
-0.0558167
-0.0539419
-0.0524492
-0.0512585
-0.0502387
-0.049218
-0.0480013
-0.0463887
-0.0442028
-0.0413142
-0.0376613
-0.0332628
-0.0281975
-0.022612
-0.0166651
-0.0105516
-0.00442121
0.00152849
0.00719594
0.0124159
0.0171329
0.0211126
0.0241731
0.0264887
0.0286346
0.0308305
0.0310826
0.0273228
0.0162671
-0.00115292
-0.0181065
-0.0264775
-0.0259872
-0.0202558
-0.0126709
-0.00632502
0.000167755
0.00422356
0.00959813
0.0120998
0.0124818
0.0119509
0.00182817
-0.0156301
-0.0382621
-0.0410022
-0.0333693
-0.0249066
-0.00779694
-0.0759298
-0.0786785
-0.0779452
-0.0750571
-0.0716578
-0.0685266
-0.0657268
-0.0630845
-0.0604902
-0.0579588
-0.0555695
-0.0533975
-0.0514779
-0.0498019
-0.0483137
-0.0469226
-0.0455085
-0.043933
-0.0420511
-0.039731
-0.0368712
-0.033416
-0.0293671
-0.0247716
-0.0197322
-0.0143661
-0.00882754
-0.00323925
0.00223049
0.00748497
0.0123804
0.0168567
0.0207315
0.0238522
0.0263581
0.0286674
0.0310291
0.0317445
0.028855
0.019721
0.00534436
-0.00869279
-0.0164008
-0.0173359
-0.0136774
-0.00799232
-0.00304357
0.00236946
0.00603253
0.0110162
0.0136178
0.0136667
0.0134495
0.00530347
-0.010001
-0.0306766
-0.0347572
-0.028594
-0.0209905
-0.00673292
-0.0679862
-0.070801
-0.0705981
-0.0684563
-0.0657923
-0.0633074
-0.0610758
-0.0589452
-0.0568043
-0.0546474
-0.0525313
-0.0505172
-0.0486381
-0.0468937
-0.045249
-0.0436425
-0.0419907
-0.0401964
-0.0381569
-0.0357759
-0.0329766
-0.0297117
-0.0259747
-0.0217925
-0.0172363
-0.0123921
-0.00737978
-0.00229991
0.00270764
0.00755487
0.0121163
0.0163273
0.0200547
0.023164
0.025754
0.0280857
0.0303252
0.0311287
0.02891
0.0216714
0.010274
-0.00108808
-0.00806994
-0.0100113
-0.00797969
-0.00384773
-4.08845e-05
0.00441485
0.00772758
0.0123322
0.0151113
0.0151304
0.0151751
0.00895283
-0.00409665
-0.022629
-0.0280293
-0.0238486
-0.0171241
-0.00560041
-0.0605973
-0.0633522
-0.0635201
-0.0619706
-0.059912
-0.0579659
-0.0562111
-0.0545153
-0.0527696
-0.0509543
-0.0491088
-0.0472826
-0.0455035
-0.0437777
-0.0420845
-0.040383
-0.0386159
-0.0367163
-0.0346126
-0.0322364
-0.0295308
-0.0264582
-0.0230092
-0.0191989
-0.0150764
-0.0107045
-0.00617558
-0.0015714
0.00299329
0.00744022
0.0116605
0.0155909
0.0191279
0.022158
0.0247314
0.0269786
0.0289595
0.0296765
0.0279514
0.0223462
0.0135471
0.00452816
-0.00159782
-0.00405052
-0.00318111
-0.000266159
0.00263641
0.00628017
0.00927821
0.0135035
0.0165024
0.0168334
0.0171202
0.012559
0.00160709
-0.0147684
-0.0212607
-0.0191766
-0.0134671
-0.00446007
-0.0536976
-0.0563268
-0.0567551
-0.0556737
-0.0541078
-0.0526052
-0.0512458
-0.0499155
-0.0485105
-0.0470023
-0.0454161
-0.0437901
-0.042153
-0.0405088
-0.038847
-0.0371413
-0.0353533
-0.0334378
-0.0313457
-0.0290299
-0.0264494
-0.023576
-0.0204007
-0.016932
-0.0132042
-0.00926305
-0.00517988
-0.00102037
0.00312204
0.00717854
0.011055
0.0146916
0.0180011
0.0208972
0.0233709
0.0254625
0.0271511
0.0277299
0.0263653
0.0220807
0.0154121
0.00838768
0.00320163
0.000646747
0.00076339
0.00275959
0.00496094
0.00794173
0.0106568
0.0144843
0.0176674
0.0185641
0.0190957
0.0157966
0.00660274
-0.00771316
-0.0148901
-0.0147457
-0.0101519
-0.00337552
-0.0472682
-0.0497442
-0.0503458
-0.0496255
-0.0484541
-0.0473121
-0.046277
-0.0452507
-0.0441365
-0.0429006
-0.0415583
-0.0401392
-0.0386648
-0.0371427
-0.0355681
-0.0339243
-0.0321855
-0.030322
-0.0283007
-0.0260902
-0.0236621
-0.0209967
-0.0180864
-0.014937
-0.0115727
-0.00802755
-0.00435677
-0.000612587
0.00312844
0.00680719
0.0103421
0.0136774
0.0167359
0.0194458
0.0217625
0.0236669
0.0250901
0.0255459
0.0244704
0.0212385
0.0162585
0.0108817
0.00663574
0.00424592
0.00393015
0.00525699
0.00692728
0.00937281
0.0118318
0.0152476
0.0184837
0.019986
0.0207133
0.0182437
0.0104736
-0.00186078
-0.00923121
-0.0107011
-0.00726821
-0.00240255
-0.0413189
-0.0436116
-0.0443133
-0.0438665
-0.0430083
-0.0421569
-0.0413853
-0.0406094
-0.0397407
-0.0387427
-0.0376234
-0.0364056
-0.0351061
-0.0337317
-0.0322811
-0.0307445
-0.0291049
-0.0273427
-0.0254364
-0.0233657
-0.021112
-0.0186621
-0.0160112
-0.0131636
-0.0101377
-0.00695892
-0.00367065
-0.000314461
0.00304645
0.00636289
0.00956325
0.0125958
0.0153892
0.0178804
0.020009
0.0217229
0.0229316
0.0233108
0.0224896
0.0200967
0.0164248
0.0123779
0.00900777
0.00692691
0.00640818
0.00726368
0.00854248
0.0105516
0.0127676
0.0157627
0.0188709
0.020803
0.0215602
0.019559
0.0130101
0.00264671
-0.004462
-0.00714753
-0.00485785
-0.0015808
-0.0358261
-0.0379182
-0.0386675
-0.0384259
-0.0378147
-0.0371953
-0.0366356
-0.0360639
-0.0354004
-0.0346084
-0.0336892
-0.0326603
-0.0315367
-0.0303233
-0.029019
-0.0276185
-0.026111
-0.0244839
-0.0227234
-0.0208171
-0.0187533
-0.0165244
-0.0141278
-0.0115677
-0.00885866
-0.00602053
-0.00308777
-9.38465e-05
0.0029093
0.00588036
0.00875583
0.0114909
0.0140169
0.0162799
0.0182093
0.0197448
0.0207926
0.0211419
0.020554
0.018826
0.0161607
0.0131712
0.0105754
0.00885516
0.00828768
0.0088234
0.009819
0.011466
0.0134364
0.0160069
0.0188046
0.0208559
0.0214717
0.0197372
0.01428
0.00584217
-0.00068274
-0.00415228
-0.00291279
-0.000924781
-0.0307652
-0.0326546
-0.033414
-0.0333234
-0.0329049
-0.0324692
-0.0320783
-0.0316713
-0.0311773
-0.0305606
-0.0298185
-0.0289643
-0.0280115
-0.0269614
-0.0258132
-0.0245644
-0.0232084
-0.0217371
-0.0201418
-0.0184153
-0.016551
-0.0145449
-0.0123969
-0.0101112
-0.00769999
-0.00517934
-0.00257713
7.9529e-05
0.00274734
0.00539172
0.00795632
0.0104034
0.0126689
0.0147064
0.0164416
0.0178196
0.018752
0.0191061
0.0187313
0.0175291
0.0156414
0.0134787
0.0115349
0.0101752
0.00965408
0.00998363
0.0107743
0.0121168
0.0138272
0.0159881
0.0183503
0.0201375
0.0206144
0.0190728
0.0145605
0.00786219
0.0020809
-0.00173564
-0.00138729
-0.000423592
-0.0261191
-0.0278083
-0.0285507
-0.0285685
-0.0282989
-0.0280075
-0.0277498
-0.0274746
-0.0271195
-0.0266513
-0.0260647
-0.0253695
-0.0245749
-0.0236832
-0.0226924
-0.0216009
-0.020405
-0.0190998
-0.0176794
-0.0161402
-0.0144787
-0.0126938
-0.0107869
-0.00876257
-0.00663134
-0.00440657
-0.00211126
0.000232326
0.00258741
0.00492548
0.00719756
0.00937103
0.0113873
0.0132088
0.0147636
0.0160065
0.0168583
0.0172399
0.0170539
0.0162658
0.0149752
0.013453
0.0120438
0.0110141
0.0105883
0.0107941
0.0114322
0.0125156
0.0139567
0.0157306
0.0176228
0.0190472
0.019308
0.0179267
0.0141898
0.00892106
0.00380902
0.000130922
-0.000218811
-5.17842e-05
-0.0218649
-0.0233616
-0.0240693
-0.0241632
-0.0240081
-0.0238293
-0.0236759
-0.0235051
-0.0232628
-0.0229189
-0.0224663
-0.0219116
-0.0212612
-0.020519
-0.0196809
-0.0187452
-0.0177102
-0.0165729
-0.0153295
-0.0139782
-0.0125177
-0.0109487
-0.00927333
-0.00749661
-0.00562781
-0.00367821
-0.00166733
0.000386547
0.00245253
0.00450641
0.00650601
0.00842387
0.0102078
0.0118264
0.0132165
0.0143444
0.0151392
0.0155567
0.0155333
0.0150682
0.0142312
0.0132024
0.0122241
0.0114794
0.011165
0.011303
0.0118224
0.0126857
0.0138573
0.0152711
0.0167209
0.0177674
0.017812
0.0165728
0.0134583
0.00930968
0.00503832
0.00152496
0.000655143
0.000220346
-0.0179804
-0.0192967
-0.0199586
-0.0201044
-0.0200364
-0.0199447
-0.0198722
-0.0197835
-0.0196319
-0.0193906
-0.0190521
-0.0186189
-0.0180979
-0.017493
-0.0167993
-0.0160132
-0.0151337
-0.01416
-0.0130896
-0.0119216
-0.0106556
-0.00929354
-0.00783812
-0.00629421
-0.00467011
-0.0029756
-0.00122705
0.000560226
0.00236022
0.0041529
0.00590216
0.00758396
0.00915308
0.0105857
0.011828
0.0128562
0.0136072
0.0140584
0.0141688
0.0139518
0.0134579
0.0128037
0.0121628
0.0116549
0.01145
0.0115562
0.0119789
0.0126558
0.0135731
0.0146535
0.0156283
0.0164084
0.0162823
0.0151736
0.012564
0.00925883
0.00571804
0.00250091
0.0012838
0.000416457
-0.0144448
-0.0155943
-0.0162045
-0.016384
-0.0163818
-0.0163572
-0.016347
-0.0163221
-0.0162429
-0.0160854
-0.0158429
-0.0155162
-0.0151105
-0.0146272
-0.0140647
-0.0134179
-0.012685
-0.011866
-0.01096
-0.00996623
-0.00888499
-0.0077182
-0.00646897
-0.00514196
-0.00374443
-0.00228486
-0.00077705
0.000766262
0.00232327
0.00387701
0.00539761
0.00686521
0.00824038
0.00950382
0.0106181
0.0115498
0.012262
0.0127392
0.0129544
0.012924
0.0126844
0.0123096
0.0119265
0.0116108
0.0115022
0.0115966
0.0119381
0.0124593
0.0131516
0.0139479
0.0146074
0.0150801
0.014813
0.013816
0.0116233
0.0089395
0.00600881
0.00313649
0.00171053
0.00055257
-0.0112368
-0.0122342
-0.0127907
-0.0129906
-0.0130378
-0.0130643
-0.0131017
-0.013126
-0.0131041
-0.0130153
-0.0128531
-0.0126178
-0.0123102
-0.0119334
-0.0114884
-0.0109695
-0.0103724
-0.00969686
-0.00894325
-0.00811162
-0.00720226
-0.00621691
-0.00515854
-0.00403142
-0.00284189
-0.0015972
-0.000308773
0.00101249
0.00234865
0.00368588
0.00499874
0.00627142
0.00747222
0.00858259
0.00956825
0.0104168
0.0110942
0.0115882
0.0118794
0.0119834
0.0119287
0.0117614
0.0115713
0.0114039
0.0113722
0.011465
0.0117376
0.0121295
0.0126292
0.0131867
0.0135916
0.0138248
0.0134512
0.0125439
0.0106989
0.00847135
0.00603567
0.00350883
0.0019748
0.000639719
-0.00833586
-0.00919675
-0.00970013
-0.009911
-0.00999492
-0.0100603
-0.0101337
-0.0101956
-0.0102187
-0.0101853
-0.0100892
-0.00993026
-0.00970916
-0.00942687
-0.00908288
-0.00867637
-0.00820173
-0.00765704
-0.00704256
-0.006359
-0.00560684
-0.0047875
-0.00390352
-0.00295861
-0.00195821
-0.000908394
0.000181339
0.00130199
0.00243893
0.00358046
0.00470621
0.00580289
0.00684459
0.0078176
0.00869196
0.00946078
0.010094
0.0105907
0.0109319
0.011129
0.0112044
0.0111884
0.0111356
0.0110786
0.0111042
0.0111989
0.011413
0.0116983
0.0120382
0.0124009
0.0126065
0.0126593
0.0122155
0.0113768
0.00981982
0.00793585
0.00588884
0.00368225
0.00211384
0.000687923
-0.00572296
-0.00646251
-0.00691514
-0.00713042
-0.00724134
-0.00733595
-0.00743629
-0.00752682
-0.00758493
-0.00759595
-0.00755422
-0.00745916
-0.00731106
-0.00710862
-0.00685115
-0.00654384
-0.00617817
-0.00575094
-0.00526165
-0.00471119
-0.00410046
-0.00343068
-0.00270393
-0.0019232
-0.00109302
-0.000218423
0.000692874
0.00163351