/*--------------------------------*- C++ -*----------------------------------*\
| =========                 |                                                 |
| \\      /  F ield         | OpenFOAM: The Open Source CFD Toolbox           |
|  \\    /   O peration     | Version:  2512                                  |
|   \\  /    A nd           | Website:  www.openfoam.com                      |
|    \\/     M anipulation  |                                                 |
\*---------------------------------------------------------------------------*/
FoamFile
{
    version     2.0;
    format      ascii;
    arch        "LSB;label=32;scalar=64";
    class       surfaceScalarField;
    location    "199";
    object      phi;
}
// * * * * * * * * * * * * * * * * * * * * * * * * * * * * * * * * * * * * * //

dimensions      [0 3 -1 0 0 0 0];

oriented        oriented;

internalField   nonuniform List<scalar> 
26232
(
0.000182259
0.000856332
-0.00103859
0.000802949
0.00128818
-0.00190887
0.0019683
0.000584068
-0.00174942
0.00380396
-0.00118569
-0.000649969
0.00644934
-0.00396895
0.00132357
0.0100458
-0.00772405
0.00412761
0.014719
-0.0124067
0.0077335
0.0205578
-0.0179531
0.0121143
0.0275924
-0.0242638
0.0172292
0.0357771
-0.0311941
0.0230094
0.0449826
-0.0385556
0.0293501
0.0550001
-0.0461263
0.0361087
0.0655589
-0.0536704
0.0431115
0.0763532
-0.0609607
0.0501664
0.0870748
-0.0678008
0.0570793
0.0974455
-0.0740421
0.0636714
0.107245
-0.0795941
0.0697944
0.11633
-0.0844269
0.0753426
0.124638
-0.0885651
0.0802562
0.132191
-0.0920818
0.0845288
0.139068
-0.0950617
0.0881856
0.145397
-0.0976558
0.0913261
0.151188
-0.0998289
0.0940376
-0.101982
0.0966662
0.156504
0.000219212
0.00063712
0.00100775
0.000499649
0.00251098
-0.00091916
0.00488076
-0.00355547
0.00826958
-0.00735778
0.012812
-0.0122665
0.0185985
-0.0181933
0.025648
-0.0250026
0.033886
-0.0325017
0.0431364
-0.0404446
0.0531314
-0.0485506
0.063538
-0.0565329
0.0739972
-0.0641296
0.0841672
-0.0711307
0.0937629
-0.0773966
0.102585
-0.0828647
0.110537
-0.0875455
0.117619
-0.0915095
0.123922
-0.094868
0.129595
-0.097754
0.13483
-0.100297
0.139815
-0.10264
0.144795
-0.104809
-0.107164
0.149977
0.000271601
0.000365519
0.00126491
-0.000493665
0.00316129
-0.00281553
0.00613257
-0.00652675
0.0103281
-0.0115533
0.0158454
-0.0177838
0.0226965
-0.0250444
0.030781
-0.0330871
0.0398778
-0.0415985
0.0496611
-0.0502279
0.0597398
-0.0586292
0.0697099
-0.066503
0.0792096
-0.0736292
0.0879637
-0.0798848
0.095811
-0.0852439
0.102711
-0.0897645
0.108729
-0.0935641
0.114013
-0.0967928
0.118752
-0.0996072
0.12315
-0.102152
0.127397
-0.104544
0.131641
-0.106885
0.136026
-0.109193
-0.111694
0.140556
0.000347583
1.79363e-05
0.00159636
-0.00174245
0.00395082
-0.00516999
0.00758414
-0.0101601
0.0126114
-0.0165805
0.0190495
-0.0242219
0.0267833
-0.0327782
0.0355553
-0.0418591
0.0449886
-0.0510317
0.0546392
-0.0598785
0.0640648
-0.0680549
0.0728907
-0.075329
0.0808582
-0.0815967
0.0878462
-0.0868728
0.093866
-0.0912636
0.0990334
-0.094932
0.10353
-0.0980605
0.10756
-0.100823
0.111321
-0.103368
0.114977
-0.105808
0.118654
-0.108221
0.122438
-0.110669
0.126399
-0.113155
-0.115841
0.130546
0.000449098
-0.000431161
0.002004
-0.00329735
0.00486985
-0.00803584
0.00919011
-0.0144803
0.0150027
-0.0223931
0.0221958
-0.031415
0.0304911
-0.0410735
0.03947
-0.0508381
0.0486401
-0.0602019
0.0575209
-0.0687593
0.0657228
-0.0762567
0.0729984
-0.0826045
0.079258
-0.0878563
0.0845516
-0.0921663
0.0890279
-0.09574
0.0928862
-0.0987902
0.0963319
-0.101506
0.0995469
-0.104038
0.102674
-0.106495
0.105816
-0.10895
0.109042
-0.111447
0.112391
-0.114018
0.115899
-0.116663
-0.119483
0.11954
0.000573076
-0.00100424
0.0024722
-0.00519647
0.0058723
-0.0114359
0.0108462
-0.0194542
0.0173075
-0.0288544
0.0249789
-0.0390864
0.0334146
-0.0495092
0.0420775
-0.059501
0.0504441
-0.0685684
0.0580994
-0.0764146
0.0647944
-0.0829517
0.0704559
-0.0882661
0.0751576
-0.0925581
0.0790678
-0.0960765
0.0823938
-0.099066
0.0853375
-0.101734
0.0880686
-0.104237
0.0907145
-0.106684
0.0933634
-0.109144
0.0960724
-0.111659
0.0988766
-0.114251
0.101796
-0.116937
0.104849
-0.119716
-0.122644
0.10801
0.000713079
-0.00171732
0.00297302
-0.00745641
0.00688718
-0.0153501
0.0124128
-0.0249798
0.0193002
-0.0357417
0.0270972
-0.0468834
0.0352285
-0.0576405
0.0431199
-0.0673924
0.0503142
-0.0757627
0.0565407
-0.0826411
0.0617241
-0.0881351
0.0659467
-0.0924887
0.0693861
-0.0959975
0.072254
-0.0989444
0.0747496
-0.101562
0.0770348
-0.104019
0.0792276
-0.10643
0.0814073
-0.108864
0.0836239
-0.111361
0.0859079
-0.113943
0.088277
-0.116621
0.0907403
-0.1194
0.0933064
-0.122282
-0.125289
0.0959518
0.000860788
-0.0025781
0.00347152
-0.0100671
0.00783154
-0.0197101
0.0137423
-0.0308906
0.0207733
-0.0427727
0.0283248
-0.0544349
0.0357654
-0.0650812
0.0425754
-0.0742024
0.0484369
-0.0816242
0.0532499
-0.0874541
0.0570895
-0.0919747
0.0601353
-0.0955344
0.0626018
-0.098464
0.0646888
-0.101031
0.0665561
-0.103429
0.0683173
-0.10578
0.0700473
-0.10816
0.071792
-0.110609
0.0735791
-0.113148
0.0754249
-0.115788
0.0773387
-0.118534
0.0793256
-0.121387
0.0813896
-0.124346
-0.127414
0.0835142
0.0010067
-0.0035848
0.00392963
-0.0129901
0.00862199
-0.0244025
0.0147039
-0.0369725
0.0215765
-0.0496453
0.0285532
-0.0614116
0.0350314
-0.0715594
0.0406164
-0.0797874
0.0451563
-0.0861641
0.0487005
-0.0909983
0.0514217
-0.0946959
0.0535367
-0.0976494
0.0552498
-0.100177
0.0567234
-0.102505
0.0580721
-0.104777
0.0593694
-0.107078
0.0606598
-0.109451
0.0619694
-0.111918
0.0633137
-0.114492
0.0647019
-0.117177
0.0661394
-0.119972
0.0676293
-0.122877
0.0691726
-0.125889
-0.129001
0.0707594
0.00114035
-0.00472515
0.00430954
-0.0161593
0.00918515
-0.0292781
0.0152027
-0.0429901
0.0216381
-0.0560807
0.0277937
-0.0675672
0.0331667
-0.0769324
0.0375195
-0.0841402
0.0408514
-0.089496
0.0433156
-0.0934625
0.0451283
-0.0965086
0.046501
-0.0990222
0.0476043
-0.10128
0.0485581
-0.103459
0.0494387
-0.105658
0.0502912
-0.10793
0.0511415
-0.110301
0.0520046
-0.112781
0.0528897
-0.115377
0.0538025
-0.118089
0.0547464
-0.120916
0.0557233
-0.123854
0.056733
-0.126899
-0.130039
0.0577713
0.00125159
-0.00597675
0.00457863
-0.0194863
0.00946767
-0.0341671
0.0151918
-0.0487142
0.0209646
-0.0618535
0.0261491
-0.0727517
0.0303834
-0.0811666
0.0335828
-0.0873396
0.0358606
-0.0917738
0.0374247
-0.0950266
0.0384947
-0.0975787
0.0392536
-0.0997811
0.039832
-0.101859
0.0403128
-0.10394
0.0407443
-0.10609
0.0411535
-0.108339
0.0415555
-0.110703
0.0419596
-0.113186
0.0423717
-0.115789
0.0427957
-0.118513
0.0432337
-0.121354
0.0436863
-0.124306
0.044152
-0.127365
-0.130517
0.0446302
0.00133439
-0.00731113
0.00471619
-0.0228681
0.00944366
-0.0388946
0.0146732
-0.0539437
0.019626
-0.0668064
0.0237776
-0.0769033
0.0269161
-0.0843051
0.0290824
-0.089506
0.0304598
-0.0931512
0.0312719
-0.0958387
0.0317172
-0.098024
0.0319422
-0.100006
0.0320411
-0.101958
0.0320686
-0.103967
0.0320546
-0.106076
0.0320149
-0.1083
0.0319588
-0.110647
0.0318925
-0.113119
0.0318202
-0.115717
0.031745
-0.118438
0.0316686
-0.121277
0.0315912
-0.124229
0.0315104
-0.127284
0.0314279
-0.130435
-0.000293269
-0.000745988
0.00103926
-0.00101237
-0.00243244
0.00315155
-0.00206922
-0.00419777
0.00525461
-0.00340183
-0.00591948
0.0072521
-0.00496061
-0.00753572
0.0090945
-0.0067023
-0.00904367
0.0107854
-0.0085876
-0.010481
0.0123663
-0.0105805
-0.0119035
0.0138964
-0.0126484
-0.0133663
0.0154341
-0.0147612
-0.0149111
0.0170239
-0.0168904
-0.0165606
0.0186899
-0.019007
-0.0183184
0.020435
-0.0210793
-0.0201703
0.0222425
-0.0230707
-0.0220873
0.0240787
-0.0249384
-0.0240261
0.0258938
-0.0266323
-0.0259295
0.0276233
-0.0280944
-0.0277255
0.0291876
-0.0292598
-0.0293265
0.030492
-0.0300592
-0.0306295
0.0314289
-0.030421
-0.0315182
0.03188
-0.0302747
-0.0318696
0.0317233
-0.0295584
-0.0315545
0.0308382
-0.0282413
-0.030427
0.0291099
-0.0283719
-0.0263531
0.0264836
-0.000360085
-0.000385903
-0.00123205
-0.00156048
-0.0024979
-0.00293192
-0.00407457
-0.0043428
-0.00589879
-0.0057115
-0.00792071
-0.00702176
-0.0101005
-0.00830119
-0.0124061
-0.00959784
-0.0148117
-0.0109608
-0.017295
-0.0124277
-0.0198359
-0.0140197
-0.0224133
-0.015741
-0.025003
-0.0175805
-0.0275765
-0.0195137
-0.030099
-0.0215036
-0.0325284
-0.0235001
-0.0348149
-0.0254389
-0.0369013
-0.0272401
-0.0387243
-0.0288065
-0.0402181
-0.0300245
-0.0413193
-0.0307684
-0.0419702
-0.0309035
-0.0421256
-0.0302716
-0.0287146
-0.0417828
-0.000395349
9.44587e-06
-0.00134905
-0.000606777
-0.00272436
-0.0015566
-0.004423
-0.00264416
-0.00637082
-0.00376368
-0.00851191
-0.00488067
-0.0108046
-0.00600846
-0.0132183
-0.00718422
-0.0157296
-0.00844937
-0.0183202
-0.00983713
-0.0209729
-0.011367
-0.0236698
-0.0130441
-0.0263903
-0.0148601
-0.0291094
-0.0167947
-0.0317969
-0.018816
-0.0344166
-0.0208804
-0.0369248
-0.0229307
-0.0392701
-0.0248949
-0.041393
-0.0266836
-0.04323
-0.0281875
-0.0447211
-0.0292772
-0.0458121
-0.0298126
-0.0464415
-0.0296421
-0.0285606
-0.0465955
-0.000393756
0.000403202
-0.00134807
0.000347535
-0.00272195
-0.000182719
-0.00440918
-0.000956941
-0.00632788
-0.00184497
-0.0084161
-0.00279245
-0.0106281
-0.00379647
-0.0129305
-0.00488184
-0.0152981
-0.00608172
-0.0177104
-0.00742483
-0.020148
-0.00892942
-0.0225906
-0.0106015
-0.0250154
-0.0124353
-0.0273964
-0.0144137
-0.0297038
-0.0165086
-0.0319034
-0.0186807
-0.0339556
-0.0208786
-0.0358128
-0.0230377
-0.0374176
-0.0250788
-0.038702
-0.0269032
-0.0395939
-0.0283853
-0.040029
-0.0293775
-0.0399288
-0.0297423
-0.0292313
-0.0392581
-0.000355788
0.000758989
-0.00123028
0.00122203
-0.00249234
0.00107935
-0.00403539
0.000586107
-0.00577308
-0.000107287
-0.00763667
-0.000928863
-0.00957361
-0.00185952
-0.0115433
-0.00291215
-0.0135132
-0.00411185
-0.0154547
-0.00548328
-0.0173404
-0.00704374
-0.0191416
-0.00880031
-0.0208279
-0.010749
-0.0223669
-0.0128747
-0.023725
-0.0151505
-0.0248674
-0.0175384
-0.0257577
-0.0199882
-0.026357
-0.0224385
-0.026619
-0.0248167
-0.0264842
-0.027038
-0.0258733
-0.0289961
-0.0247061
-0.0305447
-0.022933
-0.0315154
-0.0319512
-0.0202131
-0.000287474
0.00104646
-0.00101198
0.00194653
-0.002064
0.00213136
-0.00334328
0.00186539
-0.00476039
0.00130982
-0.00623914
0.000549892
-0.00771811
-0.00038056
-0.00914467
-0.00148558
-0.0104734
-0.00278307
-0.0116624
-0.00429434
-0.0126701
-0.00603607
-0.0134542
-0.00801618
-0.0139715
-0.0102317
-0.0141787
-0.0126675
-0.0140337
-0.0152955
-0.0134979
-0.0180742
-0.0125367
-0.0209494
-0.01112
-0.0238552
-0.00922158
-0.0267151
-0.00681411
-0.0294455
-0.00385198
-0.0319582
-0.000234461
-0.0341622
0.00414799
-0.0358979
-0.0367895
0.00898629
-0.000199286
0.00124575
-0.000723228
0.00247048
-0.00148955
0.00289768
-0.00240754
0.00278337
-0.00338729
0.00228957
-0.00434641
0.00150902
-0.00520836
0.000481394
-0.00590774
-0.000786209
-0.00638179
-0.00230902
-0.00657099
-0.00410515
-0.00641657
-0.00619049
-0.00586023
-0.00857252
-0.00484449
-0.0112474
-0.00331507
-0.0141969
-0.00122315
-0.0173874
0.00147229
-0.0207696
0.00480224
-0.0242794
0.00878653
-0.0278395
0.0134359
-0.0313645
0.0187545
-0.034764
0.0247447
-0.0379485
0.0314313
-0.0408488
0.0387613
-0.0432279
-0.0454977
0.0474695
-0.000104158
0.00134991
-0.000401592
0.00276791
-0.000836101
0.00333219
-0.00132726
0.00327453
-0.00178524
0.00274755
-0.00211921
0.00184299
-0.0022419
0.000604086
-0.00206868
-0.000959429
-0.00151962
-0.00285808
-0.000517053
-0.00510771
0.00101414
-0.00772169
0.00314571
-0.0107041
0.00594246
-0.0140442
0.00946003
-0.0177145
0.0137412
-0.0216685
0.0188129
-0.0258413
0.024685
-0.0301515
0.031351
-0.0345055
0.0387897
-0.0388032
0.046971
-0.0429453
0.0558536
-0.0468311
0.0654287
-0.0504239
0.0756277
-0.0534269
-0.0567759
0.0869059
-1.48386e-05
0.00136475
-8.49436e-05
0.00283802
-0.000172619
0.00341987
-0.000204803
0.00330672
-9.07772e-05
0.00263352
0.000268019
0.00148419
0.000972818
-0.000100713
0.0021235
-0.00211011
0.00381671
-0.00455129
0.00614483
-0.00743584
0.00919286
-0.0107697
0.0130342
-0.0145455
0.0177266
-0.0187366
0.0233066
-0.0232945
0.0297861
-0.028148
0.0371502
-0.0332055
0.0453584
-0.0383597
0.0543479
-0.043495
0.06404
-0.0484953
0.0743477
-0.0532531
0.085188
-0.0576714
0.0964903
-0.0617262
0.108184
-0.0651201
-0.0689607
0.120368
5.92172e-05
0.00130553
0.000197139
0.00270009
0.000445984
0.00317102
0.00087744
0.00287526
0.00158609
0.00192487
0.00267949
0.000390795
0.00427064
-0.00169186
0.00647329
-0.00431276
0.00939584
-0.00747384
0.0131359
-0.0111759
0.0177736
-0.0154074
0.0233644
-0.0201362
0.029932
-0.0253042
0.0374635
-0.030826
0.0459073
-0.0365918
0.0551755
-0.0424736
0.0651497
-0.0483339
0.0756915
-0.0540368
0.0866543
-0.0594581
0.0978947
-0.0644934
0.109291
-0.0690679
0.120721
-0.0731556
0.132192
-0.0765916
-0.0802259
0.143457
0.000113994
0.00119153
0.000431523
0.00238256
0.000994066
0.00260848
0.00188036
0.00198897
0.00319334
0.000611893
0.00505112
-0.00146699
0.0075777
-0.00421844
0.0108943
-0.00762936
0.0151092
-0.0116887
0.0203069
-0.0163736
0.026537
-0.0216375
0.0338046
-0.0274038
0.0420641
-0.0335637
0.051218
-0.0399799
0.061122
-0.0464958
0.0715955
-0.0529472
0.0824376
-0.059176
0.0934444
-0.0650436
0.104427
-0.0704407
0.11523
-0.0752964
0.125741
-0.0795789
0.135879
-0.0832935
0.145707
-0.0864197
-0.0892723
0.154753
0.000152943
0.000626634
0.00148569
0.00282469
0.00476016
0.00742078
0.0109358
0.0154208
0.0209612
0.0275971
0.0353097
0.0440145
0.0535624
0.0637489
0.0743324
0.0850566
0.095675
0.105974
0.115789
0.125022
0.133629
0.141661
0.149279
0.156673
-0.0212874
-0.0352699
0.0302042
-0.0153112
-0.0268301
0.0208539
-0.00843215
-0.0154888
0.00860977
-0.000897481
-0.00132546
-0.0062092
0.00740244
0.0152764
-0.0235764
0.0161128
0.0340534
-0.0427638
0.0247898
0.05433
-0.063007
0.0331891
0.0745306
-0.0829298
0.04096
0.0933415
-0.101112
0.0474458
0.10989
-0.116376
0.0519904
0.12371
-0.128254
0.0542893
0.134862
-0.13716
0.0549051
0.143393
-0.144009
0.0555521
0.148171
-0.148818
0.0585574
0.146163
-0.149169
0.0655383
0.133372
-0.140353
0.0763649
0.107176
-0.118003
0.089572
0.0677264
-0.0809335
0.10352
0.0178454
-0.0317933
0.116996
-0.037147
0.023671
0.128889
-0.0895405
0.0776479
0.138116
-0.130852
0.121625
0.143977
-0.157027
0.151166
0.146579
-0.169835
0.167233
0.146791
-0.173749
0.173537
0.145162
-0.172852
0.174481
0.141055
-0.172541
0.176647
0.133981
-0.178071
0.185146
0.125699
-0.186534
0.194816
0.120016
-0.181412
0.187095
0.119909
-0.144261
0.144369
0.125462
-0.0730655
0.0675118
0.134294
0.0144562
-0.0232882
0.143522
0.0943822
-0.10361
0.151194
0.152589
-0.160261
0.156396
0.184494
-0.189697
0.15799
0.202888
-0.204482
0.154855
0.219712
-0.216578
0.147802
0.241433
-0.234379
0.140179
0.243834
-0.236211
0.135956
0.203811
-0.199588
0.136791
0.115123
-0.115958
0.141797
-0.00126668
-0.00374002
0.148637
-0.100215
0.0933754
0.153804
-0.176886
0.171719
0.153875
-0.209831
0.209759
0.148396
-0.247646
0.253126
0.140947
-0.253799
0.261247
0.136966
-0.232106
0.236087
0.138986
-0.153722
0.151702
0.144576
-0.0209487
0.0153585
0.148441
0.0682753
-0.07214
0.147516
0.209265
-0.20834
0.14414
0.248415
-0.245039
0.142312
0.303829
-0.302001
0.142811
0.254342
-0.254841
0.143831
0.0908305
-0.0918507
0.143638
0.0300596
-0.0298671
0.141709
-0.252264
0.254194
-0.243438
0.245276
-0.0380508
-0.0390019
-0.0329853
-0.0318956
-0.0266594
-0.0218147
-0.0190781
-0.00890671
-0.0105098
0.00670818
-0.00126521
0.0248088
0.00905702
0.0440077
0.018959
0.0646286
0.0283244
0.0839761
0.0365661
0.101648
0.0432919
0.116984
0.0485818
0.129572
0.053303
0.138672
0.0589966
0.142477
0.0671494
0.13801
0.0782034
0.122318
0.091215
0.0941647
0.104621
0.0543203
0.11734
0.00512625
0.128632
-0.0484389
0.137792
-0.0987007
0.144111
-0.137171
0.147298
-0.160214
0.147658
-0.170196
0.146086
-0.172176
0.143241
-0.170007
0.138465
-0.167765
0.130808
-0.170414
0.121564
-0.177291
0.114735
-0.174583
0.11402
-0.143546
0.119868
-0.0789137
0.129845
0.0044797
0.140665
0.0835621
0.150106
0.143148
0.156901
0.177699
0.159703
0.200087
0.15754
0.221875
0.15143
0.247542
0.14454
0.250725
0.140445
0.207905
0.140538
0.11503
0.144204
-0.00493226
0.149574
-0.105585
0.153738
-0.181049
0.153328
-0.209421
0.14758
-0.241898
0.140024
-0.246243
0.136079
-0.228161
0.138432
-0.156075
0.144211
-0.026728
0.148248
0.0642389
0.147503
0.21001
0.144214
0.251704
0.142517
0.305527
0.143158
0.253701
0.14451
0.0894793
0.144486
0.0300831
0.142531
-0.250309
-0.241599
-0.0447517
-0.0408457
-0.0413947
-0.0352526
-0.0365263
-0.0266831
-0.0300592
-0.0153739
-0.021877
-0.00147396
-0.0126076
0.0155394
-0.00264035
0.0340405
0.00835457
0.0536337
0.0192491
0.0730815
0.0296403
0.0912571
0.0392187
0.107405
0.0481778
0.120613
0.0572848
0.129565
0.0675728
0.132189
0.0796836
0.1259
0.0932799
0.108722
0.10709
0.0803549
0.119755
0.0416548
0.130639
-0.00575705
0.13954
-0.0573403
0.145905
-0.105065
0.149352
-0.140619
0.14999
-0.160852
0.148339
-0.168544
0.145232
-0.16907
0.14137
-0.166145
0.136198
-0.162592
0.128373
-0.162589
0.118509
-0.167427
0.110529
-0.166603
0.108869
-0.141887
0.114618
-0.0846626
0.125409
-0.00631109
0.137632
0.071339
0.148773
0.132007
0.157169
0.169303
0.161302
0.195954
0.160339
0.222838
0.155369
0.252513
0.149257
0.256836
0.14521
0.211952
0.144474
0.115767
0.146712
-0.00717081
0.150535
-0.109407
0.153662
-0.184177
0.152848
-0.208608
0.146939
-0.235989
0.139323
-0.238626
0.13537
-0.224208
0.137977
-0.158683
0.143913
-0.0326636
0.148162
0.0599899
0.147618
0.210553
0.144383
0.254939
0.142796
0.307113
0.143618
0.252879
0.145337
0.0877602
0.145504
0.0299165
0.143514
-0.24832
-0.239756
-0.0394102
-0.0406936
-0.0381579
-0.0365049
-0.035284
-0.029557
-0.0306146
-0.0200432
-0.0241591
-0.0079294
-0.01577
0.00715026
-0.00605492
0.0243254
0.00467623
0.0429025
0.0166688
0.061089
0.0289423
0.0789835
0.0411824
0.0951654
0.0534769
0.108318
0.066238
0.116804
0.0799
0.118527
0.0944517
0.111348
0.109112
0.0940611
0.122605
0.0668619
0.133945
0.0303149
0.142879
-0.0146904
0.14939
-0.0638516
0.153081
-0.108757
0.153808
-0.141346
0.152059
-0.159102
0.148614
-0.165099
0.14421
-0.164666
0.139482
-0.161417
0.134077
-0.157188
0.126478
-0.154989
0.116481
-0.15743
0.107505
-0.157626
0.104579
-0.138962
0.109754
-0.0898373
0.120932
-0.017489
0.13437
0.0579007
0.14711
0.119268
0.157103
0.159309
0.162695
0.190362
0.163144
0.222389
0.159483
0.256174
0.154182
0.262137
0.15011
0.216023
0.148485
0.117391
0.149265
-0.00795088
0.1515
-0.111642
0.153558
-0.186235
0.152394
-0.207444
0.146417
-0.230011
0.138777
-0.230987
0.134773
-0.220204
0.137557
-0.161466
0.143648
-0.0387552
0.148166
0.0554722
0.147859
0.21086
0.144658
0.258141
0.143165
0.308606
0.144194
0.25185
0.14631
0.0856447
0.146686
0.0295398
0.144652
-0.246285
-0.237909
-0.0223109
-0.0385959
-0.0232193
-0.0355964
-0.0225326
-0.0302437
-0.0200188
-0.0225571
-0.0157285
-0.0122197
-0.00902521
0.00044696
-0.00095032
0.0162505
0.0101305
0.0318218
0.022272
0.0489474
0.0354393
0.0658163
0.0492978
0.0813069
0.0637191
0.0938967
0.0787095
0.101814
0.0941827
0.103054
0.109683
0.0958478
0.124257
0.0794873
0.136784
0.0543346
0.146633
0.0204657
0.153725
-0.0217823
0.15799
-0.0681163
0.15913
-0.109897
0.157293
-0.139508
0.153364
-0.155174
0.148368
-0.160104
0.142939
-0.159236
0.137533
-0.156011
0.132003
-0.151658
0.124905
-0.147891
0.115288
-0.147813
0.105671
-0.14801
0.101303
-0.134593
0.105395
-0.0939297
0.116476
-0.0285696
0.130839
0.0435377
0.145013
0.105094
0.156572
0.14775
0.163737
0.183196
0.165795
0.220332
0.163599
0.25837
0.159136
0.2666
0.154992
0.220167
0.152456
0.119927
0.151798
-0.00729301
0.152439
-0.112283
0.153399
-0.187195
0.151927
-0.205972
0.145962
-0.224046
0.13833
-0.223355
0.134223
-0.216096
0.137111
-0.164355
0.143376
-0.0450197
0.148234
0.0506138
0.148218
0.210876
0.14505
0.261309
0.143636
0.310021
0.144888
0.250598
0.147423
0.0831098
0.148029
0.028934
0.145936
-0.244193
-0.236053
0.00495779
-0.0345674
0.00136282
-0.0320015
-0.000433879
-0.028447
-0.000262245
-0.0227287
0.00246801
-0.0149499
0.00761228
-0.00469731
0.01521
0.00865277
0.0242775
0.0227542
0.0354366
0.0377883
0.048245
0.0530079
0.0623404
0.0672115
0.0773887
0.0788485
0.0930445
0.0861578
0.10883
0.0872683
0.124024
0.0806546
0.137664
0.0658469
0.148887
0.0431117
0.157299
0.0120538
0.162801
-0.0272843
0.165038
-0.070353
0.163805
-0.108664
0.159651
-0.135355
0.153826
-0.149348
0.147536
-0.153814
0.141336
-0.153036
0.135442
-0.150117
0.129842
-0.146059
0.123392
-0.14144
0.114617
-0.139038
0.104889
-0.138281
0.0991379
-0.128843
0.10169
-0.0964816
0.112139
-0.0390187
0.127008
0.0286687
0.14237
0.0897319
0.155418
0.134702
0.164246
0.174368
0.168086
0.216492
0.1675
0.258955
0.163933
0.270167
0.159706
0.224395
0.156258
0.123376
0.154234
-0.00526932
0.153307
-0.111355
0.153147
-0.187035
0.151398
-0.204223
0.145521
-0.218168
0.137923
-0.215758
0.133656
-0.211829
0.136579
-0.167278
0.143046
-0.0514866
0.148332
0.0453282
0.148683
0.210525
0.145568
0.264423
0.144219
0.31137
0.145702
0.249115
0.148667
0.0801439
0.149521
0.0280803
0.147358
-0.24203
-0.234188
0.0418536
-0.0289516
0.0370298
-0.0271776
0.0332029
-0.0246202
0.0310363
-0.0205621
0.0307569
-0.0146705
0.0327565
-0.00669683
0.0374986
0.00391065
0.0443919
0.015861
0.0536912
0.0284889
0.0650939
0.0416053
0.0782234
0.054082
0.0926033
0.0644686
0.107644
0.0711173
0.12262
0.0722924
0.13668
0.0665938
0.148945
0.0535821
0.158794
0.0332628
0.165888
0.00496024
0.169951
-0.0313479
0.170311
-0.0707132
0.166921
-0.105274
0.160756
-0.129189
0.153367
-0.14196
0.146057
-0.146504
0.13932
-0.146299
0.133137
-0.143934
0.1275
-0.140422
0.121695
-0.135635
0.114085
-0.131428
0.104855
-0.129052
0.0980715
-0.122059
0.0987985
-0.0972085
0.108048
-0.0482685
0.122888
0.0138287
0.139092
0.0735287
0.153493
0.120301
0.164026
0.163835
0.169797
0.210721
0.170969
0.257783
0.168385
0.272751
0.164097
0.228682
0.159768
0.127705
0.156485
-0.00198653
0.154056
-0.108927
0.152764
-0.185743
0.150759
-0.202219
0.145041
-0.21245
0.137508
-0.208224
0.133021
-0.207342
0.135901
-0.170158
0.142603
-0.0581889
0.148413
0.0395178
0.149233
0.209705
0.146215
0.267441
0.144922
0.312663
0.14663
0.247407
0.150039
0.0767354
0.151153
0.0269665
0.148905
-0.239782
-0.23231
0.0806176
-0.0226633
0.0749014
-0.0214614
0.0698144
-0.0195331
0.0657407
-0.0164884
0.0631245
-0.0120544
0.0624106
-0.00598288
0.064137
0.00218417
0.0682355
0.0117626
0.0749179
0.0218065
0.0840254
0.0324978
0.0952081
0.0428993
0.10792
0.0517566
0.121439
0.0575987
0.134904
0.0588271
0.147411
0.0540867
0.158163
0.04283
0.166616
0.0248104
0.172628
-0.00105186
0.175175
-0.0338956
0.173695
-0.069233
0.168352
-0.0999303
0.160521
-0.121359
0.151946
-0.133385
0.143901
-0.138458
0.136825
-0.139224
0.130534
-0.137642
0.124912
-0.1348
0.119641
-0.130364
0.113303
-0.125091
0.105135
-0.120883
0.0979052
-0.114829
0.0968152
-0.0961185
0.104323
-0.0557764
0.11853
-0.000378163
0.135131
0.0569273
0.150679
0.104753
0.162899
0.151614
0.170685
0.202935
0.173738
0.254731
0.172267
0.274222
0.167999
0.23295
0.162866
0.132838
0.158458
0.00242189
0.154631
-0.1051
0.152208
-0.183319
0.149955
-0.199966
0.144473
-0.206968
0.137041
-0.200793
0.132274
-0.202576
0.135023
-0.172907
0.141991
-0.065157
0.148428
0.0330812
0.149843
0.20829
0.14699
0.270294
0.145751
0.313902
0.147673
0.245486
0.151527
0.0728812
0.152909
0.0255841
0.150562
-0.237434
-0.230423
0.114306
-0.0166012
0.108682
-0.015837
0.10352
-0.0143715
0.098983
-0.0119511
0.0954143
-0.00848577
0.0932656
-0.00383415
0.0927497
0.00270002
0.0942737
0.0102386
0.0981472
0.017933
0.104433
0.0262122
0.112934
0.0343977
0.123189
0.0415021
0.134489
0.0462987
0.145947
0.0473693
0.156641
0.0433924
0.165799
0.0336717
0.172877
0.017733
0.177427
-0.00560233
0.178358
-0.0348262
0.175027
-0.0659024
0.167968
-0.0928715
0.158858
-0.112249
0.149487
-0.124014
0.14099
-0.129961
0.133739
-0.131972
0.127486
-0.131389
0.121962
-0.129276
0.117095
-0.125497
0.111938
-0.119934
0.105206
-0.11415
0.0982235
-0.107847
0.0956441
-0.0935392
0.101115
-0.0612475
0.114025
-0.0132884
0.130509
0.040444
0.146897
0.0883648
0.160703
0.137809
0.170574
0.193065
0.17567
0.249634
0.17543
0.274462
0.17126
0.237121
0.165467
0.138631
0.160044
0.00784461
0.154967
-0.100023
0.151423
-0.179775
0.148918
-0.19746
0.143756
-0.201807
0.136489
-0.193526
0.131386
-0.197472
0.133904
-0.175425
0.141154
-0.0724069
0.148317
0.025918
0.150479
0.206128
0.147886
0.272887
0.146705
0.315083
0.148825
0.243366
0.153125
0.0685816
0.154773
0.0239356
0.152317
-0.234978
-0.22853
0.13824
-0.0113838
0.133418
-0.0110149
0.128965
-0.00991866
0.125055
-0.00804138
0.12188
-0.00531088
0.11969
-0.00164419
0.118528
0.00386216
0.118942
0.00982524
0.121004
0.0158705
0.124984
0.0222324
0.130874
0.0285076
0.138414
0.0339618
0.147094
0.0376194
0.156154
0.0383091
0.164717
0.0348293
0.172034
0.0263543
0.177499
0.0122684
0.180274
-0.00837698
0.179305
-0.0338575
0.174148
-0.0607451
0.16568
-0.0844038
0.155705
-0.102274
0.145903
-0.114212
0.13721
-0.121269
0.129915
-0.124677
0.123802
-0.125277
0.118487
-0.123961
0.113943
-0.120954
0.109751
-0.115742
0.104587
-0.108987
0.0984948
-0.101755
0.0950263
-0.0900707
0.0984411
-0.0646622
0.109526
-0.0243732
0.125303
0.024667
0.142137
0.0715303
0.15733
0.122616
0.169212
0.181182
0.176403
0.242443
0.17758
0.273285
0.173705
0.240996
0.167434
0.144901
0.161201
0.0140785
0.155023
-0.0938456
0.150382
-0.175134
0.147596
-0.194675
0.142844
-0.197054
0.135833
-0.186515
0.130354
-0.191993
0.132517
-0.177588
0.140037
-0.0799271
0.148018
0.0179372
0.151099
0.203046
0.148884
0.275102
0.147782
0.316186
0.15008
0.241067
0.154809
0.0638526
0.156735
0.0220097
0.154156
-0.2324
-0.226641
0.150618
-0.00724808
0.146757
-0.00715402
0.143208
-0.00636972
0.140264
-0.00509722
0.138087
-0.00313437
0.136961
-0.000518154
0.136603
0.00422017
0.137218
0.00921048
0.138793
0.0142949
0.141754
0.0192722
0.1461
0.0241611
0.151691
0.0283708
0.158149
0.0311613
0.164927
0.0315318
0.171317
0.0284387
0.176591
0.0210804
0.179884
0.00897512
0.180799
-0.00929181
0.177942
-0.0310001
0.171265
-0.0540687
0.161882
-0.0750204
0.151533
-0.0919248
0.141664
-0.104343
0.133005
-0.11261
0.125759
-0.117431
0.119803
-0.11932
0.114739
-0.118897
0.110445
-0.11666
0.106903
-0.112199
0.103151
-0.105235
0.0983566
-0.09696
0.0946603
-0.0863744
0.0962307
-0.0662327
0.105188
-0.0333303
0.119634
0.0102204
0.136411
0.0547534
0.152765
0.106262
0.166719
0.167229
0.17619
0.232972
0.178849
0.270626
0.175297
0.244548
0.168858
0.15134
0.161901
0.0210358
0.154873
-0.0868177
0.14919
-0.169451
0.146051
-0.191536
0.141756
-0.192759
0.135087
-0.179845
0.129224
-0.186131
0.130895
-0.179259
0.138614
-0.0876455
0.147455
0.0090961
0.151658
0.198843
0.149962
0.276798
0.148969
0.317179
0.151431
0.238605
0.156572
0.0587119
0.158767
0.0198142
0.156068
-0.2297
-0.224769
0.15398
-0.00455546
0.151066
-0.00423937
0.148423
-0.00372736
0.146257
-0.0029305
0.144721
-0.00159899
0.143596
0.000606655
0.143876
0.00394068
0.145236
0.00785086
0.147548
0.0119824
0.150626
0.0161939
0.154517
0.0202702
0.159155
0.0237335
0.164312
0.0260044
0.169534
0.0263095
0.174222
0.0237505
0.177751
0.0175513
0.179685
0.00704156
0.178441
-0.00804806
0.173984
-0.0265434
0.166387
-0.046472
0.156853
-0.0654861
0.146814
-0.0818857
0.137363
-0.0948917
0.129035
-0.104282
0.121973
-0.110368
0.116155
-0.113503
0.111302
-0.114044
0.107176
-0.112534
0.103943
-0.108966
0.101212
-0.102504
0.097798
-0.0935457
0.0944394
-0.0830158
0.0946216
-0.0664148
0.101269
-0.0399773
0.113881
-0.00239192
0.129909
0.0387256
0.146652
0.0895185
0.16215
0.151731
0.173956
0.221166
0.178532
0.26605
0.175803
0.247277
0.16937
0.157773
0.162262
0.0281436
0.154446
-0.079001
0.147905
-0.16291
0.144374
-0.188005
0.140537
-0.188923
0.134265
-0.173573
0.128047
-0.179913
0.129147
-0.180359
0.136977
-0.0954756
0.146622
-0.000548457
0.152085
0.19338
0.151074
0.277809
0.150257
0.317995
0.152873
0.235989
0.158399
0.0531863
0.160854
0.017359
0.158052
-0.226899
-0.222896
0.183237
-0.00136677
-0.186426
0.180497
-0.00149954
0.177877
-0.00110748
0.175226
-0.00027878
0.172766
0.000860358
0.170629
0.002744
0.169147
0.0054226
0.168367
0.00863078
0.168276
0.0120741
0.168955
0.015515
0.170565
0.0186593
0.173213
0.0210856
0.176954
0.0222637
0.181725
0.0215384
0.187268
0.0182072
0.1931
0.0117194
0.198359
0.00178278
0.202219
-0.0119083
0.203689
-0.0280127
0.202342
-0.0451252
0.198452
-0.0615959
0.192659
-0.0760926
0.185663
-0.087896
0.178058
-0.0966777
0.17026
-0.10257
0.162597
-0.105839
0.155202
-0.106649
0.147958
-0.10529
0.140997
-0.102006
0.134452
-0.0959589
0.127413
-0.0865069
0.119334
-0.0749369
0.112298
-0.059379
0.109753
-0.0374325
0.113229
-0.00586776
0.120129
0.0318256
0.127743
0.0819049
0.134389
0.145085
0.140177
0.215378
0.145844
0.260383
0.153092
0.240028
0.161651
0.149214
0.167627
0.0221674
0.168678
-0.0800521
0.165143
-0.159374
0.160166
-0.183028
0.153727
-0.182485
0.145281
-0.165127
0.136845
-0.171477
0.132829
-0.176343
0.133898
-0.0965446
0.136209
-0.00285869
0.136694
0.192895
0.134888
0.279615
0.13572
0.317163
0.141552
0.230157
0.148087
0.0466517
0.150812
0.0146334
0.146937
-0.223024
-0.218791
0.194146
0.00088282
-0.196395
0.192049
0.000597013
0.190096
0.000846129
0.188302
0.00151435
0.186614
0.00254888
0.185267
0.00409098
0.184483
0.00620652
0.184363
0.00875055
0.184954
0.0114834
0.186314
0.0141551
0.188493
0.0164797
0.191505
0.0180738
0.195305
0.018464
0.199731
0.0171125
0.204446
0.0134918
0.208982
0.0071837
0.212785
-0.00201992
0.214945
-0.0140685
0.214974
-0.028042
0.212664
-0.042815
0.208239
-0.0571715
0.20218
-0.0700336
0.195057
-0.0807728
0.187415
-0.0890351
0.179634
-0.0947896
0.171978
-0.0981832
0.164613
-0.0992834
0.157434
-0.0981112
0.150416
-0.0949876
0.14388
-0.0894232
0.137375
-0.0800018
0.129989
-0.0675512
0.122775
-0.0521648
0.119031
-0.0336884
0.120967
-0.00780383
0.127317
0.0254751
0.135157
0.0740651
0.142712
0.13753
0.149771
0.208318
0.156952
0.253203
0.165597
0.231383
0.174876
0.139935
0.181302
0.0157411
0.181778
-0.0805274
0.177202
-0.154799
0.171173
-0.176998
0.164163
-0.175475
0.155357
-0.15632
0.146258
-0.162378
0.1416
-0.171685
0.142354
-0.0972993
0.145039
-0.00554355
0.146177
0.191757
0.144788
0.281004
0.146007
0.315945
0.152272
0.223892
0.159278
0.039645
0.162059
0.0118523
0.157462