/*--------------------------------*- C++ -*----------------------------------*\
| =========                 |                                                 |
| \\      /  F ield         | OpenFOAM: The Open Source CFD Toolbox           |
|  \\    /   O peration     | Version:  2512                                  |
|   \\  /    A nd           | Website:  www.openfoam.com                      |
|    \\/     M anipulation  |                                                 |
\*---------------------------------------------------------------------------*/
FoamFile
{
    version     2.0;
    format      ascii;
    arch        "LSB;label=32;scalar=64";
    class       volVectorField;
    location    "199";
    object      U;
}
// * * * * * * * * * * * * * * * * * * * * * * * * * * * * * * * * * * * * * //

dimensions      [0 1 -1 0 0 0 0];

internalField   nonuniform List<vector> 
13248
(
(-0.0116366 0.011893 9.24898e-20)
(-0.0163733 0.0228721 0)
(-0.00333485 0.026189 -1.75448e-19)
(0.0253496 0.0236971 1.65269e-19)
(0.0683241 0.0172466 1.5547e-19)
(0.12464 0.0084745 0)
(0.193362 -0.00133937 0)
(0.273295 -0.0112206 3.80666e-19)
(0.362736 -0.0204363 -1.79126e-21)
(0.459333 -0.0284568 -3.32492e-19)
(0.560085 -0.0349348 3.05438e-19)
(0.661511 -0.0396928 -1.90983e-19)
(0.759944 -0.0427066 0)
(0.851883 -0.0440813 -3.10472e-19)
(0.934341 -0.0440168 5.71376e-19)
(1.00511 -0.042767 -1.36149e-19)
(1.06292 -0.0405979 -2.22554e-19)
(1.10748 -0.0377606 2.08943e-19)
(1.13936 -0.0344313 0)
(1.15984 -0.0308616 0)
(1.1708 -0.02679 0)
(1.17364 -0.0235012 0)
(1.17192 -0.0178897 5.02269e-20)
(1.16294 -0.0189348 1.6351e-19)
(-0.00967859 0.00895558 -2.79144e-19)
(-0.00797462 0.0152075 1.90265e-19)
(0.0144594 0.0155963 -1.29513e-21)
(0.0554042 0.0117683 -2.51902e-19)
(0.113301 0.00541676 -1.55301e-19)
(0.186754 -0.00192011 -1.46864e-19)
(0.274034 -0.0090562 -2.71935e-19)
(0.372764 -0.0151402 2.56179e-19)
(0.479755 -0.0196266 0)
(0.59103 -0.022261 1.80867e-21)
(0.702086 -0.023056 3.11197e-21)
(0.808333 -0.022244 1.88715e-19)
(0.905583 -0.0202073 0)
(0.990504 -0.0173958 0)
(1.06092 -0.0142458 2.0343e-19)
(1.11594 -0.011115 -3.81932e-19)
(1.15589 -0.00824163 2.15745e-19)
(1.18212 -0.0057336 -2.02563e-19)
(1.19667 -0.00357635 -8.53173e-20)
(1.20198 -0.00168685 -1.46648e-19)
(1.20048 0.000186074 -5.57603e-20)
(1.19445 0.00180669 -1.02052e-19)
(1.18584 0.00493812 1.58313e-19)
(1.1746 0.00392657 4.32011e-20)
(-0.00674963 0.00598116 0)
(0.0040224 0.00734498 0)
(0.0388829 0.00492639 8.91428e-20)
(0.0952529 0.000228988 8.25868e-20)
(0.17105 -0.00518141 -1.4499e-21)
(0.263965 -0.00989358 -1.4997e-19)
(0.370865 -0.0129308 0)
(0.487566 -0.0137649 -1.27474e-19)
(0.608917 -0.012293 1.18445e-19)
(0.729199 -0.00879229 -5.1738e-22)
(0.842754 -0.00382831 -2.00909e-19)
(0.944673 0.00187903 -1.80718e-19)
(1.03136 0.00760169 6.00786e-21)
(1.10082 0.0127306 -1.41207e-19)
(1.15276 0.0168594 3.45615e-19)
(1.1883 0.0198157 0)
(1.20963 0.0216427 -2.09087e-19)
(1.21956 0.022544 1.02564e-19)
(1.22103 0.0228239 8.5245e-20)
(1.21674 0.0227805 0)
(1.20901 0.0228013 6.55094e-20)
(1.19945 0.0227673 -2.18666e-19)
(1.18936 0.0238947 2.05267e-19)
(1.1789 0.0219413 1.21415e-19)
(-0.0024905 0.00299024 -9.76587e-20)
(0.0205249 -0.000324653 -1.00692e-19)
(0.0712533 -0.00486089 9.17515e-20)
(0.146348 -0.00935442 0)
(0.242663 -0.012452 0)
(0.356288 -0.0130103 -2.06003e-21)
(0.481974 -0.0104959 0)
(0.613234 -0.0049977 -3.8294e-19)
(0.742923 0.00286787 3.54749e-19)
(0.864136 0.0121202 -4.37328e-19)
(0.971137 0.0216356 9.98612e-20)
(1.06006 0.0303753 0)
(1.1292 0.0375643 1.59848e-19)
(1.17891 0.0427838 -2.93598e-19)
(1.21119 0.0459733 6.99661e-20)
(1.22905 0.0473616 1.70542e-19)
(1.23591 0.0473583 -1.1829e-20)
(1.23506 0.0464413 -1.87217e-19)
(1.2293 0.0450633 0)
(1.22077 0.0435891 0)
(1.21097 0.0423204 -6.22594e-20)
(1.20082 0.041195 5.47079e-20)
(1.19098 0.0411175 1.87622e-19)
(1.18106 0.0384088 -1.76177e-19)
(0.00353695 1.60655e-05 -1.01753e-19)
(0.0424546 -0.0073922 -1.01805e-19)
(0.112609 -0.0128216 2.8672e-19)
(0.209352 -0.0155057 -1.74896e-19)
(0.327737 -0.0145346 1.6462e-19)
(0.461457 -0.00931683 3.00494e-19)
(0.602586 -0.000104708 -2.11603e-19)
(0.742323 0.0120868 -2.55597e-19)
(0.872233 0.0257637 6.27047e-21)
(0.985527 0.0393043 3.27529e-19)
(1.07794 0.0512966 0)
(1.14799 0.0607772 8.77976e-20)
(1.19673 0.0673236 0)
(1.22698 0.0710082 -1.39461e-19)
(1.24253 0.0722594 1.95731e-19)
(1.24735 0.0716889 1.803e-21)
(1.24499 0.0699357 -4.95871e-20)
(1.23826 0.0675584 9.07604e-20)
(1.22921 0.0649829 7.76517e-20)
(1.21918 0.0624943 -6.85442e-20)
(1.20895 0.0602657 6.22429e-20)
(1.19898 0.0582829 -5.46929e-20)
(1.18948 0.0570101 0)
(1.18031 0.053813 -4.10625e-20)
(0.0117667 -0.00281774 1.01739e-19)
(0.0705691 -0.0132928 1.06126e-19)
(0.163464 -0.0179055 -9.59055e-20)
(0.283863 -0.0167922 1.78592e-19)
(0.42419 -0.00988162 -1.68091e-19)
(0.575084 0.00244654 1.5218e-19)
(0.725883 0.0187844 -7.27588e-20)
(0.866244 0.0370182 1.92008e-19)
(0.987918 0.0548884 -1.20021e-19)
(1.08593 0.0704953 2.10181e-19)
(1.15885 0.0826203 -4.82789e-19)
(1.20832 0.0908138 1.76117e-19)
(1.23798 0.0952829 -1.51914e-19)
(1.25238 0.0966646 1.42698e-19)
(1.256 0.095777 1.20497e-19)
(1.25269 0.093421 1.0376e-19)
(1.24534 0.0902608 -2.88408e-19)
(1.23594 0.0867816 1.78048e-19)
(1.22573 0.0833001 -7.76529e-20)
(1.21543 0.0800015 1.99398e-19)
(1.20542 0.076979 -6.44292e-20)
(1.19588 0.0742374 -1.53026e-19)
(1.18688 0.0720022 1.40637e-19)
(1.17827 0.0684647 4.10495e-20)
(0.0225525 -0.00526457 0)
(0.105297 -0.0172493 6.04933e-22)
(0.223616 -0.018922 1.98127e-19)
(0.368292 -0.0118595 -1.86118e-19)
(0.528401 0.00263173 -1.68195e-19)
(0.691334 0.0227337 3.1247e-19)
(0.84443 0.0456529 -1.45051e-19)
(0.977372 0.0683052 1.92701e-19)
(1.08392 0.0881061 -4.6992e-21)
(1.16235 0.103443 -1.08461e-19)
(1.21468 0.113767 2.34679e-19)
(1.24534 0.119404 -3.44739e-19)
(1.25965 0.121205 0)
(1.26274 0.120217 -6.64354e-20)
(1.25881 0.117423 -1.75547e-19)
(1.25093 0.113611 5.54472e-20)
(1.24115 0.109344 2.61613e-21)
(1.23068 0.104981 -1.16809e-19)
(1.2202 0.100732 8.96625e-21)
(1.21006 0.0967089 1.34281e-19)
(1.2004 0.0929592 -5.84285e-20)
(1.19127 0.0895019 -2.18274e-20)
(1.18264 0.0863708 6.85776e-20)
(1.17442 0.082504 0)
(0.0361089 -0.00696024 0)
(0.146605 -0.0182982 5.35715e-20)
(0.292022 -0.0146104 -2.5644e-19)
(0.459903 0.000444299 9.34224e-20)
(0.635634 0.0235806 -8.79252e-20)
(0.803934 0.0511951 -7.98836e-20)
(0.951701 0.0791969 -1.41506e-19)
(1.07061 0.10402 7.06048e-20)
(1.15796 0.123402 6.1614e-20)
(1.21587 0.13655 0)
(1.24944 0.143851 1.3816e-19)
(1.26489 0.146391 -2.04094e-19)
(1.26811 0.14548 1.51945e-19)
(1.26385 0.142334 6.64697e-20)
(1.25552 0.13791 -5.36527e-20)
(1.24531 0.132873 -4.41333e-20)
(1.2345 0.127644 -4.07559e-20)
(1.22375 0.122467 1.2359e-19)
(1.21339 0.117475 0)
(1.20357 0.112731 6.06196e-20)
(1.19429 0.108265 4.99864e-20)
(1.18554 0.104087 -1.25134e-19)
(1.17727 0.100139 -8.38854e-20)
(1.16937 0.0959577 7.78223e-20)
(0.0524652 -0.00745651 -5.66602e-20)
(0.193907 -0.0153902 -1.59391e-21)
(0.366783 -0.00380115 5.1931e-20)
(0.555039 0.0208855 1.44401e-19)
(0.740706 0.0528964 4.17996e-20)
(0.90725 0.086811 -8.07926e-20)
(1.04318 0.11773 7.4125e-20)
(1.14386 0.142337 -6.51172e-20)
(1.2109 0.159314 1.15882e-19)
(1.24989 0.169 4.92448e-20)
(1.26804 0.172709 -1.39299e-19)
(1.27223 0.172086 4.10124e-20)
(1.26802 0.168655 6.94431e-20)
(1.25932 0.163605 -3.42518e-20)
(1.24862 0.157753 0)
(1.23733 0.151609 5.0299e-20)
(1.22618 0.145464 8.4433e-20)
(1.21548 0.139472 1.39316e-20)
(1.20538 0.133714 -6.99351e-20)
(1.19589 0.128228 2.90742e-20)
(1.18697 0.12303 0)
(1.17857 0.118112 -2.25415e-20)
(1.17061 0.113399 -2.08992e-20)
(1.16299 0.108842 0)
(0.071427 -0.0062711 0)
(0.246033 -0.00752967 2.95597e-20)
(0.445236 0.0143939 5.46371e-20)
(0.649526 0.0496924 -1.46252e-19)
(0.83872 0.0898846 4.69415e-20)
(0.997067 0.12814 0)
(1.11665 0.159557 7.06969e-20)
(1.19753 0.181824 -9.85478e-20)
(1.24542 0.194978 -5.7626e-20)
(1.26848 0.200523 2.61478e-20)
(1.27487 0.200508 -4.11692e-20)
(1.27127 0.196877 1.00328e-19)
(1.26237 0.191156 5.00283e-20)
(1.25117 0.184384 -3.49496e-20)
(1.23931 0.177204 -3.45621e-21)
(1.22762 0.169974 -9.44591e-20)
(1.21648 0.162884 4.29256e-20)
(1.206 0.15603 -9.77466e-22)
(1.19622 0.149456 0)
(1.18708 0.143187 -2.91041e-20)
(1.17853 0.137227 0)
(1.17048 0.131548 6.50961e-20)
(1.16284 0.126118 -7.73213e-20)
(1.1555 0.121106 3.51287e-20)
(0.0925537 -0.00293939 -1.5104e-20)
(0.301253 0.00609417 -7.387e-20)
(0.524174 0.0404341 8.36996e-20)
(0.739144 0.0865029 4.93436e-20)
(0.925631 0.133355 -2.36795e-20)
(1.07085 0.173585 3.95684e-20)
(1.17181 0.203207 -1.92967e-20)
(1.23342 0.221493 3.20981e-20)
(1.26465 0.229967 0)
(1.27516 0.231135 7.2473e-20)
(1.27312 0.227504 -3.00332e-21)
(1.26441 0.221085 -5.843e-20)
(1.25277 0.213258 2.49959e-20)
(1.24027 0.204866 -2.8132e-20)
(1.22794 0.196378 -1.0654e-20)
(1.21623 0.188031 1.23407e-20)
(1.20529 0.179943 -9.5165e-21)
(1.19513 0.172167 -5.12569e-20)
(1.18571 0.16473 3.14227e-20)
(1.17697 0.157642 6.42602e-21)
(1.1688 0.150893 5.63906e-21)
(1.16112 0.144447 4.94865e-21)
(1.15381 0.138339 0)
(1.14676 0.132765 0)
(0.115232 0.00294781 1.51144e-20)
(0.357522 0.0260174 -1.51732e-20)
(0.600295 0.0742741 -2.78192e-20)
(0.820199 0.130416 0)
(0.99861 0.181826 -1.16991e-20)
(1.12753 0.221616 -1.0436e-20)
(1.2095 0.247537 -1.79465e-20)
(1.25367 0.260738 0)
(1.27126 0.264135 0)
(1.27239 0.260957 0)
(1.2646 0.25391 0)
(1.25277 0.244893 0)
(1.23965 0.235071 -1.56886e-20)
(1.22663 0.225087 7.14378e-21)
(1.21428 0.215258 1.24014e-20)
(1.20279 0.205735 5.78189e-21)
(1.19219 0.19658 1.43092e-20)
(1.18244 0.187822 0)
(1.17347 0.179472 -3.41942e-21)
(1.16518 0.171528 -3.22585e-21)
(1.15747 0.163967 -5.64798e-21)
(1.15022 0.156757 -4.95651e-21)
(1.14332 0.150004 0)
(1.13665 0.143772 3.54645e-21)
(-0.00115792 -0.0157912 8.98551e-21)
(-0.00659242 -0.0478533 -9.33949e-21)
(-0.0173726 -0.0786074 -1.76964e-20)
(-0.0310781 -0.106324 0)
(-0.046351 -0.13034 -2.36572e-20)
(-0.0624244 -0.150928 7.39817e-21)
(-0.0786725 -0.168908 -1.40786e-20)
(-0.0945865 -0.185265 0)
(-0.109785 -0.200861 0)
(-0.123994 -0.216281 0)
(-0.137018 -0.231788 0)
(-0.148712 -0.24736 0)
(-0.158954 -0.262751 -1.6134e-23)
(-0.167625 -0.277551 -9.31918e-21)
(-0.174593 -0.291228 1.76579e-20)
(-0.179713 -0.303149 2.50095e-20)
(-0.182822 -0.3126 7.80348e-21)
(-0.183746 -0.318796 0)
(-0.182325 -0.320908 7.09582e-21)
(-0.178434 -0.318112 -1.97203e-20)
(-0.171948 -0.309647 -1.22814e-20)
(-0.16267 -0.29484 -1.15406e-20)
(-0.150585 -0.273076 0)
(-0.136913 -0.244181 0)
(-0.00107028 -0.0101373 -2.70905e-20)
(-0.00655594 -0.034788 4.67222e-20)
(-0.0181927 -0.0607554 -1.7769e-20)
(-0.0331145 -0.0854289 -3.36734e-20)
(-0.049735 -0.107653 4.74949e-20)
(-0.0671878 -0.127395 -3.00518e-20)
(-0.0847903 -0.145252 4.23439e-20)
(-0.102015 -0.162034 2.69823e-20)
(-0.118496 -0.17847 0)
(-0.133995 -0.195045 -2.36859e-20)
(-0.148366 -0.21196 -1.44283e-22)
(-0.161514 -0.229164 2.09459e-20)
(-0.173369 -0.246412 2.99932e-20)
(-0.183863 -0.263318 3.75444e-20)
(-0.192922 -0.279383 -1.76262e-20)
(-0.200456 -0.294016 -4.97492e-20)
(-0.206362 -0.306536 1.53858e-20)
(-0.210524 -0.316183 -5.79341e-20)
(-0.212842 -0.322129 0)
(-0.213261 -0.323518 1.30466e-20)
(-0.211672 -0.319511 1.22697e-20)
(-0.207729 -0.309284 1.15296e-20)
(-0.201431 -0.291995 0)
(-0.195387 -0.267291 0)
(-0.00168343 -0.00364952 0)
(-0.00773498 -0.0198788 9.5287e-20)
(-0.0198961 -0.0405348 -3.59175e-20)
(-0.0352268 -0.0619623 3.39248e-20)
(-0.0520985 -0.0823768 -9.69131e-20)
(-0.0696317 -0.101327 0)
(-0.087135 -0.119101 -5.77123e-20)
(-0.104084 -0.136285 2.73258e-20)
(-0.12013 -0.15345 -5.18979e-20)
(-0.135063 -0.170982 2.49408e-20)
(-0.148767 -0.189033 1.37456e-19)
(-0.161183 -0.207541 -6.4524e-20)
(-0.172279 -0.226276 -1.00672e-19)
(-0.182031 -0.244882 -3.78598e-20)
(-0.190417 -0.262899 3.80754e-22)
(-0.197408 -0.27978 1.31947e-19)
(-0.202966 -0.294888 -6.16967e-20)
(-0.207046 -0.307496 5.29956e-22)
(-0.209619 -0.31679 0)
(-0.210713 -0.321889 -4.73385e-20)
(-0.210265 -0.321863 0)
(-0.207781 -0.315748 -4.08525e-20)
(-0.203084 -0.302627 1.47237e-19)
(-0.200306 -0.282268 -1.6721e-21)
(-0.00299241 0.00301692 0)
(-0.0100776 -0.00445591 7.40691e-22)
(-0.022324 -0.0195548 3.70405e-20)
(-0.037132 -0.037607 -3.51885e-20)
(-0.0530353 -0.0561648 3.22201e-20)
(-0.0692315 -0.0743019 1.87082e-19)
(-0.0850662 -0.0919495 -5.86008e-20)
(-0.100034 -0.109435 -5.61546e-20)
(-0.113801 -0.127158 1.0489e-19)
(-0.126166 -0.145405 -1.47862e-19)
(-0.137027 -0.164283 4.692e-20)
(-0.14634 -0.183719 4.42184e-20)
(-0.154097 -0.203498 0)
(-0.160309 -0.223286 3.8058e-20)
(-0.165002 -0.24266 0)
(-0.168209 -0.261115 6.64165e-20)
(-0.169972 -0.278063 -1.20702e-19)
(-0.170325 -0.292838 3.11118e-20)
(-0.169316 -0.304682 1.03667e-19)
(-0.167038 -0.312735 4.72974e-20)
(-0.163515 -0.316 0)
(-0.158211 -0.313345 -1.10857e-19)
(-0.150348 -0.303732 3.64433e-20)
(-0.144542 -0.287012 0)
(-0.00486075 0.00918707 0)
(-0.0133255 0.0101136 -1.18136e-19)
(-0.0251672 0.000547438 -3.81261e-20)
(-0.0384915 -0.0140527 -7.1045e-20)
(-0.0521791 -0.0306583 6.69023e-20)
(-0.0655856 -0.0478766 -6.27957e-20)
(-0.0781343 -0.0652672 1.20406e-19)
(-0.0893521 -0.0828855 5.6657e-20)
(-0.0989084 -0.100951 -1.59995e-19)
(-0.106599 -0.119644 1.01192e-19)
(-0.112314 -0.139021 -1.42084e-19)
(-0.11601 -0.158994 3.13883e-19)
(-0.117689 -0.17935 -1.67538e-19)
(-0.117394 -0.199765 7.86365e-20)
(-0.1152 -0.219831 2.16058e-19)
(-0.11122 -0.239067 -6.91909e-20)
(-0.105594 -0.256928 -6.46384e-20)
(-0.0984824 -0.272813 -5.74168e-20)
(-0.0900549 -0.286065 0)
(-0.0804984 -0.295939 -8.68179e-20)
(-0.0700131 -0.301532 -7.10196e-20)
(-0.0584154 -0.301688 1.09616e-19)
(-0.0442339 -0.295026 1.1584e-19)
(-0.0285966 -0.280671 -1.06858e-19)
(-0.00704435 0.0142772 0)
(-0.0170453 0.0226061 -1.62617e-19)
(-0.0279863 0.0182622 -1.47223e-21)
(-0.0389238 0.00710084 1.44532e-19)
(-0.0492123 -0.00744316 0)
(-0.058419 -0.0235809 0)
(-0.066077 -0.0405316 0)
(-0.0717611 -0.0580784 -5.77041e-20)
(-0.0751409 -0.0762522 -4.13918e-22)
(-0.0759928 -0.0951186 1.03354e-19)
(-0.0741875 -0.11467 -1.44261e-19)
(-0.0696721 -0.13479 2.39248e-22)
(-0.0624591 -0.155245 0)
(-0.0526246 -0.175702 -7.85932e-20)
(-0.0403102 -0.195738 7.22924e-20)
(-0.0257248 -0.214863 -2.03888e-19)
(-0.00914212 -0.232535 2.43008e-19)
(0.00911153 -0.248182 4.77752e-20)
(0.028679 -0.261221 -1.09296e-20)
(0.0492052 -0.271065 -1.80218e-19)
(0.0702782 -0.277104 -7.50623e-20)
(0.0913802 -0.278602 2.21196e-19)
(0.112758 -0.274097 -1.41106e-19)
(0.141873 -0.259192 0)
(-0.00924094 0.017882 8.08653e-20)
(-0.0207068 0.0320884 8.16872e-20)
(-0.0302803 0.0323492 -7.92058e-20)
(-0.0380333 0.0244619 -1.48638e-19)
(-0.043851 0.0120316 1.39963e-19)
(-0.0475546 -0.00287828 -1.33225e-19)
(-0.048804 -0.019198 1.88854e-19)
(-0.047223 -0.0364655 -5.78275e-20)
(-0.0424951 -0.0545244 1.12012e-19)
(-0.0343817 -0.0733129 0)
(-0.0227376 -0.0927439 1.00257e-19)
(-0.00751448 -0.112649 -1.88386e-19)
(0.0112425 -0.132763 1.72807e-19)
(0.0333867 -0.152716 -1.62306e-19)
(0.058665 -0.172056 0)
(0.086717 -0.190258 1.35828e-19)
(0.117085 -0.206755 2.41449e-19)
(0.149235 -0.220961 -2.26444e-19)
(0.182585 -0.232309 -9.7767e-20)
(0.216545 -0.240289 -7.95998e-20)
(0.250485 -0.244513 2.2985e-19)
(0.28413 -0.244596 5.45965e-20)
(0.315799 -0.239873 -5.77845e-20)
(0.360616 -0.223669 4.16442e-20)
(-0.0111546 0.0198277 -8.0876e-20)
(-0.0237649 0.0380257 2.55371e-19)
(-0.0315285 0.0419675 -8.07299e-20)
(-0.0354276 0.0369713 1.51896e-19)
(-0.0358486 0.0265674 -1.43027e-19)
(-0.0328639 0.0129573 8.74375e-22)
(-0.026289 -0.002581 6.44513e-20)
(-0.0158184 -0.0193862 2.4517e-19)
(-0.00115654 -0.0371213 6.73185e-22)
(0.0179194 -0.0555915 -1.06831e-19)
(0.0415302 -0.0746142 0)
(0.0696656 -0.0939535 -9.4667e-20)
(0.102173 -0.113288 1.77174e-19)
(0.138744 -0.132204 1.61539e-19)
(0.178908 -0.150213 -7.65662e-20)
(0.222037 -0.166768 2.02403e-22)
(0.26738 -0.181292 -6.16716e-20)
(0.314093 -0.193216 1.09927e-19)
(0.3613 -0.202021 9.77189e-20)
(0.408189 -0.207247 -8.53312e-20)
(0.453721 -0.208675 7.2349e-20)
(0.4988 -0.205554 -6.1089e-20)
(0.53594 -0.19982 0)
(0.596267 -0.182175 -4.15566e-20)
(-0.0125559 0.020179 8.40346e-20)
(-0.0257418 0.0403232 -8.57089e-20)
(-0.0312274 0.046751 8.26631e-20)
(-0.0306699 0.04401 0)
(-0.0248648 0.0353584 0)
(-0.0141076 0.0229997 1.40691e-19)
(0.0016298 0.00831983 -1.30243e-19)
(0.022546 -0.00785731 1.24572e-19)
(0.0488741 -0.0250402 -5.81386e-19)
(0.0807621 -0.042902 1.9358e-22)
(0.118219 -0.0611525 1.02843e-19)
(0.161067 -0.0794705 0)
(0.208904 -0.0974679 -1.76383e-19)
(0.261095 -0.11469 3.2791e-19)
(0.316776 -0.130627 -2.2748e-19)
(0.374888 -0.14474 -3.36217e-19)
(0.434235 -0.156498 1.16372e-20)
(0.493563 -0.165414 2.24093e-19)
(0.551635 -0.171094 0)
(0.607469 -0.173174 0)
(0.659464 -0.171847 -7.23297e-20)
(0.710116 -0.165677 6.10731e-20)
(0.747286 -0.159094 -1.89771e-19)
(0.810892 -0.13993 1.78095e-19)
(-0.0133182 0.019195 0)
(-0.0262718 0.039293 0)
(-0.0288856 0.0468341 -2.49811e-19)
(-0.0232044 0.0454872 7.91265e-20)
(-0.0103024 0.0381233 -3.56449e-22)
(0.00934142 0.0268397 1.41911e-19)
(0.0356092 0.0130561 0)
(0.0685607 -0.00229618 -1.25249e-19)
(0.108279 -0.0186022 1.16841e-19)
(0.154725 -0.0354071 -2.2078e-19)
(0.207643 -0.0523108 7.07126e-22)
(0.266484 -0.0689062 1.91056e-19)
(0.330378 -0.0847543 -2.96156e-21)
(0.39813 -0.0993857 1.58028e-19)
(0.468271 -0.11232 -2.29471e-19)
(0.539144 -0.123097 0)
(0.609021 -0.131311 2.37243e-19)
(0.676234 -0.136642 -3.31571e-19)
(0.739282 -0.138899 9.43007e-20)
(0.797099 -0.137899 0)
(0.848174 -0.134137 7.0699e-20)
(0.894964 -0.12614 2.29649e-19)
(0.926951 -0.11895 -2.15536e-19)
(0.978616 -0.100226 -2.03311e-19)
(-0.013412 0.0172469 2.62715e-19)
(-0.0250855 0.0355462 -3.61633e-19)
(-0.0239719 0.0428036 2.11834e-22)
(-0.0122488 0.0418817 8.07398e-20)
(0.00886174 0.035242 -1.51682e-19)
(0.0387454 0.0248221 -1.41172e-19)
(0.0771226 0.0120202 2.67497e-19)
(0.123848 -0.0021793 -8.46865e-22)
(0.17872 -0.0170643 -2.36454e-19)
(0.241307 -0.0320771 4.41977e-19)
(0.31082 -0.0467344 -1.67772e-21)
(0.386047 -0.0605844 -1.93171e-19)
(0.465347 -0.073194 0)
(0.546721 -0.0841584 0)
(0.627942 -0.093122 -7.45671e-20)
(0.706729 -0.0998032 -1.32702e-19)
(0.780933 -0.104014 -2.33447e-19)
(0.848712 -0.105679 2.19144e-19)
(0.908678 -0.104818 -9.43394e-20)
(0.959962 -0.10155 1.56515e-19)
(1.00211 -0.096244 -8.30703e-20)
(1.03637 -0.0883071 1.03445e-19)
(1.05841 -0.0812474 -2.66808e-19)
(1.08832 -0.0653916 4.26266e-20)
(-0.0128548 0.0147123 8.88918e-20)
(-0.0219177 0.029834 0)
(-0.0157961 0.0355821 1.72816e-19)
(0.00335403 0.0342038 -1.62794e-19)
(0.0342519 0.027805 1.51814e-19)
(0.0761624 0.0181553 0)
(0.128579 0.00659653 0)
(0.190992 -0.00587097 -1.26441e-19)
(0.262661 -0.0184853 1.07958e-21)
(0.34242 -0.0306452 1.11427e-19)
(0.428572 -0.0418617 -1.01538e-19)
(0.518881 -0.0517366 1.92395e-19)
(0.61068 -0.0599601 0)
(0.701069 -0.0663172 3.16477e-19)
(0.787164 -0.0706933 -5.83385e-19)
(0.86636 -0.073074 4.01523e-19)
(0.936555 -0.0735337 2.28556e-19)
(0.996302 -0.0722323 -2.14565e-19)
(1.04491 -0.0693407 0)
(1.08233 -0.0651972 0)
(1.10942 -0.0598026 0)
(1.12704 -0.0537556 0)
(1.13666 -0.0474188 5.12116e-20)
(1.14522 -0.0366869 -1.68454e-19)
(-0.121381 -0.203727 -7.75313e-21)
(-0.0935007 -0.143353 7.77793e-21)
(-0.0617646 -0.0697418 -2.21802e-22)
(-0.0256588 0.0153855 0)
(0.0137324 0.109176 -6.87055e-21)
(0.0558045 0.207394 1.30162e-20)
(0.0996025 0.306034 -4.49199e-22)
(0.143026 0.397475 -5.55187e-21)
(0.184232 0.475591 0)
(0.22059 0.536631 0)
(0.248787 0.579975 -1.97799e-22)
(0.265807 0.608364 -1.71128e-22)
(0.271497 0.62502 -2.58014e-21)
(0.271574 0.627946 2.35915e-21)
(0.277886 0.606329 0)
(0.303252 0.544646 0)
(0.353006 0.433413 2.6888e-21)
(0.421785 0.276419 2.15919e-22)
(0.499286 0.0883152 -2.56404e-21)
(0.57689 -0.108924 -1.77185e-22)
(0.647392 -0.286622 0)
(0.704136 -0.418442 0)
(0.743354 -0.494549 0)
(0.764354 -0.523986 0)
(0.770519 -0.523115 0)
(0.76752 -0.506891 0)
(0.755045 -0.493762 2.86183e-22)
(0.725944 -0.498032 -4.56007e-22)
(0.680943 -0.507484 0)
(0.638478 -0.475996 0)
(0.622446 -0.361668 -5.79838e-22)
(0.640635 -0.170753 5.63543e-22)
(0.683043 0.0447782 2.74393e-22)
(0.732424 0.226688 0)
(0.777131 0.347307 0)
(0.81128 0.402845 2.93978e-22)
(0.83309 0.425264 -2.8576e-22)
(0.831505 0.441734 0)
(0.801741 0.467328 2.3512e-22)
(0.757328 0.457232 -3.53763e-22)
(0.724897 0.372357 1.47358e-22)
(0.721585 0.206415 0)
(0.74609 0.00119013 -2.89192e-22)
(0.781559 -0.164328 2.81201e-22)
(0.823495 -0.286038 0)
(0.840111 -0.333599 0)
(0.827387 -0.386043 -6.72694e-23)
(0.783837 -0.385117 1.88278e-22)
(0.74977 -0.339602 0)
(0.744964 -0.214911 0)
(0.777424 -0.0249947 -5.92878e-23)
(0.807023 0.0926813 4.80393e-24)
(0.823827 0.267826 -5.80695e-24)
(0.801391 0.307021 3.73094e-23)
(0.789947 0.36572 0)
(0.787042 0.29811 0)
(0.804636 0.10361 0)
(0.800714 0.0327686 0)
(0.812145 -0.271305 0)
(0.789238 -0.253959 0)
(-0.192857 -0.231686 -6.39889e-22)
(-0.17431 -0.177462 -2.71227e-20)
(-0.151174 -0.109423 5.21469e-22)
(-0.121869 -0.0293342 2.50065e-20)
(-0.0870109 0.0604705 3.34546e-22)
(-0.0466143 0.157013 0)
(-0.00325972 0.254462 -1.93445e-20)
(0.0402436 0.349175 3.65303e-20)
(0.083787 0.432186 -1.71877e-20)
(0.124953 0.501151 1.31931e-20)
(0.160671 0.554716 -1.26254e-20)
(0.189388 0.593158 1.01198e-20)
(0.213128 0.615698 -9.81867e-21)
(0.238775 0.616769 -2.85126e-22)
(0.276264 0.585344 -9.99391e-21)
(0.332997 0.510307 9.7117e-21)
(0.407869 0.388473 -1.18066e-20)
(0.492437 0.226889 1.10847e-20)
(0.577597 0.0387188 -1.24413e-20)
(0.65707 -0.155699 2.33638e-20)
(0.723959 -0.326967 -1.09579e-20)
(0.771727 -0.448783 -5.4363e-22)
(0.798647 -0.512963 -5.92744e-21)
(0.806951 -0.531348 1.03238e-20)
(0.801284 -0.522724 -4.43497e-21)
(0.788098 -0.501153 2.00223e-22)
(0.769015 -0.481325 2.9352e-21)
(0.736493 -0.477369 1.76221e-22)
(0.68734 -0.483224 -5.88704e-21)
(0.636157 -0.458838 6.62325e-21)
(0.608354 -0.360188 -3.49297e-21)
(0.616641 -0.184981 4.8699e-22)
(0.653942 0.0213661 -2.74956e-22)
(0.703441 0.202248 4.28066e-22)
(0.752683 0.327018 0)
(0.794587 0.388992 0)
(0.823216 0.420094 -9.81024e-22)
(0.826749 0.446826 7.23874e-22)
(0.800948 0.480224 7.617e-22)
(0.762898 0.471094 3.08246e-22)
(0.737598 0.379859 -1.26688e-21)
(0.739767 0.204972 3.5834e-22)
(0.766065 -0.00753811 0)
(0.798308 -0.176015 0)
(0.83648 -0.294905 0)
(0.849094 -0.334269 0)
(0.835907 -0.378067 2.76581e-22)
(0.789523 -0.374359 -1.22966e-22)
(0.753773 -0.334256 0)
(0.746173 -0.218473 0)
(0.775965 -0.0333419 0)
(0.804569 0.0867967 -8.80291e-23)
(0.818351 0.268173 1.42839e-23)
(0.798045 0.310451 -8.20276e-23)
(0.785689 0.36715 0)
(0.785943 0.296778 0)
(0.807371 0.101627 6.96982e-23)
(0.805125 0.0322509 2.18141e-22)
(0.819204 -0.269796 0)
(0.79361 -0.252566 0)
(-0.207791 -0.252229 -8.07619e-22)
(-0.202559 -0.206008 -4.64611e-20)
(-0.191264 -0.144975 4.35316e-20)
(-0.173197 -0.0715487 -4.0812e-20)
(-0.147208 0.0127678 -3.369e-22)
(-0.114188 0.10495 0)
(-0.0743991 0.19977 -3.20178e-20)
(-0.0327184 0.295675 3.12506e-20)
(0.00959802 0.382246 2.30195e-22)
(0.0545928 0.457387 3.24045e-22)
(0.0988675 0.518373 2.91805e-22)
(0.141943 0.562975 3.14038e-22)
(0.186494 0.587494 -1.82681e-20)
(0.238287 0.584817 1.80396e-20)
(0.303705 0.545433 0)
(0.385037 0.462636 6.70257e-22)
(0.477295 0.337597 -2.50272e-20)
(0.571453 0.177953 2.47055e-20)
(0.660313 -0.00531873 0)
(0.739354 -0.193236 0)
(0.801374 -0.356048 -2.08345e-20)
(0.839378 -0.467694 3.67142e-20)
(0.853634 -0.521646 -2.78496e-20)
(0.849503 -0.531474 2.91928e-21)
(0.832993 -0.517356 1.61017e-20)
(0.810488 -0.492564 -1.32778e-20)
(0.785225 -0.467831 1.08118e-20)
(0.750298 -0.456148 -3.38781e-22)
(0.698909 -0.457583 -4.97815e-21)
(0.640744 -0.439588 0)
(0.601507 -0.357355 0)
(0.598879 -0.199588 2.75611e-21)
(0.629707 -0.00379438 -3.55579e-21)
(0.678248 0.174639 -5.57712e-23)
(0.73122 0.302998 2.46468e-21)
(0.78013 0.371767 -2.39522e-21)
(0.815043 0.412339 0)
(0.823798 0.449809 2.30676e-22)
(0.802661 0.491183 2.321e-21)
(0.771406 0.483564 -5.05133e-21)
(0.753249 0.387138 2.39333e-21)
(0.760757 0.204788 4.08442e-22)
(0.788884 -0.013666 -3.4644e-21)
(0.817701 -0.184949 2.64265e-21)
(0.851539 -0.301891 4.87217e-22)
(0.859834 -0.334053 3.6036e-22)
(0.846234 -0.369624 -2.77272e-22)
(0.797339 -0.363437 0)
(0.760086 -0.328915 0)
(0.749609 -0.222381 -7.77182e-22)
(0.776432 -0.041851 3.8752e-22)
(0.803884 0.0807202 -3.34882e-22)
(0.814579 0.268253 4.94289e-22)
(0.796131 0.313727 6.25331e-22)
(0.782529 0.368319 -1.55491e-22)
(0.785979 0.295133 3.15869e-22)
(0.811397 0.099217 -3.08513e-22)
(0.810855 0.0315472 1.76188e-22)
(0.827369 -0.268092 0)
(0.798908 -0.251021 0)
(-0.157342 -0.261403 -8.02467e-20)
(-0.167019 -0.22405 4.8066e-21)
(-0.168424 -0.171144 7.12083e-20)
(-0.163937 -0.106034 -5.7619e-22)
(-0.151004 -0.0293524 0)
(-0.129436 0.055532 0)
(-0.0976477 0.146978 -4.78789e-20)
(-0.0611831 0.240014 2.55577e-21)
(-0.0219207 0.326051 6.18742e-20)
(0.0248846 0.404111 -1.55257e-21)
(0.0766561 0.469068 -1.75729e-20)
(0.13303 0.516561 -1.5796e-20)
(0.196015 0.541094 1.57839e-20)
(0.26915 0.535281 0)
(0.355191 0.491681 -2.07115e-20)
(0.452632 0.407201 1.87747e-20)
(0.554543 0.285494 0)
(0.652852 0.132925 0)
(0.743046 -0.0424048 2.66554e-20)
(0.820917 -0.222066 -1.50623e-21)
(0.877656 -0.375712 -2.29943e-20)
(0.905859 -0.477415 -1.69847e-20)
(0.907651 -0.522508 1.68292e-20)
(0.891528 -0.525743 -9.7684e-21)
(0.865192 -0.507767 2.17659e-21)
(0.834391 -0.481436 7.03883e-21)
(0.803187 -0.4539 6.46779e-22)
(0.766384 -0.435406 2.94258e-23)
(0.714786 -0.431025 0)
(0.652179 -0.417421 5.15497e-21)
(0.602428 -0.351558 -5.31428e-21)
(0.588026 -0.213146 4.1667e-22)
(0.610818 -0.029924 0)
(0.657086 0.144413 -3.77052e-22)
(0.712831 0.275628 4.40208e-21)
(0.767801 0.351346 -7.66763e-21)
(0.808408 0.401822 -3.49561e-22)
(0.822463 0.450187 -2.30833e-22)
(0.806541 0.499657 3.20007e-21)
(0.782264 0.494374 5.65333e-22)
(0.771186 0.394352 -6.07154e-21)
(0.783846 0.206212 5.12754e-21)
(0.813915 -0.0171176 -3.9851e-23)
(0.839384 -0.191112 2.34513e-21)
(0.868499 -0.307075 -2.76859e-21)
(0.872173 -0.333172 -2.39423e-21)
(0.858075 -0.360916 7.17079e-22)
(0.806966 -0.35232 8.29867e-22)
(0.768341 -0.323368 -1.55828e-21)
(0.754938 -0.226433 1.11051e-21)
(0.778606 -0.0504543 -3.46307e-22)
(0.80488 0.0744096 3.43989e-22)
(0.812494 0.268052 2.89303e-22)
(0.795694 0.316905 -9.21108e-22)
(0.780582 0.369278 -8.05507e-24)
(0.787239 0.293195 -3.59429e-22)
(0.816714 0.096392 0)
(0.817897 0.0306688 -1.67235e-22)
(0.836607 -0.266179 3.74324e-22)
(0.805098 -0.249306 0)
(-0.0430748 -0.25794 6.7751e-20)
(-0.0671014 -0.229061 -1.25745e-19)
(-0.0806668 -0.184905 5.75903e-20)
(-0.089782 -0.128918 4.63932e-20)
(-0.0912179 -0.0608838 -8.62015e-20)
(-0.082593 0.015522 4.15717e-21)
(-0.0608 0.0999155 3.50889e-20)
(-0.034055 0.183574 2.99943e-20)
(-0.00127651 0.265929 -2.94219e-20)
(0.0450444 0.343441 0)
(0.100435 0.408991 -2.58362e-20)
(0.165193 0.45699 5.21457e-20)
(0.240189 0.481002 -2.63709e-20)
(0.326657 0.473957 0)
(0.424438 0.430251 0)
(0.529556 0.349253 6.79232e-22)
(0.634461 0.235513 -5.14613e-20)
(0.733029 0.093323 4.99825e-20)
(0.823207 -0.0720466 0)
(0.899704 -0.24221 5.06571e-20)
(0.950907 -0.385627 -8.93015e-20)
(0.969239 -0.47736 7.35597e-20)
(0.959106 -0.515082 -5.83008e-20)
(0.931874 -0.51413 5.57148e-21)
(0.896988 -0.494267 3.32662e-20)
(0.859339 -0.467871 -1.43281e-20)
(0.822789 -0.439626 -3.17175e-22)
(0.784303 -0.416135 -3.7917e-21)
(0.733987 -0.405295 8.46502e-24)
(0.669777 -0.393442 3.82909e-21)
(0.611311 -0.342435 3.08918e-22)
(0.584617 -0.22461 -5.10569e-21)
(0.597783 -0.0564545 9.9445e-21)
(0.640293 0.112087 -5.37417e-21)
(0.697536 0.245218 0)
(0.7574 0.327731 -3.96893e-21)
(0.803043 0.38819 3.83576e-21)
(0.822426 0.447423 -3.3092e-21)
(0.812144 0.505223 4.10989e-21)
(0.79488 0.503438 -5.9277e-22)
(0.790674 0.401542 0)
(0.808274 0.209307 -8.45356e-22)
(0.840526 -0.0178887 2.44701e-21)
(0.862955 -0.194389 0)
(0.887091 -0.310277 4.68574e-21)
(0.885918 -0.331579 -2.03689e-21)
(0.871201 -0.351994 5.46124e-22)
(0.818122 -0.341042 3.97054e-22)
(0.778165 -0.317553 0)
(0.7618 -0.230504 0)
(0.782221 -0.0591313 -8.70069e-22)
(0.807417 0.067804 1.3479e-21)
(0.812054 0.267535 -7.9571e-22)
(0.79677 0.32002 2.47339e-22)
(0.779962 0.370075 6.05213e-22)
(0.789794 0.290966 3.59774e-22)
(0.823306 0.0931632 -7.39181e-22)
(0.826235 0.0296191 0)
(0.846869 -0.264012 -5.57895e-22)
(0.812134 -0.247392 -9.63666e-23)
(0.126786 -0.241441 5.88295e-20)
(0.0907814 -0.218083 -5.82724e-20)
(0.0658517 -0.184325 3.91775e-22)
(0.0449514 -0.139185 -2.51105e-22)
(0.0295773 -0.0830612 2.90152e-22)
(0.0230383 -0.016801 -2.51022e-22)
(0.0297107 0.0566266 2.62656e-22)
(0.0462949 0.130535 0)
(0.0733584 0.208017 -2.08534e-22)
(0.114209 0.281151 2.0867e-22)
(0.167809 0.344124 2.28758e-22)
(0.234193 0.390672 -3.59442e-22)
(0.313201 0.414042 0)
(0.404293 0.407629 0)
(0.505329 0.367025 5.21994e-22)
(0.61098 0.292889 0)
(0.714058 0.189506 -7.19638e-22)
(0.810772 0.0589157 0)
(0.900321 -0.0954201 -5.1161e-20)
(0.974818 -0.254514 9.81131e-20)
(1.01968 -0.386548 -8.69758e-20)
(1.028 -0.468563 4.00781e-20)
(1.00688 -0.500508 2.5226e-20)
(0.969893 -0.497607 -2.44982e-20)
(0.927817 -0.477674 -1.47232e-20)
(0.884801 -0.452268 1.41927e-20)
(0.843657 -0.424897 0)
(0.803421 -0.398583 2.27999e-22)
(0.755291 -0.381505 0)
(0.69229 -0.368682 0)
(0.627842 -0.329825 7.13451e-21)
(0.589113 -0.232812 -7.30119e-21)
(0.591158 -0.0821884 4.52051e-22)
(0.628199 0.0783679 5.3882e-22)
(0.685303 0.212125 -3.82762e-22)
(0.748672 0.300932 -3.10245e-21)
(0.798643 0.37115 3.01244e-21)
(0.823309 0.441046 -4.03258e-21)
(0.81893 0.507513 3.50326e-21)
(0.808578 0.510652 1.1928e-21)
(0.810967 0.408708 -6.56033e-21)
(0.833301 0.214063 -1.46024e-21)
(0.868028 -0.0160168 5.07507e-21)
(0.887943 -0.194737 0)
(0.906992 -0.311399 -2.15613e-21)
(0.900838 -0.329289 1.86872e-21)
(0.88535 -0.342934 -2.54661e-21)
(0.830524 -0.329593 -3.99566e-22)
(0.789191 -0.311348 0)
(0.769816 -0.234476 2.67321e-22)
(0.786971 -0.0679021 -4.99135e-22)
(0.811306 0.060817 -4.12154e-23)