/*--------------------------------*- C++ -*----------------------------------*\
| =========                 |                                                 |
| \\      /  F ield         | OpenFOAM: The Open Source CFD Toolbox           |
|  \\    /   O peration     | Version:  2512                                  |
|   \\  /    A nd           | Website:  www.openfoam.com                      |
|    \\/     M anipulation  |                                                 |
\*---------------------------------------------------------------------------*/
FoamFile
{
    version     2.0;
    format      ascii;
    arch        "LSB;label=32;scalar=64";
    class       volVectorField;
    location    "37.75";
    object      U;
}
// * * * * * * * * * * * * * * * * * * * * * * * * * * * * * * * * * * * * * //

dimensions      [0 1 -1 0 0 0 0];

internalField   nonuniform List<vector> 
13248
(
(-0.0125116 0.0116539 5.95577e-20)
(-0.0239956 0.0248758 0)
(-0.0228948 0.0319113 -1.12567e-19)
(-0.0101509 0.0347417 1.0604e-19)
(0.013601 0.0349785 9.93897e-20)
(0.0479151 0.0339068 0)
(0.0924248 0.0325098 0)
(0.14673 0.0315281 2.39889e-19)
(0.210267 0.0315039 -1.20758e-21)
(0.282183 0.0328043 -2.09514e-19)
(0.36125 0.0356324 1.94013e-19)
(0.445837 0.040034 -1.21262e-19)
(0.533945 0.0459072 0)
(0.623312 0.0530183 -2.07015e-19)
(0.711548 0.0610269 3.86011e-19)
(0.796304 0.069519 -9.1296e-20)
(0.875434 0.0780493 -1.63145e-19)
(0.947133 0.0861634 1.53151e-19)
(1.01007 0.0935156 0)
(1.06332 0.0995845 0)
(1.10693 0.104734 0)
(1.13994 0.107072 0)
(1.16635 0.110829 4.76714e-20)
(1.17993 0.105977 1.75373e-19)
(-0.0122842 0.0101929 -1.79994e-19)
(-0.0201891 0.0204505 1.22739e-19)
(-0.0124301 0.0253287 -1.07372e-21)
(0.00969637 0.0268762 -1.62229e-19)
(0.045331 0.0267659 -9.92832e-20)
(0.0937909 0.0263321 -9.39377e-20)
(0.15434 0.0265649 -1.72586e-19)
(0.226007 0.0281646 1.63162e-19)
(0.307412 0.0315726 0)
(0.396667 0.0369839 7.90451e-22)
(0.491359 0.044356 1.68663e-21)
(0.588656 0.0534281 1.2126e-19)
(0.685489 0.0637579 0)
(0.778799 0.0747752 0)
(0.865781 0.0858475 1.41609e-19)
(0.944102 0.0963491 -2.65922e-19)
(1.01206 0.105726 1.59608e-19)
(1.0687 0.113542 -1.49839e-19)
(1.11376 0.119523 -6.67226e-20)
(1.14776 0.123522 -1.2198e-19)
(1.17154 0.125695 -5.20576e-20)
(1.187 0.125719 -9.79411e-20)
(1.19506 0.125596 1.42273e-19)
(1.19773 0.120593 4.17451e-20)
(-0.0112035 0.0083957 0)
(-0.0133384 0.0153196 0)
(0.00369023 0.0181508 5.73958e-20)
(0.0380938 0.0189237 5.2862e-20)
(0.0886166 0.0193225 -1.29993e-21)
(0.154072 0.0206849 -9.6948e-20)
(0.232961 0.0239284 0)
(0.323243 0.0295823 -8.11163e-20)
(0.422201 0.0378117 7.61803e-20)
(0.526469 0.0484351 5.12562e-22)
(0.632218 0.0609644 -1.30141e-19)
(0.735479 0.0746772 -1.19345e-19)
(0.832513 0.0887171 2.03977e-21)
(0.920159 0.102207 -9.9148e-20)
(0.996098 0.114358 2.37457e-19)
(1.059 0.124553 0)
(1.10856 0.132405 -1.55617e-19)
(1.14537 0.137764 7.51546e-20)
(1.1708 0.140727 6.66586e-20)
(1.18666 0.141504 0)
(1.19511 0.140623 5.53586e-20)
(1.19815 0.138082 -1.94405e-19)
(1.1974 0.135611 1.82493e-19)
(1.19584 0.130007 1.1884e-19)
(-0.00893976 0.00628069 -6.38745e-20)
(-0.00257162 0.00970598 -6.60474e-20)
(0.0267574 0.0109377 5.96218e-20)
(0.0765648 0.0118417 0)
(0.144897 0.0140049 0)
(0.229615 0.0186503 -2.05197e-21)
(0.327894 0.0264476 0)
(0.43604 0.0375256 -2.4762e-19)
(0.549555 0.0515191 2.30057e-19)
(0.663453 0.0676441 -2.84133e-19)
(0.772756 0.0848271 6.51205e-20)
(0.873035 0.101874 0)
(0.960871 0.117648 1.08973e-19)
(1.03414 0.131222 -2.02082e-19)
(1.09209 0.141981 4.79347e-20)
(1.13524 0.149656 1.24487e-19)
(1.16514 0.154309 -4.76374e-21)
(1.18399 0.156258 -1.3977e-19)
(1.19427 0.155991 0)
(1.19844 0.154041 0)
(1.19863 0.151012 -5.12281e-20)
(1.19646 0.147063 4.64256e-20)
(1.19323 0.14358 1.69171e-19)
(1.1897 0.137719 -1.58793e-19)
(-0.00511678 0.00391577 -6.74974e-20)
(0.0130081 0.00396883 -6.71082e-20)
(0.0579374 0.0044385 1.88725e-19)
(0.126206 0.00678903 -1.14283e-19)
(0.214697 0.0123153 1.07575e-19)
(0.319703 0.0219008 1.95212e-19)
(0.43643 0.0356808 -1.37978e-19)
(0.559073 0.0530752 -1.67978e-19)
(0.681291 0.0729331 3.19791e-21)
(0.796937 0.093748 2.15012e-19)
(0.90082 0.113924 0)
(0.989285 0.132038 5.96347e-20)
(1.0605 0.147043 0)
(1.11442 0.158366 -9.79744e-20)
(1.15246 0.165915 1.3772e-19)
(1.17706 0.169993 1.09663e-21)
(1.19114 0.171162 -3.66706e-20)
(1.19763 0.170102 6.86839e-20)
(1.19908 0.167479 6.0016e-20)
(1.19752 0.16386 -5.42762e-20)
(1.19438 0.159701 5.12157e-20)
(1.19055 0.155163 -4.64141e-20)
(1.18646 0.151058 0)
(1.18282 0.145214 -3.63367e-20)
(0.000651841 0.00144722 6.74878e-20)
(0.0342143 -0.00134311 7.09062e-20)
(0.0980776 -0.000365224 -6.32462e-20)
(0.187398 0.005119 1.17715e-19)
(0.297272 0.0158004 -1.108e-19)
(0.421736 0.031871 1.00088e-19)
(0.55353 0.0525579 -4.80888e-20)
(0.684725 0.0762751 1.26145e-19)
(0.807753 0.100978 -7.94361e-20)
(0.91647 0.124573 1.41307e-19)
(1.0069 0.145292 -3.26708e-19)
(1.07748 0.161951 1.2041e-19)
(1.12888 0.174041 -1.05978e-19)
(1.16341 0.181672 9.95409e-20)
(1.18433 0.185399 8.67465e-20)
(1.19514 0.186022 7.67345e-20)
(1.19906 0.184387 -2.13974e-19)
(1.1987 0.181248 1.32961e-19)
(1.19596 0.177197 -6.00177e-20)
(1.19206 0.172646 1.58595e-19)
(1.18774 0.167866 -5.10637e-20)
(1.18337 0.162955 -1.27442e-19)
(1.17915 0.158358 1.18107e-19)
(1.17532 0.152561 3.63236e-20)
(0.00871959 -0.00088499 0)
(0.0616509 -0.00547686 6.29613e-22)
(0.147501 -0.00228444 1.32548e-19)
(0.259544 0.00827447 -1.24288e-19)
(0.390398 0.0258415 -1.1187e-19)
(0.531285 0.0494651 2.07919e-19)
(0.672456 0.0771063 -9.65569e-20)
(0.804567 0.106056 1.28901e-19)
(0.92016 0.133568 -2.61221e-21)
(1.01466 0.157413 -7.32888e-20)
(1.08666 0.176203 1.60675e-19)
(1.13742 0.189469 -2.37721e-19)
(1.17011 0.197522 0)
(1.18875 0.201177 -4.71463e-20)
(1.19738 0.201468 -1.26546e-19)
(1.1995 0.199404 3.97859e-20)
(1.19779 0.195827 1.36254e-21)
(1.19406 0.191359 -8.93625e-20)
(1.18946 0.186412 4.72757e-21)
(1.18463 0.181243 1.03765e-19)
(1.17989 0.175993 -4.68813e-20)
(1.17538 0.170741 -1.85207e-20)
(1.17112 0.165677 5.57896e-20)
(1.16722 0.159877 0)
(0.0193579 -0.00274674 0)
(0.0955792 -0.00750341 3.59918e-20)
(0.20582 -1.32226e-05 -1.73469e-19)
(0.340915 0.0176114 6.29515e-20)
(0.490416 0.0434097 -5.92488e-20)
(0.64262 0.0748375 -5.42158e-20)
(0.785998 0.108424 -9.58226e-20)
(0.911234 0.140557 4.77788e-20)
(1.01268 0.168322 4.15471e-20)
(1.08871 0.189981 0)
(1.14106 0.205029 9.57494e-20)
(1.17365 0.213954 -1.43141e-19)
(1.19128 0.21784 1.06554e-19)
(1.19859 0.217972 4.71697e-20)
(1.19943 0.21555 -3.90961e-20)
(1.19661 0.211531 -3.30156e-20)
(1.192 0.206594 -3.10088e-20)
(1.18671 0.201178 9.20536e-20)
(1.18134 0.195544 0)
(1.17618 0.189839 4.72633e-20)
(1.17134 0.184145 4.05741e-20)
(1.16682 0.178513 -9.98008e-20)
(1.16258 0.172976 -6.98458e-20)
(1.15864 0.167141 6.44715e-20)
(0.0327045 -0.00372634 -3.92009e-20)
(0.135799 -0.0063915 -1.60687e-21)
(0.271816 0.00772186 3.53504e-20)
(0.428669 0.0341833 9.88453e-20)
(0.592624 0.068861 2.87708e-20)
(0.749648 0.107348 -5.56446e-20)
(0.887899 0.144938 5.07353e-20)
(0.999905 0.177702 -4.45128e-20)
(1.08326 0.203273 8.01448e-20)
(1.13987 0.22095 3.42611e-20)
(1.17433 0.231347 -9.73575e-20)
(1.19227 0.235824 2.87471e-20)
(1.19905 0.235969 4.93616e-20)
(1.19901 0.233226 -2.42492e-20)
(1.19527 0.228718 0)
(1.18982 0.223225 3.65728e-20)
(1.1838 0.217233 6.23558e-20)
(1.17783 0.211027 1.10208e-20)
(1.17216 0.204761 -5.23058e-20)
(1.16691 0.19852 2.20842e-20)
(1.16206 0.19235 0)
(1.15756 0.186276 -1.76636e-20)
(1.15336 0.180265 -1.69856e-20)
(1.14938 0.174311 0)
(0.0487113 -0.00336545 0)
(0.181558 -0.00111456 2.05792e-20)
(0.343427 0.0219873 3.80149e-20)
(0.519085 0.0585542 -1.01059e-19)
(0.691924 0.101862 3.27335e-20)
(0.84695 0.145735 0)
(0.973905 0.184834 4.92521e-20)
(1.06874 0.215724 -6.88269e-20)
(1.13298 0.237214 -4.01062e-20)
(1.17175 0.249916 1.81177e-20)
(1.19157 0.255478 -2.92572e-20)
(1.19872 0.255855 7.09005e-20)
(1.19826 0.252826 3.5662e-20)
(1.19376 0.247757 -2.47098e-20)
(1.18748 0.241579 -2.22762e-21)
(1.1807 0.234864 -6.83808e-20)
(1.17405 0.227936 3.12001e-20)
(1.1678 0.220967 -8.43293e-22)
(1.16206 0.214047 0)
(1.15682 0.207225 -2.21073e-20)
(1.15203 0.200528 0)
(1.1476 0.19395 5.09731e-20)
(1.14346 0.18747 -6.10295e-20)
(1.13949 0.181306 2.79553e-20)
(0.0671011 -0.00119847 -1.08261e-20)
(0.231525 0.0092356 -5.19194e-20)
(0.417858 0.0434914 5.9152e-20)
(0.607975 0.0907001 3.46789e-20)
(0.783548 0.14147 -1.65216e-20)
(0.930525 0.188408 2.78761e-20)
(1.04201 0.226442 -1.35013e-20)
(1.11828 0.253397 2.25358e-20)
(1.16459 0.269631 0)
(1.1884 0.277028 5.12751e-20)
(1.19714 0.277997 -2.08938e-21)
(1.19685 0.274766 -4.14445e-20)
(1.19184 0.269061 1.77748e-20)
(1.18479 0.262044 -2.01108e-20)
(1.1772 0.254422 -7.68589e-21)
(1.1698 0.246586 8.87176e-21)
(1.1629 0.238736 -6.85716e-21)
(1.1566 0.230975 -3.75707e-20)
(1.15091 0.223354 2.30232e-20)
(1.14576 0.215903 4.73676e-21)
(1.14109 0.208629 4.19984e-21)
(1.13679 0.201508 3.72931e-21)
(1.13274 0.194576 0)
(1.1288 0.188088 0)
(0.0874144 0.00321399 1.08335e-20)
(0.283955 0.0253577 -1.08035e-20)
(0.491974 0.0724803 -1.97257e-20)
(0.691323 0.130007 0)
(0.863734 0.186313 -8.22297e-21)
(0.99808 0.233744 -7.44559e-21)
(1.09205 0.268444 -1.27347e-20)
(1.15031 0.290034 0)
(1.1811 0.300468 0)
(1.1932 0.30266 0)
(1.19402 0.299446 0)
(1.18889 0.293065 0)
(1.1812 0.28504 -1.11548e-20)
(1.1728 0.27629 5.07831e-21)
(1.16461 0.267314 8.85792e-21)
(1.15701 0.258364 4.15484e-21)
(1.15011 0.249558 1.02848e-20)
(1.14392 0.240953 0)
(1.13839 0.232577 -2.48704e-21)
(1.13344 0.224446 -2.40934e-21)
(1.12897 0.216548 -4.20654e-21)
(1.12487 0.208859 -3.73528e-21)
(1.121 0.20149 0)
(1.1172 0.194559 2.72817e-21)
(-0.00106611 -0.00263566 6.35889e-21)
(-0.005514 -0.00707777 -6.60629e-21)
(-0.0137756 -0.0108757 -1.25176e-20)
(-0.0240019 -0.014023 0)
(-0.0351571 -0.0165807 -1.67664e-20)
(-0.0467 -0.0186574 5.26384e-21)
(-0.0582526 -0.0203782 -9.94308e-21)
(-0.0695525 -0.0218625 0)
(-0.0804333 -0.023209 0)
(-0.090795 -0.0244876 0)
(-0.100579 -0.0257362 0)
(-0.109752 -0.0269644 0)
(-0.118294 -0.0281581 9.00633e-24)
(-0.126191 -0.0292858 -6.51166e-21)
(-0.133431 -0.0303026 1.22204e-20)
(-0.140004 -0.0311538 1.72166e-20)
(-0.145902 -0.0317763 5.36069e-21)
(-0.151127 -0.0320984 0)
(-0.155695 -0.0320404 4.73886e-21)
(-0.159652 -0.0315156 -1.32835e-20)
(-0.163071 -0.0304347 -8.2613e-21)
(-0.166043 -0.028702 -7.71938e-21)
(-0.168754 -0.0261946 0)
(-0.171672 -0.0227995 0)
(-0.00124803 0.000908454 -1.91172e-20)
(-0.00589946 0.00129784 3.29993e-20)
(-0.0142452 0.000674019 -1.24509e-20)
(-0.0244591 -0.000473275 -2.36839e-20)
(-0.0355175 -0.00187652 3.34662e-20)
(-0.0468864 -0.00340781 -2.10949e-20)
(-0.0581925 -0.00501244 2.97819e-20)
(-0.0691769 -0.00667643 1.87485e-20)
(-0.0796765 -0.0084033 0)
(-0.0895934 -0.0101975 -1.66143e-20)
(-0.0988708 -0.0120552 -3.35617e-23)
(-0.107476 -0.0139615 1.46805e-20)
(-0.11539 -0.0158902 2.07336e-20)
(-0.122596 -0.0178047 2.59524e-20)
(-0.129079 -0.0196587 -1.2227e-20)
(-0.134824 -0.0213948 -3.43268e-20)
(-0.139813 -0.0229417 1.06499e-20)
(-0.144033 -0.0242099 -4.009e-20)
(-0.147485 -0.0250862 0)
(-0.150194 -0.0254322 8.82356e-21)
(-0.152208 -0.0250863 8.25063e-21)
(-0.153557 -0.0238612 7.70927e-21)
(-0.154362 -0.0215205 0)
(-0.155433 -0.017863 0)
(-0.00181894 0.00431701 0)
(-0.00707067 0.00937483 6.63347e-20)
(-0.015527 0.0118312 -2.5024e-20)
(-0.0255217 0.0126243 2.3704e-20)
(-0.0361185 0.012335 -6.71442e-20)
(-0.0468303 0.0113221 0)
(-0.0573151 0.00981727 -3.98431e-20)
(-0.0673345 0.00796653 1.87439e-20)
(-0.0767379 0.00586078 -3.53894e-20)
(-0.0854348 0.00355979 1.66938e-20)
(-0.0933723 0.00110793 9.3871e-20)
(-0.100519 -0.00145696 -4.4087e-20)
(-0.106855 -0.00409859 -6.90112e-20)
(-0.112362 -0.00677911 -2.58774e-20)
(-0.117022 -0.00945579 9.15605e-23)
(-0.120811 -0.0120766 9.10751e-20)
(-0.1237 -0.0145739 -4.26996e-20)
(-0.125657 -0.016855 8.92513e-23)
(-0.12665 -0.0187912 0)
(-0.12667 -0.0202052 -3.45705e-20)
(-0.125724 -0.0208628 0)
(-0.123735 -0.0204573 -2.99305e-20)
(-0.120636 -0.0185923 1.11657e-19)
(-0.117633 -0.0149063 -3.82657e-22)
(-0.00272591 0.00738411 0)
(-0.00892928 0.0166992 1.94053e-22)
(-0.0175236 0.0220064 2.53111e-20)
(-0.0271109 0.0246113 -2.39366e-20)
(-0.0369036 0.0253668 2.23308e-20)
(-0.0464964 0.0248404 1.27334e-19)
(-0.0556016 0.0234278 -3.99282e-20)
(-0.0640169 0.0213994 -3.77445e-20)
(-0.0716127 0.0189364 7.08895e-20)
(-0.0783101 0.0161607 -9.99621e-20)
(-0.0840609 0.0131568 3.1377e-20)
(-0.0888347 0.00998536 2.95039e-20)
(-0.0926092 0.00669282 0)
(-0.0953637 0.00331765 2.5914e-20)
(-0.097075 -0.000104041 0)
(-0.0977144 -0.00353239 4.55048e-20)
(-0.0972457 -0.0069158 -8.47881e-20)
(-0.0956227 -0.0101798 2.03924e-20)
(-0.0927896 -0.0132109 7.42467e-20)
(-0.0887031 -0.0158307 3.45386e-20)
(-0.0833378 -0.0177682 0)
(-0.0765563 -0.0185986 -8.86504e-20)
(-0.0679607 -0.0176933 2.79944e-20)
(-0.0585603 -0.0143571 0)
(-0.00388695 0.00995353 0)
(-0.0113187 0.0229097 -8.05312e-20)
(-0.0200734 0.0307109 -2.56327e-20)
(-0.0290868 0.0349225 -4.80092e-20)
(-0.0377611 0.0366104 4.52069e-20)
(-0.0457978 0.0365182 -4.25187e-20)
(-0.0529821 0.0351841 8.04027e-20)
(-0.0591593 0.0329898 3.77923e-20)
(-0.0642276 0.0301995 -1.06676e-19)
(-0.0681212 0.0269943 6.69519e-20)
(-0.0707953 0.0234979 -9.42864e-20)
(-0.0722163 0.0197957 2.06938e-19)
(-0.0723552 0.015947 -1.1095e-19)
(-0.071183 0.0119947 5.20523e-20)
(-0.0686682 0.00797207 1.45833e-19)
(-0.0647748 0.00390886 -4.59147e-20)
(-0.0594621 -0.00016086 -4.30401e-20)
(-0.0526825 -0.00418928 -3.98918e-20)
(-0.0443708 -0.0081057 0)
(-0.0344703 -0.0117887 -6.80264e-20)
(-0.0229571 -0.015014 -6.20774e-20)
(-0.0097695 -0.0173574 8.89756e-20)
(0.00560274 -0.017921 1.07285e-19)
(0.0238525 -0.0148452 -1.00842e-19)
(-0.00520632 0.011933 0)
(-0.0140464 0.0277658 -1.08863e-19)
(-0.0229634 0.0375894 -3.93535e-22)
(-0.0312449 0.0431176 9.66667e-20)
(-0.0385006 0.0455667 0)
(-0.0445528 0.0458173 0)
(-0.0492706 0.0445245 0)
(-0.0525539 0.0421642 -3.79435e-20)
(-0.0543309 0.0390735 -5.08255e-24)
(-0.054547 0.035487 6.73024e-20)
(-0.0531555 0.0315669 -9.4514e-20)
(-0.0501118 0.0274248 6.7233e-23)
(-0.0453704 0.0231377 0)
(-0.0388836 0.0187597 -5.20304e-20)
(-0.0306016 0.0143308 4.85951e-20)
(-0.0204729 0.00988342 -1.3697e-19)
(-0.00844451 0.00544784 1.6971e-19)
(0.00552363 0.00105347 3.84961e-20)
(0.021471 -0.00325888 -1.62797e-21)
(0.039441 -0.00742584 -1.37337e-19)
(0.0594223 -0.0113368 -6.30229e-20)
(0.0813964 -0.0147196 2.02481e-19)
(0.106051 -0.0165403 -1.34565e-19)
(0.135997 -0.0140648 0)
(-0.00659052 0.0132963 5.34567e-20)
(-0.0169057 0.0311555 5.45518e-20)
(-0.025938 0.0424339 -5.21069e-20)
(-0.0333041 0.0489024 -9.77149e-20)
(-0.038817 0.0518719 9.20084e-20)
(-0.0424221 0.0523227 -8.66337e-20)
(-0.0440749 0.0509998 1.2242e-19)
(-0.0437297 0.0484542 -3.79161e-20)
(-0.0413411 0.045083 7.20537e-20)
(-0.0368591 0.041168 0)
(-0.030226 0.0369073 6.35763e-20)
(-0.0213754 0.0324398 -1.19515e-19)
(-0.0102348 0.0278642 1.11499e-19)
(0.00327225 0.0232528 -1.04725e-19)
(0.0192204 0.0186618 0)
(0.0376759 0.0141381 9.12585e-20)
(0.05869 0.00972437 1.69476e-19)
(0.0822931 0.00546269 -1.59075e-19)
(0.108488 0.00140433 -7.34595e-20)
(0.137242 -0.00239635 -6.71212e-20)
(0.168441 -0.00589016 1.89826e-19)
(0.20206 -0.00896935 5.65096e-20)
(0.237124 -0.0111647 -5.42302e-20)
(0.284299 -0.00873472 4.82359e-20)
(-0.00796039 0.0140746 -5.3464e-20)
(-0.0196913 0.033083 1.67118e-19)
(-0.0287003 0.0451798 -5.2674e-20)
(-0.0348846 0.0521369 9.87158e-20)
(-0.0382408 0.0553201 -9.29498e-20)
(-0.0388289 0.0557792 4.2213e-22)
(-0.036683 0.0543243 4.12685e-20)
(-0.0318038 0.0515627 1.54784e-19)
(-0.024162 0.0479393 -1.93522e-22)
(-0.0137016 0.0437758 -6.79746e-20)
(-0.000343469 0.0393035 0)
(0.0160066 0.0346896 -5.9747e-20)
(0.0354493 0.030058 1.12204e-19)
(0.05808 0.0255043 1.04544e-19)
(0.0839769 0.0211068 -4.92051e-20)
(0.113188 0.0169348 1.17403e-23)
(0.145716 0.0130546 -4.25442e-20)
(0.181507 0.00953282 7.90186e-20)
(0.220439 0.00643731 7.34428e-20)
(0.262338 0.0038462 -6.79912e-20)
(0.306712 0.00177422 6.25137e-20)
(0.354437 0.000577822 -5.74369e-20)
(0.399073 -0.000817325 0)
(0.467395 0.00381774 -4.81639e-20)
(-0.00925534 0.0143375 5.46404e-20)
(-0.022199 0.0336398 -5.59626e-20)
(-0.0308965 0.0458844 5.34283e-20)
(-0.035471 0.0528301 0)
(-0.0360754 0.0558779 0)
(-0.0328661 0.0561273 8.88784e-20)
(-0.0259396 0.054434 -8.28866e-20)
(-0.0153269 0.0514465 7.77941e-20)
(-0.00100164 0.0476479 -3.64684e-19)
(0.017107 0.0433942 1.90942e-22)
(0.039098 0.0389484 6.41544e-20)
(0.0650786 0.0345075 0)
(0.0951431 0.030223 -1.12012e-19)
(0.129349 0.0262157 2.09841e-19)
(0.167695 0.0225867 -1.47237e-19)
(0.2101 0.0194237 -2.27526e-19)
(0.256384 0.0168055 1.65428e-21)
(0.306259 0.0148047 1.58429e-19)
(0.359305 0.0134812 0)
(0.415141 0.012959 0)
(0.472313 0.0129782 -6.25059e-20)
(0.533935 0.0148429 5.74284e-20)
(0.584979 0.0148911 -2.06972e-19)
(0.671667 0.0233128 1.94258e-19)
(-0.0104271 0.0141686 0)
(-0.0242078 0.0329637 0)
(-0.0320849 0.0446945 -1.60931e-19)
(-0.0343649 0.0511256 5.11632e-20)
(-0.0313292 0.0536927 3.06305e-22)
(-0.0232095 0.0535364 8.99846e-20)
(-0.0101432 0.0515472 0)
(0.00782475 0.0484064 -7.84776e-20)
(0.030722 0.0446284 7.31196e-20)
(0.0586199 0.0406012 -1.37311e-19)
(0.0915977 0.0366185 2.73285e-22)
(0.129704 0.0329053 1.19965e-19)
(0.172918 0.029636 -6.00819e-22)
(0.221113 0.0269466 1.03927e-19)
(0.274025 0.0249419 -1.47576e-19)
(0.331238 0.0236995 0)
(0.392173 0.0232719 1.68397e-19)
(0.456098 0.0236902 -2.36818e-19)
(0.522101 0.0249343 7.23546e-20)
(0.589491 0.0271575 0)
(0.655789 0.0296456 6.14977e-20)
(0.725685 0.0346314 2.25179e-19)
(0.778941 0.0362297 -2.11325e-19)
(0.870932 0.0478819 -2.38199e-19)
(-0.0114235 0.0136405 1.68859e-19)
(-0.0254457 0.0312009 -2.32399e-19)
(-0.0316909 0.041813 3.99465e-22)
(-0.0306376 0.0472863 5.17678e-20)
(-0.0226734 0.049105 -9.659e-20)
(-0.00808489 0.0484517 -8.9501e-20)
(0.0129614 0.0462491 1.67941e-19)
(0.0404017 0.0432067 -1.27293e-21)
(0.0742319 0.0398677 -1.47768e-19)
(0.11445 0.0366464 2.75396e-19)
(0.160993 0.0338576 -8.143e-22)
(0.213678 0.0317371 -1.20761e-19)
(0.272145 0.0304542 0)
(0.335825 0.0301184 0)
(0.403924 0.0307837 -4.88748e-20)
(0.47543 0.0324504 -9.03906e-20)
(0.549146 0.0350694 -1.67243e-19)
(0.62374 0.0385463 1.56987e-19)
(0.69779 0.0427313 -7.23804e-20)
(0.77008 0.0475935 1.31572e-19)
(0.838341 0.0524193 -6.40593e-20)
(0.905497 0.0589287 1.08955e-19)
(0.956137 0.0617959 -2.59872e-19)
(1.03414 0.0736066 4.73618e-20)
(-0.0121603 0.0127962 5.70688e-20)
(-0.025542 0.0284725 0)
(-0.0289581 0.0374723 1.10708e-19)
(-0.0230854 0.0416879 -1.04292e-19)
(-0.00841565 0.0426646 9.66778e-20)
(0.0147124 0.0416321 0)
(0.0460836 0.0395444 0)
(0.0855547 0.0371345 -7.91284e-20)
(0.132972 0.0349612 9.55909e-22)
(0.188075 0.0334432 6.98056e-20)
(0.250409 0.0328803 -6.42339e-20)
(0.319255 0.0334657 1.20988e-19)
(0.393591 0.0352923 0)
(0.472094 0.0383575 2.08044e-19)
(0.553184 0.0425701 -3.8851e-19)
(0.635093 0.0477588 2.71801e-19)
(0.715973 0.0536908 1.6554e-19)
(0.793991 0.0600725 -1.55392e-19)
(0.867488 0.0666394 0)
(0.934917 0.0729737 0)
(0.995306 0.0790047 0)
(1.04818 0.0843249 0)
(1.08991 0.088063 5.1132e-20)
(1.13826 0.0948668 -1.85741e-19)
(-0.175936 -0.0179889 -4.79109e-21)
(-0.181349 -0.0115662 4.81317e-21)
(-0.186436 -0.00348524 -1.43002e-22)
(-0.19151 0.00629941 0)
(-0.196587 0.0177154 -4.3509e-21)
(-0.201616 0.0307273 8.44118e-21)
(-0.206542 0.0451925 -2.06604e-23)
(-0.211303 0.0608741 -3.96009e-21)
(-0.215824 0.0774191 0)
(-0.220005 0.0943373 0)
(-0.223715 0.110991 -2.20227e-22)
(-0.226778 0.126589 -2.13855e-22)
(-0.228959 0.140183 -3.54622e-21)
(-0.22995 0.150666 3.24445e-21)
(-0.229347 0.156822 0)
(-0.226653 0.157397 0)
(-0.221306 0.151196 2.98342e-21)
(-0.212743 0.137215 2.964e-24)
(-0.200456 0.114813 -2.63782e-21)
(-0.183933 0.0838343 -1.77016e-22)
(-0.163097 0.0454515 0)
(-0.138593 0.0010404 0)
(-0.111096 -0.0473126 0)
(-0.0811181 -0.0963736 0)
(-0.0504765 -0.140948 0)
(-0.0213522 -0.178034 0)
(0.00477039 -0.204578 3.62522e-22)
(0.0272924 -0.218542 -6.03388e-22)
(0.0475651 -0.218781 0)
(0.0691026 -0.204656 0)
(0.0970545 -0.176531 -8.72526e-23)
(0.13562 -0.136302 8.47966e-23)
(0.185986 -0.0885013 -6.98756e-24)
(0.245567 -0.0390791 0)
(0.30903 0.00594827 0)
(0.371172 0.0422801 -9.65095e-23)
(0.427391 0.0674192 9.38081e-23)
(0.475656 0.0819139 0)
(0.515369 0.0866149 -1.14803e-22)
(0.548382 0.0839233 1.67455e-22)
(0.576906 0.0749077 -5.23958e-23)
(0.603937 0.0619413 0)
(0.631049 0.0457709 8.45787e-23)
(0.659186 0.0291289 -8.22421e-23)
(0.687362 0.0126253 0)
(0.714869 -0.00103874 0)
(0.739755 -0.0122474 2.57489e-23)
(0.762385 -0.0190529 -7.21054e-23)
(0.781203 -0.0230153 0)
(0.798946 -0.022821 0)
(0.813453 -0.0205884 1.44197e-23)
(0.829853 -0.0153139 1.22666e-25)
(0.842824 -0.00930987 1.74968e-24)
(0.860288 -0.00206531 -8.33219e-24)
(0.871572 0.00437827 0)
(0.889732 0.0102945 0)
(0.897566 0.014687 0)
(0.915468 0.0177913 0)
(0.919025 0.0196812 0)
(0.93683 0.0205222 0)
(-0.158687 -0.01248 -4.51958e-22)
(-0.163753 -0.00635769 -1.86331e-20)
(-0.168078 0.0013892 2.74392e-22)
(-0.172376 0.01086 1.723e-20)
(-0.176601 0.0219771 2.58546e-22)
(-0.18064 0.0346698 0)
(-0.18439 0.0487787 -1.54732e-20)
(-0.18772 0.0640561 3.05002e-20)
(-0.190475 0.0801375 -1.50252e-20)
(-0.192466 0.0965121 1.43469e-20)
(-0.193458 0.112514 -1.37249e-20)
(-0.193172 0.127317 1.34335e-20)
(-0.191286 0.139928 -1.30492e-20)
(-0.18743 0.149195 -4.08234e-22)
(-0.181171 0.153855 -1.2926e-20)
(-0.172047 0.152632 1.25618e-20)
(-0.159614 0.144334 -1.25899e-20)
(-0.143532 0.128009 1.18399e-20)
(-0.123677 0.103144 -1.23089e-20)
(-0.0996377 0.0695239 2.36893e-20)
(-0.0717461 0.0290929 -1.1397e-20)
(-0.041027 -0.0173722 -6.91569e-22)
(-0.00849301 -0.0667896 -9.44449e-21)
(0.0255772 -0.115597 1.74487e-20)
(0.059418 -0.159585 -8.03743e-21)
(0.0899359 -0.194889 3.96048e-22)
(0.115279 -0.218717 4.36844e-21)
(0.133813 -0.229791 -1.00691e-21)
(0.145747 -0.228211 -4.82712e-21)
(0.153504 -0.214382 2.93756e-21)
(0.162329 -0.189028 -1.03681e-21)
(0.178182 -0.153203 1.54423e-24)
(0.205523 -0.109783 7.00152e-24)
(0.244776 -0.0631443 -8.10829e-23)
(0.292854 -0.0188242 0)
(0.344862 0.0189751 0)
(0.396092 0.0469815 4.73564e-22)
(0.443551 0.0647845 -3.3917e-22)
(0.486192 0.0724361 -3.45674e-22)
(0.524841 0.0718697 -4.22991e-23)
(0.561192 0.0640444 4.76946e-22)
(0.596817 0.0515851 -9.23863e-23)
(0.632439 0.0356373 0)
(0.667594 0.0193408 0)
(0.701003 0.00352367 0)
(0.731448 -0.00908885 0)
(0.757475 -0.019059 -1.0376e-22)
(0.779484 -0.0246284 4.71073e-23)
(0.796573 -0.0275937 0)
(0.811569 -0.0266231 0)
(0.82284 -0.0240265 0)
(0.835758 -0.0184927 2.28967e-23)
(0.845373 -0.0125146 -3.42152e-24)
(0.860101 -0.00510027 1.81067e-23)
(0.869098 0.00135369 0)
(0.886124 0.00758765 0)
(0.892971 0.012127 -7.60893e-24)
(0.911134 0.0155946 -1.81062e-23)
(0.914451 0.0176658 0)
(0.933216 0.018749 0)
(-0.118258 -0.00895086 -3.88887e-23)
(-0.122744 -0.00320784 -3.68409e-20)
(-0.125786 0.00401545 3.56186e-20)
(-0.128621 0.0130522 -3.33186e-20)
(-0.131296 0.0237417 -2.60316e-22)
(-0.133622 0.0359856 0)
(-0.135443 0.0496028 -3.07401e-20)
(-0.136569 0.0643322 3.01033e-20)
(-0.136796 0.0797966 2.28505e-22)
(-0.135879 0.0954621 4.31991e-22)
(-0.133519 0.110634 4.23654e-22)
(-0.129376 0.124452 4.2424e-22)
(-0.123097 0.135879 -2.68295e-20)
(-0.114319 0.143756 2.64848e-20)
(-0.102645 0.146821 0)
(-0.0877014 0.143813 8.24859e-22)
(-0.0691915 0.133582 -2.64206e-20)
(-0.0469679 0.115235 2.60696e-20)
(-0.0214126 0.0883215 0)
(0.00811068 0.0533325 0)
(0.0410615 0.0113964 -2.47588e-20)
(0.0758477 -0.036506 4.71252e-20)
(0.11206 -0.0868764 -4.20304e-20)
(0.148694 -0.13526 2.61157e-21)
(0.184186 -0.178428 3.14406e-20)
(0.215895 -0.211668 -2.64551e-20)
(0.241533 -0.232232 1.94628e-20)
(0.259089 -0.239289 -2.92558e-21)
(0.267848 -0.233932 -5.83303e-21)
(0.268651 -0.218012 0)
(0.265273 -0.193254 0)
(0.26346 -0.160679 -2.89898e-22)
(0.269651 -0.121913 3.0219e-22)
(0.287389 -0.0795543 -2.4019e-23)
(0.316906 -0.0379063 -9.65107e-22)
(0.354997 -0.000871322 9.37899e-22)
(0.397805 0.028025 0)
(0.441743 0.0475167 -1.21629e-22)
(0.485315 0.0568983 -1.04791e-21)
(0.527956 0.0576595 1.98006e-21)
(0.570378 0.0506746 -8.33592e-22)
(0.612427 0.0387984 -8.44097e-23)
(0.653884 0.0234788 7.77279e-22)
(0.693147 0.00811973 -6.02438e-22)
(0.728914 -0.00632273 -1.25377e-22)
(0.759796 -0.0173273 -1.12509e-22)
(0.78498 -0.025671 1.04021e-22)
(0.805 -0.0297106 0)
(0.819518 -0.0314823 0)
(0.831302 -0.0296112 2.78636e-22)
(0.839105 -0.0265989 -1.32033e-22)
(0.848269 -0.0208209 1.07018e-22)
(0.854251 -0.0149618 -1.34401e-22)
(0.865679 -0.00751236 -1.42949e-22)
(0.871899 -0.00124149 3.32252e-23)
(0.886985 0.00516706 -4.75666e-23)
(0.892374 0.00970863 3.59816e-23)
(0.909979 0.0134461 -1.54647e-23)
(0.912804 0.0156329 0)
(0.931758 0.0169197 0)
(-0.0556159 -0.00756392 -7.47363e-20)
(-0.0598935 -0.00218904 1.62472e-21)
(-0.0618832 0.00426471 6.92801e-20)
(-0.0631816 0.0126358 -5.28208e-22)
(-0.0641971 0.0226852 0)
(-0.0646636 0.0342786 0)
(-0.0643708 0.047207 -6.01081e-20)
(-0.0630901 0.0611976 -4.24029e-22)
(-0.0605988 0.0758589 8.50326e-20)
(-0.0566454 0.0906369 -1.93369e-22)
(-0.0509187 0.104819 -2.73701e-20)
(-0.0430799 0.117532 -2.62686e-20)
(-0.032777 0.127746 2.63355e-20)
(-0.0196678 0.134306 0)
(-0.00343494 0.135965 -2.72094e-20)
(0.0161895 0.1315 2.47594e-20)
(0.0393633 0.119813 0)
(0.0660807 0.100051 0)
(0.0960137 0.0717816 2.72227e-20)
(0.129162 0.0361091 1.35782e-22)
(0.164743 -0.00700552 -2.50391e-20)
(0.201809 -0.0554624 -2.44852e-20)
(0.239939 -0.106084 2.44896e-20)
(0.277736 -0.154667 -1.92878e-20)
(0.313637 -0.196954 3.13681e-21)
(0.345246 -0.228293 1.50848e-20)
(0.370357 -0.245754 1.30205e-21)
(0.387232 -0.248738 -9.58194e-24)
(0.39519 -0.238989 0)
(0.394249 -0.219409 1.61947e-21)
(0.386389 -0.192928 -1.61755e-21)
(0.375471 -0.161351 -2.27997e-23)
(0.367611 -0.125997 0)
(0.368008 -0.0881321 1.06238e-22)
(0.380041 -0.0505013 -2.18998e-21)
(0.40315 -0.0161309 4.06255e-21)
(0.435325 0.0116354 2.68715e-22)
(0.473121 0.0310837 -6.95825e-23)
(0.5148 0.0408915 -1.72229e-21)
(0.558429 0.0421958 -2.19912e-22)
(0.603551 0.0357852 1.49749e-21)
(0.648384 0.0246358 -1.27713e-21)
(0.691875 0.0103561 -8.24661e-24)
(0.731713 -0.00341825 -5.28447e-22)
(0.766716 -0.0160572 6.39546e-22)
(0.795611 -0.0251434 7.58907e-22)
(0.81822 -0.0316596 -2.18657e-22)
(0.835238 -0.0340634 -3.46159e-22)
(0.846728 -0.0345852 6.44659e-22)
(0.855279 -0.0317768 -4.42885e-22)
(0.859854 -0.0283257 1.11078e-22)
(0.865519 -0.0223096 -1.35291e-22)
(0.868109 -0.0166226 -1.05095e-22)
(0.876155 -0.0092396 2.1982e-22)
(0.87951 -0.00329599 -6.87939e-24)
(0.892141 0.00313986 4.87156e-23)
(0.895805 0.00754621 0)
(0.91212 0.0114444 1.55549e-23)
(0.91427 0.0136748 -1.95221e-23)
(0.932631 0.015108 0)
(0.030577 -0.00783856 7.45395e-20)
(0.0254825 -0.00257824 -1.4415e-19)
(0.0231777 0.00299869 6.89033e-20)
(0.0225323 0.010225 6.55783e-20)
(0.0223959 0.0192611 -1.27318e-19)
(0.0230359 0.0298935 9.56315e-22)
(0.024738 0.0418525 5.95986e-20)
(0.0277738 0.0548521 5.72531e-20)
(0.0323662 0.0685084 -5.60874e-20)
(0.0387469 0.0822654 0)
(0.0472078 0.0954043 -5.45175e-20)
(0.0580683 0.107045 1.07307e-19)
(0.0716234 0.116165 -5.28025e-20)
(0.0881261 0.121612 0)
(0.107806 0.122187 0)
(0.130841 0.11672 8.5723e-22)
(0.157275 0.104163 -5.68763e-20)
(0.186994 0.0837099 5.52507e-20)
(0.219699 0.0549624 0)
(0.255052 0.0185101 5.72551e-20)
(0.292374 -0.0251106 -1.07142e-19)
(0.330847 -0.0735395 1.01416e-19)
(0.369729 -0.12412 -9.46875e-20)
(0.407614 -0.172516 4.57796e-21)
(0.442689 -0.213907 7.1519e-20)
(0.472589 -0.243484 -3.24081e-20)
(0.49536 -0.258256 -6.68169e-22)
(0.509897 -0.257856 -5.83857e-21)
(0.516287 -0.244366 2.42375e-21)
(0.514878 -0.221163 3.59842e-21)
(0.506849 -0.191934 4.46185e-23)
(0.494093 -0.15941 1.08899e-21)
(0.480756 -0.125422 -2.86157e-21)
(0.471484 -0.0908488 2.00727e-21)
(0.471145 -0.0572818 0)
(0.481581 -0.0265627 2.61583e-21)
(0.503065 -0.00152624 -2.54205e-21)
(0.533114 0.0164649 1.76956e-21)
(0.570171 0.0255965 -2.21111e-21)
(0.611403 0.0267805 2.0802e-22)
(0.655322 0.0207339 0)
(0.698941 0.0104021 1.61617e-22)
(0.740643 -0.00234298 -4.37815e-22)
(0.777743 -0.0142405 0)
(0.809272 -0.024925 -1.15079e-21)
(0.834313 -0.0320052 4.61311e-22)
(0.853134 -0.0367091 -1.98378e-22)
(0.866581 -0.0375519 -1.75301e-22)
(0.874944 -0.0368997 0)
(0.880565 -0.0332044 0)
(0.882466 -0.0293273 3.60046e-22)
(0.885263 -0.023077 -5.37804e-22)
(0.885097 -0.0175758 2.86889e-22)
(0.890115 -0.0103135 -8.88736e-23)
(0.890901 -0.00477187 -1.35544e-22)
(0.900901 0.00155818 -4.87617e-23)
(0.902821 0.00571759 7.27829e-23)
(0.917305 0.00966679 0)
(0.918699 0.0118725 3.22175e-23)
(0.935778 0.0133844 9.51481e-24)
(0.143849 -0.00766366 7.49715e-20)
(0.137825 -0.00252906 -7.43777e-20)
(0.13267 0.00186747 5.43817e-22)
(0.130484 0.00751303 -5.13435e-22)
(0.129603 0.0151047 4.99641e-22)
(0.12968 0.0243666 -4.80758e-22)
(0.131098 0.0349671 9.11794e-22)
(0.134251 0.0466224 0)
(0.139401 0.0589872 -8.62009e-22)
(0.146756 0.0715267 8.4661e-22)
(0.156558 0.0835224 8.37851e-22)
(0.169074 0.0940879 -8.4661e-22)
(0.184539 0.102191 0)
(0.20314 0.106701 0)
(0.225013 0.106473 8.62352e-22)
(0.250226 0.100383 0)
(0.278731 0.0874121 -8.92692e-22)
(0.310344 0.0667609 0)
(0.344727 0.0380447 -5.67037e-20)
(0.381505 0.00155351 1.12408e-19)
(0.419982 -0.0417501 -1.09038e-19)
(0.459222 -0.0899467 5.34901e-20)
(0.49823 -0.140142 4.6634e-20)
(0.535348 -0.187958 -4.5282e-20)
(0.568412 -0.228242 -3.48527e-20)
(0.595 -0.25604 3.36561e-20)
(0.613499 -0.268446 0)
(0.623603 -0.265424 5.09331e-22)
(0.626422 -0.249309 0)
(0.623223 -0.223573 0)
(0.615407 -0.192079 1.29078e-22)
(0.603936 -0.158034 -2.4036e-22)
(0.590995 -0.123918 -1.76805e-22)
(0.579368 -0.0909441 -2.58413e-22)
(0.573381 -0.060349 2.85171e-22)
(0.575862 -0.0330804 2.36239e-21)
(0.588902 -0.0112133 -2.29382e-21)
(0.611344 0.00423022 2.2701e-21)
(0.642145 0.0119926 -1.94875e-21)
(0.678319 0.0126001 -4.10841e-22)
(0.71774 0.00670673 1.37754e-21)