/*--------------------------------*- C++ -*----------------------------------*\
| =========                 |                                                 |
| \\      /  F ield         | OpenFOAM: The Open Source CFD Toolbox           |
|  \\    /   O peration     | Version:  2512                                  |
|   \\  /    A nd           | Website:  www.openfoam.com                      |
|    \\/     M anipulation  |                                                 |
\*---------------------------------------------------------------------------*/
FoamFile
{
    version     2.0;
    format      ascii;
    arch        "LSB;label=32;scalar=64";
    class       volScalarField;
    location    "173.75";
    object      p;
}
// * * * * * * * * * * * * * * * * * * * * * * * * * * * * * * * * * * * * * //

dimensions      [0 2 -2 0 0 0 0];

internalField   nonuniform List<scalar> 
13248
(
-0.374297
-0.372891
-0.371345
-0.369675
-0.367799
-0.365588
-0.362831
-0.359268
-0.354626
-0.348652
-0.341151
-0.33201
-0.321225
-0.308905
-0.295268
-0.28061
-0.265276
-0.249626
-0.233993
-0.21868
-0.203884
-0.189858
-0.176421
-0.16393
-0.382926
-0.380515
-0.378006
-0.375398
-0.372587
-0.369457
-0.365796
-0.361326
-0.355758
-0.348841
-0.3404
-0.330371
-0.318816
-0.305914
-0.291934
-0.277202
-0.26206
-0.246832
-0.2318
-0.217191
-0.203161
-0.189852
-0.177179
-0.165381
-0.392299
-0.38883
-0.385301
-0.381691
-0.377871
-0.373727
-0.369034
-0.363494
-0.356804
-0.348727
-0.339139
-0.328048
-0.315596
-0.302031
-0.287666
-0.272836
-0.257858
-0.243008
-0.228504
-0.214512
-0.20113
-0.188454
-0.176392
-0.165037
-0.402732
-0.39812
-0.393524
-0.388878
-0.383988
-0.378718
-0.372818
-0.365963
-0.357862
-0.348328
-0.337323
-0.324958
-0.311469
-0.297166
-0.282384
-0.26744
-0.252606
-0.238091
-0.22405
-0.210585
-0.197753
-0.18561
-0.174062
-0.163259
-0.414471
-0.408607
-0.402902
-0.397187
-0.391144
-0.384587
-0.377227
-0.368736
-0.358876
-0.347568
-0.334905
-0.32112
-0.306534
-0.291494
-0.27632
-0.261281
-0.246581
-0.23236
-0.21871
-0.205682
-0.193301
-0.181586
-0.170466
-0.160062
-0.427611
-0.420393
-0.413538
-0.4067
-0.399368
-0.391274
-0.382104
-0.371584
-0.359598
-0.346232
-0.33174
-0.316471
-0.300799
-0.285062
-0.269531
-0.254404
-0.23981
-0.225824
-0.212485
-0.199808
-0.187793
-0.17643
-0.165671
-0.155606
-0.442051
-0.433407
-0.425363
-0.417304
-0.408458
-0.398469
-0.387059
-0.374089
-0.359647
-0.344029
-0.327644
-0.310921
-0.294233
-0.277867
-0.262019
-0.246806
-0.232287
-0.218484
-0.205395
-0.193007
-0.181298
-0.170243
-0.159808
-0.150025
-0.457466
-0.44738
-0.438105
-0.42866
-0.417967
-0.405632
-0.391511
-0.375707
-0.35858
-0.340639
-0.322408
-0.304331
-0.286732
-0.269813
-0.253683
-0.238383
-0.223915
-0.210256
-0.197375
-0.185235
-0.1738
-0.163032
-0.152905
-0.143387
-0.473297
-0.461822
-0.45126
-0.440181
-0.427215
-0.412032
-0.394764
-0.375858
-0.355966
-0.335769
-0.315833
-0.296555
-0.278168
-0.260778
-0.244409
-0.229036
-0.214614
-0.201085
-0.188396
-0.17649
-0.165319
-0.154838
-0.145015
-0.135762
-0.488751
-0.476001
-0.464064
-0.451019
-0.435297
-0.416799
-0.396079
-0.373982
-0.351417
-0.329153
-0.307723
-0.287427
-0.268388
-0.250616
-0.23406
-0.218645
-0.204284
-0.190897
-0.178406
-0.166742
-0.155843
-0.14566
-0.136138
-0.12716
-0.502822
-0.488942
-0.475494
-0.460087
-0.441135
-0.418968
-0.394669
-0.369471
-0.344456
-0.320391
-0.29771
-0.276589
-0.257039
-0.238986
-0.222317
-0.206913
-0.19266
-0.179453
-0.167198
-0.155811
-0.145222
-0.135367
-0.126163
-0.117503
-0.514387
-0.499566
-0.484447
-0.466261
-0.443643
-0.417551
-0.389661
-0.361539
-0.334342
-0.308755
-0.28507
-0.263328
-0.243432
-0.225231
-0.208561
-0.193267
-0.179208
-0.166261
-0.154318
-0.143283
-0.133079
-0.123628
-0.114822
-0.106603
-0.351453
-0.353439
-0.354576
-0.355333
-0.356182
-0.357316
-0.358818
-0.360716
-0.363005
-0.365664
-0.368668
-0.371987
-0.375583
-0.379402
-0.383368
-0.387377
-0.39129
-0.394932
-0.398095
-0.400546
-0.402025
-0.402313
-0.40144
-0.397935
-0.344497
-0.347242
-0.348781
-0.349706
-0.350563
-0.351529
-0.352659
-0.353956
-0.355387
-0.356901
-0.358438
-0.359934
-0.361316
-0.362502
-0.363397
-0.363893
-0.363863
-0.363169
-0.36167
-0.359219
-0.355626
-0.350644
-0.344357
-0.338088
-0.338733
-0.342061
-0.343914
-0.344967
-0.345811
-0.346596
-0.347348
-0.348044
-0.34862
-0.348995
-0.349073
-0.348754
-0.347934
-0.346501
-0.344344
-0.341348
-0.3374
-0.332393
-0.326237
-0.31886
-0.310133
-0.299748
-0.287679
-0.278122
-0.334665
-0.338365
-0.340428
-0.34157
-0.342389
-0.343004
-0.34341
-0.343555
-0.343349
-0.342677
-0.341414
-0.339428
-0.336587
-0.33276
-0.327824
-0.321667
-0.314196
-0.30534
-0.29507
-0.28341
-0.2704
-0.255942
-0.240256
-0.226077
-0.332624
-0.336463
-0.338623
-0.339811
-0.340596
-0.341063
-0.341173
-0.340845
-0.339962
-0.338383
-0.335957
-0.332527
-0.327942
-0.32206
-0.314757
-0.305937
-0.295536
-0.283532
-0.269954
-0.254904
-0.238556
-0.220988
-0.202135
-0.183668
-0.33274
-0.336486
-0.338622
-0.339804
-0.340544
-0.340882
-0.340748
-0.340033
-0.338596
-0.336272
-0.332889
-0.328274
-0.322264
-0.314714
-0.305514
-0.294593
-0.281931
-0.267569
-0.251613
-0.234251
-0.215776
-0.196516
-0.176593
-0.156967
-0.334945
-0.338374
-0.340362
-0.341476
-0.342144
-0.342363
-0.342029
-0.341008
-0.339135
-0.336228
-0.332096
-0.326555
-0.31944
-0.310615
-0.299988
-0.287525
-0.27326
-0.257302
-0.239838
-0.221134
-0.201541
-0.181435
-0.161176
-0.140344
-0.338998
-0.341907
-0.343616
-0.344584
-0.345133
-0.345217
-0.344703
-0.343429
-0.341211
-0.337849
-0.33314
-0.326897
-0.318957
-0.3092
-0.297566
-0.284068
-0.2688
-0.251945
-0.23377
-0.214617
-0.194909
-0.174929
-0.155863
-0.134949
-0.344526
-0.346747
-0.34805
-0.34877
-0.349119
-0.349012
-0.34829
-0.346767
-0.344236
-0.340482
-0.335298
-0.328493
-0.319919
-0.309483
-0.297166
-0.283038
-0.26726
-0.250091
-0.231867
-0.212978
-0.193957
-0.174818
-0.157594
-0.138227
-0.351117
-0.352524
-0.353289
-0.35363
-0.353658
-0.353256
-0.352241
-0.350404
-0.347519
-0.343361
-0.337714
-0.3304
-0.32129
-0.31033
-0.297555
-0.283099
-0.267192
-0.250155
-0.232377
-0.214259
-0.196371
-0.178633
-0.163051
-0.146177
-0.358404
-0.358913
-0.35901
-0.358818
-0.358362
-0.357509
-0.356058
-0.353783
-0.350441
-0.345795
-0.339635
-0.331795
-0.322181
-0.310787
-0.297708
-0.283142
-0.267376
-0.250771
-0.233728
-0.21665
-0.199996
-0.183882
-0.169522
-0.155032
-0.366151
-0.365711
-0.365021
-0.364137
-0.363022
-0.361543
-0.359492
-0.356627
-0.352692
-0.347443
-0.340675
-0.332246
-0.322102
-0.310291
-0.29697
-0.282389
-0.266874
-0.250797
-0.23453
-0.218445
-0.202844
-0.188023
-0.174465
-0.161851
-0.392531
-0.382917
-0.368452
-0.349162
-0.325611
-0.299292
-0.272467
-0.247807
-0.2278
-0.215358
-0.212295
-0.218811
-0.23288
-0.250069
-0.264194
-0.26862
-0.258347
-0.232912
-0.197192
-0.15963
-0.127529
-0.104454
-0.0907963
-0.0853412
-0.0867814
-0.0953603
-0.112267
-0.134839
-0.153915
-0.158663
-0.14646
-0.12355
-0.0995698
-0.0814539
-0.0711189
-0.0672652
-0.0699685
-0.0812471
-0.0988548
-0.112354
-0.111305
-0.0975902
-0.0791211
-0.0642766
-0.0542498
-0.0503207
-0.0529817
-0.057678
-0.0582854
-0.0545062
-0.0477631
-0.0424692
-0.0380855
-0.0357602
-0.0358689
-0.0356735
-0.031471
-0.0264557
-0.015567
-0.00269841
-0.330912
-0.321659
-0.30932
-0.29397
-0.276265
-0.257358
-0.239265
-0.224545
-0.214332
-0.212056
-0.218653
-0.233348
-0.253304
-0.273779
-0.288812
-0.292237
-0.279646
-0.250681
-0.210853
-0.169255
-0.133536
-0.107203
-0.0904178
-0.0818846
-0.0802272
-0.0852612
-0.09802
-0.116773
-0.133897
-0.139732
-0.130628
-0.111845
-0.0917878
-0.0770873
-0.0696564
-0.0683039
-0.0736047
-0.0877065
-0.107845
-0.122783
-0.121207
-0.105548
-0.0841264
-0.0664437
-0.0539642
-0.0479176
-0.0482969
-0.0511342
-0.0513975
-0.0485078
-0.0439101
-0.0403813
-0.0383136
-0.0380401
-0.0394866
-0.0400869
-0.0350583
-0.0293476
-0.0169162
-0.00267802
-0.26913
-0.259516
-0.248796
-0.236793
-0.224524
-0.213045
-0.203414
-0.197626
-0.197633
-0.205061
-0.220154
-0.241435
-0.265637
-0.288167
-0.303638
-0.30661
-0.292677
-0.261631
-0.219348
-0.175259
-0.137139
-0.108429
-0.0891139
-0.0778393
-0.0732179
-0.0748035
-0.0834058
-0.0981827
-0.11314
-0.119765
-0.113704
-0.0989824
-0.0828534
-0.0716172
-0.0671518
-0.0683553
-0.0762346
-0.0929841
-0.115419
-0.131759
-0.129915
-0.112599
-0.0885127
-0.068166
-0.0534115
-0.0454622
-0.0437999
-0.0449296
-0.0448062
-0.0425949
-0.0399419
-0.0381013
-0.0384493
-0.0403186
-0.0430686
-0.044389
-0.038499
-0.0320937
-0.0182135
-0.00266856
-0.214842
-0.203826
-0.194406
-0.184865
-0.175986
-0.172866
-0.16993
-0.172009
-0.180445
-0.195617
-0.217059
-0.242864
-0.269719
-0.293358
-0.309025
-0.311907
-0.297528
-0.265774
-0.222689
-0.177717
-0.138515
-0.108372
-0.0872076
-0.0736749
-0.0664107
-0.0647886
-0.0694209
-0.0801828
-0.0926621
-0.0995768
-0.0962694
-0.0854001
-0.0730544
-0.0651842
-0.0635957
-0.0672533
-0.077525
-0.0966517
-0.121209
-0.138981
-0.137167
-0.118564
-0.0921951
-0.0694439
-0.0526323
-0.0430171
-0.0395882
-0.0391815
-0.0386232
-0.0368537
-0.035917
-0.0356518
-0.0384856
-0.0425708
-0.0465829
-0.0485375
-0.0417508
-0.0346606
-0.0194417
-0.00266756
-0.171353
-0.159079
-0.15151
-0.144232
-0.13958
-0.138697
-0.141696
-0.150015
-0.164332
-0.184648
-0.21004
-0.238387
-0.266507
-0.290548
-0.306228
-0.309078
-0.294884
-0.263669
-0.221405
-0.177166
-0.138153
-0.107435
-0.0850212
-0.0697192
-0.0602336
-0.0558211
-0.0567983
-0.0636018
-0.073331
-0.0799759
-0.078902
-0.0715108
-0.0626469
-0.0578914
-0.0589524
-0.0648458
-0.0772318
-0.0984412
-0.124934
-0.144146
-0.142733
-0.123307
-0.0951233
-0.070305
-0.0516814
-0.0406329
-0.0357103
-0.0339598
-0.0329372
-0.0313712
-0.0318935
-0.0330541
-0.038411
-0.0447656
-0.0499881
-0.0524793
-0.0447689
-0.0370152
-0.0205845
-0.0026725
-0.150462
-0.132905
-0.122395
-0.115896
-0.113092
-0.114642
-0.121042
-0.132828
-0.150309
-0.17317
-0.200234
-0.229355
-0.257579
-0.281602
-0.296745
-0.2995
-0.28593
-0.256265
-0.216236
-0.174155
-0.136466
-0.105967
-0.0828477
-0.0662066
-0.0549085
-0.0481754
-0.046041
-0.049107
-0.0558683
-0.0616895
-0.0622529
-0.0577318
-0.0518951
-0.0498731
-0.0532623
-0.061113
-0.0752839
-0.0982134
-0.126383
-0.147065
-0.146512
-0.126739
-0.0972539
-0.0707696
-0.0506006
-0.0383385
-0.032183
-0.0292931
-0.0278088
-0.0262227
-0.0279246
-0.0303298
-0.0382081
-0.046859
-0.0532353
-0.0561608
-0.0475131
-0.0391273
-0.0216238
-0.00267949
-0.132267
-0.116916
-0.105847
-0.099438
-0.0973622
-0.0999843
-0.107603
-0.120539
-0.138863
-0.162064
-0.188906
-0.217303
-0.244527
-0.268457
-0.282088
-0.284613
-0.272039
-0.244804
-0.208163
-0.169353
-0.133882
-0.104268
-0.0809218
-0.0633133
-0.0505635
-0.0419232
-0.0372296
-0.0370089
-0.0407613
-0.0453139
-0.0472927
-0.0444451
-0.0411232
-0.0413658
-0.0466934
-0.0561573
-0.0716963
-0.0959132
-0.12548
-0.147686
-0.148451
-0.128797
-0.0985454
-0.0708456
-0.0494181
-0.0361485
-0.0289928
-0.0251664
-0.0232649
-0.0214666
-0.0240604
-0.0275015
-0.0378528
-0.0487975
-0.0562821
-0.0595321
-0.0499443
-0.0409708
-0.0225431
-0.00268274
-0.127797
-0.114306
-0.101236
-0.0933541
-0.0908147
-0.0931286
-0.100343
-0.112666
-0.130052
-0.151921
-0.177088
-0.203571
-0.228538
-0.247986
-0.263002
-0.265705
-0.254577
-0.230503
-0.198081
-0.163286
-0.13065
-0.102439
-0.0792906
-0.061062
-0.0471936
-0.0370344
-0.030295
-0.0273287
-0.028242
-0.0311338
-0.0330937
-0.0319557
-0.0307053
-0.0326812
-0.039476
-0.050144
-0.066615
-0.091632
-0.122299
-0.146063
-0.148533
-0.129436
-0.0989707
-0.0705424
-0.0481578
-0.0340737
-0.0261247
-0.0215446
-0.0192951
-0.0171394
-0.0203474
-0.0245941
-0.0373161
-0.0505255
-0.0590887
-0.0625466
-0.0520278
-0.042526
-0.0233348
-0.00267613
-0.132231
-0.120509
-0.105601
-0.0958342
-0.0919566
-0.0927004
-0.0981427
-0.108476
-0.123582
-0.142867
-0.165273
-0.189149
-0.212296
-0.229855
-0.241995
-0.244366
-0.234978
-0.214578
-0.186858
-0.156456
-0.127003
-0.100563
-0.0779908
-0.059483
-0.0448087
-0.0334834
-0.0251536
-0.0199925
-0.0183618
-0.0193774
-0.0208152
-0.0207643
-0.021
-0.0241338
-0.0318916
-0.0432924
-0.0601598
-0.0855332
-0.11704
-0.142297
-0.146893
-0.12869
-0.0985915
-0.0699568
-0.046919
-0.0321625
-0.0235866
-0.0184172
-0.0158884
-0.0132277
-0.0168284
-0.0216308
-0.0365664
-0.0519853
-0.0616051
-0.0651648
-0.053745
-0.04378
-0.0240005
-0.00265656
-0.140133
-0.129322
-0.114963
-0.104252
-0.0986071
-0.0969324
-0.0996328
-0.107006
-0.118844
-0.134612
-0.153398
-0.173943
-0.196095
-0.20973
-0.219745
-0.222138
-0.214914
-0.198552
-0.175715
-0.149809
-0.123698
-0.0992856
-0.0776012
-0.0591037
-0.043854
-0.0315955
-0.0219901
-0.0150642
-0.0112096
-0.0102503
-0.0107871
-0.0111529
-0.0122545
-0.0159822
-0.0241925
-0.0358999
-0.0527995
-0.0780136
-0.109849
-0.136528
-0.143974
-0.126664
-0.0975557
-0.0692718
-0.0458871
-0.0305201
-0.0213809
-0.0157616
-0.0130818
-0.00984475
-0.0135334
-0.018646
-0.0355778
-0.0531106
-0.063777
-0.0673599
-0.0550824
-0.0447203
-0.024527
-0.00261992
-0.148074
-0.137653
-0.12508
-0.114488
-0.107343
-0.103547
-0.103258
-0.107127
-0.115056
-0.126757
-0.141363
-0.157427
-0.17276
-0.187205
-0.196804
-0.199885
-0.195275
-0.183174
-0.165263
-0.14387
-0.121197
-0.0989788
-0.0783786
-0.0600872
-0.0444111
-0.0313505
-0.0206918
-0.0123445
-0.00657591
-0.00366135
-0.00309503
-0.0033796
-0.00470613
-0.00853856
-0.0166583
-0.0280725
-0.0443701
-0.0691803
-0.101522
-0.129098
-0.14204
-0.123112
-0.095595
-0.0682306
-0.0448764
-0.0290516
-0.0193599
-0.0133718
-0.0107603
-0.00712264
-0.010542
-0.0156317
-0.0342822
-0.0538723
-0.0655688
-0.0690715
-0.0559922
-0.0453237
-0.0248561
-0.00253941
-0.154218
-0.14515
-0.134819
-0.124571
-0.116251
-0.110884
-0.108593
-0.109286
-0.113215
-0.120346
-0.130053
-0.141483
-0.152084
-0.16577
-0.173534
-0.176634
-0.174109
-0.165627
-0.151993
-0.134651
-0.115256
-0.0953689
-0.0762086
-0.0586359
-0.0431025
-0.0297772
-0.0186382
-0.00955377
-0.00250971
0.00204536
0.00364161
0.00333834
0.00186876
-0.00206962
-0.00982738
-0.0207592
-0.036165
-0.05985
-0.0915543
-0.119176
-0.128586
-0.116684
-0.0915719
-0.0655042
-0.042688
-0.0270033
-0.0170855
-0.010884
-0.00835225
-0.00459752
-0.00778586
-0.0127839
-0.0327241
-0.0541444
-0.066916
-0.0702752
-0.0563947
-0.0455656
-0.0249151
-0.00236202
-0.150666
-0.145878
-0.136658
-0.1269
-0.119041
-0.113704
-0.110812
-0.110457
-0.112967
-0.118332
-0.126076
-0.135355
-0.144907
-0.154384
-0.160624
-0.162651
-0.159615
-0.151412
-0.13876
-0.12288
-0.105165
-0.0869398
-0.0692427
-0.0528265
-0.0380991
-0.0252256
-0.0142342
-0.00504714
0.00242263
0.00787644
0.010624
0.0110433
0.00968585
0.00576112
-0.00104172
-0.010771
-0.0252701
-0.0491475
-0.0829701
-0.113448
-0.12696
-0.112059
-0.08694
-0.0614322
-0.0392245
-0.024166
-0.0145897
-0.00848009
-0.0057069
-0.0012877
-0.00423832
-0.00905052
-0.03043
-0.0542557
-0.0682305
-0.0716473
-0.0564712
-0.0454868
-0.024766
-0.00213382
-0.147035
-0.143898
-0.135472
-0.126358
-0.119115
-0.114189
-0.111393
-0.110719
-0.112319
-0.116142
-0.121808
-0.128622
-0.135563
-0.141988
-0.146016
-0.146527
-0.142957
-0.135272
-0.124002
-0.110059
-0.094499
-0.0783503
-0.0624554
-0.0474696
-0.0337748
-0.0215672
-0.0109653
-0.00192252
0.00570603
0.0116411
0.0149533
0.0155613
0.01408
0.0109996
0.00530976
-0.00315463
-0.0165758
-0.040145
-0.0748164
-0.10563
-0.11159
-0.104005
-0.0803283
-0.0564268
-0.0356751
-0.0214825
-0.0122283
-0.00630832
-0.00353585
0.000953139
-0.00182528
-0.00620983
-0.0284738
-0.054258
-0.0689313
-0.0718504
-0.0560111
-0.0448719
-0.0243929
-0.00200713
-0.141122
-0.139379
-0.132354
-0.124228
-0.117692
-0.113293
-0.110753
-0.109863
-0.110614
-0.112949
-0.116615
-0.12115
-0.125816
-0.129786
-0.131931
-0.131423
-0.127791
-0.120922
-0.11111
-0.0989758
-0.0853047
-0.0709217
-0.0565421
-0.0427588
-0.0299564
-0.0183469
-0.00808143
0.000802397
0.00840873
0.0145637
0.0183454
0.0194266
0.0182333
0.0155318
0.0105575
0.00279116
-0.0101195
-0.0331044
-0.0664409
-0.0957845
-0.103247
-0.0950415
-0.0731687
-0.051185
-0.0320112
-0.0187371
-0.00990623
-0.00419583
-0.00147543
0.00299709
0.000169792
-0.00407295
-0.0269285
-0.0539952
-0.0689647
-0.0715975
-0.0551047
-0.0438429
-0.0238611
-0.00192988
-0.132989
-0.133306
-0.128011
-0.121002
-0.115163
-0.111203
-0.108818
-0.107679
-0.107689
-0.108821
-0.110904
-0.113659
-0.116423
-0.118592
-0.119404
-0.118196
-0.114529
-0.108253
-0.0995374
-0.0888285
-0.0767251
-0.0638861
-0.0509008
-0.0382778
-0.0263768
-0.0154134
-0.00554908
0.0031101
0.0105881
0.016824
0.021031
0.0227091
0.0220352
0.0199559
0.0157721
0.0085841
-0.00386036
-0.0256296
-0.056784
-0.0849808
-0.0934702
-0.0852298
-0.065373
-0.0455246
-0.0281447
-0.0159388
-0.00762629
-0.0021332
0.000513768
0.00494502
0.00202939
-0.00213413
-0.0252126
-0.0530883
-0.0683213
-0.0706953
-0.05374
-0.0424045
-0.0231204
-0.00187938
-0.12436
-0.126307
-0.122552
-0.116653
-0.111495
-0.107916
-0.105664
-0.104363
-0.103864
-0.104134
-0.105088
-0.106371
-0.107685
-0.108517
-0.108284
-0.10647
-0.102718
-0.0968889
-0.0890798
-0.079598
-0.0688774
-0.0574222
-0.0457076
-0.0341652
-0.0231279
-0.012818
-0.0033989
0.00499301
0.0122925
0.0184903
0.0229613
0.0252052
0.0252637
0.0240844
0.0209644
0.0146895
0.00316381
-0.0171059
-0.0463764
-0.0734328
-0.0822319
-0.0746351
-0.057084
-0.0395908
-0.024154
-0.013121
-0.00540331
-0.000128604
0.00242359
0.006731
0.00377803
-0.000165209
-0.0229871
-0.0513661
-0.0668678
-0.0689749
-0.0518494
-0.0405292
-0.0221487
-0.00184577
-0.1156
-0.118493
-0.116048
-0.111247
-0.10679
-0.103601
-0.101515
-0.100155
-0.0993227
-0.0989612
-0.0990103
-0.0992828
-0.0995137
-0.0993196
-0.098275
-0.0959966
-0.092205
-0.0867722
-0.079734
-0.0712908
-0.0617524
-0.0515047
-0.0409316
-0.0303958
-0.020194
-0.0105459
-0.00161677
0.00645522
0.0135383
0.0196215
0.0242236
0.0269477
0.0277623
0.027625
0.0258423
0.0209078
0.0105699
-0.00841429
-0.035868
-0.0612768
-0.0699648
-0.0635182
-0.048535
-0.0335168
-0.0200949
-0.0103067
-0.00325102
0.00180153
0.00425039
0.00835809
0.00541659
0.00182915
-0.0202296
-0.0486956
-0.0643814
-0.0662973
-0.0493879
-0.0382182
-0.0209259
-0.00181491
-0.106501
-0.110087
-0.108775
-0.105003
-0.101242
-0.098457
-0.0965658
-0.095215
-0.0941831
-0.0934016
-0.0928332
-0.0923653
-0.0917982
-0.0908577
-0.0892359
-0.0866458
-0.0828647
-0.0777759
-0.0713822
-0.0638145
-0.0552948
-0.0461143
-0.0365767
-0.0269812
-0.0175857
-0.00859788
-0.000188946
0.00751303
0.0143456
0.0202751
0.0249255
0.027998
0.0294831
0.0303186
0.0299475
0.0265801
0.0174614
-0.000341126
-0.0256845
-0.0488711
-0.0571466
-0.0522055
-0.0399734
-0.0274601
-0.0160423
-0.00752441
-0.00118002
0.00364469
0.00600174
0.00984486
0.00695054
0.00377741
-0.0169644
-0.0449145
-0.0606774
-0.0625749
-0.0463414
-0.0354948
-0.0194421
-0.00177088
-0.0973607
-0.101441
-0.101029
-0.0981528
-0.0950453
-0.0926614
-0.0909845
-0.0896994
-0.0885807
-0.087549
-0.0865771
-0.0856008
-0.0844863
-0.083039
-0.0810325
-0.0782507
-0.07452
-0.0697428
-0.063907
-0.0570965
-0.0494669
-0.0412339
-0.0326343
-0.0239133
-0.0152925
-0.0069598
0.000911025
0.0082015
0.014748
0.0204963
0.0251356
0.0284565
0.0304541
0.0320335
0.0328242
0.0309014
0.0230254
0.00664835
-0.0161323
-0.0365681
-0.0442873
-0.0410923
-0.0316688
-0.0215862
-0.0120767
-0.00480187
0.000805375
0.00539403
0.00768969
0.0112134
0.00840756
0.00566621
-0.013162
-0.0399225
-0.05566
-0.0577793
-0.042729
-0.0324076
-0.0177007
-0.00169723
-0.0884866
-0.0927682
-0.0930178
-0.0908982
-0.0883866
-0.0863904
-0.0849409
-0.083764
-0.0826412
-0.0814863
-0.0802799
-0.0789899
-0.07753
-0.075763
-0.0735241
-0.0706539
-0.0670206
-0.0625456
-0.0572097
-0.0510646
-0.0442181
-0.0368298
-0.0290828
-0.0211755
-0.0132968
-0.0056112
0.00171298
0.00856271
0.014786
0.0203198
0.0248976
0.0283738
0.0307336
0.0327533
0.0342363
0.0333337
0.0267395
0.0122995
-0.00737005
-0.024775
-0.0320074
-0.0306286
-0.023883
-0.0160484
-0.00828108
-0.00216986
0.00270395
0.00704766
0.00932787
0.0125006
0.00985896
0.00755293
-0.00882326
-0.0337584
-0.0493529
-0.0519647
-0.0386121
-0.0290309
-0.0157229
-0.00157939
-0.0799034
-0.0841933
-0.0849227
-0.083431
-0.0814457
-0.0798108
-0.0785898
-0.0775479
-0.0764796
-0.0752978
-0.0739868
-0.0725331
-0.0708838
-0.0689454
-0.0666006
-0.0637331
-0.0602438
-0.0560703
-0.0511922
-0.0456412
-0.0394925
-0.0328635
-0.025895
-0.0187455
-0.0115743
-0.00452391
0.00225091
0.00864136
0.0145071
0.0197843
0.0242505
0.0277939
0.0303812
0.0325919
0.034308
0.0339311
0.0286154
0.0165781
0.000346553
-0.0141283
-0.0209793
-0.0212355
-0.0168309
-0.0109677
-0.00473179
0.000335479
0.00451216
0.00860542
0.010927
0.013766
0.0114095
0.00951356
-0.00404752
-0.0266379
-0.0419422
-0.0452933
-0.0340977
-0.0254622
-0.0135499
-0.00140672
-0.0716544
-0.0758466
-0.0769063
-0.0759164
-0.074381
-0.0730714
-0.0720703
-0.0711774
-0.0702033
-0.069064
-0.0677427
-0.0662377
-0.0645199
-0.0625276
-0.0601784
-0.0573876
-0.0540819
-0.0502134
-0.045764
-0.0407536
-0.0352347
-0.0292938
-0.0230387
-0.0165952
-0.010096
-0.00366409
0.00256278
0.00848288
0.0139664
0.0189496
0.0232461
0.0267659
0.0294616
0.0317012
0.0333651
0.0331896
0.0290454
0.0194846
0.00655689
-0.00529444
-0.0117157
-0.0131876
-0.0106444
-0.00642045
-0.00148948
0.00267479
0.00621876
0.0100609
0.0124778
0.0150725
0.0131584
0.0116139
0.000963553
-0.0189643
-0.0337981
-0.0380426
-0.0293323
-0.0218141
-0.0112468
-0.00117437
-0.0638236
-0.0678238
-0.0690859
-0.068487
-0.0673283
-0.0663046
-0.0655079
-0.0647678
-0.063913
-0.0628604
-0.0615953
-0.0601214
-0.0584253
-0.0564676
-0.0541909
-0.0515346
-0.0484451
-0.0448871
-0.0408459
-0.0363345
-0.0313901
-0.026077
-0.0204778
-0.014692
-0.00882941
-0.00299493
0.00269106
0.00813402
0.0132184
0.0178774
0.0219517
0.025366
0.0280638
0.0302295
0.0317211
0.0316073
0.028418
0.0210332
0.0109723
0.001428
-0.00438753
-0.00655998
-0.00536535
-0.00243993
0.00140495
0.00481169
0.00780707
0.0113967
0.0139345
0.0164404
0.015145
0.0138965
0.0059298
-0.0112989
-0.0254554
-0.0305886
-0.0244892
-0.0182021
-0.00890496
-0.00088811
-0.0564371
-0.0601818
-0.0615516
-0.0612523
-0.0604034
-0.0596249
-0.0590115
-0.0584187
-0.0576926
-0.0567556
-0.055591
-0.0542053
-0.0525948
-0.0507354
-0.0485878
-0.0461091
-0.0432607
-0.0400173
-0.0363679
-0.0323218
-0.0279061
-0.0231693
-0.0181749
-0.0130018
-0.00773986
-0.00247839
0.00267893
0.00764493
0.0123161
0.0166258
0.0204431
0.0236915
0.026299
0.0283266
0.0296219
0.0295253
0.0270607
0.0214445
0.0137613
0.00620939
0.00114441
-0.00127739
-0.000968935
0.000973594
0.0039308
0.00671615
0.00925834
0.012589
0.0152175
0.0177937
0.0172791
0.016314
0.0105094
-0.00426926
-0.0175148
-0.0233426
-0.0197476
-0.0147309
-0.00663331
-0.00056832
-0.0495126
-0.052968
-0.0543733
-0.0542965
-0.0536976
-0.0531246
-0.0526706
-0.0522135
-0.0516169
-0.0508099
-0.0497728
-0.0485119
-0.0470295
-0.0453119
-0.0433324
-0.0410609
-0.0384701
-0.0355422
-0.0322696
-0.02866
-0.0247338
-0.0205282
-0.0160925
-0.0114895
-0.00679226
-0.0020771
0.00256791
0.00706403
0.0113179
0.0152655
0.0187964
0.0218307
0.0242853
0.0261475
0.0272678
0.0271935
0.0252936
0.0210798
0.0153046
0.00943884
0.00518482
0.00282534
0.00260759
0.00383903
0.00608602
0.00836727
0.010549
0.0136111
0.016252
0.0189602
0.0192714
0.0185981
0.0142867
0.00159759
-0.0104713
-0.0166598
-0.0152685
-0.0114885
-0.00454393
-0.000247055
-0.0430652
-0.0462097
-0.0475952
-0.0476788
-0.0472792
-0.0468759
-0.0465573
-0.0462197
-0.0457438
-0.0450734
-0.0441785
-0.0430636
-0.0417346
-0.0401853
-0.0383979
-0.0363512
-0.034026
-0.0314104
-0.0284995
-0.0253003
-0.0218287
-0.018114
-0.0141945
-0.0101211
-0.00595293
-0.00175498
0.00239893
0.00643834
0.0102799
0.0138606
0.0170847
0.0198753
0.0221441
0.0238395
0.0248249
0.0248
0.0233685
0.020256
0.01598
0.011507
0.00804951
0.00593
0.00544614
0.00618775
0.0078808
0.0097554
0.0116507
0.0144223
0.0169963
0.0197575
0.0207334
0.0202775
0.0168537
0.00602994
-0.00460346
-0.0107915
-0.0111814
-0.00854843
-0.00273979
4.11745e-05
-0.0370841
-0.0399146
-0.0412453
-0.0414422
-0.0412002
-0.0409361
-0.0407307
-0.040492
-0.0401043
-0.0395894
-0.0388431
-0.0378819
-0.0367174
-0.0353489
-0.0337648
-0.0319502
-0.0298913
-0.0275803
-0.0250147
-0.0222008
-0.0191515
-0.0158903
-0.0124477
-0.0088649
-0.0051899
-0.00147774
0.00220939
0.00580923
0.009249
0.0124681
0.0153804
0.0179156
0.0199857
0.0215277
0.0224208
0.0224721
0.0214414
0.0191933
0.0160781
0.0127337
0.010005
0.00821138
0.00763542
0.00805975
0.00933158
0.0108757
0.0125365
0.0149844
0.0174128
0.020053
0.0213641
0.0209882
0.0180607
0.00903963
-1.45479e-05
-0.00589743
-0.00757814
-0.0059659
-0.00129555
0.000267971
-0.0315588
-0.0340859
-0.0353397
-0.0356137
-0.0354967
-0.0353504
-0.0352522
-0.0351322
-0.0349095
-0.0344447
-0.0338081
-0.0329879
-0.0319851
-0.0307984
-0.0294189
-0.0278351
-0.0260367
-0.0240187
-0.0217798
-0.0193262
-0.0166683
-0.0138256
-0.0108222
-0.0076922
-0.0044744
-0.00121538
0.00203233
0.00521454
0.00826797
0.0111365
0.0137439
0.016026
0.017901
0.0193072
0.0201416
0.0202865
0.0195981
0.0180273
0.0158063
0.0133655
0.011273
0.0098262
0.00926601
0.00949996
0.0104585
0.0117282
0.0131834
0.0152831
0.0174909
0.0198216
0.0211393
0.0207463
0.0181295
0.0108245
0.00331687
-0.00205293
-0.00451919
-0.00377094
-0.000225492
0.000419541
-0.0264809
-0.0287173
-0.0298784
-0.030199
-0.0301754
-0.030117
-0.0300925
-0.0300393
-0.0298743
-0.0295449
-0.0290454
-0.0283744
-0.0275346
-0.0265275
-0.025348
-0.0239879
-0.0224395
-0.020699
-0.0187666
-0.0166477
-0.0143511
-0.0118929
-0.00929275
-0.00657852
-0.00378209
-0.000942672
0.00189598
0.0046865
0.00737403
0.00990824
0.0122233
0.0142634
0.0159561
0.0172431
0.0180414
0.018284
0.0178827
0.0168403
0.0153123
0.0135883
0.0120268
0.0109073
0.0104242
0.0105553
0.0112849
0.012323
0.0135856
0.0153319
0.017253
0.0191659
0.0202801
0.0198354
0.017463
0.0116656
0.00552783
0.000767057
-0.00202362
-0.00197758
0.000514966
0.000502738
-0.0218294
-0.0237926
-0.0248536
-0.0251993
-0.0252455
-0.0252553
-0.0252891
-0.0252953
-0.0252029
-0.0249709
-0.0245898
-0.0240561
-0.0233702
-0.0225336
-0.021544
-0.0203955
-0.019082
-0.017601
-0.0159527
-0.0141423
-0.0121772
-0.0100706
-0.0078386
-0.00550422
-0.00309342
-0.000639063
0.00182193
0.00424915
0.00659611
0.00881791
0.0108586
0.0126755
0.0141949
0.0153758
0.0161503
0.0164826
0.0163165
0.0156814
0.0146868
0.0135483
0.0124012
0.0115681
0.0111888
0.0112734
0.0118385
0.0126787
0.0137551
0.0151629
0.0167588
0.018228
0.0190527
0.0185575
0.0164197
0.011853
0.00684807
0.00275123
-6.1113e-05
-0.000568818
0.000998907
0.000540227
-0.0175812
-0.0192943
-0.0202547
-0.0206107
-0.0207089
-0.0207718
-0.0208522
-0.020908
-0.0208798
-0.0207323
-0.0204512
-0.0200387
-0.019493
-0.0188141
-0.0180003
-0.0170475
-0.0159511
-0.0147089
-0.0133213
-0.0117927
-0.0101293
-0.00834211
-0.00644417
-0.00445445
-0.0023942
-0.000290815
0.00182528
0.00391996
0.00595287
0.00788648
0.00967379
0.0112799
0.0126401
0.0137268
0.0144804
0.0148851
0.0149046
0.014577
0.0139844
0.0133764
0.0124829
0.011895
0.0116301
0.0117035
0.0121501
0.0128222
0.0137181
0.0148168
0.0160752
0.0171356
0.0176682
0.017132
0.0152324
0.0116347
0.00754114
0.00411717
0.00142008
0.000498603
0.00130303
0.000557333
-0.0137171
-0.0152036
-0.0160661
-0.0164219
-0.0165582
-0.016662
-0.0167788
-0.0168744
-0.016899
-0.0168186
-0.0166242
-0.0163191
-0.0159006
-0.0153651
-0.0147109
-0.0139359
-0.0130366
-0.0120112
-0.0108598
-0.00958592
-0.00819482
-0.00669553
-0.00509857
-0.00341945
-0.00167544
0.00011094
0.00191438
0.00370673
0.00545471
0.00712619
0.00867974
0.0100868
0.0113029
0.0123021
0.0130325
0.0134894
0.0136459
0.0135324
0.0131719
0.0125932
0.0122759
0.0119556
0.0118104
0.011893
0.0122535
0.0127834
0.0135068
0.0143356
0.015278
0.0159908
0.0162655
0.0156996
0.014032
0.0111846
0.00781705
0.00496377
0.00248463
0.00128142
0.00148702
0.000568895
-0.0102154
-0.0114984
-0.0122682
-0.0126169
-0.0127807
-0.0129154
-0.0130599
-0.013186
-0.0132526
-0.0132315
-0.0131133
-0.0128978
-0.0125887
-0.0121805
-0.0116694
-0.0110535
-0.0103305
-0.00949902
-0.00855903
-0.00751316
-0.00636552
-0.00512344
-0.00379544
-0.00239392
-0.000932961
0.00056913
0.002092
0.00361211
0.00510216
0.00653663
0.00787993
0.00910685
0.0101869
0.0110971
0.0117985
0.0122873
0.0125433
0.012596
0.0124599
0.0122101
0.012006
0.0118437
0.0117923
0.0118882
0.012183
0.0125935
0.0131578
0.0137593
0.014425
0.0148629
0.0149246
0.0143418
0.0128834
0.0106114
0.00782466
0.0054309
0.00321248
0.00181187
0.00159415
0.00057798
-0.00705257
-0.0081553
-0.00883947
-0.00917681
-0.00936014
-0.00951795
-0.00968311
-0.00983286
-0.00993297
-0.00996003
-0.00990329
-0.00976157
-0.00954953
-0.00925345
-0.00886906
-0.00839381
-0.00782635
-0.00716609
-0.00641292
-0.00556868
-0.00463649
-0.00362209
-0.00253229
-0.00137694
-0.000167284
0.00108212
0.00235465
0.00363156
0.00489077
0.00611074
0.00726433
0.008331
0.00927997
0.0101006
0.0107622
0.0112634
0.0115895
0.0117625
0.0117904
0.0117331
0.0116565
0.0116066
0.0116243
0.0117309
0.011973
0.0122844
0.0127067
0.0131221
0.0135552
0.0137822
0.0136854
0.0130969
0.0118185
0.00998416
0.00766606
0.00562781
0.00364748
0.00222282
0.00165864
0.000584847
-0.00420685
-0.00515142
-0.00575786
-0.00608149
-0.00627828
-0.00645325
-0.00663388
-0.00680216
-0.00693029
-0.00699931
-0.00700138
-0.00693548
-0.00679088
-0.00658263
-0.00630443
-0.00595063
-0.00551846
-0.00500728
-0.00441711
-0.00374915
-0.00300561
-0.00219084
-0.00131014
-0.000371193
0.000617186
0.00164356
0.00269474
0.00375585
0.00480905
0.00583749
0.00681955
0.00773906
0.00857052
0.0093027
0.00991285
0.010397
0.0107736
0.0110245
0.0111578
0.0112237
0.0112502
0.0112812
0.0113468
0.011459
0.0116567
0.0118863
0.0121862
0.0124524
0.0127042
0.0127689
0.0125594
0.0119767
0.0108505
0.00934382
0.0074099
0.00564986
0.00392058
0.00249823
0.00169229
0.000587628
-0.00165691
-0.00246373
-0.00300043
-0.00330912
-0.00351455
-0.00370155
-0.00389272
-0.00407376
-0.00422216
-0.00432207
-0.00436647
-0.00435344
-0.00428232
-0.00415167
-0.00396382
-0.00371426
-0.00339928
-0.00301732
-0.00256818
-0.00205279
-0.00147283
-0.000831433
-0.000132606
0.000617775
0.0014129
0.00224398
0.00310072
0.00397147
0.00484225
0.00569992
0.00652726
0.00731168
0.00803413
0.00868672
0.00925377
0.0097401
0.0100987
0.0103802
0.0105761