/*--------------------------------*- C++ -*----------------------------------*\
| =========                 |                                                 |
| \\      /  F ield         | OpenFOAM: The Open Source CFD Toolbox           |
|  \\    /   O peration     | Version:  2512                                  |
|   \\  /    A nd           | Website:  www.openfoam.com                      |
|    \\/     M anipulation  |                                                 |
\*---------------------------------------------------------------------------*/
FoamFile
{
    version     2.0;
    format      ascii;
    arch        "LSB;label=32;scalar=64";
    class       surfaceScalarField;
    location    "173.75";
    object      phi;
}
// * * * * * * * * * * * * * * * * * * * * * * * * * * * * * * * * * * * * * //

dimensions      [0 3 -1 0 0 0 0];

oriented        oriented;

internalField   nonuniform List<scalar> 
26232
(
8.43846e-05
0.000811341
-0.000895725
0.000435307
0.0012201
-0.00157102
0.00119065
0.000616491
-0.00137184
0.00250756
-0.00090663
-0.000410273
0.0045516
-0.0032972
0.00125316
0.00748582
-0.00652443
0.00359021
0.0114574
-0.010562
0.00659044
0.0165818
-0.0153706
0.0102462
0.0229262
-0.0208823
0.0145379
0.030495
-0.026992
0.0194232
0.0392209
-0.0335563
0.0248304
0.0489646
-0.0404015
0.0306578
0.0595234
-0.0473372
0.0367784
0.0706483
-0.0541742
0.0430492
0.0820672
-0.0607414
0.0493226
0.093509
-0.0669004
0.0554585
0.104728
-0.0725551
0.0613358
0.115524
-0.0776564
0.0668608
0.125753
-0.0821998
0.0719707
0.135337
-0.0862265
0.0766422
0.144255
-0.0897904
0.0808725
0.152555
-0.0930224
0.0847224
0.160257
-0.0959109
0.0882089
-0.0987949
0.0917209
0.167331
0.000152622
0.000658719
0.000735589
0.000637131
0.00190672
-0.000554641
0.0038374
-0.00283731
0.00670072
-0.00616053
0.0106544
-0.0104781
0.015819
-0.0157266
0.0222549
-0.0218065
0.0299426
-0.02857
0.0387719
-0.0358213
0.0485448
-0.0433293
0.0589918
-0.0508485
0.0697996
-0.058145
0.0806452
-0.0650197
0.0912301
-0.0713263
0.10131
-0.0769804
0.110716
-0.0819605
0.119361
-0.0863018
0.127244
-0.0900831
0.134432
-0.0934142
0.141052
-0.0964103
0.147248
-0.0992185
0.153192
-0.101855
-0.104694
0.159091
0.000223002
0.000435717
0.00105128
-0.000191146
0.00266677
-0.00217013
0.00525311
-0.00542365
0.00897935
-0.00988677
0.0139733
-0.0154721
0.0202913
-0.0220446
0.0278919
-0.0294071
0.0366233
-0.0373013
0.0462295
-0.0454275
0.0563772
-0.053477
0.0666965
-0.0611678
0.0768277
-0.0682762
0.086465
-0.074657
0.095388
-0.0802494
0.103479
-0.0850718
0.110725
-0.0892057
0.117198
-0.0927749
0.123037
-0.0959223
0.128414
-0.0987912
0.13351
-0.101506
0.138474
-0.104183
0.143463
-0.106844
-0.10974
0.148509
0.000304816
0.000130901
0.00140656
-0.00129289
0.0035066
-0.00427017
0.00678914
-0.00870618
0.0113948
-0.0144925
0.0173836
-0.0214608
0.0247003
-0.0293614
0.0331585
-0.0378653
0.0424503
-0.0465931
0.0521843
-0.0551616
0.0619421
-0.0632347
0.0713383
-0.070564
0.0800719
-0.0770098
0.0879573
-0.0825423
0.0949332
-0.0872253
0.101049
-0.091188
0.106438
-0.0945943
0.111277
-0.0976136
0.115754
-0.100399
0.12004
-0.103077
0.124271
-0.105738
0.128541
-0.108452
0.132922
-0.111225
-0.114228
0.13741
0.000404337
-0.000273435
0.00181538
-0.00270393
0.00443903
-0.00689382
0.00843611
-0.0127033
0.0138818
-0.0199381
0.0207217
-0.0283007
0.0287478
-0.0373874
0.0376097
-0.0467272
0.0468641
-0.0558475
0.0560476
-0.0643451
0.064752
-0.0719391
0.072682
-0.078494
0.079684
-0.0840118
0.0857437
-0.088602
0.0909587
-0.0924403
0.0954969
-0.0957262
0.0995526
-0.09865
0.103311
-0.101372
0.106925
-0.104013
0.110507
-0.106659
0.114132
-0.109362
0.117838
-0.112158
0.12166
-0.115047
-0.118138
0.12557
0.000523256
-0.000796692
0.00227629
-0.00445696
0.00544418
-0.0100617
0.0101288
-0.0173879
0.0162949
-0.0261042
0.0237325
-0.0357383
0.0320633
-0.0457183
0.0407987
-0.0554625
0.0494296
-0.0644783
0.0575193
-0.0724348
0.0647697
-0.0791895
0.0710471
-0.0847714
0.0763694
-0.0893341
0.0808651
-0.0930978
0.0847219
-0.0962971
0.088139
-0.0991433
0.0912934
-0.101804
0.0943232
-0.104402
0.0973248
-0.107015
0.10036
-0.109694
0.103463
-0.112466
0.106652
-0.115347
0.109942
-0.118338
-0.121497
0.113301
0.00065865
-0.00145534
0.00277214
-0.00657045
0.00647053
-0.0137601
0.011754
-0.0226713
0.0184349
-0.0327851
0.0261282
-0.0434316
0.0343089
-0.0538991
0.0424194
-0.063573
0.0499823
-0.0720412
0.0566795
-0.0791321
0.0623794
-0.0848894
0.0671145
-0.0895066
0.0710302
-0.0932498
0.0743247
-0.0963922
0.0771983
-0.0991707
0.0798216
-0.101767
0.0823229
-0.104306
0.084789
-0.106868
0.087274
-0.1095
0.0898089
-0.112229
0.0924097
-0.115067
0.0950825
-0.11802
0.0978329
-0.121088
-0.124297
0.100632
0.000803982
-0.00225932
0.00327371
-0.00904018
0.00744469
-0.0179311
0.0131735
-0.0284002
0.0200953
-0.0397069
0.0276652
-0.0510015
0.0352751
-0.0615089
0.0423903
-0.0706883
0.0486501
-0.078301
0.0539017
-0.0843836
0.0581744
-0.0891621
0.061619
-0.0929512
0.0644392
-0.09607
0.0668371
-0.0987901
0.0689812
-0.101315
0.0709951
-0.103781
0.0729609
-0.106272
0.0749286
-0.108836
0.0769266
-0.111498
0.07897
-0.114272
0.0810657
-0.117162
0.0832154
-0.12017
0.0854204
-0.123293
-0.126536
0.0876594
0.000950314
-0.00320964
0.00374472
-0.0118346
0.00828472
-0.0224711
0.0142528
-0.0343682
0.0211099
-0.0465641
0.0282029
-0.0580945
0.0349244
-0.0682304
0.0408437
-0.0766075
0.0457595
-0.0832168
0.0496777
-0.0883018
0.0527425
-0.092227
0.0551601
-0.0953688
0.0571366
-0.0980465
0.0588429
-0.100496
0.060403
-0.102875
0.0618977
-0.105275
0.0633756
-0.107749
0.0648638
-0.110324
0.0663772
-0.113011
0.067923
-0.115818
0.0695043
-0.118744
0.0711215
-0.121787
0.0727733
-0.124945
-0.128209
0.0744463
0.00108716
-0.0042968
0.00414675
-0.0148942
0.00891357
-0.0272379
0.0148858
-0.0403405
0.0213848
-0.053063
0.0277223
-0.064432
0.0333697
-0.0738778
0.0380452
-0.081283
0.0417051
-0.0868767
0.044473
-0.0910697
0.0465526
-0.0943065
0.0481557
-0.0969719
0.0494602
-0.099351
0.0505953
-0.101631
0.0516443
-0.103924
0.0526567
-0.106288
0.0536598
-0.108753
0.0546686
-0.111333
0.055691
-0.114034
0.0567307
-0.116858
0.0577891
-0.119802
0.0588657
-0.122864
0.0599582
-0.126037
-0.12931
0.0610598
0.00120407
-0.00550087
0.00444524
-0.0181353
0.00927165
-0.0320643
0.0150121
-0.0460809
0.0209066
-0.0589576
0.0263072
-0.0698326
0.0308151
-0.0783857
0.034304
-0.084772
0.0368554
-0.0894281
0.0386612
-0.0928755
0.0399388
-0.0955841
0.040877
-0.0979101
0.0416147
-0.100089
0.0422422
-0.102259
0.0428123
-0.104494
0.0433541
-0.106829
0.0438829
-0.109281
0.0444073
-0.111857
0.0449319
-0.114558
0.0454589
-0.117385
0.0459888
-0.120332
0.0465203
-0.123395
0.0470502
-0.126567
-0.129836
0.0475756
0.00129441
-0.00679528
0.00461684
-0.0214578
0.00932607
-0.0367736
0.0146216
-0.0513764
0.0197321
-0.0640682
0.0241086
-0.074209
0.0275008
-0.0817779
0.0299157
-0.0871869
0.0315165
-0.0910289
0.0325209
-0.0938798
0.0331307
-0.096194
0.0334998
-0.0982791
0.0337295
-0.100318
0.0338795
-0.102409
0.0339822
-0.104597
0.0340543
-0.106901
0.0341047
-0.109332
0.0341386
-0.111891
0.0341592
-0.114579
0.0341682
-0.117394
0.034166
-0.12033
0.0341514
-0.123381
0.0341208
-0.126536
0.0340738
-0.129789
-0.000211395
-0.00232329
0.00253468
-0.000778044
-0.00591702
0.00648367
-0.00165997
-0.00872776
0.00960969
-0.00281643
-0.0108622
0.0120187
-0.00420367
-0.0124482
0.0138354
-0.00577796
-0.0136273
0.0152016
-0.00749913
-0.0145335
0.0162547
-0.00933269
-0.0152744
0.017108
-0.0112502
-0.0159225
0.01784
-0.0132278
-0.0165137
0.0184913
-0.0152445
-0.0170514
0.0190681
-0.0172786
-0.0175139
0.019548
-0.0193059
-0.0178606
0.0198879
-0.0212972
-0.0180381
0.0200293
-0.023217
-0.0179836
0.0199034
-0.0250227
-0.0176281
0.0194338
-0.0266641
-0.0168979
0.0185393
-0.0280841
-0.0157167
0.0171367
-0.0292204
-0.0140082
0.0151445
-0.0300074
-0.0117006
0.0124876
-0.0303807
-0.00872713
0.00910042
-0.0302789
-0.00502415
0.00492234
-0.0297721
-0.000497536
-9.22716e-06
0.0045494
-0.0287524
-0.00556916
-0.000310677
-0.00201261
-0.0010929
-0.0051348
-0.00225541
-0.00756525
-0.00372402
-0.00939362
-0.00543548
-0.0107367
-0.00733744
-0.0117254
-0.00938864
-0.0124823
-0.0115581
-0.013105
-0.0138229
-0.0136577
-0.0161653
-0.0141713
-0.0185691
-0.0146475
-0.0210171
-0.0150659
-0.0234877
-0.01539
-0.0259533
-0.0155725
-0.0283784
-0.0155585
-0.0307189
-0.0152876
-0.0329212
-0.0146956
-0.0349227
-0.0137152
-0.0366534
-0.0122775
-0.0380421
-0.0103118
-0.0390189
-0.00775036
-0.039522
-0.00452104
-0.0395113
-0.000508214
0.00404878
-0.0390107
-0.000387546
-0.00162507
-0.0013311
-0.00419125
-0.00269513
-0.00620122
-0.00437647
-0.00771228
-0.00629466
-0.00881851
-0.00838874
-0.00963131
-0.0106144
-0.0102567
-0.0129403
-0.0107791
-0.015344
-0.011254
-0.0178078
-0.0117075
-0.0203147
-0.0121406
-0.0228454
-0.0125353
-0.0253756
-0.0128598
-0.0278745
-0.0130735
-0.0303034
-0.0131296
-0.032614
-0.012977
-0.0347485
-0.0125611
-0.0366387
-0.011825
-0.0382071
-0.0107091
-0.0393699
-0.00914908
-0.0400457
-0.00707458
-0.0401498
-0.00441685
-0.0395927
-0.00106538
0.00290943
-0.0384533
-0.000436012
-0.00118905
-0.00147696
-0.00315031
-0.00295439
-0.00472379
-0.00474266
-0.005924
-0.00674713
-0.00681404
-0.00889836
-0.00748008
-0.0111468
-0.0080082
-0.0134573
-0.00846865
-0.015803
-0.00890823
-0.0181611
-0.00934938
-0.0205082
-0.00979351
-0.0228176
-0.0102259
-0.0250571
-0.0106203
-0.0271878
-0.0109429
-0.0291626
-0.0111548
-0.030926
-0.0112136
-0.0324125
-0.0110746
-0.0335455
-0.010692
-0.0342367
-0.0100179
-0.0343848
-0.00900101
-0.0338811
-0.00757822
-0.0326272
-0.00567081
-0.0304817
-0.00321082
-7.4346e-05
-0.027498
-0.000453414
-0.00073564
-0.00152375
-0.00207997
-0.0030235
-0.00322404
-0.00481228
-0.00413521
-0.00678467
-0.00484166
-0.00886315
-0.0054016
-0.0109913
-0.00588007
-0.0131268
-0.00633309
-0.0152355
-0.00679958
-0.0172855
-0.00729942
-0.0192435
-0.00783547
-0.0210722
-0.00839719
-0.0227282
-0.00896428
-0.0241615
-0.00950961
-0.0253148
-0.0100015
-0.0261232
-0.0104052
-0.0265132
-0.0106846
-0.0264021
-0.0108031
-0.0256953
-0.0107247
-0.0242837
-0.0104127
-0.0220367
-0.00982518
-0.0188095
-0.00889803
-0.0144939
-0.0075264
-0.00551231
-0.00905593
-0.000439719
-0.000295922
-0.0014719
-0.00104779
-0.00290406
-0.00179189
-0.00458869
-0.00245059
-0.0064128
-0.00301754
-0.00829103
-0.00352337
-0.0101584
-0.00401269
-0.0119632
-0.00452827
-0.0136606
-0.00510224
-0.0152071
-0.00575291
-0.0165572
-0.00648535
-0.0176608
-0.00729354
-0.0184622
-0.0081629
-0.0188994
-0.0090724
-0.0189046
-0.00999633
-0.0184038
-0.0109059
-0.0173176
-0.0117708
-0.0155597
-0.012561
-0.0130354
-0.0132489
-0.00963763
-0.0138104
-0.0052366
-0.0142262
0.000334224
-0.0144689
0.00726625
-0.0144584
-0.0141789
0.0159328
-0.000397387
0.000101465
-0.00132815
-0.000117024
-0.00260696
-0.000513082
-0.00408542
-0.000972123
-0.00564542
-0.00145753
-0.00719316
-0.00197563
-0.00865292
-0.00255293
-0.00996035
-0.00322084
-0.0110565
-0.00400611
-0.011883
-0.00492638
-0.0123792
-0.00598917
-0.0124801
-0.00719263
-0.0121163
-0.00852676
-0.0112139
-0.00997473
-0.00969604
-0.0115142
-0.00748317
-0.0131188
-0.00449428
-0.0147597
-0.000647258
-0.0164081
0.00414087
-0.0180371
0.00995609
-0.0196256
0.0168893
-0.0211594
0.0250755
-0.0226551
0.0345656
-0.0239485
-0.0257731
0.0461598
-0.000331429
0.000432895
-0.00110566
0.000657207
-0.00215316
0.00053442
-0.00332844
0.000203159
-0.00450967
-0.000276311
-0.00559279
-0.000892508
-0.00648843
-0.0016573
-0.00711579
-0.00259348
-0.00739789
-0.00372402
-0.00725789
-0.00506637
-0.0066172
-0.00662986
-0.00539497
-0.00841486
-0.00350894
-0.0104128
-0.000877103
-0.0126066
0.00258028
-0.0149716
0.00693875
-0.0174773
0.0122681
-0.020089
0.0186312
-0.0227712
0.026084
-0.0254899
0.034676
-0.0282176
0.0444376
-0.030921
0.0554572
-0.0336746
0.0675782
-0.0360695
-0.0397559
0.081561
-0.000248657
0.000681551
-0.000823613
0.00123216
-0.00157434
0.00128514
-0.00236105
0.000989869
-0.00305526
0.000417903
-0.00354219
-0.000405579
-0.00371602
-0.00148347
-0.00347661
-0.00283288
-0.00272682
-0.00447381
-0.00137076
-0.00642243
0.000686039
-0.00868666
0.00353492
-0.0112637
0.00726127
-0.0141391
0.0119412
-0.0172865
0.0176382
-0.0206686
0.0244009
-0.0242399
0.0322612
-0.0279494
0.0412346
-0.0317446
0.0513199
-0.0355752
0.0625034
-0.0394011
0.0747478
-0.0431653
0.0880476
-0.0469745
0.102208
-0.0502297
-0.0551006
0.117553
-0.000158269
0.00083982
-0.000507246
0.00158114
-0.000913763
0.00169166
-0.00124111
0.00131722
-0.00135561
0.0005324
-0.00112893
-0.000632257
-0.000437774
-0.00217463
0.000836734
-0.00410739
0.0028091
-0.00644618
0.00558769
-0.00920103
0.00927145
-0.0123704
0.0139452
-0.0159375
0.0196745
-0.0198685
0.0265012
-0.0241131
0.0344399
-0.0286074
0.0434774
-0.0332774
0.0535729
-0.0380449
0.0646618
-0.0428335
0.0766598
-0.0475733
0.0894665
-0.0522079
0.10298
-0.0566789
0.117066
-0.0610599
0.131693
-0.0648568
-0.0699627
0.146555
-6.90484e-05
0.000908868
-0.000181615
0.00169371
-0.000215294
0.00172534
-3.35597e-05
0.00113548
0.000504811
-5.97134e-06
0.00154126
-0.00166871
0.00321428
-0.00384764
0.00565607
-0.00654919
0.00898816
-0.00977827
0.0133151
-0.013528
0.0187173
-0.0177726
0.0252432
-0.0224634
0.0329039
-0.0275291
0.0416693
-0.0328786
0.0514691
-0.0384071
0.062196
-0.0440043
0.0737133
-0.0495622
0.085864
-0.0549842
0.0984811
-0.0601903
0.111397
-0.065124
0.124465
-0.0697469
0.137491
-0.0740854
0.150569
-0.0779349
-0.0822825
0.162889
1.31431e-05
0.000135832
0.000489333
0.00121454
0.00246174
0.00438323
0.00712603
0.010823
0.0155827
0.0214779
0.0285357
0.0367301
0.0459794
0.05615
0.0670655
0.0785197
0.0902933
0.10217
0.11395
0.125468
0.136594
0.147231
0.157505
0.166943
-0.0252053
0.0135885
-0.0171356
-0.021218
0.0260891
-0.0300765
-0.0167595
0.0400663
-0.0445247
-0.0119576
0.0550039
-0.0598058
-0.00704529
0.0702644
-0.0751767
-0.00222047
0.0851337
-0.0899585
0.00237406
0.0988981
-0.103493
0.00688229
0.110646
-0.115154
0.0119367
0.119216
-0.124271
0.0183264
0.123499
-0.129889
0.0269192
0.121741
-0.130333
0.038151
0.112236
-0.123468
0.0516629
0.0939403
-0.107452
0.0664207
0.0669199
-0.0816777
0.081367
0.0320319
-0.0469782
0.0955869
-0.00900834
-0.00521158
0.108882
-0.0536079
0.0403125
0.120494
-0.0964589
0.0848469
0.129593
-0.13104
0.121941
0.135512
-0.153469
0.14755
0.138247
-0.16445
0.161715
0.138526
-0.167398
0.16712
0.136923
-0.165901
0.167503
0.133007
-0.164351
0.168268
0.126303
-0.167633
0.174336
0.118309
-0.174644
0.182638
0.112645
-0.173089
0.178753
0.112492
-0.145531
0.145684
0.118272
-0.0861807
0.0804009
0.127942
-0.00694235
-0.0027278
0.138449
0.07112
-0.0816275
0.147326
0.132475
-0.141352
0.153588
0.1711
-0.177362
0.157051
0.19013
-0.193593
0.156939
0.201118
-0.201005
0.152509
0.216279
-0.21185
0.145049
0.23538
-0.227919
0.138072
0.232232
-0.225256
0.135009
0.186593
-0.18353
0.136808
0.0922607
-0.0940595
0.142302
-0.0161436
0.0106491
0.149064
-0.113966
0.107205
0.154484
-0.17726
0.171839
0.155485
-0.211571
0.210571
0.150771
-0.238212
0.242926
0.142706
-0.246962
0.255027
0.136613
-0.24374
0.249833
0.13609
-0.163853
0.164376
0.141311
-0.0694873
0.0642659
0.147493
0.0564182
-0.0626005
0.149763
0.153653
-0.155923
0.146927
0.223365
-0.220529
0.142761
0.302481
-0.298315
0.141291
0.245828
-0.244357
0.143302
0.220333
-0.222344
0.144992
0.0468172
-0.0485071
0.144691
-0.0878044
0.0881053
0.143132
-0.181574
0.183132
0.141194
-0.368861
0.3708
-0.180686
0.182466
-0.0354965
0.0100743
-0.0311664
0.021759
-0.0260418
0.0349417
-0.0201818
0.0491439
-0.0137318
0.0638143
-0.00672547
0.0781274
0.000598107
0.0915746
0.00892461
0.102319
0.0182225
0.109918
0.0289952
0.112727
0.0415312
0.109205
0.055641
0.0981259
0.0706021
0.0789791
0.0853524
0.0521697
0.0990861
0.0182981
0.111377
-0.0212997
0.122118
-0.0643488
0.130797
-0.105137
0.136798
-0.137041
0.139815
-0.156486
0.14008
-0.164715
0.138378
-0.165697
0.135413
-0.162935
0.130758
-0.159696
0.123465
-0.16034
0.114407
-0.165585
0.107221
-0.165903
0.105919
-0.144228
0.111585
-0.0918472
0.122191
-0.017548
0.134237
0.0590736
0.14495
0.121762
0.153075
0.162975
0.158104
0.185101
0.159154
0.200068
0.155742
0.219691
0.14931
0.241812
0.143069
0.238474
0.140022
0.18964
0.140997
0.0912852
0.145069
-0.0202155
0.150207
-0.119104
0.154379
-0.181432
0.154692
-0.211884
0.149661
-0.233181
0.141344
-0.238645
0.135196
-0.237592
0.134986
-0.163643
0.140667
-0.0751685
0.14727
0.049815
0.149743
0.15118
0.147169
0.22594
0.143048
0.306601
0.141578
0.247298
0.143801
0.218111
0.145689
0.0449298
0.145483
-0.087599
0.143811
-0.179902
0.141789
-0.366839
-0.178895
-0.0350345
0.00665555
-0.030536
0.0172605
-0.0249746
0.0293803
-0.0182044
0.0423737
-0.010422
0.0560319
-0.00167921
0.0693845
0.00878254
0.0811128
0.0200579
0.091044
0.0324568
0.0975196
0.0460552
0.0991284
0.0606921
0.0945677
0.0758593
0.0829588
0.090718
0.0641204
0.10441
0.0384774
0.116253
0.00645511
0.126297
-0.0313435
0.134399
-0.0724507
0.140148
-0.110887
0.143131
-0.140023
0.143408
-0.156763
0.141477
-0.162784
0.138112
-0.162332
0.134028
-0.158851
0.128916
-0.154585
0.121487
-0.15291
0.111816
-0.155914
0.103231
-0.157317
0.100449
-0.141446
0.105525
-0.0969236
0.116573
-0.0285953
0.12987
0.045776
0.1423
0.109332
0.152268
0.153007
0.158916
0.178452
0.1613
0.197684
0.159157
0.221834
0.153928
0.247041
0.148425
0.243977
0.14526
0.192805
0.145294
0.0912506
0.147874
-0.0227947
0.151333
-0.122564
0.154231
-0.18433
0.15393
-0.211583
0.148728
-0.227979
0.140281
-0.230197
0.134071
-0.231383
0.134076
-0.163648
0.140108
-0.0811998
0.147111
0.0428119
0.149833
0.148458
0.147551
0.228221
0.143456
0.310696
0.141956
0.248798
0.144412
0.215654
0.146535
0.0428073
0.146423
-0.0874875
0.144627
-0.178106
0.142516
-0.364729
-0.177106
-0.0240567
0.0032143
-0.0194447
0.0126485
-0.0137673
0.0237029
-0.00663707
0.0352435
0.00236227
0.0470326
0.0130745
0.0586723
0.0247956
0.0693917
0.0377173
0.0781224
0.0516955
0.0835414
0.0664694
0.0843545
0.08159
0.079447
0.0964125
0.0681363
0.110163
0.0503698
0.122127
0.0265132
0.131984
-0.00340202
0.139794
-0.0391527
0.145414
-0.0780715
0.148407
-0.113879
0.148553
-0.140169
0.146291
-0.154501
0.142427
-0.158921
0.137691
-0.157596
0.132687
-0.153847
0.127283
-0.149181
0.120121
-0.145748
0.110452
-0.146245
0.100808
-0.147674
0.0962979
-0.136936
0.100142
-0.100767
0.111102
-0.0395558
0.125317
0.0315613
0.139307
0.0953414
0.151064
0.141251
0.15938
0.170136
0.163268
0.193796
0.162625
0.222477
0.158735
0.25093
0.153961
0.248751
0.150598
0.196168
0.149571
0.0922778
0.150651
-0.023875
0.152426
-0.124338
0.154032
-0.185936
0.153163
-0.210714
0.14791
-0.222726
0.139448
-0.221735
0.133166
-0.225102
0.13329
-0.163771
0.139583
-0.0874933
0.146984
0.0354114
0.150019
0.145422
0.14808
0.23016
0.144006
0.31477
0.142445
0.25036
0.145141
0.212958
0.147521
0.0404271
0.147505
-0.0874716
0.145576
-0.176177
0.143366
-0.362519
-0.175333
-0.00553872
-0.000302908
-0.00131604
0.00842579
0.00512328
0.0172636
0.0130694
0.0272974
0.0224716
0.0376304
0.0332451
0.0478988
0.0453382
0.0572986
0.058611
0.0648496
0.0727682
0.0693842
0.0873609
0.0697618
0.101802
0.0650064
0.115423
0.0545152
0.12756
0.0382324
0.137721
0.0163521
0.145791
-0.011472
0.151651
-0.0450127
0.154975
-0.0813951
0.155328
-0.114232
0.152812
-0.137652
0.148272
-0.149962
0.142774
-0.153423
0.136995
-0.151817
0.13132
-0.148172
0.125741
-0.143602
0.119091
-0.139098
0.110007
-0.137161
0.0998879
-0.137555
0.09364
-0.130688
0.0956936
-0.102821
0.105865
-0.0497278
0.120587
0.0168397
0.135893
0.0800354
0.149328
0.127816
0.159332
0.160132
0.164883
0.188245
0.165942
0.221418
0.163532
0.25334
0.159508
0.252775
0.155858
0.199817
0.153727
0.0944098
0.153328
-0.0234763
0.15345
-0.124461
0.153756
-0.186242
0.152352
-0.20931
0.14715
-0.217524
0.138775
-0.21336
0.132413
-0.21874
0.132556
-0.163914
0.139034
-0.0939713
0.146846
0.0275994
0.150281
0.141988
0.148754
0.231687
0.144716
0.318809
0.143064
0.252011
0.145987
0.210036
0.148638
0.0377758
0.148721
-0.0875543
0.146653
-0.174109
0.14433
-0.360197
-0.173588
0.0189861
-0.00335626
0.0234808
0.00393115
0.0290008
0.0117436
0.0362106
0.0200876
0.0450383
0.0288027
0.0553356
0.0376015
0.0669411
0.0456931
0.0796301
0.0521606
0.0930165
0.0559978
0.106572
0.0562059
0.119677
0.0519017
0.13171
0.0424818
0.142178
0.027765
0.150716
0.00781341
0.157287
-0.0180426
0.161475
-0.0492007
0.16269
-0.0826106
0.160595
-0.112137
0.155709
-0.132765
0.149248
-0.143501
0.14244
-0.146615
0.135911
-0.145288
0.129806
-0.142066
0.124124
-0.13792
0.118079
-0.133052
0.110047
-0.129129
0.100182
-0.12769
0.0925378
-0.123044
0.0923875
-0.102671
0.101083
-0.0584228
0.115733
0.0021895
0.131989
0.0637792
0.146908
0.112897
0.15858
0.14846
0.165921
0.180905
0.168859
0.21848
0.16807
0.254129
0.164848
0.255997
0.160897
0.203769
0.15764
0.097667
0.155819
-0.0216558
0.154359
-0.123
0.15337
-0.185253
0.151449
-0.207389
0.146385
-0.21246
0.138189
-0.205164
0.131734
-0.212286
0.131806
-0.163986
0.138396
-0.100562
0.146648
0.0193481
0.150586
0.138049
0.149564
0.23271
0.145596
0.322776
0.143827
0.253781
0.14695
0.206912
0.149873
0.034853
0.15006
-0.0877407
0.147849
-0.171898
0.145396
-0.357745
-0.171882
0.0474376
-0.0046341
0.0503404
0.00102841
0.0544997
0.00758429
0.0603577
0.0142295
0.067911
0.0212493
0.0769951
0.0285175
0.0874186
0.0352696
0.0988832
0.0406959
0.110951
0.0439296
0.123078
0.0440795
0.134663
0.0403166
0.145143
0.0320017
0.154073
0.0188345
0.161404
0.000483283
0.166599
-0.0232385
0.169164
-0.0517657
0.168329
-0.0817753
0.16399
-0.107798
0.157092
-0.125867
0.149124
-0.135533
0.14135
-0.138841
0.134333
-0.138272
0.128024
-0.135756
0.122315
-0.132211
0.116806
-0.127544
0.110058
-0.122381
0.101185
-0.118818
0.0928376
-0.114696
0.0904299
-0.100263
0.0970063
-0.0649992
0.110865
-0.0116689
0.127571
0.0470733
0.143684
0.0967836
0.156936
0.135207
0.166137
0.171704
0.171108
0.21351
0.172092
0.253145
0.169772
0.258317
0.165538
0.208003
0.161203
0.102002
0.158033
-0.0184857
0.155099
-0.120066
0.152838
-0.182992
0.150407
-0.204958
0.145553
-0.207606
0.137617
-0.197228
0.131058
-0.205726
0.13097
-0.163898
0.137602
-0.107193
0.146329
0.0106213
0.15089
0.133488
0.150488
0.233111
0.146649
0.326615
0.144743
0.255687
0.148024
0.203632
0.151214
0.0316629
0.151508
-0.0880352
0.14915
-0.16954
0.146552
-0.355146
-0.170228
0.0803956
-0.00346875
0.0807424
0.00068163
0.0827346
0.00559208
0.0863614
0.0106027
0.0917116
0.0158991
0.0987044
0.0215246
0.107162
0.0268121
0.116754
0.0311038
0.127028
0.0336552
0.137449
0.033659
0.147432
0.0303331
0.156441
0.0229931
0.163996
0.0112793
0.17008
-0.00560061
0.173829
-0.0269869
0.174605
-0.0525419
0.171703
-0.0788731
0.165366
-0.101461
0.156887
-0.117389
0.147871
-0.126517
0.139486
-0.130456
0.132197
-0.130983
0.12586
-0.129419
0.120219
-0.126571
0.115117
-0.122441
0.1096
-0.116865
0.102252
-0.111469
0.0941058
-0.10655
0.0898546
-0.0960115
0.0939415
-0.0690861
0.106095
-0.0238226
0.122673
0.0304953
0.139584
0.0798728
0.154254
0.120537
0.165318
0.16064
0.172397
0.206431
0.175271
0.250271
0.174004
0.259584
0.169622
0.212385
0.164277
0.107347
0.159878
-0.0140867
0.155607
-0.115796
0.152117
-0.179502
0.149169
-0.20201
0.144591
-0.203028
0.136995
-0.189632
0.130319
-0.19905
0.129986
-0.163565
0.136585
-0.113793
0.145824
0.00138305
0.151137
0.128174
0.151493
0.232756
0.147865
0.330244
0.145816
0.257736
0.149205
0.200242
0.152639
0.0282288
0.153053
-0.0884486
0.150543
-0.16703
0.147781
-0.352384
-0.168642
0.114777
-0.000692965
0.113041
0.00241718
0.112971
0.00566276
0.114307
0.0092664
0.117178
0.0130282
0.121649
0.0170533
0.127598
0.0208636
0.134751
0.0239507
0.142724
0.025682
0.151033
0.0253497
0.159122
0.0222447
0.166439
0.0156757
0.172407
0.00531103
0.176778
-0.00997151
0.178755
-0.0289637
0.177502
-0.0512892
0.172587
-0.0739575
0.164612
-0.0934862
0.155051
-0.107828
0.145448
-0.116914
0.136783
-0.12179
0.129399
-0.1236
0.123148
-0.123168
0.117681
-0.121104
0.11289
-0.11765
0.10836
-0.112335
0.102724
-0.105832
0.0956455
-0.0994719
0.0903794
-0.0907455
0.0918882
-0.070595
0.101758
-0.0336929
0.117417
0.0148367
0.134607
0.0626831
0.150425
0.104719
0.163272
0.147793
0.172541
0.197162
0.177459
0.245353
0.177374
0.259668
0.172977
0.216783
0.166753
0.11357
0.161253
-0.00858604
0.155799
-0.110342
0.151147
-0.17485
0.147667
-0.19853
0.143426
-0.198786
0.136261
-0.182467
0.129466
-0.192254
0.128803
-0.162903
0.135287
-0.120276
0.145066
-0.00839627
0.151265
0.121975
0.152536
0.231485
0.149225
0.333555
0.14704
0.259921
0.150479
0.196803
0.154136
0.0245718
0.154674
-0.0889865
0.152008
-0.164364
0.149067
-0.349443
-0.167146
0.143089
0.00277291
0.140886
0.00461975
0.139833
0.00671555
0.139868
0.00923207
0.14105
0.0118461
0.143557
0.0145458
0.147294
0.0171272
0.152076
0.0191683
0.157637
0.0201211
0.163586
0.0194006
0.169434
0.0163973
0.174677
0.0104317
0.178733
0.00125597
0.180993
-0.0122324
0.180818
-0.0287881
0.177456
-0.0479275
0.170791
-0.0672926
0.161671
-0.0843661
0.151551
-0.0977076
0.141766
-0.107129
0.133087
-0.113111
0.125748
-0.116261
0.119649
-0.117069
0.11445
-0.115905
0.109966
-0.113166
0.10614
-0.108509
0.102071
-0.101763
0.0966447
-0.094046
0.0913869
-0.0854876
0.0908063
-0.0700144
0.0980041
-0.0408907
0.111997
0.000843647
0.128828
0.0458523
0.145419
0.0881278
0.159858
0.133354
0.171222
0.185798
0.178226
0.238349
0.179547
0.258346
0.175363
0.220967
0.168537
0.120396
0.162074
-0.00212253
0.155621
-0.103889
0.149897
-0.169126
0.145857
-0.194491
0.141993
-0.194923
0.135374
-0.175847
0.128478
-0.185359
0.127394
-0.161818
0.133649
-0.126532
0.143992
-0.0187389
0.151202
0.114765
0.153551
0.229136
0.150692
0.336415
0.148403
0.262209
0.151828
0.193378
0.155688
0.0207119
0.156353
-0.0896511
0.153529
-0.16154
0.150398
-0.346312
-0.165764
0.16018
0.00548161
0.158333
0.00646688
0.157236
0.00781265
0.156995
0.00947309
0.157578
0.0112632
0.159116
0.0130075
0.161587
0.014656
0.164828
0.0159275
0.168609
0.0163402
0.172617
0.0153921
0.176446
0.0125688
0.179507
0.00737096
0.181507
-0.000744589
0.181759
-0.0124845
0.17957
-0.0265992
0.174491
-0.042848
0.166678
-0.0594792
0.157071
-0.0747591
0.146943
-0.0875802
0.137352
-0.0975383
0.128879
-0.104638
0.12169
-0.109072
0.115746
-0.111125
0.110807
-0.110966
0.106612
-0.108971
0.103211
-0.105108
0.100286
-0.098838
0.0966235
-0.0903838
0.0922487
-0.0811128
0.0904078
-0.0681735
0.0949459
-0.0454288
0.106646
-0.0108563
0.122384
0.0301146
0.139251
0.0712599
0.15511
0.117495
0.168664
0.172244
0.177936
0.229077
0.180702
0.25558
0.176814
0.224855
0.169686
0.127524
0.162427
0.00513655
0.155178
-0.0966406
0.14849
-0.162437
0.143848
-0.189849
0.14033
-0.191405
0.134346
-0.169863
0.127403
-0.178416
0.125796
-0.160212
0.131654
-0.13239
0.14254
-0.0296244
0.150871
0.106434
0.154486
0.22552
0.152224
0.338677
0.149881
0.264553
0.153239
0.190019
0.157275
0.0166759
0.15807
-0.0904459
0.155084
-0.158554
0.151764
-0.342992
-0.164526
0.165609
0.00681573
0.164397
0.00767946
0.163659
0.00855079
0.163579
0.00955275
0.164168
0.0106742
0.165388
0.0117871
0.167219
0.0128252
0.169575
0.0135717
0.172249
0.0136659
0.174959
0.0126827
0.177376
0.0101512
0.179153
0.00559429
0.179736
-0.00132723
0.178276
-0.0110254
0.174711
-0.0230336
0.168744
-0.0368808
0.160719
-0.0514544
0.151481
-0.0655209
0.142006
-0.078106
0.133056
-0.0885879
0.125063
-0.0966448
0.11817
-0.102179
0.112388
-0.105343
0.107625
-0.106203
0.103639
-0.104985
0.100418
-0.101887
0.0980838
-0.0965042
0.0958312
-0.0881311
0.0927692
-0.0780509
0.0905676
-0.0659719
0.0929253
-0.0477865
0.101662
-0.0195925
0.115672
0.0161036
0.131948
0.0549844
0.148401
0.101042
0.163644
0.157001
0.175271
0.21745
0.179967
0.250885
0.176995
0.227827
0.169955
0.134563
0.162394
0.0126981
0.154419
-0.0886657
0.146996
-0.155014
0.141774
-0.184627
0.138522
-0.188154
0.133203
-0.164543
0.126286
-0.1715
0.124079
-0.158004
0.129495
-0.137806
0.140711
-0.0408412
0.150213
0.0969322
0.155225
0.220508
0.153759
0.340142
0.151457
0.266855
0.154689
0.186787
0.158884
0.0124802
0.159794
-0.0913557
0.156669
-0.155428
0.153161
-0.339484
-0.163449
0.187295
0.00842936
-0.188908
0.1862
0.00877412
0.18539
0.00936057
0.184896
0.0100465
0.18481
0.0107607
0.185178
0.0114193
0.186095
0.0119081
0.187637
0.0120296
0.189817
0.0114858
0.192584
0.00991592
0.195786
0.00694892
0.199068
0.00231181
0.202163
-0.00442147
0.204421
-0.0132837
0.205385
-0.0239975
0.204585
-0.0360812
0.201882
-0.0487512
0.197468
-0.0611065
0.191721
-0.0723592
0.18505
-0.0819173
0.177839
-0.0894331
0.170392
-0.0947323
0.162942
-0.0978934
0.155672
-0.0989333
0.148597
-0.097909
0.14166
-0.0949496
0.135094
-0.0899381
0.128753
-0.0817906
0.121633
-0.0709305
0.11377
-0.0581091
0.10774
-0.0417567
0.10676
-0.0186118
0.110998
0.0118655
0.118274
0.0477078
0.125812
0.0935047
0.132602
0.150211
0.138988
0.211064
0.14605
0.243823
0.154964
0.218913
0.164665
0.124862
0.171026
0.00633744
0.172254
-0.0898938
0.168131
-0.150891
0.161899
-0.178395
0.155475
-0.181729
0.147597
-0.156666
0.138379
-0.162281
0.132248
-0.151874
0.131304
-0.136862
0.134346
-0.0438824
0.13686
0.0944181
0.137482
0.219886
0.136897
0.340728
0.138254
0.265498
0.14474
0.180301
0.150896
0.00632435
0.151591
-0.0920512
0.147892
-0.151729
0.142072
-0.333664
-0.16012
0.199461
0.00912276
-0.200155
0.199011
0.00922495
0.198806
0.00956469
0.198882
0.00997078
0.199296
0.0103468
0.200104
0.0106117
0.201357
0.0106551
0.203077
0.0103087
0.205234
0.00932975
0.207718
0.00743135
0.210336
0.00433062
0.212888
-0.000239725
0.214974
-0.00650801
0.216172
-0.0144814
0.216121
-0.0239465
0.21455
-0.0345097
0.211382
-0.0455831
0.206745
-0.0564703
0.200914
-0.0665281
0.194226
-0.0752285
0.187031
-0.0822388
0.179639
-0.0873404
0.172258
-0.0905122
0.165044
-0.0917193
0.158069
-0.0909338
0.151233
-0.0881138
0.144662
-0.0833673
0.13855
-0.0756787
0.132232
-0.0646119
0.125069
-0.0509464
0.118565
-0.035253
0.115832
-0.0158787
0.118515
0.00918267
0.125109
0.0411134
0.132995
0.0856196
0.140839
0.142366
0.148587
0.203315
0.15738
0.23503
0.167936
0.208357
0.178361
0.114438
0.18501
-0.000311527
0.185469
-0.0903528
0.1803
-0.145722
0.172923
-0.171018
0.165836
-0.174643
0.157684
-0.148514
0.148101
-0.152698
0.141254
-0.145027
0.139783
-0.135391
0.142842
-0.0469416
0.145873
0.0913871
0.147332
0.218427
0.147505
0.340555
0.149176
0.263826
0.155972
0.173506
0.162306
-1.04461e-05
0.162851