/*--------------------------------*- C++ -*----------------------------------*\
| =========                 |                                                 |
| \\      /  F ield         | OpenFOAM: The Open Source CFD Toolbox           |
|  \\    /   O peration     | Version:  2512                                  |
|   \\  /    A nd           | Website:  www.openfoam.com                      |
|    \\/     M anipulation  |                                                 |
\*---------------------------------------------------------------------------*/
FoamFile
{
    version     2.0;
    format      ascii;
    arch        "LSB;label=32;scalar=64";
    class       volVectorField;
    location    "36.75";
    object      U;
}
// * * * * * * * * * * * * * * * * * * * * * * * * * * * * * * * * * * * * * //

dimensions      [0 1 -1 0 0 0 0];

internalField   nonuniform List<vector> 
13248
(
(-0.0124603 0.0115512 5.88411e-20)
(-0.0239851 0.0246001 0)
(-0.0231104 0.0314739 -1.1122e-19)
(-0.0107279 0.034198 1.04772e-19)
(0.0125648 0.0343971 9.81857e-20)
(0.046349 0.0333542 0)
(0.0902814 0.0320475 0)
(0.143983 0.031212 2.36622e-19)
(0.20691 0.0313854 -1.28805e-21)
(0.278233 0.0329317 -2.06486e-19)
(0.356751 0.0360517 1.90996e-19)
(0.440865 0.0407894 -1.19351e-19)
(0.528612 0.0470401 0)
(0.61776 0.054566 -2.03489e-19)
(0.705954 0.0630203 3.79439e-19)
(0.790868 0.0719798 -8.96713e-20)
(0.870369 0.0809871 -1.60531e-19)
(0.942653 0.0895725 1.50696e-19)
(1.00637 0.0973734 0)
(1.06057 0.103849 0)
(1.10527 0.109342 0)
(1.13945 0.111961 0)
(1.16711 0.115846 4.74538e-20)
(1.18191 0.111238 1.75705e-19)
(-0.0123028 0.0101703 -1.77839e-19)
(-0.0203381 0.0203739 1.21288e-19)
(-0.0128527 0.0251768 -1.06432e-21)
(0.00888841 0.0266722 -1.6031e-19)
(0.0440534 0.026551 -9.80803e-20)
(0.0919827 0.026152 -9.27901e-20)
(0.151965 0.0264651 -1.70355e-19)
(0.223053 0.0281897 1.61078e-19)
(0.3039 0.0317667 0)
(0.392647 0.0373903 8.18362e-22)
(0.486919 0.0450177 1.77155e-21)
(0.583918 0.0543873 1.19434e-19)
(0.680609 0.0650541 0)
(0.773956 0.076443 0)
(0.861166 0.087913 1.39368e-19)
(0.939906 0.0988265 -2.61706e-19)
(1.00846 0.108614 1.57299e-19)
(1.06584 0.116823 -1.47671e-19)
(1.11174 0.123157 -6.59113e-20)
(1.14665 0.127451 -1.20726e-19)
(1.17134 0.129843 -5.18226e-20)
(1.18769 0.129991 -9.76141e-20)
(1.19657 0.129871 1.41376e-19)
(1.20005 0.124845 4.16571e-20)
(-0.0112817 0.00842651 0)
(-0.0136347 0.0153864 0)
(0.00306709 0.0182156 5.67169e-20)
(0.0370543 0.0189866 5.22248e-20)
(0.0870926 0.0194024 -1.30526e-21)
(0.152019 0.0208083 -9.58058e-20)
(0.230363 0.0241264 0)
(0.320119 0.0298893 -8.00613e-20)
(0.418609 0.0382653 7.51854e-20)
(0.522505 0.0490757 5.44661e-22)
(0.628017 0.0618341 -1.28301e-19)
(0.731203 0.0758173 -1.17606e-19)
(0.828339 0.0901653 2.02309e-21)
(0.916265 0.103993 -9.7704e-20)
(0.992647 0.116498 2.33956e-19)
(1.05613 0.127048 0)
(1.10635 0.135237 -1.53577e-19)
(1.14387 0.140898 7.41007e-20)
(1.17002 0.144109 6.58478e-20)
(1.18657 0.145067 0)
(1.19565 0.14429 5.48622e-20)
(1.19926 0.141772 -1.93267e-19)
(1.199 0.139239 1.81424e-19)
(1.19797 0.133571 1.18761e-19)
(-0.00906945 0.00634349 -6.31505e-20)
(-0.00300575 0.00986492 -6.53081e-20)
(0.0259356 0.011147 5.89356e-20)
(0.0752873 0.0120863 0)
(0.143116 0.0142873 0)
(0.227314 0.0189832 -2.0506e-21)
(0.325091 0.0268518 0)
(0.432798 0.0380299 -2.44514e-19)
(0.54598 0.0521591 2.27124e-19)
(0.65969 0.0684606 -2.80417e-19)
(0.768971 0.0858622 6.4222e-20)
(0.869402 0.103167 0)
(0.957549 0.119229 1.07483e-19)
(1.03126 0.133108 -1.99332e-19)
(1.08974 0.144171 4.72589e-20)
(1.13348 0.152133 1.22897e-19)
(1.16396 0.157038 -4.59964e-21)
(1.18336 0.159192 -1.38149e-19)
(1.19416 0.159073 0)
(1.19878 0.157209 0)
(1.19937 0.154206 -5.0812e-20)
(1.19757 0.150226 4.61106e-20)
(1.19468 0.146658 1.68446e-19)
(1.1915 0.140721 -1.58111e-19)
(-0.00529426 0.00399571 -6.67687e-20)
(0.0124404 0.00417878 -6.63701e-20)
(0.0569169 0.00472892 1.86638e-19)
(0.124689 0.0071359 -1.12985e-19)
(0.212665 0.0127117 1.06354e-19)
(0.317178 0.0223522 1.92916e-19)
(0.433479 0.0362051 -1.36359e-19)
(0.555811 0.0537015 -1.65956e-19)
(0.677872 0.0736993 3.19427e-21)
(0.793532 0.0946955 2.12301e-19)
(0.897597 0.115091 0)
(0.98639 0.133455 5.88902e-20)
(1.05804 0.148723 0)
(1.11244 0.160308 -9.67408e-20)
(1.15098 0.168099 1.3597e-19)
(1.17606 0.172385 1.04992e-21)
(1.19058 0.173721 -3.62583e-20)
(1.19744 0.172779 6.79105e-20)
(1.19924 0.170228 5.94232e-20)
(1.19799 0.166636 -5.37877e-20)
(1.19512 0.162465 5.07998e-20)
(1.19157 0.157875 -4.60993e-20)
(1.18773 0.153689 0)
(1.18438 0.147764 -3.61786e-20)
(0.000426255 0.00153472 6.67592e-20)
(0.0335144 -0.00111243 7.01589e-20)
(0.0968623 -4.32638e-05 -6.25508e-20)
(0.185652 0.00550457 1.16411e-19)
(0.29502 0.0162404 -1.09572e-19)
(0.419048 0.0323719 9.89435e-20)
(0.55053 0.0531414 -4.75514e-20)
(0.681575 0.0769752 1.24634e-19)
(0.804632 0.101835 -7.84998e-20)
(0.913544 0.125623 1.39604e-19)
(1.0043 0.146563 -3.2278e-19)
(1.07529 0.163455 1.18991e-19)
(1.12713 0.175772 -1.04704e-19)
(1.1621 0.183608 9.83448e-20)
(1.18341 0.187508 8.57442e-20)
(1.19457 0.188266 7.58878e-20)
(1.1988 0.186727 -2.11675e-19)
(1.19871 0.183649 1.31544e-19)
(1.1962 0.179625 -5.9425e-20)
(1.19254 0.175072 1.57225e-19)
(1.18844 0.170264 -5.0612e-20)
(1.18428 0.165297 -1.26593e-19)
(1.18027 0.160624 1.17359e-19)
(1.17666 0.154747 3.61656e-20)
(0.00844381 -0.00079663 0)
(0.0608208 -0.00524775 6.30174e-22)
(0.146103 -0.00196733 1.31151e-19)
(0.257602 0.00865335 -1.22971e-19)
(0.387986 0.0262777 -1.1065e-19)
(0.52853 0.0499731 2.05635e-19)
(0.66953 0.0777161 -9.54893e-20)
(0.801657 0.106805 1.27436e-19)
(0.917437 0.134495 -2.59014e-21)
(1.01226 0.158542 -7.24527e-20)
(1.08464 0.177541 1.58799e-19)
(1.13581 0.191009 -2.34981e-19)
(1.16889 0.19924 0)
(1.18786 0.203042 -4.66215e-20)
(1.19679 0.203445 -1.25153e-19)
(1.19916 0.201461 3.93514e-20)
(1.19766 0.197935 1.3296e-21)
(1.19413 0.193493 -8.85156e-20)
(1.18972 0.188551 4.6138e-21)
(1.18508 0.183365 1.02814e-19)
(1.18052 0.178081 -4.65052e-20)
(1.17618 0.172774 -1.84207e-20)
(1.17209 0.16764 5.53893e-20)
(1.16837 0.161763 0)
(0.0190305 -0.00266329 0)
(0.0946255 -0.00729342 3.56184e-20)
(0.204264 0.000272662 -1.7171e-19)
(0.338827 0.0179539 6.22983e-20)
(0.487926 0.0438151 -5.86341e-20)
(0.639906 0.0753324 -5.36546e-20)
(0.783257 0.109046 -9.47939e-20)
(0.90865 0.141343 4.72818e-20)
(1.01039 0.169298 4.10896e-20)
(1.08678 0.191153 0)
(1.1395 0.206387 9.46884e-20)
(1.17245 0.215473 -1.41588e-19)
(1.19039 0.219488 1.05382e-19)
(1.19795 0.219718 4.66446e-20)
(1.199 0.217365 -3.86917e-20)
(1.19637 0.21339 -3.26887e-20)
(1.19193 0.208478 -3.07082e-20)
(1.1868 0.20307 9.11284e-20)
(1.18159 0.197428 0)
(1.17658 0.191701 4.68573e-20)
(1.17188 0.185969 4.02821e-20)
(1.16751 0.180285 -9.90208e-20)
(1.16342 0.174683 -6.94104e-20)
(1.15963 0.168776 6.40606e-20)
(0.0323265 -0.00365361 -3.88347e-20)
(0.134735 -0.00621559 -1.60854e-21)
(0.270137 0.00795738 3.49993e-20)
(0.4265 0.0344715 9.78715e-20)
(0.590144 0.0692234 2.84822e-20)
(0.747069 0.107823 -5.50935e-20)
(0.885419 0.145565 5.02189e-20)
(0.997674 0.17851 -4.40431e-20)
(1.08137 0.20427 7.93099e-20)
(1.13833 0.222126 3.38927e-20)
(1.17312 0.232675 -9.6337e-20)
(1.19134 0.237274 2.84363e-20)
(1.19835 0.237508 4.88373e-20)
(1.19851 0.234827 -2.39895e-20)
(1.19493 0.23036 0)
(1.18962 0.224891 3.61898e-20)
(1.18375 0.218909 6.173e-20)
(1.17791 0.2127 1.09294e-20)
(1.17238 0.206421 -5.17977e-20)
(1.16725 0.200154 2.18801e-20)
(1.16253 0.193948 0)
(1.15817 0.187824 -1.7518e-20)
(1.15408 0.181754 -1.68661e-20)
(1.15023 0.175735 0)
(0.0482867 -0.00330928 0)
(0.180406 -0.000985402 2.03916e-20)
(0.34167 0.0221593 3.76654e-20)
(0.516902 0.0587794 -1.00094e-19)
(0.689533 0.102178 3.24314e-20)
(0.844573 0.146188 0)
(0.971715 0.185459 4.87684e-20)
(1.06685 0.216534 -6.8154e-20)
(1.13142 0.238201 -3.96971e-20)
(1.17049 0.251056 1.79252e-20)
(1.19058 0.256737 -2.89603e-20)
(1.19795 0.257203 7.01723e-20)
(1.19767 0.254234 3.52897e-20)
(1.19332 0.249204 -2.44505e-20)
(1.18718 0.243051 -2.20282e-21)
(1.18052 0.236349 -6.76739e-20)
(1.17399 0.229422 3.08792e-20)
(1.16786 0.222446 -8.37524e-22)
(1.16223 0.215509 0)
(1.15711 0.208661 -2.1903e-20)
(1.15243 0.201929 0)
(1.14812 0.195306 5.05523e-20)
(1.14408 0.188773 -6.05425e-20)
(1.14021 0.182549 2.77401e-20)
(0.0666372 -0.00116427 -1.07373e-20)
(0.23031 0.00930826 -5.14593e-20)
(0.416072 0.0435925 5.86374e-20)
(0.605842 0.0908606 3.43654e-20)
(0.781306 0.141741 -1.63697e-20)
(0.928383 0.188836 2.76174e-20)
(1.04011 0.227051 -1.33745e-20)
(1.11667 0.254186 2.23175e-20)
(1.16327 0.270577 0)
(1.18735 0.2781 5.07662e-20)
(1.1963 0.27916 -2.0736e-21)
(1.19619 0.275993 -4.10248e-20)
(1.19132 0.270329 1.75911e-20)
(1.18439 0.263339 -1.99014e-20)
(1.17691 0.255732 -7.60422e-21)
(1.16962 0.247901 8.78008e-21)
(1.16283 0.24005 -6.78466e-21)
(1.15664 0.232279 -3.7188e-20)
(1.15104 0.224641 2.27882e-20)
(1.146 0.217165 4.68851e-21)
(1.14143 0.209858 4.15815e-21)
(1.13722 0.202696 3.69351e-21)
(1.13327 0.195717 0)
(1.12942 0.189175 0)
(0.0869213 0.00322187 1.07448e-20)
(0.28271 0.025368 -1.07124e-20)
(0.490207 0.0725089 -1.95558e-20)
(0.689292 0.130106 0)
(0.861679 0.186541 -8.14873e-21)
(0.99618 0.234143 -7.38059e-21)
(1.0904 0.269024 -1.26181e-20)
(1.14894 0.290779 0)
(1.17998 0.301348 0)
(1.19229 0.303641 0)
(1.19328 0.300498 0)
(1.1883 0.294164 0)
(1.18072 0.286169 -1.10394e-20)
(1.17243 0.277437 5.02555e-21)
(1.16434 0.268472 8.76464e-21)
(1.15683 0.259524 4.11146e-21)
(1.15003 0.250715 1.01755e-20)
(1.14393 0.242099 0)
(1.13849 0.233707 -2.46067e-21)
(1.13363 0.225552 -2.38576e-21)
(1.12925 0.217624 -4.16478e-21)
(1.12524 0.209899 -3.69942e-21)
(1.12145 0.202487 0)
(1.11773 0.195509 2.70335e-21)
(-0.00103856 -0.00350424 6.35769e-21)
(-0.0054642 -0.00872353 -6.60496e-21)
(-0.0137273 -0.0126409 -1.25148e-20)
(-0.023969 -0.015465 0)
(-0.0351466 -0.0174214 -1.67664e-20)
(-0.0467149 -0.0187346 5.26714e-21)
(-0.058294 -0.0196018 -9.93876e-21)
(-0.069621 -0.0201795 0)
(-0.0805303 -0.0205779 0)
(-0.0909229 -0.0208619 0)
(-0.100741 -0.0210569 0)
(-0.109953 -0.0211578 0)
(-0.118539 -0.021138 1.88989e-23)
(-0.126485 -0.0209576 -6.51438e-21)
(-0.133781 -0.0205691 1.2206e-20)
(-0.140415 -0.0199206 1.72045e-20)
(-0.146381 -0.0189579 5.34513e-21)
(-0.151679 -0.017624 0)
(-0.156326 -0.0158592 4.74133e-21)
(-0.160374 -0.0136018 -1.3277e-20)
(-0.163886 -0.0107866 -8.25497e-21)
(-0.166947 -0.00735295 -7.71614e-21)
(-0.169741 -0.0032057 0)
(-0.17272 0.00174676 0)
(-0.00115925 3.8514e-05 -1.91024e-20)
(-0.00571836 -0.000353577 3.29806e-20)
(-0.0140176 -0.00110299 -1.24263e-20)
(-0.0242113 -0.0019343 -2.36553e-20)
(-0.0352607 -0.00274383 3.34358e-20)
(-0.046622 -0.00351848 -2.10653e-20)
(-0.0579161 -0.00427523 2.97497e-20)
(-0.0688818 -0.005037 1.86985e-20)
(-0.0793551 -0.00581896 0)
(-0.0892383 -0.00662117 -1.65994e-20)
(-0.0984749 -0.00742758 -2.79118e-23)
(-0.107032 -0.00820878 1.46695e-20)
(-0.11489 -0.00892597 2.06728e-20)
(-0.122032 -0.00953419 2.58825e-20)
(-0.128444 -0.00998376 -1.22153e-20)
(-0.134108 -0.0102196 -3.42482e-20)
(-0.139009 -0.0101786 1.06014e-20)
(-0.143132 -0.00978545 -3.99414e-20)
(-0.146478 -0.00894736 0)
(-0.149066 -0.00755068 8.81456e-21)
(-0.150949 -0.00545978 8.24418e-21)
(-0.152154 -0.00252571 7.7059e-21)
(-0.152784 0.00145458 0)
(-0.153638 0.00665934 0)
(-0.00166863 0.00343792 0)
(-0.00676032 0.00769249 6.61364e-20)
(-0.0151291 0.00999826 -2.49529e-20)
(-0.0250767 0.0110806 2.36513e-20)
(-0.0356429 0.0113586 -6.69193e-20)
(-0.0463244 0.0110776 0)
(-0.0567692 0.0103977 -3.96993e-20)
(-0.0667345 0.00942733 1.86586e-20)
(-0.0760676 0.00824453 -3.52083e-20)
(-0.0846773 0.00691224 1.65626e-20)
(-0.0925102 0.00548624 9.33842e-20)
(-0.0995344 0.00401836 -4.38568e-20)
(-0.105728 0.00255759 -6.86549e-20)
(-0.111073 0.00115106 -2.56785e-20)
(-0.115547 -0.000153922 1.02141e-22)
(-0.119128 -0.00130598 9.05223e-20)
(-0.121785 -0.00224365 -4.24372e-20)
(-0.123485 -0.0028869 1.53617e-22)
(-0.124195 -0.00312629 0)
(-0.123905 -0.00281116 -3.43287e-20)
(-0.122619 -0.00174385 0)
(-0.120266 0.000346359 -2.98974e-20)
(-0.116759 0.00381713 1.11423e-19)
(-0.113242 0.00902074 -2.68829e-22)
(-0.00251499 0.00649555 0)
(-0.0084964 0.014976 1.4947e-22)
(-0.0169753 0.0200915 2.51752e-20)
(-0.0265053 0.0229399 -2.37995e-20)
(-0.0362645 0.0242164 2.22515e-20)
(-0.0458243 0.0243776 1.26644e-19)
(-0.0548836 0.0237477 -3.97175e-20)
(-0.063233 0.0225584 -3.7489e-20)
(-0.0707403 0.0209762 7.0451e-20)
(-0.0773253 0.0191243 -9.93189e-20)
(-0.0829395 0.0170969 3.11294e-20)
(-0.0875519 0.0149678 2.92416e-20)
(-0.0911388 0.012796 0)
(-0.093678 0.0106297 2.57297e-20)
(-0.0951443 0.00851122 0)
(-0.0955072 0.00648174 4.50125e-20)
(-0.0947285 0.00458886 -8.39882e-20)
(-0.0927602 0.00289708 2.02201e-20)
(-0.089546 0.00150277 7.35578e-20)
(-0.0850378 0.000555853 3.42967e-20)
(-0.0792074 0.000292895 0)
(-0.0719169 0.00109309 -8.82208e-20)
(-0.0627359 0.00355482 2.78576e-20)
(-0.0526466 0.00842853 0)
(-0.00361987 0.00906588 0)
(-0.0107781 0.0211581 -8.006e-20)
(-0.0194075 0.0287157 -2.54553e-20)
(-0.0283755 0.0331073 -4.77005e-20)
(-0.0370383 0.03525 4.49161e-20)
(-0.0450676 0.0357799 -4.22636e-20)
(-0.0522311 0.0351652 7.98001e-20)
(-0.0583658 0.0337481 3.74984e-20)
(-0.0633668 0.0317759 -1.0585e-19)
(-0.0671677 0.0294281 6.6338e-20)
(-0.0697247 0.0268362 -9.34255e-20)
(-0.0710049 0.0240967 2.04718e-19)
(-0.0709795 0.0212809 -1.0979e-19)
(-0.0696188 0.0184413 5.13925e-20)
(-0.06689 0.0156178 1.44007e-19)
(-0.0627558 0.0128434 -4.54475e-20)
(-0.0571723 0.0101492 -4.24472e-20)
(-0.0500873 0.00757435 -3.94473e-20)
(-0.0414374 0.00517823 0)
(-0.0311555 0.00306241 -6.72835e-20)
(-0.0192054 0.00141277 -6.15972e-20)
(-0.00550347 0.000607963 8.81506e-20)
(0.0106405 0.00153711 1.06949e-19)
(0.0294577 0.00584943 -1.00461e-19)
(-0.00489332 0.0110677 0)
(-0.0134242 0.0260226 -1.08002e-19)
(-0.0222264 0.035547 -3.4319e-22)
(-0.030498 0.0411783 9.59212e-20)
(-0.0377913 0.0439972 0)
(-0.0438928 0.0447842 0)
(-0.0486513 0.0441272 0)
(-0.0519571 0.0424623 -3.75883e-20)
(-0.0537357 0.0401075 4.36712e-23)
(-0.0539341 0.0372936 6.65963e-20)
(-0.0525086 0.0341875 -9.34585e-20)
(-0.0494181 0.0309096 1.04761e-22)
(-0.0446201 0.027547 0)
(-0.0380685 0.0241622 -5.13711e-20)
(-0.0297134 0.0208011 4.77942e-20)
(-0.0195044 0.0174997 -1.34866e-19)
(-0.00738849 0.014284 1.67091e-19)
(0.00668784 0.0111799 3.78622e-20)
(0.0227773 0.00821753 -1.52119e-21)
(0.0409282 0.00544011 -1.35301e-19)
(0.0611448 0.00292508 -6.21329e-20)
(0.0834435 0.000904915 2.0044e-19)
(0.108542 0.000330789 -1.33279e-19)
(0.139053 0.00367828 0)
(-0.00624891 0.0124832 5.29469e-20)
(-0.0162406 0.0294779 5.41034e-20)
(-0.0251884 0.0404072 -5.1614e-20)
(-0.0326008 0.0468955 -9.68122e-20)
(-0.0382239 0.0501368 9.11583e-20)
(-0.0419633 0.0510225 -8.57608e-20)
(-0.0437516 0.050235 1.21152e-19)
(-0.0435333 0.0482868 -3.75467e-20)
(-0.0412613 0.0455552 7.12349e-20)
(-0.0368892 0.0423155 0)
(-0.0303647 0.0387676 6.26086e-20)
(-0.0216281 0.0350569 -1.17755e-19)
(-0.0106126 0.0312897 1.09753e-19)
(0.00275386 0.027545 -1.03085e-19)
(0.0185475 0.0238849 0)
(0.0368353 0.0203543 8.96799e-20)
(0.0576715 0.0169944 1.6636e-19)
(0.0810995 0.013842 -1.5623e-19)
(0.107138 0.0109306 -7.21128e-20)
(0.13578 0.00829243 -6.61436e-20)
(0.166939 0.00595263 1.86907e-19)
(0.200632 0.00397925 5.58943e-20)
(0.235887 0.00276447 -5.34678e-20)
(0.283355 0.0058161 4.79423e-20)
(-0.0076139 0.0133468 -5.29541e-20)
(-0.0190322 0.0315401 1.65426e-19)
(-0.0280031 0.0432535 -5.21209e-20)
(-0.0343032 0.0501502 9.76974e-20)
(-0.0378568 0.0535039 -9.1991e-20)
(-0.0386818 0.0542888 4.05878e-22)
(-0.0367884 0.05326 4.07947e-20)
(-0.0321667 0.0509896 1.52754e-19)
(-0.0247867 0.0479029 -3.13572e-22)
(-0.0145968 0.0443135 -6.71232e-20)
(-0.0015248 0.0404523 0)
(0.0145165 0.0364905 -5.87019e-20)
(0.0336223 0.0325575 1.10377e-19)
(0.0558857 0.0287538 1.02657e-19)
(0.0813841 0.0251591 -4.83596e-20)
(0.110175 0.0218412 -4.52654e-23)
(0.142277 0.0188641 -4.17508e-20)
(0.177655 0.0162824 7.74542e-20)
(0.216212 0.0141482 7.20974e-20)
(0.257811 0.0125178 -6.68074e-20)
(0.301998 0.0113796 6.148e-20)
(0.349708 0.0110458 -5.66273e-20)
(0.394504 0.0104459 0)
(0.463168 0.01541 -4.78732e-20)
(-0.00893121 0.0137246 5.40377e-20)
(-0.0215992 0.0322995 -5.53801e-20)
(-0.030315 0.0441508 5.28339e-20)
(-0.0350778 0.0509706 0)
(-0.0359677 0.0540962 0)
(-0.0330996 0.0545665 8.7749e-20)
(-0.0265455 0.0531923 -8.1889e-20)
(-0.0163248 0.050592 7.66815e-20)
(-0.00240951 0.0472306 -3.59596e-19)
(0.0152678 0.0434556 2.37702e-22)
(0.0368009 0.0395281 6.31269e-20)
(0.062293 0.035647 0)
(0.0918373 0.0319668 -1.09976e-19)
(0.125495 0.0286108 2.05941e-19)
(0.163276 0.0256799 -1.44444e-19)
(0.205113 0.0232611 -2.22985e-19)
(0.250855 0.021425 1.63537e-21)
(0.300245 0.0202327 1.55223e-19)
(0.352902 0.019728 0)
(0.40849 0.0200138 0)
(0.465581 0.0208071 -6.14728e-20)
(0.527401 0.0233571 5.66193e-20)
(0.578765 0.0240934 -2.05156e-19)
(0.666315 0.0326825 1.92551e-19)
(-0.0101514 0.01369 0)
(-0.0237166 0.0318792 0)
(-0.0316706 0.0432355 -1.59101e-19)
(-0.0342046 0.0495015 5.0585e-20)
(-0.0315295 0.0520745 3.36626e-22)
(-0.0238395 0.0520509 8.88645e-20)
(-0.0112469 0.050288 0)
(0.00621623 0.0474433 -7.74056e-20)
(0.0285823 0.0440161 7.20857e-20)
(0.055923 0.0403862 -1.35128e-19)
(0.0883177 0.0368448 3.17748e-22)
(0.125818 0.0336169 1.17848e-19)
(0.168409 0.0308781 -6.876e-22)
(0.215979 0.0287647 1.01849e-19)
(0.268286 0.0273797 -1.44741e-19)
(0.324942 0.0267964 0)
(0.385403 0.0270592 1.65037e-19)
(0.44898 0.0281872 -2.32092e-19)
(0.514801 0.0301443 7.10243e-20)
(0.582229 0.0330668 0)
(0.648772 0.0362176 6.05845e-20)
(0.719323 0.0417856 2.22618e-19)
(0.77317 0.044 -2.0892e-19)
(0.86678 0.0557978 -2.37393e-19)
(-0.0112161 0.0133015 1.66839e-19)
(-0.0251009 0.0303983 -2.29639e-19)
(-0.0314771 0.040686 3.98253e-22)
(-0.0307275 0.0459872 5.11501e-20)
(-0.023178 0.0477679 -9.54129e-20)
(-0.00907952 0.0471851 -8.83905e-20)
(0.0114255 0.045139 1.65689e-19)
(0.0382883 0.042322 -1.36468e-21)
(0.0715135 0.0392657 -1.45681e-19)
(0.111106 0.0363776 2.71111e-19)
(0.157011 0.0339697 -9.24166e-22)
(0.209055 0.0322766 -1.18745e-19)
(0.266899 0.0314669 0)
(0.329997 0.0316484 0)
(0.397587 0.0328715 -4.79278e-20)
(0.468694 0.0351302 -8.86859e-20)
(0.542161 0.0383662 -1.64058e-19)
(0.616697 0.0424734 1.53998e-19)
(0.690914 0.0472855 -7.10495e-20)
(0.76364 0.0527588 1.29578e-19)
(0.832563 0.058154 -6.28114e-20)
(0.900811 0.0651712 1.08263e-19)
(0.952394 0.0685679 -2.57516e-19)
(1.0325 0.0805149 4.71383e-20)
(-0.0120313 0.0125863 5.63766e-20)
(-0.0253629 0.0279486 0)
(-0.0289591 0.0366992 1.09382e-19)
(-0.0234234 0.0407641 -1.03043e-19)
(-0.00919823 0.0416901 9.54996e-20)
(0.0134095 0.0406945 0)
(0.0442082 0.0387191 0)
(0.0830718 0.0364856 -7.79935e-20)
(0.12986 0.0345453 1.05223e-21)
(0.184328 0.0333119 6.88094e-20)
(0.246038 0.0330823 -6.31695e-20)
(0.314293 0.0340477 1.19011e-19)
(0.388098 0.0362989 0)
(0.466164 0.0398303 2.04275e-19)
(0.546946 0.0445452 -3.81436e-19)
(0.628715 0.0502648 2.66776e-19)
(0.709656 0.0567458 1.62618e-19)
(0.787963 0.0636816 -1.52649e-19)
(0.861993 0.0707916 0)
(0.930204 0.0776429 0)
(0.991596 0.0841419 0)
(1.04573 0.0898711 0)
(1.08871 0.0939844 5.0781e-20)
(1.13897 0.100855 -1.85843e-19)
(-0.177053 0.00827264 -4.79791e-21)
(-0.182674 0.0164508 4.82001e-21)
(-0.187965 0.0258049 -1.43652e-22)
(-0.19318 0.0362875 0)
(-0.198316 0.0477522 -4.36814e-21)
(-0.20334 0.0599965 8.47902e-21)
(-0.208219 0.0727348 -1.45911e-23)
(-0.2129 0.0855873 -3.98591e-21)
(-0.217305 0.0980732 0)
(-0.221329 0.109605 0)
(-0.224823 0.11948 -2.26878e-22)
(-0.227588 0.126892 -2.21595e-22)
(-0.229364 0.130959 -3.65985e-21)
(-0.229831 0.130771 3.34634e-21)
(-0.228616 0.125448 0)
(-0.225327 0.114233 0)
(-0.219573 0.0965927 3.10016e-21)
(-0.210992 0.0723321 -1.92845e-23)
(-0.199242 0.0417005 -2.72121e-21)
(-0.184321 0.00570169 -1.78822e-22)
(-0.166567 -0.0343647 0)
(-0.146456 -0.075989 0)
(-0.124763 -0.116308 0)
(-0.102477 -0.152213 0)
(-0.0802954 -0.181064 0)
(-0.0587034 -0.199629 0)
(-0.0373516 -0.20633 3.05395e-22)
(-0.0140685 -0.199933 -5.002e-22)
(0.0144515 -0.18005 0)
(0.0514715 -0.147716 0)
(0.0988799 -0.105933 -5.94537e-23)
(0.155854 -0.059459 5.77794e-23)
(0.218867 -0.0140892 -1.89059e-23)
(0.283404 0.0254738 0)
(0.344791 0.0555282 0)
(0.400075 0.0751884 -1.17277e-22)
(0.447591 0.0845991 1.13995e-22)
(0.488024 0.0857105 0)
(0.522847 0.0796937 -1.21537e-22)
(0.554664 0.0688647 1.75664e-22)
(0.58534 0.0541199 -5.29258e-23)
(0.616238 0.0379636 0)
(0.647177 0.0211568 8.40762e-23)
(0.677569 0.00631099 -8.17534e-23)
(0.705957 -0.00658694 0)
(0.731875 -0.0154784 0)
(0.754299 -0.021597 2.56187e-23)
(0.774378 -0.0234789 -7.19279e-23)
(0.791462 -0.0231805 0)
(0.808307 -0.0193917 0)
(0.823086 -0.014619 1.39136e-23)
(0.839816 -0.00765824 1.54434e-25)
(0.853563 -0.00125331 1.68379e-24)
(0.870731 0.00564631 -8.02843e-24)
(0.881991 0.0107857 0)
(0.898958 0.0153231 0)
(0.906079 0.0180219 0)
(0.922771 0.0198536 0)
(0.925564 0.0205837 0)
(0.942962 0.020735 0)
(-0.156614 0.0137438 -4.52859e-22)
(-0.161548 0.0216389 -1.87358e-20)
(-0.165724 0.0306354 2.25809e-22)
(-0.169687 0.0408081 1.73715e-20)
(-0.17343 0.0519618 2.63045e-22)
(-0.176859 0.063886 0)
(-0.179883 0.0762809 -1.58225e-20)
(-0.182385 0.0887467 3.12676e-20)
(-0.184216 0.10078 -1.54438e-20)
(-0.185203 0.111767 1.49156e-20)
(-0.185136 0.120968 -1.4271e-20)
(-0.183765 0.127541 1.41346e-20)
(-0.180797 0.13057 -1.37396e-20)
(-0.175916 0.12912 -4.37741e-22)
(-0.168806 0.122302 -1.37394e-20)
(-0.159183 0.109376 1.33523e-20)
(-0.146839 0.0898675 -1.32499e-20)
(-0.131655 0.0636811 1.24611e-20)
(-0.113504 0.0310588 -1.25748e-20)
(-0.0926278 -0.00700435 2.39304e-20)
(-0.0695409 -0.0482236 -1.13835e-20)
(-0.0449336 -0.0906859 -6.58356e-22)
(-0.0198158 -0.131292 -8.5728e-21)
(0.00426496 -0.166851 1.55708e-20)
(0.0262726 -0.194373 -7.03578e-21)
(0.0449503 -0.211721 3.23225e-22)
(0.0595043 -0.217719 3.4373e-21)
(0.0714588 -0.211821 -8.83093e-22)
(0.0839886 -0.194221 -3.56317e-21)
(0.101296 -0.165545 2.01032e-21)
(0.127496 -0.127858 -6.56486e-22)
(0.164297 -0.0846122 -2.84562e-23)
(0.210573 -0.0407545 1.89442e-23)
(0.262867 -0.000786139 -9.74284e-23)
(0.316959 0.0313282 0)
(0.369319 0.0540449 0)
(0.417988 0.0666063 5.12888e-22)
(0.462688 0.0703395 -3.72367e-22)
(0.504407 0.066114 -3.56554e-22)
(0.544433 0.0563168 -3.55413e-23)
(0.583811 0.0421345 4.81914e-22)
(0.622441 0.0264644 -9.17163e-23)
(0.659649 0.0103421 0)
(0.6941 -0.0034435 0)
(0.724674 -0.0150389 0)
(0.750822 -0.0225507 0)
(0.772195 -0.0274168 -1.05379e-22)
(0.789975 -0.0282608 4.70565e-23)
(0.804126 -0.027277 0)
(0.817455 -0.0230494 0)
(0.828706 -0.0181356 0)
(0.842094 -0.0110223 2.21495e-23)
(0.853033 -0.00460951 -3.33391e-24)
(0.868193 0.00256612 1.74454e-23)
(0.878009 0.00780788 0)
(0.894538 0.0127576 0)
(0.901268 0.0156115 -7.3749e-24)
(0.918566 0.0178292 -1.74828e-23)
(0.921351 0.018666 0)
(0.93981 0.0189965 0)
(-0.113226 0.0166443 9.95847e-23)
(-0.117149 0.0242405 -3.7011e-20)
(-0.119663 0.0327853 3.61185e-20)
(-0.121696 0.0425563 -3.37838e-20)
(-0.123357 0.0533056 -2.64845e-22)
(-0.124485 0.0648117 0)
(-0.124951 0.0767565 -3.19214e-20)
(-0.124591 0.0887199 3.12679e-20)
(-0.123209 0.100176 2.37689e-22)
(-0.120596 0.110483 4.61461e-22)
(-0.116521 0.118867 4.56295e-22)
(-0.110726 0.124482 4.50509e-22)
(-0.102928 0.126406 -2.90287e-20)
(-0.0928543 0.123699 2.86515e-20)
(-0.0802647 0.115484 0)
(-0.0649845 0.101042 8.95167e-22)
(-0.0469296 0.0799439 -2.80616e-20)
(-0.0262447 0.05217 2.76843e-20)
(-0.00314015 0.0182299 0)
(0.0224005 -0.0209261 0)
(0.0498606 -0.0631348 -2.39358e-20)
(0.07805 -0.106125 4.47402e-20)
(0.106112 -0.146683 -3.84459e-20)
(0.132515 -0.181456 2.96073e-21)
(0.155672 -0.20702 2.65454e-20)
(0.173855 -0.222058 -2.14038e-20)
(0.185916 -0.225637 1.50378e-20)
(0.192134 -0.218167 -2.46783e-21)
(0.19457 -0.200755 -4.09142e-21)
(0.197011 -0.174403 0)
(0.204581 -0.140594 0)
(0.221152 -0.101521 -4.4007e-22)
(0.248468 -0.0608534 5.1069e-22)
(0.285112 -0.0224273 -1.97451e-23)
(0.328347 0.00968384 -1.03318e-21)
(0.374666 0.0335974 1.00404e-21)
(0.421919 0.0478491 0)
(0.468711 0.0531585 -1.26675e-22)
(0.515192 0.0501322 -1.0488e-21)
(0.561012 0.0412304 1.9665e-21)
(0.606217 0.02786 -8.25822e-22)
(0.649399 0.0131886 -8.30347e-23)
(0.689626 -0.00153401 7.79488e-22)
(0.725173 -0.0136519 -6.04465e-22)
(0.755413 -0.0234676 -1.28383e-22)
(0.779919 -0.0292424 -1.15736e-22)
(0.798954 -0.0326001 1.05645e-22)
(0.813674 -0.0322379 0)
(0.824469 -0.030471 0)
(0.834011 -0.025772 2.76513e-22)
(0.841479 -0.0207587 -1.30402e-22)
(0.851101 -0.0135956 1.04254e-22)
(0.858741 -0.00733342 -1.29978e-22)
(0.871174 -6.03269e-05 -1.3774e-22)
(0.878936 0.00511107 3.20862e-23)
(0.894212 0.010343 -4.58283e-23)
(0.900088 0.0132432 3.46916e-23)
(0.917229 0.0157914 -1.47901e-23)
(0.919792 0.016695 0)
(0.938577 0.0171904 0)
(-0.0487402 0.0166268 -7.51606e-20)
(-0.0518338 0.0240303 1.18346e-21)
(-0.0528469 0.0319575 7.01177e-20)
(-0.0528808 0.0411214 -5.38594e-22)
(-0.0523485 0.0513033 0)
(-0.0510537 0.0622423 0)
(-0.0488425 0.073585 -6.32825e-20)
(-0.045532 0.0848986 -1.02822e-21)
(-0.0409135 0.0956501 9.06699e-20)
(-0.0347834 0.105184 6.40006e-23)
(-0.026909 0.112736 -2.96314e-20)
(-0.0170314 0.11745 -2.88287e-20)
(-0.00492436 0.118401 2.89064e-20)
(0.009619 0.114666 0)
(0.0267586 0.105391 -2.97997e-20)
(0.0465683 0.0898733 2.7124e-20)
(0.0690354 0.0676899 0)
(0.0940164 0.0388368 0)
(0.121036 0.00393368 2.78533e-20)
(0.149761 -0.0357058 -6.44463e-22)
(0.179971 -0.078561 -2.48923e-20)
(0.210565 -0.121852 -2.2684e-20)
(0.240527 -0.162257 2.26433e-20)
(0.268372 -0.196148 -1.64227e-20)
(0.29241 -0.220157 3.25644e-21)
(0.310878 -0.232517 1.22554e-20)
(0.322592 -0.232854 9.77276e-22)
(0.327224 -0.222403 3.01633e-24)
(0.325774 -0.203199 0)
(0.320698 -0.177069 4.78566e-22)
(0.316491 -0.145644 -4.4855e-22)
(0.317739 -0.110401 -5.73139e-23)
(0.32837 -0.0737675 0)
(0.349327 -0.0385083 1.18477e-22)
(0.380038 -0.0081596 -2.22408e-21)
(0.41784 0.0150521 4.08461e-21)
(0.460745 0.0294463 2.29656e-22)
(0.506396 0.0352714 -8.31112e-23)
(0.554021 0.0329061 -1.67749e-21)
(0.601735 0.0248371 -2.15883e-22)
(0.648636 0.0125278 1.46836e-21)
(0.692424 -0.000542567 -1.25088e-21)
(0.732036 -0.0133734 -7.29292e-24)
(0.765694 -0.0234782 -5.41536e-22)
(0.793319 -0.0312652 6.55291e-22)
(0.814689 -0.0351601 7.85307e-22)
(0.830511 -0.0369416 -2.25414e-22)
(0.841877 -0.0353394 -3.52973e-22)
(0.84938 -0.0327655 6.53571e-22)
(0.855413 -0.0275842 -4.4466e-22)
(0.8594 -0.0224917 1.08144e-22)
(0.865406 -0.0153434 -1.33854e-22)
(0.86976 -0.00934224 -1.02702e-22)
(0.879166 -0.00213958 2.1189e-22)
(0.884577 0.00281987 -6.68168e-24)
(0.897977 0.00819697 4.67549e-23)
(0.902662 0.0110319 0)
(0.918918 0.0138337 1.50003e-23)
(0.921082 0.0147589 -1.85446e-23)
(0.939427 0.0153883 0)
(0.0371515 0.0142228 7.50007e-20)
(0.0342106 0.0215562 -1.45652e-19)
(0.033365 0.0287434 6.9908e-20)
(0.0344511 0.0369742 6.76832e-20)
(0.0364557 0.046322 -1.32034e-19)
(0.0394579 0.056487 3.47785e-22)
(0.0436557 0.0670558 6.27415e-20)
(0.0492605 0.0775887 6.16118e-20)
(0.0564771 0.0875617 -6.03565e-20)
(0.0654941 0.0963169 0)
(0.0764933 0.103098 -6.03699e-20)
(0.0896692 0.10704 1.19169e-19)
(0.105202 0.107232 -5.87926e-20)
(0.123242 0.102781 0)
(0.143865 0.0928533 0)
(0.167062 0.0767596 9.39467e-22)
(0.192753 0.0540763 -6.11018e-20)
(0.220736 0.0248126 5.93554e-20)
(0.250516 -0.0106 0)
(0.281631 -0.0506413 5.69163e-20)
(0.313695 -0.0937263 -1.04629e-19)
(0.345705 -0.137086 9.54726e-20)
(0.376494 -0.177234 -8.56271e-20)
(0.404525 -0.210306 5.58016e-21)
(0.428113 -0.232803 5.91413e-20)
(0.445705 -0.24278 -2.60854e-20)
(0.456525 -0.240188 -4.96643e-22)
(0.460463 -0.226692 -3.77075e-21)
(0.458247 -0.204926 2.00146e-21)
(0.451246 -0.177485 1.91972e-21)
(0.44251 -0.146593 -1.65781e-23)
(0.435759 -0.113744 1.60327e-21)
(0.435456 -0.080671 -3.61633e-21)
(0.444168 -0.0491488 2.27278e-21)
(0.463347 -0.0217976 0)
(0.491724 -0.000646431 2.50861e-21)
(0.527992 0.012617 -2.43277e-21)
(0.569309 0.0180787 1.66669e-21)
(0.614196 0.0159092 -2.08169e-21)
(0.659666 0.00856988 1.96323e-22)
(0.704162 -0.00222229 0)
(0.744858 -0.0134277 1.59751e-22)
(0.780668 -0.0242325 -4.42921e-22)
(0.810094 -0.0322012 0)
(0.833455 -0.037951 -1.20128e-21)
(0.850755 -0.0400421 4.8083e-22)
(0.862952 -0.0403518 -2.05722e-22)
(0.87105 -0.037601 -1.81479e-22)
(0.875659 -0.0342717 0)
(0.878822 -0.0286258 0)
(0.880023 -0.0234581 3.55581e-22)
(0.883014 -0.016349 -5.27964e-22)
(0.884531 -0.0106655 2.79692e-22)
(0.891045 -0.00363386 -8.61568e-23)
(0.894153 0.00099898 -1.30552e-22)
(0.905332 0.00639681 -4.67992e-23)
(0.908674 0.0090695 6.96025e-23)
(0.923454 0.0120372 0)
(0.925108 0.01294 3.06912e-23)
(0.942312 0.0136607 9.10817e-24)
(0.148141 0.0116327 7.55095e-20)
(0.144599 0.0186025 -7.4922e-20)
(0.141687 0.0247972 5.54476e-22)
(0.141792 0.0317442 -5.28796e-22)
(0.14358 0.039909 5.19129e-22)
(0.146654 0.0489772 -5.04855e-22)
(0.151238 0.0584924 9.73396e-22)
(0.157615 0.0680242 0)
(0.165984 0.0770721 -9.44019e-22)
(0.176498 0.0849815 9.37862e-22)
(0.189305 0.0909803 9.37009e-22)
(0.20454 0.094224 -9.45591e-22)
(0.222318 0.0938322 0)
(0.242714 0.0889231 0)
(0.265728 0.0786755 9.6668e-22)
(0.291279 0.0623942 0)
(0.319232 0.0396227 -9.73719e-22)
(0.349322 0.0101876 0)
(0.381071 -0.0249545 -5.81411e-20)
(0.413911 -0.0648804 1.13531e-19)
(0.447156 -0.107806 -1.06522e-19)
(0.479761 -0.150895 5.13168e-20)
(0.510339 -0.19052 4.11958e-20)
(0.537192 -0.222652 -4.00026e-20)
(0.558667 -0.243697 -2.80465e-20)
(0.573526 -0.251689 2.70436e-20)
(0.581608 -0.24684 0)
(0.583499 -0.231041 3.4959e-22)
(0.580365 -0.207163 0)
(0.573309 -0.178173 0)
(0.564262 -0.146794 -1.58117e-21)
(0.555504 -0.114897 1.55789e-21)
(0.550574 -0.0841384 -2.27373e-22)
(0.552242 -0.0557539 -2.76269e-22)
(0.563084 -0.0316208 2.80639e-22)
(0.583134 -0.0130409 2.20178e-21)
(0.611954 -0.00164179 -2.13783e-21)
(0.646844 0.00282173 2.08211e-21)
(0.686008 0.000685631 -1.78512e-21)
(0.726095 -0.00581477 -3.85581e-22)
(0.765026 -0.0151317 1.34109e-21)
(0.799865 -0.0245963 6.1624e-23)