/*--------------------------------*- C++ -*----------------------------------*\
| =========                 |                                                 |
| \\      /  F ield         | OpenFOAM: The Open Source CFD Toolbox           |
|  \\    /   O peration     | Version:  2512                                  |
|   \\  /    A nd           | Website:  www.openfoam.com                      |
|    \\/     M anipulation  |                                                 |
\*---------------------------------------------------------------------------*/
FoamFile
{
    version     2.0;
    format      ascii;
    arch        "LSB;label=32;scalar=64";
    class       surfaceScalarField;
    location    "49.5";
    object      phi;
}
// * * * * * * * * * * * * * * * * * * * * * * * * * * * * * * * * * * * * * //

dimensions      [0 3 -1 0 0 0 0];

oriented        oriented;

internalField   nonuniform List<scalar> 
26232
(
1.76636e-05
0.00091069
-0.000928354
0.000231058
0.00177055
-0.00198394
0.000787083
0.0018292
-0.00238522
0.00182652
0.00114764
-0.00218708
0.00348984
-0.000239597
-0.00142372
0.00591785
-0.00231479
-0.000113224
0.00924841
-0.00506871
0.00173815
0.0136086
-0.00849216
0.00413201
0.0191041
-0.0125657
0.00707023
0.0258068
-0.0172517
0.010549
0.0337425
-0.0224888
0.014553
0.042882
-0.0281909
0.0190514
0.0531362
-0.0342501
0.0239959
0.0643579
-0.0405425
0.0293208
0.0763491
-0.0469373
0.034946
0.0888736
-0.0533054
0.0407809
0.101673
-0.0595292
0.0467299
0.114485
-0.0655106
0.0526989
0.12706
-0.0711731
0.0585981
0.139183
-0.0764808
0.064357
0.150672
-0.0813929
0.0699048
0.161414
-0.0859903
0.0752475
0.171315
-0.0901508
0.0802504
-0.0942689
0.0856243
0.179959
6.71058e-05
0.000843585
0.000449682
0.00138797
0.00131795
0.000960931
0.00283616
-0.00037057
0.00516601
-0.00256945
0.00846207
-0.00561084
0.0128619
-0.00946852
0.018471
-0.0141013
0.0253463
-0.0194411
0.0334814
-0.0253868
0.042797
-0.0318043
0.0531398
-0.0385337
0.064291
-0.0454012
0.0759821
-0.0522337
0.087918
-0.0588731
0.0998016
-0.0651891
0.11136
-0.0710872
0.122363
-0.0765142
0.132648
-0.081458
0.142114
-0.0859473
0.150749
-0.0900275
0.158581
-0.0938219
0.165709
-0.0972787
-0.100872
0.172311
0.000130776
0.000712809
0.000723321
0.000795425
0.00197081
-0.000286562
0.00405779
-0.00245755
0.00715794
-0.0056696
0.0114214
-0.00987431
0.0169555
-0.0150026
0.0238032
-0.0209489
0.0319247
-0.0275627
0.0411893
-0.0346514
0.0513789
-0.0419939
0.0622057
-0.0493606
0.073341
-0.0565365
0.0844484
-0.063341
0.0952185
-0.0696433
0.105399
-0.0753693
0.114814
-0.0805027
0.123379
-0.0850788
0.131094
-0.0891728
0.138034
-0.0928873
0.144336
-0.0963298
0.150142
-0.099628
0.155661
-0.102797
-0.106189
0.160978
0.000210626
0.000502183
0.00105651
-5.04612e-05
0.00274902
-0.00197907
0.00548314
-0.00519166
0.00942553
-0.00961199
0.0146907
-0.0151395
0.0213131
-0.0216251
0.0292252
-0.028861
0.0382485
-0.0365859
0.0481045
-0.0445074
0.0584444
-0.0523338
0.0688908
-0.059807
0.0790839
-0.0667296
0.0887235
-0.0729806
0.0975986
-0.0785184
0.105603
-0.0833733
0.112732
-0.0876318
0.119068
-0.0914153
0.124755
-0.0948591
0.129961
-0.0980939
0.13486
-0.101228
0.139592
-0.10436
0.144295
-0.1075
-0.110874
0.14898
0.000307804
0.000194379
0.0014491
-0.00119175
0.0036428
-0.00417277
0.00707577
-0.00862463
0.0118771
-0.0144134
0.0180834
-0.0213457
0.0256093
-0.029151
0.0342379
-0.0374896
0.0436378
-0.0459859
0.0534062
-0.0542758
0.063126
-0.0620536
0.0724246
-0.0691055
0.0810204
-0.0753255
0.0887498
-0.08071
0.0955705
-0.0853391
0.101545
-0.0893482
0.106811
-0.0928974
0.111541
-0.096145
0.11591
-0.0992288
0.120073
-0.102256
0.124146
-0.105302
0.128204
-0.108419
0.13231
-0.111605
-0.11501
0.136446
0.000422224
-0.000227845
0.00189495
-0.00266448
0.00462645
-0.00690427
0.00876696
-0.0127652
0.0143676
-0.020014
0.0213411
-0.0283192
0.0294458
-0.0372557
0.0383075
-0.0463513
0.047475
-0.0551534
0.0564946
-0.0632955
0.064982
-0.070541
0.0726728
-0.0767962
0.0794432
-0.0820959
0.0853018
-0.0865686
0.0903575
-0.0903948
0.0947772
-0.0937679
0.0987437
-0.096864
0.102424
-0.0998253
0.105951
-0.102755
0.109417
-0.105722
0.112883
-0.108768
0.116379
-0.111915
0.119938
-0.115164
-0.118594
0.123522
0.000551975
-0.00077982
0.00238016
-0.00449266
0.00565569
-0.0101798
0.0104549
-0.0175644
0.0167068
-0.0262659
0.0241645
-0.0357769
0.0324237
-0.0455149
0.0409894
-0.0549169
0.0493686
-0.0635326
0.0571574
-0.0710842
0.0640966
-0.0774801
0.0700878
-0.0827875
0.0751727
-0.0871808
0.0794884
-0.0908843
0.0832171
-0.0941235
0.0865423
-0.0970931
0.0896204
-0.0999421
0.0925687
-0.102774
0.0954661
-0.105653
0.0983614
-0.108618
0.101282
-0.111689
0.104242
-0.114875
0.107254
-0.118175
-0.121628
0.110288
0.000692885
-0.0014727
0.00288218
-0.00668195
0.00666825
-0.0139659
0.0120122
-0.0229083
0.0186846
-0.0329383
0.0262692
-0.0433615
0.0342332
-0.0534789
0.0420377
-0.0627214
0.0492436
-0.0707385
0.0555782
-0.0774189
0.0609491
-0.082851
0.0654134
-0.0872518
0.0691237
-0.0908911
0.0722704
-0.0940309
0.0750362
-0.0968894
0.0775709
-0.0996278
0.0799828
-0.102354
0.0823425
-0.105133
0.0846928
-0.108003
0.0870575
-0.110982
0.0894487
-0.11408
0.0918714
-0.117298
0.09433
-0.120634
-0.124099
0.0968006
0.000838264
-0.00231097
0.00337062
-0.00921431
0.00758921
-0.0181845
0.013303
-0.0286221
0.020108
-0.0397433
0.027445
-0.0506985
0.0347226
-0.0607565
0.0414472
-0.069446
0.047308
-0.0765993
0.0521955
-0.0823063
0.0561658
-0.0868213
0.059377
-0.090463
0.0620245
-0.0935387
0.064293
-0.0962993
0.06633
-0.0989264
0.0682402
-0.101538
0.0700901
-0.104204
0.0719191
-0.106962
0.0737486
-0.109833
0.0755899
-0.112824
0.0774481
-0.115938
0.0793247
-0.119174
0.0812197
-0.122529
-0.125996
0.0831172
0.000979153
-0.00329012
0.0038099
-0.0120451
0.00834057
-0.0227151
0.0142051
-0.0344866
0.0208385
-0.0463768
0.027597
-0.057457
0.0339128
-0.0670723
0.0394085
-0.0749417
0.0439309
-0.0811217
0.0475161
-0.0858915
0.0503182
-0.0896234
0.052536
-0.0926809
0.0543587
-0.0953613
0.0559367
-0.0978774
0.0573755
-0.100365
0.0587412
-0.102904
0.0600719
-0.105534
0.0613882
-0.108279
0.0627009
-0.111145
0.0640156
-0.114138
0.0653343
-0.117257
0.0666571
-0.120497
0.0679816
-0.123854
-0.127313
0.0692982
0.00110566
-0.00439578
0.00416476
-0.0151042
0.00885432
-0.0274047
0.014632
-0.0402642
0.0208147
-0.0525595
0.0267479
-0.0633902
0.0319578
-0.0722822
0.0362158
-0.0791997
0.039514
-0.08442
0.04199
-0.0883675
0.0438423
-0.0914757
0.045267
-0.0941056
0.0464222
-0.0965165
0.0474185
-0.0988737
0.0483249
-0.101272
0.0491807
-0.103759
0.0500067
-0.106361
0.050814
-0.109086
0.0516084
-0.11194
0.0523926
-0.114923
0.0531675
-0.118032
0.0539321
-0.121262
0.0546824
-0.124604
-0.128043
0.0554133
0.00121076
-0.00560654
0.0044082
-0.0183016
0.00908432
-0.0320808
0.0145452
-0.0457251
0.0200532
-0.0580675
0.0250133
-0.0683504
0.0290856
-0.0763545
0.0321868
-0.0823009
0.0344178
-0.086651
0.0359694
-0.0899191
0.0370447
-0.092551
0.0378132
-0.0948741
0.0383956
-0.0970989
0.0388676
-0.0993456
0.0392718
-0.101676
0.0396307
-0.104118
0.0399557
-0.106686
0.0402528
-0.109383
0.0405256
-0.112213
0.0407759
-0.115173
0.0410041
-0.11826
0.0412091
-0.121467
0.0413869
-0.124782
0.0415361
-0.128193
-0.000202024
-0.000316308
0.000518332
-0.000705215
-0.000698208
0.0012014
-0.00144453
-0.000896269
0.00163558
-0.00237008
-0.000952178
0.00187773
-0.0034429
-0.000903487
0.0019763
-0.00463284
-0.000781193
0.00197113
-0.00591686
-0.000608321
0.00189234
-0.00727737
-0.000399568
0.00176008
-0.0087007
-0.000161843
0.00158518
-0.0101758
0.000104501
0.00137063
-0.0116931
0.000403968
0.00111334
-0.0132435
0.000744315
0.000806003
-0.014817
0.00113506
0.000438521
-0.0164035
0.00158631
1.64792e-07
-0.0179915
0.00210813
-0.000520151
-0.0195675
0.00271025
-0.00113427
-0.0211175
0.00340158
-0.00185161
-0.0226273
0.0041903
-0.00268043
-0.0240847
0.00508413
-0.00362677
-0.0254812
0.0060907
-0.00469419
-0.0268153
0.00721768
-0.00588357
-0.0280952
0.00847331
-0.00719345
-0.0293444
0.00987179
-0.00862256
0.0114373
-0.0306111
-0.0101706
-0.000200695
-0.000115614
-0.000698146
-0.000200756
-0.00142459
-0.000169826
-0.00232755
-4.92197e-05
-0.00336603
0.000134998
-0.00450818
0.000360956
-0.00572935
0.000612843
-0.00701018
0.000881264
-0.00833496
0.00116294
-0.00969013
0.00145967
-0.0110631
0.00177693
-0.0124412
0.00212243
-0.013811
0.00250488
-0.0151578
0.00293313
-0.0164653
0.00341558
-0.0177152
0.00396011
-0.0188877
0.0045741
-0.0199622
0.00526481
-0.0209183
0.00604024
-0.0217379
0.00691032
-0.0224085
0.00788823
-0.0229259
0.00899076
-0.0232977
0.0102435
0.0117067
-0.0235671
-0.000189977
7.43632e-05
-0.000659407
0.000268674
-0.00134074
0.000511509
-0.00218052
0.00079056
-0.00313623
0.0010907
-0.00417431
0.00139904
-0.00526808
0.00170661
-0.00639578
0.00200897
-0.00753888
0.00230604
-0.00868055
0.00260133
-0.00980446
0.00290084
-0.0108938
0.00321182
-0.0119308
0.00354185
-0.0128957
0.00389803
-0.0137668
0.00428669
-0.01452
0.00471326
-0.0151283
0.00518247
-0.0155625
0.00569892
-0.0157903
0.00626809
-0.0157782
0.00689825
-0.0154937
0.00760373
-0.0149121
0.00840912
-0.0140212
0.00935263
0.0104889
-0.0128035
-0.000172552
0.000246915
-0.000597516
0.000693638
-0.00120935
0.00112334
-0.00195443
0.00153564
-0.00278912
0.00192539
-0.00367798
0.0022879
-0.00459188
0.00262051
-0.00550611
0.00292319
-0.00639865
0.00319858
-0.00724874
0.00345143
-0.00803569
0.00368779
-0.00873797
0.0039141
-0.00933256
0.00413644
-0.00979444
0.00435991
-0.0100961
0.0045884
-0.0102073
0.00482443
-0.0100942
0.00506935
-0.00971897
0.0053237
-0.009039
0.00558811
-0.00800578
0.00586503
-0.00656524
0.0061632
-0.00465858
0.00650245
-0.00224223
0.00693628
0.00765092
0.000595776
-0.000151581
0.000398497
-0.00052231
0.00106437
-0.00104901
0.00165005
-0.00167805
0.00216469
-0.0023645
0.00261184
-0.00307072
0.00299411
-0.00376461
0.00331441
-0.00441788
0.00357646
-0.00500432
0.00378502
-0.0054984
0.0039455
-0.00587414
0.00406353
-0.00610428
0.00414424
-0.00615963
0.00419179
-0.00600866
0.00420894
-0.00561712
0.00419686
-0.00494766
0.00415496
-0.00395935
0.00408103
-0.00260682
0.00397118
-0.000838953
0.00382025
0.00140318
0.0036229
0.00419053
0.00337585
0.00760444
0.00308854
0.0117408
0.00279991
0.00265506
0.0167367
-0.000130068
0.000528564
-0.000442997
0.0013773
-0.000876929
0.00208398
-0.00137752
0.00266527
-0.0018979
0.00313223
-0.00239755
0.00349376
-0.00284061
0.00375747
-0.0031942
0.00393005
-0.00342677
0.00401758
-0.00350668
0.00402541
-0.00340109
0.00395794
-0.00307513
0.00381829
-0.00249134
0.00360799
-0.00160925
0.00332685
-0.000385192
0.0029728
0.00122783
0.00254194
0.00328046
0.00202841
0.00582711
0.00142453
0.00892664
0.000720707
0.0126441
-9.45236e-05
0.017054
-0.00103412
0.0222494
-0.00210681
0.0283282
-0.00327891
-0.00461295
0.0355962
-0.000110209
0.000638773
-0.000366113
0.0016332
-0.000704888
0.00242275
-0.00106998
0.00303037
-0.00141134
0.00347359
-0.00168424
0.00376666
-0.0018476
0.00392083
-0.00186223
0.00394469
-0.00168917
0.00384452
-0.0012882
0.00362444
-0.000616783
0.00328653
0.000370786
0.00283072
0.00172389
0.00225489
0.00349573
0.00155501
0.00574346
0.000725075
0.00852795
-0.000242552
0.0119131
-0.00135671
0.0159655
-0.00262788
0.0207537
-0.00406748
0.0263472
-0.00568802
0.032814
-0.00750098
0.0402506
-0.00954337
0.0486486
-0.011677
-0.0145505
0.0585862
-9.28826e-05
0.000731656
-0.000293845
0.00183416
-0.000535937
0.00266485
-0.000758133
0.00325256
-0.000905106
0.00362056
-0.00092573
0.00378728
-0.000771146
0.00376624
-0.000392873
0.00356642
0.00025898
0.00319266
0.00123711
0.00264631
0.00259808
0.00192557
0.0044028
0.001026
0.00671695
-5.92604e-05
0.00960997
-0.00133802
0.0131552
-0.00282018
0.0174281
-0.0045154
0.0225047
-0.00643337
0.0284599
-0.00858309
0.0353647
-0.0109722
0.0432853
-0.0136086
0.0522648
-0.0164806
0.0624034
-0.0196819
0.0735165
-0.0227901
-0.0273927
0.0863587
-7.73906e-05
0.000809046
-0.000223172
0.00197994
-0.000362603
0.00280428
-0.000427192
0.00331715
-0.000353248
0.00354662
-7.98914e-05
0.00351392
0.000453352
0.003233
0.00130868
0.00271109
0.00255159
0.00194975
0.00425199
0.000945912
0.00648472
-0.000307159
0.009329
-0.00181829
0.0128674
-0.00359769
0.0171846
-0.00565516
0.0223637
-0.00799926
0.0284842
-0.0106359
0.0356185
-0.0135677
0.0438281
-0.0167927
0.0531599
-0.020304
0.0636461
-0.0240947
0.0752788
-0.0281133
0.0881107
-0.0325138
0.10186
-0.0365393
-0.0426651
0.117132
-6.15513e-05
0.000870597
-0.000146155
0.00206455
-0.000167418
0.00282554
-4.57265e-05
0.00319546
0.000294729
0.00320616
0.000929214
0.00287944
0.00193464
0.00222758
0.00339153
0.00125419
0.00538531
-4.40279e-05
0.00800548
-0.00167426
0.0113452
-0.00364683
0.015498
-0.00597117
0.0205548
-0.00865444
0.0265988
-0.0116992
0.0337014
-0.0151018
0.0419167
-0.0188513
0.0512779
-0.0229289
0.0617933
-0.0273081
0.0734442
-0.0319549
0.0861832
-0.0368337
0.0999332
-0.0418633
0.1146
-0.0471809
0.130001
-0.0519401
-0.0588117
0.146148
-4.21536e-05
0.000912751
-5.13315e-05
0.00207372
7.40256e-05
0.00270018
0.000428585
0.0028409
0.00110519
0.00252956
0.00219773
0.0017869
0.0038036
0.000621706
0.00602448
-0.000966682
0.00896504
-0.00298459
0.0127306
-0.00543985
0.0174218
-0.00833798
0.0231287
-0.0116781
0.0299246
-0.0154503
0.0378583
-0.0196329
0.046949
-0.0241925
0.0571818
-0.0290841
0.0685055
-0.0342526
0.080833
-0.0396356
0.0940446
-0.0451664
0.10799
-0.0507795
0.12252
-0.0563933
0.137389
-0.0620498
0.152637
-0.0671878
-0.0736316
0.167457
-1.56032e-05
7.41802e-05
0.000389139
0.00104296
0.0021488
0.00382248
0.00618233
0.00934766
0.0134333
0.0185424
0.0247574
0.0321307
0.0406764
0.0503643
0.0611178
0.0728146
0.0852919
0.0983552
0.111787
0.125364
0.138876
0.152074
0.165136
0.177129
-0.0308857
0.0165672
-0.0162926
-0.0310326
0.0196122
-0.0194653
-0.031015
0.0228016
-0.0228192
-0.0308279
0.0260609
-0.026248
-0.0304648
0.0292594
-0.0296224
-0.0299186
0.0322241
-0.0327703
-0.0291809
0.0347388
-0.0354765
-0.0282381
0.0365359
-0.0374787
-0.0270588
0.0372945
-0.0384738
-0.0256404
0.0367103
-0.0381288
-0.0239523
0.0343712
-0.0360593
-0.0219642
0.0298809
-0.031869
-0.0196519
0.022864
-0.0251763
-0.0169993
0.0129942
-0.0156468
-0.0140766
0.000103344
-0.00302606
-0.0107872
-0.0155949
0.0123055
-0.00741319
-0.0337648
0.0303908
-0.00415434
-0.0537028
0.0504439
-0.0013293
-0.0743282
0.0715031
0.000677303
-0.0944261
0.0924195
0.00147469
-0.11283
0.112033
0.00118249
-0.128782
0.129074
0.000626786
-0.141379
0.141935
0.0010965
-0.148853
0.148383
0.00435829
-0.14831
0.145048
0.0110984
-0.135659
0.128919
0.020991
-0.10854
0.0986475
0.0328477
-0.0677669
0.0559102
0.0456167
-0.0172329
0.00446385
0.0582554
0.0369644
-0.0496031
0.0697388
0.0875896
-0.0990729
0.0787391
0.128603
-0.137603
0.0837812
0.157535
-0.162577
0.083051
0.177213
-0.176483
0.0760921
0.193165
-0.186206
0.0667315
0.2044
-0.19504
0.0621932
0.197185
-0.192647
0.0668587
0.157227
-0.161892
0.0789333
0.0878793
-0.0999539
0.0937794
0.00899087
-0.023837
0.107633
-0.0603229
0.0464697
0.118399
-0.109641
0.0988739
0.125544
-0.13711
0.129966
0.12899
-0.145521
0.142074
0.128183
-0.141133
0.14194
0.123346
-0.131544
0.136381
0.117528
-0.119429
0.125248
0.115038
-0.100146
0.102635
0.117911
-0.0695039
0.0666314
0.124538
-0.0306197
0.023993
0.132081
0.00666961
-0.0142127
0.138209
0.0369761
-0.0431049
0.142141
0.0543678
-0.0582998
0.143766
0.0651938
-0.0668186
0.144165
0.0629534
-0.0633523
0.144262
0.0598163
-0.0599134
0.145062
0.0436987
-0.0444987
0.146622
0.0304219
-0.031982
0.148799
0.0126594
-0.0148364
-0.00577449
0.00385858
-0.0232512
0.0162513
-0.0228036
0.0191646
-0.0221729
0.022171
-0.0213533
0.0252412
-0.0203401
0.0282461
-0.0191284
0.0310125
-0.0177125
0.0333229
-0.0160956
0.034919
-0.0142065
0.0354054
-0.0121055
0.0346094
-0.00976627
0.0320319
-0.0071837
0.0272983
-0.00435958
0.0200399
-0.00132556
0.00996021
0.00180212
-0.00302433
0.00491367
-0.0187065
0.0079809
-0.036832
0.0107541
-0.056476
0.0128816
-0.0764557
0.0138876
-0.0954321
0.0133273
-0.11227
0.0109392
-0.126393
0.0071346
-0.137574
0.00335054
-0.145069
0.00171941
-0.146679
0.00436812
-0.138308
0.0117236
-0.115896
0.0227773
-0.0788206
0.0358471
-0.0303027
0.0493081
0.0235033
0.061697
0.0752007
0.0714111
0.118889
0.0766417
0.152304
0.0758788
0.177976
0.0700116
0.199032
0.0639694
0.210442
0.0639592
0.197195
0.0720357
0.14915
0.0855482
0.0743668
0.10047
-0.00593139
0.113766
-0.0736182
0.12366
-0.119535
0.129931
-0.143381
0.133077
-0.148667
0.132909
-0.140964
0.128884
-0.127519
0.122619
-0.113164
0.117944
-0.0954705
0.117901
-0.0694609
0.122172
-0.0348909
0.128377
0.000464807
0.134007
0.0313458
0.137944
0.050431
0.140014
0.0631236
0.141205
0.0617621
0.142453
0.0585686
0.14444
0.0417116
0.147009
0.027853
0.149919
0.00974907
-0.00785164
-0.0118701
0.0153179
-0.0107843
0.0180788
-0.00950091
0.0208876
-0.00800597
0.0237463
-0.00629256
0.0265327
-0.00435608
0.029076
-0.00219004
0.0311569
0.000216056
0.0325129
0.00268404
0.0329374
0.00534914
0.0319443
0.00816507
0.029216
0.0111067
0.0243567
0.0141353
0.0170113
0.017178
0.00691755
0.0202383
-0.00608461
0.0232411
-0.0217094
0.0260116
-0.0396025
0.0283731
-0.0588375
0.0300277
-0.0781103
0.0305294
-0.0959337
0.029293
-0.111034
0.0256996
-0.1228
0.019687
-0.131562
0.0123024
-0.137684
0.00580664
-0.140183
0.00303578
-0.135537
0.0061233
-0.118983
0.0147584
-0.0874556
0.0271032
-0.0426475
0.0408543
0.00975221
0.0538767
0.0621782
0.0640977
0.108668
0.0696325
0.146769
0.0696727
0.177936
0.0661889
0.202516
0.0642199
0.212411
0.0683031
0.193112
0.0787553
0.138698
0.0929127
0.0602094
0.10743
-0.0204492
0.119836
-0.0860242
0.128692
-0.128391
0.133962
-0.148651
0.136519
-0.151224
0.136719
-0.141164
0.133774
-0.124574
0.127977
-0.107367
0.122099
-0.0895926
0.119561
-0.066923
0.1213
-0.0366294
0.125758
-0.00399316
0.130576
0.0265274
0.134414
0.0465928
0.137024
0.0605134
0.13918
0.0596065
0.141701
0.056048
0.144879
0.0385337
0.148355
0.0243763
0.151849
0.00625529
-0.0100062
0.00226959
0.0136441
0.00397322
0.0163752
0.00586102
0.0189998
0.00797534
0.021632
0.0103059
0.0242022
0.0128383
0.0265436
0.015557
0.0284381
0.0184407
0.0296292
0.0215157
0.0298624
0.0247017
0.0287583
0.0279583
0.0259594
0.0312332
0.0210818
0.034474
0.0137704
0.0375389
0.00385265
0.0405297
-0.00907542
0.0432536
-0.0244332
0.0456229
-0.0419718
0.0475119
-0.0607265
0.0487093
-0.0793077
0.0488315
-0.0960559
0.0472479
-0.10945
0.0432642
-0.118816
0.0363842
-0.124682
0.0269236
-0.128223
0.0166358
-0.129895
0.00857642
-0.127478
0.00599154
-0.116398
0.010347
-0.0918111
0.0203828
-0.0526832
0.0333687
-0.00323372
0.0464994
0.0490476
0.0571854
0.0979817
0.0635306
0.140424
0.0653309
0.176136
0.0651553
0.202692
0.0673451
0.210222
0.0746985
0.185759
0.0865917
0.126805
0.100782
0.0460186
0.114474
-0.0341405
0.125675
-0.0972252
0.133328
-0.136044
0.137561
-0.152884
0.139382
-0.153045
0.139628
-0.14141
0.137717
-0.122663
0.133016
-0.102666
0.126974
-0.0835503
0.122715
-0.0626644
0.122107
-0.0360212
0.124624
-0.0065104
0.128393
0.0227585
0.13203
0.0429559
0.135209
0.0573347
0.138381
0.0564337
0.14214
0.0522899
0.146369
0.0343042
0.150553
0.0201927
0.154422
0.00238561
-0.0121491
0.0186736
0.0117072
0.0207361
0.0143127
0.02302
0.016716
0.0255795
0.0190725
0.0283866
0.0213951
0.0314069
0.0235233
0.0346157
0.0252293
0.0379844
0.0262606
0.0414871
0.0263597
0.0450582
0.0251873
0.0486272
0.0223904
0.0521139
0.0175951
0.0554552
0.0104291
0.0585285
0.000779383
0.0613517
-0.0118986
0.0637525
-0.0268341
0.0656757
-0.0438949
0.0670242
-0.062075
0.0676173
-0.0799009
0.0671422
-0.0955807
0.0652015
-0.107509
0.0612487
-0.114863
0.0545979
-0.118031
0.0448407
-0.118466
0.0327118
-0.117766
0.0207363
-0.115502
0.0125898
-0.108252
0.0112805
-0.0905018
0.0172367
-0.0586393
0.0280767
-0.0140737
0.0405407
0.0365835
0.0515837
0.0869387
0.0592498
0.132758
0.0635742
0.171811
0.0670462
0.19922
0.0729326
0.204335
0.0826183
0.176073
0.0951883
0.114235
0.108895
0.032312
0.121411
-0.046657
0.131137
-0.10695
0.13743
-0.142337
0.14062
-0.156074
0.141689
-0.154115
0.141733
-0.141453
0.140604
-0.121534
0.137273
-0.0993358
0.131949
-0.0782264
0.126941
-0.0576555
0.124535
-0.0336154
0.125201
-0.00717713
0.12782
0.0201404
0.131164
0.039612
0.134852
0.0536458
0.138957
0.0523291
0.143764
0.047483
0.148788
0.02928
0.153415
0.0155657
0.15743
-0.00162897
-0.0141996
0.0374159
0.00988747
0.039418
0.0123106
0.0417253
0.0144086
0.0443952
0.0164026
0.0473803
0.01841
0.0506261
0.0202774
0.0540958
0.0217596
0.0577435
0.0226128
0.0615175
0.0225857
0.0653382
0.0213666
0.0691129
0.0186157
0.0727261
0.0139819
0.076033
0.00712212
0.0792711
-0.00245867
0.0818338
-0.0144613
0.0838785
-0.0288788
0.0852746
-0.045291
0.0859177
-0.0627181
0.0856797
-0.0796629
0.0844051
-0.0943061
0.0819062
-0.10501
0.0779065
-0.110864
0.0719004
-0.112025
0.0631608
-0.109727
0.0513655
-0.105971
0.0377686
-0.101905
0.0255632
-0.0960464
0.0186427
-0.0835813
0.0192674
-0.059264
0.0265552
-0.0213615
0.0373639
0.0257747
0.0484187
0.075884
0.0575766
0.1236
0.0647065
0.164682
0.0716333
0.192293
0.0804288
0.19554
0.0915522
0.16495
0.104175
0.101612
0.116998
0.0194892
0.128038
-0.057697
0.136084
-0.114996
0.140898
-0.147152
0.143041
-0.158216
0.14342
-0.154494
0.14314
-0.141173
0.142481
-0.120875
0.140475
-0.0973305
0.136447
-0.0741977
0.131644
-0.0528523
0.128242
-0.0302143
0.127449
-0.00638382
0.128989
0.0186008
0.131982
0.0366183
0.136047
0.0495811
0.140876
0.0475002
0.146427
0.0419315
0.151919
0.0237882
0.156708
0.0107765
0.160648
-0.00556873
-0.0160967
0.0595818
0.00889186
0.0609067
0.0109858
0.0626691
0.0126462
0.0649151
0.0141566
0.0675785
0.0157466
0.0706026
0.0172533
0.073944
0.0184183
0.077537
0.0190198
0.0813005
0.0188222
0.0851371
0.01753
0.0889299
0.0148229
0.0925451
0.0103667
0.0957811
0.00388617
0.0987657
-0.0054433
0.101049
-0.016745
0.102636
-0.0304655
0.103401
-0.046056
0.103243
-0.0625603
0.102078
-0.0784979
0.0998573
-0.092085
0.0965781
-0.101731
0.0922463
-0.106532
0.0867116
-0.10649
0.0794171
-0.102432
0.0694909
-0.0960448
0.056767
-0.0891815
0.0430307
-0.0823101
0.0319963
-0.0725469
0.0272803
-0.0545481
0.0300272
-0.0241085
0.0381764
0.0176256
0.0486072
0.0654532
0.058951
0.113256
0.0686053
0.155027
0.0784094
0.182489
0.0892216
0.184727
0.101024
0.153147
0.113231
0.0894052
0.124799
0.00792082
0.134148
-0.067046
0.140381
-0.121229
0.14366
-0.15043
0.144765
-0.159322
0.144539
-0.154268
0.143929
-0.140564
0.143478
-0.120423
0.142547
-0.0963997
0.140037
-0.0716877
0.136193
-0.0490081
0.132671
-0.026693
0.131029
-0.00474141
0.131744
0.017886
0.134393
0.0339691
0.138661
0.0453132
0.143931
0.0422298
0.149868
0.0359947
0.155486
0.0181702
0.16018
0.00608271
0.163866
-0.00925485
-0.0178064
0.085973
0.00927756
0.0860766
0.0108822
0.0867487
0.0119742
0.0879983
0.012907
0.0897569
0.013988
0.0919946
0.0150155
0.0946696
0.0157433
0.0977001
0.0159893
0.100987
0.0155353
0.104417
0.0141002
0.107848
0.0113913
0.111158
0.00705677
0.114081
0.000963076
0.116603
-0.00796463
0.118425
-0.0185668
0.119414
-0.0314551
0.119427
-0.0460688
0.118352
-0.0614855
0.116138
-0.0762836
0.112837
-0.0887844
0.108625
-0.097519
0.10374
-0.101648
0.0983395
-0.101089
0.0922353
-0.0963278
0.0846353
-0.0884448
0.074524
-0.0790702
0.0619835
-0.0697696
0.0494024
-0.0599657
0.0407017
-0.0458474
0.038809
-0.0222157
0.0435256
0.012909
0.0525138
0.056465
0.0633402
0.10243
0.0748073
0.14356
0.0866837
0.170612
0.0987074
0.172704
0.110579
0.141275
0.122028
0.077956
0.13206
-0.00211071
0.139561
-0.0745469
0.14391
-0.125578
0.145659
-0.15218
0.145767
-0.15943
0.145019
-0.153519
0.144143
-0.139688
0.143741
-0.120021
0.143563
-0.0962225
0.142497
-0.0706213
0.14005
-0.0465615
0.137174
-0.0238168
0.135375
-0.00294173
0.135658
0.0176029
0.138048
0.0315787
0.142358
0.0410029
0.147775
0.0368137
0.153747
0.0300225
0.15919
0.0127272
0.163589
0.00168403
0.166903
-0.0125694
-0.0193257
0.115309
0.0111013
0.114072
0.0121186
0.113442
0.0126041
0.113374
0.0129755
0.113852
0.0135097
0.114889
0.0139786
0.116443
0.0141887
0.118435
0.0139973
0.120772
0.0131989
0.123333
0.0115388
0.125964
0.00876081
0.128436
0.00458485
0.130894
-0.00149539
0.132562
-0.00963268
0.133614
-0.0196186
0.133758
-0.031599
0.132814
-0.045125
0.130656
-0.0593278
0.12727
-0.0728967
0.12281
-0.0843252
0.117615
-0.0923241
0.112106
-0.0961381
0.10663
-0.095613
0.101283
-0.0909807
0.0956421
-0.0828041
0.0886347
-0.0720628
0.0791985
-0.0603334
0.0678761
-0.0486433
0.0575776
-0.0355489
0.0520768
-0.0167149
0.0531295
0.0118563
0.0598976
0.0496968
0.0703038
0.0920236
0.0826476
0.131216
0.0956962
0.157564
0.10828
0.16012
0.119811
0.129744
0.13024
0.067527
0.138628
-0.0104984
0.144114
-0.0800329
0.146552
-0.128016
0.146836
-0.152464
0.146025
-0.158619
0.144839
-0.152334
0.143788
-0.138636
0.143384
-0.119618
0.143678
-0.0965165
0.143798
-0.070741
0.14287
-0.045633
0.141153
-0.0221007
0.139837
-0.00162524
0.140131
0.0173088
0.142419
0.0292904
0.146663
0.0367592
0.151975
0.0315019
0.157699
0.0242978
0.162745
0.00768149
0.166727
-0.00229808
0.169622
-0.0154639
-0.0206825
0.143424
0.0138247
0.141276
0.014267
0.139595
0.0142853
0.138354
0.0142159
0.137633
0.0142308
0.137455
0.0141567
0.137776
0.0138676
0.13854
0.013234
0.139673
0.0120649
0.141068
0.0101447
0.142585
0.00724358
0.144092
0.00307715
0.145375
-0.00277785
0.146022
-0.01028
0.145999
-0.0195953
0.145034
-0.0306344
0.142919
-0.0430092
0.139529
-0.0559384
0.134907
-0.0682743
0.129315
-0.0787332
0.123217
-0.0862261
0.117145
-0.0900661
0.111544
-0.0900124
0.106657
-0.0860941
0.102385
-0.0785314
0.0980316
-0.0677098
0.0922845
-0.0545862
0.0842696
-0.0406284
0.0750894
-0.0263687
0.0680238
-0.00964936
0.0659975
0.0138827
0.0700826
0.0456116
0.0791716
0.0829347
0.0914203
0.118968
0.104771
0.144214
0.11735
0.147541
0.1284
0.118694
0.137716
0.0582105
0.144323
-0.0171056
0.147669
-0.0833783
0.148208
-0.128555
0.147139
-0.151395
0.145527
-0.157007
0.143994
-0.1508
0.142859
-0.1375
0.142476
-0.119236
0.143052
-0.0970922
0.144043
-0.0717321
0.144509
-0.0460989
0.144188
-0.02178
0.143815
-0.00125194
0.144527
0.0165971
0.146906
0.026911
0.151045
0.0326208
0.156087
0.0264594
0.161382
0.0190032
0.165912
0.00315174
0.169437
-0.00582351
0.171932
-0.0179586
-0.0219319
0.164731
0.0165505
0.162406
0.0165919
0.160322
0.0163698
0.158536
0.0160019
0.15716
0.015606
0.156203
0.0151138
0.155634
0.0144366
0.155424
0.0134448
0.155516
0.0119721
0.155823
0.00983815
0.156221
0.00684572
0.156463
0.00283454
0.156516
-0.00283081
0.156076
-0.00983938
0.15486
-0.0183797
0.152657
-0.028431
0.149275
-0.0396273
0.144643
-0.0513068
0.138887
-0.0625177
0.132364
-0.0722103
0.125604
-0.0794667
0.119167
-0.0836287
0.113522
-0.0843669
0.108972
-0.0815448
0.105525
-0.0750844
0.102863
-0.0650473
0.100105
-0.0518281
0.0960025
-0.0365262
0.0901334
-0.0204996
0.084109
-0.00362503
0.0806021
0.0173897
0.0822433
0.0439704
0.0893281
0.0758498
0.100517
0.107779
0.113341
0.13139
0.125506
0.135375
0.136105
0.108095
0.144394
0.0499216
0.149136
-0.0218481
0.150285
-0.0845267
0.149002
-0.127272
0.146722
-0.149115
0.144426
-0.154711
0.142605
-0.14898
0.141434
-0.136329
0.141102
-0.118904
0.141846
-0.0978357
0.143416
-0.0733026
0.145011
-0.0476935
0.146068
-0.0228376
0.146875
-0.00205898
0.148302
0.0151707
0.150958
0.0242549
0.155015
0.0285641
0.159721
0.0217533
0.164515
0.0142095
0.168512
-0.000845889
0.171618
-0.00892957
0.173789
-0.0201289
-0.0231492
0.175347
0.0183324
0.173608
0.0183312
0.171964
0.0180133
0.170437
0.0175286
0.1691
0.0169435
0.167988
0.0162259
0.167105
0.0153197
0.166429
0.0141208
0.165909
0.0124915
0.165454
0.0102935
0.164971
0.00732915
0.164451
0.00335381
0.163436
-0.00181522
0.161853
-0.00825616
0.159509
-0.0160365
0.156197
-0.0251192
0.151796
-0.035226
0.14632
-0.0458305
0.139987
-0.0561851
0.133207
-0.06543
0.126487
-0.0727461
0.1203
-0.0774422
0.11499
-0.0790569
0.110754
-0.0773083
0.107691
-0.0720215
0.105808
-0.0631649
0.104777
-0.050797
0.103607
-0.0353559
0.101241
-0.0181338
0.0976348
-1.87861e-05
0.0950774
0.019947
0.0955893
0.0434585
0.100777
0.0706621
0.110248
0.0983079
0.121894
0.119744
0.133423
0.123846
0.143373
0.0981454
0.150272
0.0430222
0.152866
-0.0244417
0.151919
-0.0835797
0.149126
-0.124479
0.145891
-0.14588
0.143031
-0.151851
0.140936
-0.146885
0.139707
-0.135101
0.139415
-0.118612
0.140247
-0.0986682
0.142155
-0.0752107
0.144563
-0.0501012
0.146807
-0.0250812
0.1488
-0.00405207
0.15109
0.01288
0.154159
0.0211865
0.158195
0.0245279
0.162584
0.0173643
0.166909
0.0098847
0.170443
-0.00438028
0.173228
-0.0117149
0.17519
-0.0220904
-0.0244219
0.190896
0.0196816
-0.192245
0.189948
0.0192796
0.189032
0.018929
0.188185
0.0183757
0.187497
0.0176311
0.187012
0.0167112
0.18676
0.015572
0.186766
0.0141151
0.187036
0.0122214
0.187577
0.00975185
0.188368
0.00653801
0.189237
0.00248542
0.190107
-0.00268529
0.190793
-0.00894178
0.191062
-0.0163062
0.190645
-0.0247024
0.189279
-0.0338594
0.186767
-0.0433189
0.183045
-0.052463
0.178196
-0.0605807
0.172426
-0.0669764
0.166016
-0.0710326
0.159265
-0.0723051
0.15245
-0.0704937
0.145813
-0.065385
0.139552
-0.0569039
0.133761
-0.0450059
0.128167
-0.0297611
0.122111
-0.0120778
0.115035
0.00705717
0.107791
0.0271911
0.102412
0.0488376
0.101286
0.0717876
0.105606
0.0939882
0.115194
0.110156
0.129358
0.109682
0.145991
0.081512
0.160664
0.0283492
0.169991
-0.033768
0.173291
-0.0868796
0.171923
-0.123112
0.167767
-0.141723
0.162468
-0.146553
0.157168
-0.141584
0.152469
-0.130402
0.148658
-0.1148
0.14599
-0.0960004
0.144629
-0.0738495
0.144357
-0.0498296
0.144715
-0.0254388
0.145477
-0.00481435
0.146821
0.0115361
0.148941
0.019067
0.151835
0.0216341
0.154832
0.014367
0.157549
0.00716798
0.159366
-0.00619747
0.160422
-0.012771
0.160673
-0.0223409
-0.0241388
0.204668
0.0198108
-0.204797
0.20459
0.0193583
0.204593
0.0189258
0.204603
0.0183652
0.204639
0.0175954
0.204746
0.0166038
0.204961
0.0153572
0.205296
0.0137796
0.205752
0.011766
0.206311
0.0091932
0.206894
0.00595475
0.207432
0.00194746
0.207795
-0.00304858
0.207814
-0.00896093
0.207302
-0.0157936
0.20605
-0.0234504
0.203871
-0.0316811
0.200644
-0.0400917
0.196346
-0.0481652
0.191072
-0.055306
0.185015
-0.0609201
0.178443
-0.0644605
0.171646
-0.065508
0.164907
-0.0637548
0.158477
-0.0589551
0.152561
-0.0509876
0.147332
-0.0397767
0.142789
-0.0252178
0.13849