/*--------------------------------*- C++ -*----------------------------------*\
| =========                 |                                                 |
| \\      /  F ield         | OpenFOAM: The Open Source CFD Toolbox           |
|  \\    /   O peration     | Version:  2512                                  |
|   \\  /    A nd           | Website:  www.openfoam.com                      |
|    \\/     M anipulation  |                                                 |
\*---------------------------------------------------------------------------*/
FoamFile
{
    version     2.0;
    format      ascii;
    arch        "LSB;label=32;scalar=64";
    class       surfaceScalarField;
    location    "61.75";
    object      phi;
}
// * * * * * * * * * * * * * * * * * * * * * * * * * * * * * * * * * * * * * //

dimensions      [0 3 -1 0 0 0 0];

oriented        oriented;

internalField   nonuniform List<scalar> 
26232
(
-4.65109e-06
0.00092282
-0.000918168
0.000182178
0.00177491
-0.00196174
0.000734717
0.00179962
-0.00235216
0.00181494
0.00105409
-0.00213431
0.00358138
-0.000434914
-0.00133152
0.00618937
-0.00265799
4.9994e-05
0.00979062
-0.00561251
0.00201126
0.0145199
-0.00929321
0.00456395
0.0204857
-0.0136797
0.00771392
0.0277547
-0.0187283
0.0114593
0.0363384
-0.0243671
0.0157835
0.0461828
-0.0304956
0.0206511
0.0571654
-0.0369893
0.0260068
0.0690977
-0.0437079
0.0317756
0.081736
-0.0505056
0.0378672
0.0947971
-0.0572414
0.0441803
0.107978
-0.0637898
0.0506089
0.120977
-0.0700496
0.0570502
0.133518
-0.0759457
0.0634046
0.145365
-0.0814497
0.0696033
0.156336
-0.0865233
0.0755517
0.166296
-0.0912872
0.0813277
0.175142
-0.0955109
0.0866652
-0.099911
0.092629
0.182424
5.24288e-05
0.000870391
0.000424438
0.0014029
0.00131264
0.000911421
0.00290334
-0.000536617
0.00537686
-0.00290843
0.00890225
-0.00618338
0.013626
-0.0103362
0.0196539
-0.0153212
0.0270332
-0.0210589
0.0357357
-0.0274308
0.0456496
-0.0342811
0.0565807
-0.0414267
0.0682642
-0.0486728
0.0803864
-0.0558302
0.092612
-0.0627311
0.104614
-0.0692432
0.116101
-0.0752775
0.126844
-0.0807926
0.136692
-0.085793
0.145568
-0.090326
0.153501
-0.0944558
0.160531
-0.0983181
0.166879
-0.101859
-0.10563
0.172598
0.000126429
0.000743961
0.000731894
0.00079744
0.0020332
-0.000389885
0.00423557
-0.00273899
0.007529
-0.00620185
0.012073
-0.0107274
0.0179744
-0.0162376
0.0252627
-0.0226096
0.033872
-0.0296682
0.043633
-0.0371919
0.0542823
-0.0449304
0.065486
-0.0526304
0.0768748
-0.0600616
0.0880837
-0.0670391
0.0987908
-0.0734383
0.108748
-0.0792008
0.117803
-0.084332
0.125902
-0.0888914
0.133086
-0.0929768
0.139468
-0.0967089
0.145216
-0.100203
0.15049
-0.103593
0.155499
-0.106867
-0.11043
0.160299
0.000217029
0.000526932
0.00110127
-8.67979e-05
0.00288406
-0.00217268
0.00577738
-0.00563231
0.00995819
-0.0103827
0.0155405
-0.0163097
0.0225444
-0.0232414
0.0308726
-0.0309378
0.0403052
-0.0391008
0.0505166
-0.0474033
0.0611135
-0.0555273
0.0716855
-0.0632023
0.0818567
-0.0702328
0.0913305
-0.0765129
0.0999177
-0.0820255
0.107546
-0.0868294
0.114253
-0.0910383
0.120156
-0.0947947
0.125425
-0.0982462
0.130243
-0.101526
0.134778
-0.104738
0.139155
-0.107969
0.143499
-0.111212
-0.114719
0.147788
0.000323863
0.000203069
0.00152717
-0.0012901
0.00384444
-0.00448995
0.00747337
-0.00926123
0.0125437
-0.015453
0.0190778
-0.0228438
0.02696
-0.0311236
0.0359302
-0.039908
0.0456093
-0.0487799
0.0555527
-0.0573466
0.065317
-0.0652916
0.074524
-0.0724094
0.0829079
-0.0786167
0.0903363
-0.0839413
0.0968063
-0.0884955
0.102418
-0.0924413
0.107336
-0.0959562
0.111747
-0.0992054
0.115825
-0.102325
0.119712
-0.105413
0.12351
-0.108536
0.127275
-0.111735
0.131064
-0.115001
-0.118489
0.134834
0.000446448
-0.000243379
0.00200131
-0.00284496
0.00488303
-0.00737167
0.00924397
-0.0136222
0.0151231
-0.0213321
0.0224036
-0.0301244
0.0308006
-0.0395206
0.0398915
-0.0489989
0.049185
-0.0580734
0.0582058
-0.0663675
0.0665711
-0.0736569
0.074039
-0.0798773
0.0805216
-0.0850993
0.0860658
-0.0894855
0.0908123
-0.093242
0.094947
-0.0965759
0.0986575
-0.0996667
0.102104
-0.102652
0.105407
-0.105627
0.108646
-0.108652
0.11187
-0.11176
0.115103
-0.114968
0.118373
-0.118271
-0.121753
0.121637
0.000583058
-0.000826437
0.00250928
-0.00477119
0.00595301
-0.0108154
0.0109816
-0.0186508
0.0174976
-0.0278481
0.0252115
-0.0378383
0.0336705
-0.0479796
0.042339
-0.0576674
0.0507039
-0.0664383
0.0583658
-0.0740293
0.065091
-0.0803821
0.0708177
-0.0856039
0.0756233
-0.0899049
0.0796717
-0.093534
0.0831585
-0.0967288
0.0862679
-0.0996854
0.0891486
-0.102547
0.0919068
-0.10541
0.0946106
-0.108331
0.0973007
-0.111342
0.0999992
-0.114458
0.102716
-0.117685
0.105463
-0.121018
-0.124495
0.108205
0.000729704
-0.00155614
0.00302829
-0.00706978
0.00699046
-0.0147776
0.0125557
-0.024216
0.019455
-0.0347474
0.0272232
-0.0456066
0.0352848
-0.0560411
0.0430784
-0.065461
0.0501689
-0.0735288
0.0563087
-0.0801691
0.0614407
-0.0855142
0.0656559
-0.0898191
0.0691303
-0.0933793
0.0720649
-0.0964685
0.0746419
-0.0993058
0.0770038
-0.102047
0.0792493
-0.104793
0.0814402
-0.107601
0.0836125
-0.110504
0.0857853
-0.113515
0.0879683
-0.116641
0.0901651
-0.119881
0.0923802
-0.123233
-0.126703
0.0945884
0.000879601
-0.00243574
0.00352725
-0.00971743
0.00791896
-0.0191693
0.0138296
-0.0301267
0.0208076
-0.0417253
0.0282472
-0.0530462
0.0355294
-0.0633234
0.0421602
-0.0720917
0.0478508
-0.0792194
0.0525253
-0.0848436
0.0562718
-0.0892607
0.0592707
-0.092818
0.0617273
-0.0958359
0.0638258
-0.098567
0.0657076
-0.101188
0.0674688
-0.103808
0.0691685
-0.106493
0.0708401
-0.109273
0.0725014
-0.112165
0.0741615
-0.115175
0.0758245
-0.118304
0.0774921
-0.121549
0.0791645
-0.124906
-0.128365
0.0808265
0.00102348
-0.00345922
0.00396973
-0.0126637
0.00865994
-0.0238595
0.0146841
-0.0361509
0.0214284
-0.0484696
0.0282136
-0.0598314
0.0344634
-0.0695732
0.0398172
-0.0774454
0.0441521
-0.0835544
0.0475355
-0.088227
0.0501436
-0.0918688
0.052186
-0.0948604
0.0538523
-0.0975022
0.0552879
-0.100003
0.0565908
-0.102491
0.0578205
-0.105038
0.0590099
-0.107682
0.0601767
-0.11044
0.0613299
-0.113318
0.0624739
-0.116319
0.0636107
-0.119441
0.0647408
-0.122679
0.0658624
-0.126027
-0.12947
0.0669675
0.00115112
-0.00461035
0.00432002
-0.0158326
0.00914643
-0.0286859
0.015039
-0.0420435
0.0212717
-0.0547023
0.0271705
-0.0657302
0.0322695
-0.0746722
0.0363661
-0.081542
0.0394826
-0.0866708
0.0417795
-0.0905239
0.0434679
-0.0935573
0.0447462
-0.0961386
0.0457684
-0.0985244
0.0466388
-0.100873
0.0474204
-0.103272
0.048148
-0.105766
0.0488395
-0.108374
0.0495044
-0.111104
0.0501477
-0.113961
0.050772
-0.116943
0.0513782
-0.120047
0.051966
-0.123267
0.0525321
-0.126593
-0.130011
0.0530728
0.00125541
-0.00586576
0.00455148
-0.0191286
0.00933531
-0.0334697
0.0148647
-0.0475729
0.0203702
-0.0602078
0.0252529
-0.0706129
0.0291917
-0.0786109
0.032131
-0.0844814
0.0341962
-0.0887361
0.035593
-0.0919206
0.0365289
-0.0944932
0.0371712
-0.096781
0.0376354
-0.0989885
0.0379914
-0.101229
0.0382778
-0.103559
0.0385143
-0.106002
0.0387107
-0.10857
0.0388724
-0.111266
0.0390028
-0.114092
0.0391037
-0.117044
0.0391762
-0.12012
0.0392195
-0.12331
0.0392306
-0.126604
0.0392095
-0.12999
-0.000216757
-0.000165639
0.000382396
-0.000750722
-0.000163639
0.000697605
-0.00153022
7.95969e-05
0.000699899
-0.00250191
0.000488927
0.000482768
-0.00362527
0.00100263
0.000120722
-0.00486944
0.00157723
-0.000333054
-0.00621041
0.00218776
-0.000846783
-0.00762899
0.00282538
-0.0014068
-0.00910898
0.00349363
-0.00201364
-0.0106358
0.00420405
-0.00267722
-0.0121954
0.0049719
-0.0034123
-0.0137733
0.00581291
-0.00423497
-0.015354
0.00674091
-0.00516025
-0.01692
0.00776657
-0.00620058
-0.0184517
0.00889669
-0.00736501
-0.0199271
0.0101338
-0.00865842
-0.0213222
0.011476
-0.0100809
-0.0226122
0.0129167
-0.0116267
-0.023773
0.0144446
-0.0132838
-0.0247843
0.0160442
-0.015033
-0.0256325
0.017697
-0.0168487
-0.0263149
0.0193818
-0.0186994
-0.0268469
0.0210796
-0.0205476
0.0227934
-0.0272819
-0.0223585
-0.000196875
3.12366e-05
-0.000681077
0.000320562
-0.00138417
0.000782688
-0.00225446
0.00135922
-0.00325205
0.00200022
-0.00434583
0.002671
-0.0055107
0.00335263
-0.00672532
0.00404
-0.00797033
0.00473865
-0.00922704
0.00546075
-0.0104765
0.00622135
-0.0116988
0.00703521
-0.0128726
0.00791471
-0.0139746
0.00886857
-0.0149792
0.00990132
-0.0158585
0.0110131
-0.0165822
0.0121997
-0.0171182
0.0134527
-0.0174335
0.0147598
-0.0174956
0.0161064
-0.0172756
0.0174769
-0.0167522
0.0188584
-0.0159199
0.0202474
0.0216663
-0.0147928
-0.000168892
0.000200128
-0.000583579
0.000735249
-0.00118126
0.00138037
-0.00191237
0.00209033
-0.00273761
0.00282546
-0.00362521
0.0035586
-0.00454836
0.00427578
-0.00548298
0.00497462
-0.00640598
0.00566164
-0.00729404
0.00634881
-0.00812281
0.00705012
-0.00886644
0.00777884
-0.00949723
0.0085455
-0.00998532
0.00935665
-0.0102984
0.0102144
-0.0104017
0.0111164
-0.0102574
0.0120554
-0.00982472
0.01302
-0.00905946
0.0139945
-0.00791444
0.0149614
-0.00633966
0.0159021
-0.00428354
0.0168023
-0.00170218
0.017666
0.0185904
0.00137374
-0.000138018
0.000338146
-0.000475016
0.00107225
-0.000953477
0.00185883
-0.00152551
0.00266237
-0.00215172
0.00345167
-0.00279901
0.0042059
-0.00343829
0.00491506
-0.00404231
0.00557863
-0.00458395
0.00620329
-0.00503508
0.00679994
-0.0053658
0.00738084
-0.00554408
0.00795713
-0.00553564
0.00853706
-0.0053038
0.00912481
-0.00480853
0.00971914
-0.00400841
0.0103163
-0.00285812
0.0109052
-0.00130895
0.0114709
0.000691582
0.011994
0.00320249
0.0124504
0.00629003
0.0128146
0.0100271
0.0130652
0.0144964
0.0131967
0.01329
0.0197968
-0.000109441
0.000447587
-0.000371838
0.00133464
-0.000732603
0.00221959
-0.00114391
0.00307368
-0.00156504
0.0038728
-0.00196068
0.00460154
-0.00229878
0.00525316
-0.0025485
0.00582835
-0.00267852
0.00633331
-0.00265584
0.00677726
-0.0024449
0.00716989
-0.00200749
0.00751972
-0.00130232
0.00783188
-0.00028508
0.00810758
0.00108977
0.00834429
0.00287371
0.00853233
0.00511961
0.00865926
0.00788377
0.00870671
0.0112268
0.00865095
0.0152143
0.00846301
0.0199199
0.00810898
0.0254303
0.00755479
0.0318424
0.00678468
0.00573903
0.0393933
-8.73628e-05
0.00053495
-0.000287373
0.00153465
-0.000544478
0.0024767
-0.000808513
0.00333771
-0.00103579
0.00410008
-0.0011876
0.00475334
-0.00122806
0.00529362
-0.0011221
0.00572239
-0.000833658
0.00604487
-0.000324362
0.00626796
0.000447079
0.00639845
0.00152589
0.00644091
0.00296081
0.00639696
0.00480426
0.00626413
0.00711319
0.00603536
0.00994683
0.00569869
0.0133687
0.00523736
0.017446
0.00462939
0.0222495
0.00384752
0.0278534
0.00285911
0.0343354
0.00162698
0.0417893
0.000100827
0.0502619
-0.00168786
-0.00423003
0.0602309
-7.40729e-05
0.000609023
-0.000228747
0.00168933
-0.000402765
0.00265072
-0.000540779
0.00347572
-0.000594121
0.00415342
-0.000519023
0.00467824
-0.000274336
0.00504893
0.000180725
0.00526733
0.000888571
0.00533702
0.00189467
0.00526186
0.00324869
0.00504443
0.00500483
0.00468477
0.00722234
0.00417945
0.00996545
0.00352102
0.0133034
0.0026974
0.0173097
0.00169236
0.0220617
0.000485387
0.0276405
-0.000949376
0.0341291
-0.00264113
0.0416122
-0.00462392
0.0501617
-0.00692253
0.0599123
-0.00964981
0.070735
-0.0125106
-0.0168753
0.0833803
-6.9214e-05
0.000678237
-0.0001944
0.00181451
-0.000303778
0.0027601
-0.00033371
0.00350566
-0.000227954
0.00404766
6.47819e-05
0.00438551
0.000593735
0.00451998
0.00140868
0.00445238
0.00256212
0.00418359
0.00411099
0.00371299
0.00611781
0.00303762
0.00865119
0.00215138
0.011786
0.00104464
0.0156024
-0.000295343
0.0201866
-0.0018868
0.025627
-0.00374807
0.0320143
-0.00590196
0.0394376
-0.00837259
0.0479807
-0.0111842
0.0577242
-0.0143674
0.0687097
-0.017908
0.0810683
-0.0220084
0.0945227
-0.0259649
-0.0322056
0.109853
-6.95056e-05
0.000747743
-0.000173133
0.00191814
-0.000224303
0.00281127
-0.000147691
0.00342904
0.000123912
0.00377606
0.000653412
0.00385601
0.00150282
0.00367057
0.00273631
0.0032189
0.00442259
0.0024973
0.00663644
0.00149914
0.00945932
0.000214736
0.0129791
-0.00136838
0.0172886
-0.00326488
0.0224841
-0.00549085
0.0286603
-0.00806296
0.0359089
-0.0109967
0.0443125
-0.0143056
0.0539401
-0.0180002
0.0648403
-0.0220845
0.0770417
-0.0265688
0.0905193
-0.0313856
0.105298
-0.0367877
0.12109
-0.0417565
-0.0493783
0.138263
-6.92006e-05
0.000816943
-0.000145578
0.00199452
-0.000124407
0.0027901
8.49704e-05
0.00321967
0.000565362
0.00329567
0.0013967
0.00302467
0.00265994
0.00240733
0.00444018
0.00143865
0.00682838
0.000109109
0.00992142
-0.0015939
0.0138208
-0.00368467
0.0186297
-0.00617721
0.0244481
-0.00908333
0.0313679
-0.0124106
0.0394659
-0.0161609
0.0487978
-0.0203286
0.0593925
-0.0249002
0.0712462
-0.0298539
0.0843194
-0.0351577
0.0985325
-0.0407819
0.11377
-0.0466234
0.129849
-0.0528661
0.146634
-0.0585413
-0.0664609
0.163716
-6.14019e-05
0.000878345
-8.84735e-05
0.00202159
4.40025e-05
0.00265762
0.000445554
0.00281811
0.00121988
0.00252134
0.00246962
0.00177493
0.00429979
0.000577161
0.0068202
-0.00108176
0.0101442
-0.00321487
0.0143854
-0.00583512
0.0196523
-0.00895155
0.0260406
-0.0125655
0.0336251
-0.0166679
0.0424512
-0.0212367
0.0525272
-0.0262369
0.0638193
-0.0316208
0.0762483
-0.0373293
0.0896903
-0.0432959
0.103979
-0.0494463
0.118913
-0.0557156
0.134284
-0.0619951
0.149781
-0.0683629
0.165428
-0.074188
-0.0811916
0.180158
-3.98234e-05
2.00231e-05
0.000325482
0.00100929
0.00219911
0.00402403
0.00661245
0.0100946
0.0145937
0.0202179
0.0270498
0.0351354
0.0444743
0.0550133
0.0666436
0.0792031
0.0924828
0.106237
0.120195
0.134083
0.14764
0.160605
0.173082
0.184519
-0.0265152
0.0320663
-0.032833
-0.025476
0.0344479
-0.0354871
-0.024124
0.0361944
-0.0375465
-0.0224289
0.0370672
-0.0387623
-0.0203496
0.036739
-0.0388183
-0.0178849
0.0348832
-0.0373479
-0.0148289
0.0308776
-0.0339337
-0.0112991
0.024744
-0.0282738
-0.0072374
0.0159139
-0.0199756
-0.00266664
0.00417726
-0.00874802
0.00240047
-0.0102724
0.00520525
0.00775069
-0.0273418
0.0219915
0.0132242
-0.0464382
0.0409647
0.0185158
-0.0665504
0.0612588
0.0231727
-0.086442
0.081785
0.0266094
-0.104862
0.101426
0.0284361
-0.12089
0.119063
0.0285418
-0.134315
0.13421
0.0275533
-0.145146
0.146135
0.0270625
-0.15257
0.153061
0.0291169
-0.153819
0.151765
0.0351263
-0.144375
0.138366
0.0449023
-0.120339
0.110563
0.057076
-0.0811451
0.0689715
0.0705267
-0.0298358
0.0163851
0.0842438
0.0278285
-0.0415456
0.0971157
0.0843426
-0.0972146
0.107711
0.131804
-0.142399
0.115233
0.165638
-0.17316
0.119309
0.185576
-0.189652
0.118739
0.197535
-0.196965
0.112734
0.21148
-0.205474
0.10391
0.228342
-0.219518
0.097833
0.230293
-0.224216
0.0984391
0.193483
-0.194089
0.10552
0.112406
-0.119487
0.116134
0.00648881
-0.0171033
0.126511
-0.0952848
0.084908
0.134255
-0.173677
0.165933
0.139217
-0.220194
0.215232
0.140217
-0.237913
0.236912
0.134869
-0.246444
0.251792
0.124513
-0.262139
0.272495
0.114788
-0.265075
0.2748
0.110967
-0.21896
0.222781
0.113865
-0.113799
0.110902
0.12084
0.0175503
-0.0245259
0.128899
0.130732
-0.138791
0.134429
0.204292
-0.209822
0.133334
0.245482
-0.244386
0.125776
0.279698
-0.27214
0.118091
0.279426
-0.271741
0.11639
0.229127
-0.227425
0.120913
0.11248
-0.117003
0.12831
-0.00808869
0.000691649
0.135308
-0.100436
0.0934382
0.140276
-0.163118
0.15815
0.140964
-0.153935
0.153246
0.136909
-0.185669
0.189724
-0.114491
0.115777
-0.0131464
0.03042
-0.0112254
0.0325269
-0.00898948
0.0339585
-0.00640303
0.0344808
-0.00344174
0.0337777
-1.96859e-05
0.0314612
0.00349979
0.0273581
0.00745592
0.0207878
0.0117602
0.0116096
0.016319
-0.000381486
0.0211281
-0.0150814
0.0260426
-0.0322563
0.0308608
-0.0512564
0.0353186
-0.0710082
0.0390147
-0.0901381
0.041404
-0.107252
0.0418884
-0.121375
0.0399767
-0.132404
0.0358563
-0.141026
0.030958
-0.147672
0.0278323
-0.150693
0.0290772
-0.14562
0.0357688
-0.127031
0.0469279
-0.0923042
0.0607599
-0.0436679
0.0757028
0.0128856
0.0901982
0.0698472
0.102756
0.119246
0.112294
0.1561
0.117855
0.180015
0.118113
0.197277
0.113109
0.216483
0.106207
0.235245
0.102412
0.234088
0.104402
0.191494
0.11151
0.105298
0.121231
-0.00323216
0.13031
-0.104364
0.136372
-0.17974
0.139667
-0.223489
0.13986
-0.238105
0.134376
-0.24096
0.123741
-0.251504
0.113429
-0.254762
0.109106
-0.214637
0.111986
-0.116679
0.119607
0.00992871
0.128479
0.121861
0.134175
0.198596
0.132656
0.247001
0.125007
0.287347
0.117812
0.286621
0.116944
0.229994
0.122134
0.107289
0.12973
-0.0156848
0.136765
-0.107471
0.141669
-0.168022
0.143156
-0.155422
0.139505
-0.182018
-0.112601
0.00401933
0.0277744
0.00678862
0.0297576
0.00981502
0.0309321
0.0131303
0.0311655
0.0167117
0.0301963
0.0205099
0.027663
0.0246157
0.0232523
0.0288767
0.0165269
0.0332338
0.00725249
0.0376733
-0.00482098
0.0420629
-0.019471
0.0463078
-0.0365012
0.0502659
-0.0552146
0.0537388
-0.0744811
0.0564251
-0.0928244
0.0578757
-0.108702
0.05745
-0.120949
0.0544339
-0.129388
0.0484815
-0.135073
0.0403324
-0.139523
0.0323737
-0.142735
0.0280742
-0.141321
0.0301335
-0.12909
0.0387765
-0.100947
0.0520856
-0.056977
0.0678394
-0.0028682
0.0837222
0.0539644
0.0980851
0.104883
0.109438
0.144748
0.116349
0.173104
0.117662
0.195964
0.114193
0.219952
0.109595
0.239843
0.10804
0.235643
0.111123
0.188411
0.117864
0.0985567
0.126374
-0.0117421
0.134013
-0.112003
0.138457
-0.184184
0.140089
-0.225121
0.139458
-0.237475
0.134023
-0.235525
0.123334
-0.240815
0.112539
-0.243967
0.107731
-0.20983
0.110583
-0.119531
0.118761
0.00175
0.128245
0.112378
0.133954
0.192886
0.132061
0.248894
0.124461
0.294947
0.117813
0.29327
0.117759
0.230048
0.123586
0.101463
0.131386
-0.0234848
0.138386
-0.11447
0.143036
-0.172672
0.145161
-0.157546
0.14209
-0.178947
-0.110337
0.0231287
0.0244425
0.0266525
0.0262338
0.0303842
0.0272003
0.0343458
0.0272039
0.0384931
0.026049
0.0427593
0.0233969
0.047116
0.0188955
0.0514842
0.0121587
0.0557292
0.00300749
0.0598988
-0.00899059
0.0637586
-0.0233308
0.0672555
-0.0399981
0.070282
-0.058241
0.0726849
-0.076884
0.0742227
-0.0943621
0.0745401
-0.10902
0.0732035
-0.119612
0.0696491
-0.125833
0.0631956
-0.12862
0.0536545
-0.129982
0.0424211
-0.131501
0.0329129
-0.131813
0.0292396
-0.125417
0.0336168
-0.105324
0.0450592
-0.0684194
0.0606389
-0.0184479
0.0776057
0.0369976
0.0935298
0.0889585
0.106475
0.131802
0.114712
0.164867
0.117405
0.193271
0.115961
0.221396
0.113914
0.24189
0.114464
0.235093
0.118335
0.18454
0.12445
0.0924418
0.131489
-0.0187816
0.13755
-0.118064
0.14046
-0.187093
0.140478
-0.225139
0.13896
-0.235957
0.1337
-0.230265
0.123206
-0.230321
0.112067
-0.232828
0.10682
-0.204582
0.109641
-0.122353
0.118265
-0.00687316
0.12815
0.102492
0.133766
0.187271
0.131583
0.251077
0.124161
0.302368
0.118098
0.299334
0.118804
0.229341
0.125205
0.095062
0.133215
-0.0314954
0.14015
-0.121405
0.144421
-0.176943
0.146983
-0.160108
0.144587
-0.176551
-0.107924
0.0432008
0.020635
0.0472113
0.0222233
0.051438
0.0229737
0.0558636
0.0227782
0.0604074
0.0215052
0.0649736
0.0188306
0.0694842
0.0143849
0.0738146
0.00782833
0.0781001
-0.00127801
0.081901
-0.0127914
0.0852479
-0.0266778
0.0880171
-0.0427672
0.0900818
-0.0603058
0.091288
-0.0780901
0.0914507
-0.0945248
0.0903836
-0.107953
0.0879177
-0.117146
0.0838078
-0.121723
0.0775103
-0.122322
0.0682616
-0.120733
0.0560847
-0.119324
0.0431843
-0.118912
0.0339412
-0.116174
0.0325845
-0.103968
0.040229
-0.0760639
0.0544318
-0.0326507
0.0717005
0.0197289
0.0887715
0.0718875
0.103088
0.117486
0.112749
0.155206
0.117238
0.188782
0.118239
0.220394
0.118869
0.24126
0.121337
0.232625
0.125721
0.180157
0.131066
0.0870964
0.136481
-0.0241965
0.14084
-0.122422
0.142283
-0.188536
0.140796
-0.223652
0.138335
-0.233496
0.133326
-0.225256
0.123283
-0.220278
0.111949
-0.221494
0.106293
-0.198926
0.109086
-0.125145
0.118034
-0.0158215
0.128133
0.0923927
0.1336
0.181804
0.131242
0.253435
0.124113
0.309497
0.118657
0.304789
0.120054
0.227945
0.126939
0.0881772
0.135159
-0.0397152
0.14202
-0.128267
0.145853
-0.180776
0.148644
-0.162898
0.146942
-0.17485
-0.105566
0.0640616
0.0168043
0.0681451
0.0181397
0.0725224
0.0185965
0.0771207
0.0181799
0.0818174
0.0168085
0.0865021
0.0141459
0.0910774
0.00980969
0.0953339
0.00357185
0.0994379
-0.00538201
0.102873
-0.016227
0.105655
-0.029459
0.107616
-0.0447287
0.108616
-0.0613058
0.10852
-0.0779944
0.107224
-0.0932284
0.104684
-0.105412
0.100935
-0.113397
0.0960385
-0.116827
0.0898541
-0.116138
0.0816874
-0.112566
0.070609
-0.108246
0.0570018
-0.105305
0.0440194
-0.103191
0.03673
-0.0966783
0.0387919
-0.0781258
0.0497369
-0.0435957
0.0660367
0.00342911
0.0835719
0.0543523
0.0990126
0.102045
0.110243
0.143976
0.116912
0.182113
0.120695
0.216611
0.124072
0.237882
0.128301
0.228396
0.132983
0.175475
0.137438
0.0826414
0.141225
-0.0279839
0.143801
-0.124998
0.143829
-0.188564
0.140995
-0.220818
0.137553
-0.230054
0.132803
-0.220507
0.123464
-0.210938
0.112103
-0.210133
0.106025
-0.192848
0.108755
-0.127875
0.11793
-0.0249971
0.128113
0.0822098
0.133442
0.176475
0.131048
0.25583
0.124312
0.316233
0.119478
0.309624
0.121482
0.22594
0.12877
0.0808894
0.137169
-0.0481135
0.143949
-0.135047
0.14735
-0.184177
0.150174
-0.165723
0.149116
-0.173792
-0.103441
0.0866137
0.013571
0.0902091
0.0145443
0.0941976
0.0146079
0.0984602
0.0139174
0.10286
0.0124085
0.107265
0.0097407
0.111531
0.00554444
0.115632
-0.00052978
0.119211
-0.00896078
0.122112
-0.0191278
0.124177
-0.031524
0.125208
-0.0457602
0.125038
-0.0611356
0.12355
-0.0765062
0.120725
-0.0904032
0.116673
-0.101361
0.111623
-0.108347
0.10585
-0.111054
0.099533
-0.109821
0.0923956
-0.105429
0.0833961
-0.0992465
0.0715025
-0.0934115
0.0577134
-0.0894022
0.046142
-0.0851069
0.0420105
-0.0739943
0.0477371
-0.0493224
0.0612295
-0.0100633
0.0781342
0.0374476
0.094289
0.0858901
0.107146
0.131119
0.116244
0.173014
0.12298
0.209875
0.129083
0.231779
0.134925
0.222554
0.139792
0.170608
0.14335
0.0790836
0.14559
-0.0302239
0.146368
-0.125776
0.145006
-0.187202
0.141015
-0.216828
0.136598
-0.225637
0.132046
-0.215955
0.12363
-0.202522
0.112449
-0.198953
0.105889
-0.186288
0.108447
-0.130433
0.117777
-0.0343275
0.127997
0.07199
0.133266
0.171206
0.130998
0.258098
0.124742
0.322488
0.120537
0.313829
0.123093
0.223384
0.130687
0.0732958
0.139217
-0.0566435
0.14589
-0.14172
0.148909
-0.187196
0.151607
-0.16842
0.151093
-0.173278
-0.101687
0.111818
0.0116057
0.114322
0.0120404
0.117314
0.0116165
0.120627
0.0106035
0.124153
0.00888257
0.127782
0.0061123
0.131223
0.00210352
0.134688
-0.00399543
0.137355
-0.0116274
0.139354
-0.0211265
0.140383
-0.0325529
0.140216
-0.0455937
0.138673
-0.0595923
0.135668
-0.0735018
0.131273
-0.0860078
0.125743
-0.0958303
0.119482
-0.102086
0.112923
-0.104495
0.106393
-0.103291
0.0999387
-0.0989749
0.0929318
-0.0922396
0.0839551
-0.0844349
0.0721296
-0.0775766
0.0593018
-0.0722792
0.050302
-0.0649945
0.0498124
-0.0488327
0.0586513
-0.0189022
0.0733466
0.0227523
0.0894144
0.0698223
0.103656
0.116878
0.115169
0.161501
0.124814
0.20023
0.133499
0.223095
0.140779
0.215274
0.14579
0.165597
0.14862
0.0762545
0.149449
-0.031053
0.148459
-0.124786
0.145724
-0.184467
0.140778
-0.211882
0.13545
-0.220308
0.130981
-0.211487
0.123649
-0.19519
0.112904
-0.188208
0.105797
-0.17918
0.107978
-0.132614
0.117387
-0.0437365
0.127682
0.0616953
0.133034
0.165854
0.13107
0.260062
0.125376
0.328182
0.121811
0.317393
0.12487
0.220326
0.132703
0.0654622
0.141284
-0.0652242
0.147803
-0.148239
0.150515
-0.189908
0.152972
-0.170878
0.15287
-0.173176
-0.1004
0.138668
0.0112005
0.139739
0.0109692
0.141283
0.0100723
0.143146
0.00874079
0.14528
0.00674856
0.14757
0.00382207
0.149856
-0.000182449
0.151859
-0.00599782
0.153253
-0.0130216
0.153907
-0.021781
0.153532
-0.0321779
0.151889
-0.0439506
0.148807
-0.0565103
0.144251
-0.0689453
0.138378
-0.0801352
0.13156
-0.0890123
0.124319
-0.0948453
0.117183
-0.0973589
0.110536
-0.0966445
0.10454
-0.0929788
0.0989669
-0.0866661
0.0927935
-0.0782615
0.0844066
-0.0691897
0.0733893
-0.0612618
0.0624777
-0.0540829
0.0567369
-0.0430919
0.0597599
-0.0219251
0.0705722
0.0119399
0.0852929
0.0551016
0.100223
0.101948
0.113772
0.147952
0.126048
0.187954
0.137039
0.212103
0.145535
0.206778
0.150679
0.160453
0.152939
0.0739946
0.152622
-0.0307359
0.149955
-0.122119
0.14587
-0.180382
0.140161
-0.206173
0.134055
-0.214202
0.12954
-0.206971
0.123372
-0.189022
0.113366
-0.178203
0.1057
-0.171515
0.107222
-0.134136
0.116611
-0.0531249
0.127065
0.0512406
0.1327
0.160219
0.131239
0.261522
0.126182
0.33324
0.123264
0.320311
0.126816
0.216774
0.134805
0.0574727
0.143356
-0.0737754
0.149656
-0.154539
0.152139
-0.19239
0.154292
-0.173031
0.154463
-0.173347
-0.0996392
0.16293
0.0119871
0.162734
0.0111646
0.162821
0.00998569
0.163166
0.00839519
0.163784
0.00613048
0.164533
0.00307383
0.165328
-0.000977672
0.165601
-0.0062712
0.16542
-0.0128406
0.164479
-0.0208395
0.162518
-0.0302168
0.159309
-0.0407416
0.154718
-0.0519195
0.148769
-0.0629961
0.141697
-0.0730637
0.133949
-0.0812645
0.126092
-0.0869879
0.118667
-0.0899341
0.112064
-0.0900411
0.106467
-0.0873823
0.101846
-0.082045
0.0977117
-0.0741272
0.0927416
-0.0642197
0.0853634
-0.0538836
0.0758245
-0.044544
0.0675733
-0.0348407
0.0653573
-0.0197091
0.0711398
0.00615744
0.0830163
0.043225
0.0974939
0.0874702
0.112292
0.133154
0.126634
0.173613
0.139573
0.199164
0.149132
0.197219
0.154394
0.15519
0.156265
0.0721237
0.154998
-0.029469
0.150791
-0.117912
0.145369
-0.174961
0.139058
-0.199862
0.132376
-0.207521
0.127693
-0.202287
0.122672
-0.184001
0.113728
-0.169258
0.105604
-0.163392
0.106165
-0.134696
0.115328
-0.0622872
0.126063
0.0405056
0.132206
0.154076
0.131448
0.26228
0.127109
0.337579
0.124865
0.322555
0.128896
0.212743
0.136996
0.0493727
0.145418
-0.0821965
0.151427
-0.160548
0.153747
-0.19471
0.155577
-0.174861
0.155896
-0.173666
-0.0994233
0.179051
0.0130949
0.17817
0.0120448
0.177337
0.0108187
0.17668
0.00905215
0.176174
0.00663665
0.175669
0.00357887
0.174873
-0.000181465
0.173882
-0.00528019
0.172286
-0.0112442
0.169918
-0.0184718
0.166552
-0.0268513
0.162019
-0.0362078
0.156242
-0.0461431
0.149311
-0.0560653
0.141519
-0.0652716
0.133335
-0.0730804
0.125298
-0.0789511
0.117893
-0.0825283
0.111464
-0.0836127
0.106205
-0.0821226
0.102159
-0.0779993
0.0991758
-0.0711441
0.0966247
-0.0616685
0.0930315
-0.0502904
0.087039
-0.0385516
0.0796309
-0.0274325
0.0746406
-0.0147188
0.0756567
0.0051413
0.0835469
0.0353348
0.0961457
0.0748714
0.111073
0.118227
0.126741
0.157944
0.141087
0.184818
0.151348
0.186958
0.156891
0.149647
0.158742
0.0702724
0.156758
-0.0274845
0.151174
-0.112328
0.144473
-0.16826
0.137671
-0.19306
0.130617
-0.200467
0.125631
-0.1973
0.121576
-0.179946
0.113937
-0.16162
0.105568
-0.155023
0.104886
-0.134014
0.113509
-0.0709103
0.124585
0.0294297
0.131491
0.147169
0.131668
0.262103
0.128127
0.341121
0.126564
0.324117
0.131101
0.208206
0.13926
0.0412145
0.147458
-0.0903952
0.153108
-0.166198
0.155308
-0.19691
0.156831
-0.176384
0.157198
-0.174033
-0.0997432
0.183833
0.0137814
0.182857
0.0130205
0.181936
0.0117396
0.180984
0.0100044
0.179928
0.00769205
0.178743
0.00476454
0.177515
0.00104663
0.17561
-0.00337527
0.173151
-0.00878558
0.169899
-0.0152203
0.165712
-0.022664
0.160483
-0.0309791
0.154215
-0.0398743
0.147061
-0.0489119
0.139342
-0.0575523
0.131489
-0.0652279
0.123955
-0.0714168
0.117118
-0.0756912
0.111232
-0.0777271
0.106426
-0.0773164
0.102751
-0.0743245
0.100221
-0.0686136
0.098678
-0.0601255
0.0973574
-0.0489698
0.0947648
-0.035959
0.090113
-0.0227807
0.0850975
-0.00970333
0.0834705
0.00676831
0.087532
0.0312734
0.0970845
0.065319
0.110531
0.104781
0.126104
0.142371
0.141037
0.169885
0.15219
0.175805
0.158678
0.143159
0.160787
0.068163
0.157934
-0.0246308
0.151111
-0.105505
0.143404
-0.160553
0.136269
-0.185925
0.129027
-0.193224
0.123627
-0.1919
0.12022
-0.176539
0.11397
-0.15537
0.105624
-0.146676
0.103603
-0.131993
0.111314
-0.0786214
0.122632
0.018111
0.130481
0.139321
0.131821
0.260763
0.129148
0.343794
0.128328
0.324937
0.133419
0.203115
0.141592
0.0330413
0.149464
-0.0982674
0.1547
-0.171434
0.156794
-0.199004
0.158047
-0.177638
0.158402
-0.174387
-0.100564
0.199591
0.0143051
-0.200115
0.199655
0.0129562
0.199768
0.0116265
0.200013
0.00976016
0.200398
0.0073067
0.200864
0.00429883
0.201184
0.000726682
0.201517
-0.00370891
0.201584
-0.0088522
0.201225
-0.0148617
0.200248
-0.0216868
0.198454
-0.0291848
0.195688
-0.0371086
0.19188
-0.0451042
0.187063
-0.0527348
0.181363
-0.0595282
0.174973
-0.0650266
0.168114
-0.0688324
0.161009
-0.0706214
0.153856
-0.0701633
0.146824
-0.0672927
0.140048
-0.0618381
0.133643
-0.05372
0.127519
-0.0428455
0.120909
-0.0293499
0.112702
-0.0145735
0.102987
1.16133e-05
0.0936093
0.0161462
0.0873048
0.0375779
0.0859265
0.0666972
0.0902546
0.100453
0.0999671
0.132658
0.113659
0.156193
0.130549
0.158915
0.149713
0.123995
0.166654
0.051222
0.176844
-0.0348205
0.178769
-0.10743
0.174537
-0.156322
0.167086
-0.178473
0.157566
-0.183705
0.148153
-0.182487
0.140478
-0.168864
0.131491
-0.146383
0.120104
-0.135289
0.111989
-0.123878
0.111088
-0.0777199
0.113376
0.0158228
0.113602
0.139095
0.110701
0.263664
0.109141
0.345354
0.114248
0.31983
0.126089
0.191274
0.138097
0.0210336
0.146437
-0.106608
0.149934
-0.174931
0.149549
-0.198619
0.148119
-0.176208
0.146051
-0.172319
-0.0997114
0.211895
0.014121
-0.211711
0.212216
0.0126358
0.212767
0.0110753
0.213349
0.00917852
0.213863
0.00679239
0.21427
0.00389172
0.214584
0.000412495
0.214631
-0.00375531
0.214334
-0.00855549
0.213532
-0.0140598
0.212076
-0.0202307
0.209827
-0.0269358
0.206683
-0.0339652
0.202607
-0.0410274
0.197633
-0.0477612
0.191873
-0.0537684
0.185496
-0.0586498
0.17871
-0.0620459
0.171732
-0.0636437
0.164767
-0.0631982
0.157997
-0.0605231
0.151563
-0.0554038
0.14557
-0.0477267
0.140103
-0.0373785
0.134838
-0.024085
0.128754
-0.00848918
0.120972
0.00779364
0.112519
0.0245988
0.105752
0.0443445
0.103409
0.0690408
0.10715
0.0967116
0.116841
0.122968
0.131248
0.141787
0.149446
0.140717
0.168998
0.104443
0.185048
0.0351719
0.193493
-0.0432655
0.193563
-0.107499
0.187462
-0.150221
0.178604
-0.169615
0.168278
-0.173379
0.158071
-0.17228
0.149922
-0.160715
0.141204
-0.137665
0.129728
-0.123813
0.120459
-0.11461
0.118293
-0.0755535
0.120155
0.0139607
0.120447
0.138803
0.117976
0.266135
0.117578
0.345752