/*--------------------------------*- C++ -*----------------------------------*\
| =========                 |                                                 |
| \\      /  F ield         | OpenFOAM: The Open Source CFD Toolbox           |
|  \\    /   O peration     | Version:  2512                                  |
|   \\  /    A nd           | Website:  www.openfoam.com                      |
|    \\/     M anipulation  |                                                 |
\*---------------------------------------------------------------------------*/
FoamFile
{
    version     2.0;
    format      ascii;
    arch        "LSB;label=32;scalar=64";
    class       volVectorField;
    location    "134.75";
    object      U;
}
// * * * * * * * * * * * * * * * * * * * * * * * * * * * * * * * * * * * * * //

dimensions      [0 1 -1 0 0 0 0];

internalField   nonuniform List<vector> 
13248
(
(-0.0126263 0.0107495 6.53193e-20)
(-0.0242589 0.0213088 0)
(-0.0235254 0.0252186 -1.23602e-19)
(-0.0103083 0.0254517 1.16437e-19)
(0.0156139 0.0239463 1.08681e-19)
(0.054395 0.0220104 0)
(0.106078 0.0205542 0)
(0.170423 0.020206 2.55574e-19)
(0.246732 0.0213739 -2.91693e-21)
(0.333722 0.0242721 -2.20233e-19)
(0.42946 0.0289213 2.00664e-19)
(0.531403 0.0351475 -1.25007e-19)
(0.636524 0.0425904 0)
(0.741523 0.0507313 -2.10216e-19)
(0.843069 0.0589392 3.92141e-19)
(0.938049 0.0665309 -9.22942e-20)
(1.0238 0.0728434 -1.67617e-19)
(1.09828 0.0772758 1.57351e-19)
(1.1602 0.0794394 0)
(1.20909 0.0788043 0)
(1.24524 0.0760494 0)
(1.26972 0.0686227 0)
(1.28368 0.063535 5.11757e-20)
(1.29033 0.0427727 1.91862e-19)
(-0.013334 0.0104386 -1.97443e-19)
(-0.0214396 0.0193151 1.34875e-19)
(-0.0125403 0.0217774 -1.25832e-21)
(0.0126391 0.0209113 -1.78164e-19)
(0.0537821 0.0188598 -1.0856e-19)
(0.110555 0.0171291 -1.02493e-19)
(0.182315 0.0167451 -1.86122e-19)
(0.267841 0.018356 1.76477e-19)
(0.365129 0.0222838 0)
(0.471325 0.0285427 1.43366e-21)
(0.582826 0.0368531 3.57086e-21)
(0.695538 0.0466754 1.26424e-19)
(0.805238 0.0572721 0)
(0.907968 0.0677951 0)
(1.00039 0.0773873 1.45116e-19)
(1.08004 0.0852813 -2.72501e-19)
(1.14552 0.0908809 1.64466e-19)
(1.1965 0.0938126 -1.54406e-19)
(1.23366 0.0939434 -6.90807e-20)
(1.25851 0.0913556 -1.27622e-19)
(1.27307 0.0863558 -5.48316e-20)
(1.27983 0.0790817 -1.03753e-19)
(1.28033 0.0713561 1.49282e-19)
(1.27883 0.0593529 4.3594e-20)
(-0.0127174 0.0092127 0)
(-0.0145343 0.0155394 0)
(0.00558614 0.016612 6.30253e-20)
(0.0460038 0.0153677 5.78671e-20)
(0.10564 0.0139808 -1.73729e-21)
(0.183263 0.0140261 -1.06498e-19)
(0.276969 0.0164976 0)
(0.383881 0.0218744 -8.7402e-20)
(0.500054 0.0301634 8.20288e-20)
(0.620656 0.04094 1.16153e-21)
(0.740399 0.0534228 -1.37488e-19)
(0.854104 0.0665931 -1.24878e-19)
(0.95727 0.0793462 2.7693e-21)
(1.04653 0.0906482 -1.0229e-19)
(1.11991 0.0996677 2.45783e-19)
(1.1769 0.105864 0)
(1.21833 0.109022 -1.60558e-19)
(1.24605 0.109215 7.75723e-20)
(1.2626 0.106786 6.90244e-20)
(1.27069 0.102109 0)
(1.27295 0.095969 5.77131e-20)
(1.27145 0.0880952 -2.01174e-19)
(1.26754 0.0811997 1.88852e-19)
(1.26367 0.0698816 1.21707e-19)
(-0.0104308 0.00719619 -7.04096e-20)
(-0.00263537 0.0103052 -7.29022e-20)
(0.0320742 0.0102582 6.56592e-20)
(0.0909991 0.00959771 0)
(0.171928 0.0103334 0)
(0.272133 0.0139093 -2.60776e-21)
(0.387728 0.0210337 0)
(0.513512 0.0317131 -2.68826e-19)
(0.643238 0.0453374 2.48787e-19)
(0.770255 0.0608163 -3.05342e-19)
(0.888339 0.0767843 6.9106e-20)
(0.992471 0.0918415 0)
(1.07937 0.104779 1.14233e-19)
(1.14772 0.114743 -2.11289e-19)
(1.19802 0.121309 5.00214e-20)
(1.23225 0.124468 1.28705e-19)
(1.25327 0.124542 -5.33826e-21)
(1.26432 0.122058 -1.44189e-19)
(1.26845 0.117607 0)
(1.26817 0.111763 0)
(1.26531 0.105021 -5.23179e-20)
(1.26102 0.0975378 4.72237e-20)
(1.25586 0.0906554 1.71752e-19)
(1.25093 0.0807765 -1.61231e-19)
(-0.00614704 0.00462515 -7.46981e-20)
(0.0150846 0.00427406 -7.42107e-20)
(0.067951 0.0037774 2.08571e-19)
(0.148408 0.00502795 -1.26081e-19)
(0.252542 0.00961424 1.18676e-19)
(0.375369 0.0185398 2.14438e-19)
(0.510302 0.0318521 -1.51569e-19)
(0.649467 0.0487155 -1.83308e-19)
(0.784607 0.0676462 4.46685e-21)
(0.908246 0.0868406 2.323e-19)
(1.01474 0.104539 0)
(1.10089 0.119335 6.35615e-20)
(1.16603 0.13037 0)
(1.21168 0.13737 -1.02589e-19)
(1.24085 0.140564 1.43985e-19)
(1.25723 0.140516 1.05884e-21)
(1.26453 0.137942 -3.79274e-20)
(1.26593 0.133543 7.07773e-20)
(1.26382 0.127917 6.14954e-20)
(1.25979 0.121497 -5.53479e-20)
(1.25479 0.114626 5.2307e-20)
(1.2493 0.107357 -4.72133e-20)
(1.24352 0.100542 0)
(1.2381 0.0915742 -3.61151e-20)
(0.000456906 0.00180923 7.46874e-20)
(0.0393269 -0.00164258 7.8623e-20)
(0.113878 -0.00138273 -6.9942e-20)
(0.218251 0.00350718 1.30197e-19)
(0.346075 0.0138207 -1.22543e-19)
(0.489336 0.0296783 1.10294e-19)
(0.638358 0.0500234 -5.31474e-20)
(0.782958 0.0728812 1.37767e-19)
(0.91406 0.095875 -8.68158e-20)
(1.0251 0.116768 1.52521e-19)
(1.11278 0.133891 -3.51481e-19)
(1.17699 0.146354 1.29233e-19)
(1.22016 0.154043 -1.11998e-19)
(1.24622 0.157434 1.052e-19)
(1.2596 0.157339 9.05189e-20)
(1.26438 0.154659 7.93323e-20)
(1.26385 0.150202 -2.21207e-19)
(1.26036 0.144599 1.37194e-19)
(1.25537 0.138287 -6.14991e-20)
(1.24974 0.131554 1.61194e-19)
(1.24388 0.124576 -5.20673e-20)
(1.23797 0.117442 -1.27592e-19)
(1.23205 0.110574 1.17932e-19)
(1.22637 0.102265 3.61047e-20)
(0.00968506 -0.000886143 0)
(0.0705602 -0.00637154 7.75482e-22)
(0.169917 -0.00358997 1.47142e-19)
(0.299444 0.00695292 -1.37895e-19)
(0.449517 0.0247354 -1.23881e-19)
(0.608602 0.0484701 2.29969e-19)
(0.764276 0.0756391 -1.06669e-19)
(0.905346 0.103115 1.41268e-19)
(1.02382 0.127988 -3.3693e-21)
(1.1159 0.148172 -7.98056e-20)
(1.18178 0.162671 1.72602e-19)
(1.22467 0.171496 -2.54822e-19)
(1.24937 0.175373 0)
(1.261 0.175376 -4.97729e-20)
(1.26408 0.172609 -1.32375e-19)
(1.26211 0.16801 4.17276e-20)
(1.25745 0.162276 1.62353e-21)
(1.25157 0.155871 -9.12411e-20)
(1.24526 0.149082 5.60533e-21)
(1.23891 0.142082 1.05629e-19)
(1.23266 0.134977 -4.7312e-20)
(1.22654 0.127842 -1.80748e-20)
(1.22049 0.120829 5.53928e-20)
(1.21462 0.11301 0)
(0.0217703 -0.00303951 0)
(0.108877 -0.0087468 3.99922e-20)
(0.235314 -0.00121781 -1.92901e-19)
(0.389633 0.0170255 6.99611e-20)
(0.558369 0.0435191 -6.58437e-20)
(0.726667 0.0751101 -6.01337e-20)
(0.880632 0.107763 -1.05627e-19)
(1.01008 0.137603 5.30508e-20)
(1.11006 0.161862 4.56917e-20)
(1.18066 0.179257 0)
(1.22565 0.189851 1.03052e-19)
(1.2507 0.194609 -1.53217e-19)
(1.2617 0.194895 1.13768e-19)
(1.26375 0.192067 4.97995e-20)
(1.26067 0.187241 -4.07593e-20)
(1.255 0.181224 -3.38679e-20)
(1.24826 0.174534 -3.15938e-20)
(1.24125 0.167485 9.48167e-20)
(1.23435 0.160255 0)
(1.22769 0.152946 4.76249e-20)
(1.22128 0.145626 4.0141e-20)
(1.21508 0.138349 -9.96442e-20)
(1.20902 0.131128 -6.84967e-20)
(1.20309 0.123623 6.31591e-20)
(0.0368049 -0.00417771 -4.36884e-20)
(0.15386 -0.00758278 -1.86358e-21)
(0.3084 0.00718148 3.93589e-20)
(0.485302 0.0348812 1.10101e-19)
(0.667246 0.0705101 3.19034e-20)
(0.837157 0.108873 -6.17612e-20)
(0.981722 0.144809 5.62038e-20)
(1.09385 0.174453 -4.89583e-20)
(1.17285 0.195918 8.76353e-20)
(1.22277 0.209158 3.69877e-20)
(1.25008 0.215347 -1.05338e-19)
(1.26164 0.216185 3.08075e-20)
(1.2633 0.213358 5.23832e-20)
(1.25941 0.208235 -2.58104e-20)
(1.25284 0.201788 0)
(1.24524 0.194632 3.81162e-20)
(1.23748 0.187124 6.42854e-20)
(1.22994 0.179463 1.08475e-20)
(1.22277 0.171755 -5.34987e-20)
(1.21597 0.164066 2.22816e-20)
(1.20951 0.156442 0)
(1.2033 0.148907 -1.74713e-20)
(1.19727 0.141431 -1.66852e-20)
(1.19132 0.13407 0)
(0.0546747 -0.00379742 0)
(0.204489 -0.00176818 2.2946e-20)
(0.386627 0.0227204 4.24313e-20)
(0.582155 0.06103 -1.12654e-19)
(0.770707 0.105245 3.65329e-20)
(0.934935 0.148413 0)
(1.06434 0.185049 5.43126e-20)
(1.15637 0.212161 -7.58234e-20)
(1.21481 0.229284 -4.38549e-20)
(1.24685 0.237708 1.96894e-20)
(1.26044 0.239515 -3.13877e-20)
(1.2625 0.236818 7.62643e-20)
(1.25817 0.231346 3.78292e-20)
(1.2508 0.224317 -2.64609e-20)
(1.24234 0.216493 -2.63484e-21)
(1.23376 0.208311 -7.13357e-20)
(1.22552 0.200002 3.24215e-20)
(1.21776 0.191687 -8.69663e-22)
(1.2105 0.183431 0)
(1.20369 0.17528 -2.2305e-20)
(1.19727 0.167259 0)
(1.19113 0.159366 5.0187e-20)
(1.18519 0.151602 -5.95907e-20)
(1.17931 0.144214 2.71372e-20)
(0.075012 -0.00140255 -1.20885e-20)
(0.259139 0.00962988 -5.79956e-20)
(0.46676 0.0460548 6.60954e-20)
(0.67564 0.0953056 3.86741e-20)
(0.864041 0.14664 -1.84504e-20)
(1.01666 0.192124 3.08733e-20)
(1.12758 0.226961 -1.49953e-20)
(1.19932 0.24974 2.47755e-20)
(1.23946 0.261629 0)
(1.25717 0.265094 5.56006e-20)
(1.26076 0.262801 -2.45999e-21)
(1.2565 0.256983 -4.45696e-20)
(1.24852 0.249226 1.89482e-20)
(1.23921 0.240521 -2.12246e-20)
(1.22978 0.231427 -7.94076e-21)
(1.22077 0.222233 9.32613e-21)
(1.21235 0.213083 -7.09731e-21)
(1.20455 0.20405 -3.84469e-20)
(1.19734 0.195175 2.35234e-20)
(1.19062 0.186487 4.76506e-21)
(1.18432 0.177993 4.17884e-21)
(1.17832 0.169678 3.66697e-21)
(1.17253 0.161605 0)
(1.16677 0.154015 0)
(0.0972556 0.00346064 1.20969e-20)
(0.315788 0.027281 -1.20728e-20)
(0.545343 0.0773111 -2.20452e-20)
(0.761639 0.136928 0)
(0.943824 0.193231 -9.17625e-21)
(1.08078 0.238439 -8.27406e-21)
(1.17214 0.269387 -1.40627e-20)
(1.22511 0.286643 0)
(1.25001 0.292937 0)
(1.25687 0.2916 0)
(1.25353 0.285564 0)
(1.24529 0.276964 0)
(1.23523 0.267147 -1.18787e-20)
(1.22493 0.256871 5.39974e-21)
(1.2151 0.246518 9.31522e-21)
(1.20598 0.236272 4.35042e-21)
(1.1976 0.226216 1.06607e-20)
(1.18993 0.216391 0)
(1.18289 0.206824 -2.51361e-21)
(1.17639 0.197528 -2.41274e-21)
(1.17032 0.188494 -4.18552e-21)
(1.16458 0.179712 -3.67284e-21)
(1.15903 0.171313 0)
(1.15353 0.163365 2.58621e-21)
(-0.00130688 -0.0159395 8.67858e-21)
(-0.00779592 -0.0270487 -9.01308e-21)
(-0.0199677 -0.0247139 -1.70614e-20)
(-0.0349067 -0.0140394 0)
(-0.05108 0.00122053 -2.29009e-20)
(-0.067765 0.0186412 7.26251e-21)
(-0.0844696 0.0369412 -1.34643e-20)
(-0.100824 0.0556852 0)
(-0.116541 0.0749633 0)
(-0.131382 0.0950932 0)
(-0.145131 0.116406 0)
(-0.157583 0.139126 0)
(-0.168535 0.163316 2.23995e-22)
(-0.177774 0.188872 -8.88912e-21)
(-0.185072 0.215527 1.62193e-20)
(-0.190185 0.242856 2.29767e-20)
(-0.192854 0.270281 6.91805e-21)
(-0.192817 0.297074 0)
(-0.189819 0.322369 6.39685e-21)
(-0.183642 0.345196 -1.77772e-20)
(-0.174108 0.364537 -1.10992e-20)
(-0.161039 0.379381 -1.0498e-20)
(-0.144352 0.388786 0)
(-0.124537 0.392124 0)
(-0.000597915 -0.0107356 -2.58466e-20)
(-0.00626631 -0.0153138 4.47393e-20)
(-0.0175469 -0.00897432 -1.65022e-20)
(-0.0315089 0.00411699 -3.17174e-20)
(-0.0465639 0.0207685 4.50384e-20)
(-0.0619311 0.0388766 -2.81044e-20)
(-0.0770937 0.0573312 3.98943e-20)
(-0.0916725 0.0757773 2.44259e-20)
(-0.105369 0.0943344 0)
(-0.117919 0.113332 -2.22316e-20)
(-0.12907 0.13311 1.1164e-22)
(-0.138568 0.153893 1.96782e-20)
(-0.146155 0.17574 2.68174e-20)
(-0.151563 0.198531 3.36302e-20)
(-0.154515 0.221982 -1.6293e-20)
(-0.154721 0.24565 -4.47376e-20)
(-0.151887 0.26895 1.34615e-20)
(-0.145724 0.291164 -5.1383e-20)
(-0.135962 0.311464 0)
(-0.122372 0.328945 1.17529e-20)
(-0.10479 0.342701 1.10805e-20)
(-0.0830823 0.351876 1.04799e-20)
(-0.057114 0.355837 0)
(-0.0271024 0.354601 0)
(-0.000353554 -0.00626889 0)
(-0.00557335 -0.00533882 8.65456e-20)
(-0.0158362 0.0042803 -3.27109e-20)
(-0.0283864 0.0192463 3.11891e-20)
(-0.041666 0.0368853 -8.68001e-20)
(-0.0548681 0.0553845 0)
(-0.0674685 0.0737672 -5.11096e-20)
(-0.0790939 0.0917152 2.36706e-20)
(-0.0894509 0.109339 -4.4225e-20)
(-0.0982715 0.126951 1.98955e-20)
(-0.105286 0.144883 1.17043e-19)
(-0.110215 0.163362 -5.49192e-20)
(-0.112769 0.182456 -8.60826e-20)
(-0.112651 0.202055 -3.11218e-20)
(-0.109559 0.221885 2.15295e-22)
(-0.103195 0.24152 1.12466e-19)
(-0.0932718 0.260402 -5.27489e-20)
(-0.0795253 0.277856 1.07113e-21)
(-0.0617306 0.29312 0)
(-0.0396989 0.305377 -4.36417e-20)
(-0.0133546 0.313804 0)
(0.0173129 0.317661 -4.20426e-20)
(0.0526485 0.316485 1.56178e-19)
(0.092946 0.310665 2.70018e-21)
(-0.000460625 -0.00274733 0)
(-0.00559662 0.00242351 -6.51205e-22)
(-0.0149246 0.0144271 3.17332e-20)
(-0.025929 0.0305824 -2.9734e-20)
(-0.037117 0.0486704 2.88393e-20)
(-0.047672 0.0671398 1.58774e-19)
(-0.0570731 0.0851243 -4.98753e-20)
(-0.0649658 0.102316 -4.59223e-20)
(-0.0710812 0.118787 8.70447e-20)
(-0.0751747 0.134805 -1.22168e-19)
(-0.0769911 0.150672 3.74293e-20)
(-0.0762608 0.166615 3.46797e-20)
(-0.0726999 0.182714 0)
(-0.0660175 0.198891 3.13896e-20)
(-0.0559213 0.214911 0)
(-0.0421345 0.230399 5.26592e-20)
(-0.0244155 0.244854 -1.01077e-19)
(-0.00255763 0.257682 2.36911e-20)
(0.0235954 0.26822 8.96152e-20)
(0.0541314 0.275764 4.35878e-20)
(0.0890448 0.279592 0)
(0.128201 0.279051 -1.20028e-19)
(0.17157 0.273743 3.75121e-20)
(0.222143 0.263679 0)
(-0.000817517 -0.000155543 0)
(-0.00622389 0.00795782 -1.00285e-19)
(-0.014889 0.0213528 -3.12459e-20)
(-0.0244964 0.0378722 -5.89936e-20)
(-0.0336115 0.0557052 5.55484e-20)
(-0.0414136 0.0735507 -5.25105e-20)
(-0.0473906 0.0906503 9.66806e-20)
(-0.0512153 0.106702 4.51532e-20)
(-0.0526597 0.12173 -1.27627e-19)
(-0.051529 0.135938 7.82388e-20)
(-0.0476145 0.149583 -1.1031e-19)
(-0.0406932 0.16287 2.36253e-19)
(-0.0305316 0.175892 -1.27312e-19)
(-0.0168815 0.188607 5.79696e-20)
(0.000497769 0.200835 1.64055e-19)
(0.0218244 0.212269 -5.27879e-20)
(0.0472789 0.222496 -4.72549e-20)
(0.0769945 0.231023 -4.62837e-20)
(0.111046 0.237297 0)
(0.149439 0.240739 -8.34546e-20)
(0.192082 0.240767 -8.22669e-20)
(0.239046 0.236782 1.13137e-19)
(0.288657 0.228514 1.52032e-19)
(0.349691 0.214777 -1.41559e-19)
(-0.00137809 0.0017065 0)
(-0.0074123 0.0116228 -1.30915e-19)
(-0.0158135 0.0254103 6.77025e-22)
(-0.0243638 0.0413772 1.16384e-19)
(-0.0316642 0.058109 0)
(-0.0368965 0.0745649 0)
(-0.0395634 0.0901134 0)
(-0.0393703 0.104476 -4.41903e-20)
(-0.0361379 0.117639 9.34815e-22)
(-0.0297332 0.129743 7.68499e-20)
(-0.0200237 0.14099 -1.07074e-19)
(-0.00686109 0.15155 6.73985e-22)
(0.0099164 0.161518 0)
(0.0304813 0.170882 -5.79405e-20)
(0.0550016 0.179518 5.17972e-20)
(0.0836272 0.187195 -1.48107e-19)
(0.116477 0.193596 1.86543e-19)
(0.153628 0.19833 4.42304e-20)
(0.195121 0.200952 2.31165e-21)
(0.240978 0.201001 -1.57769e-19)
(0.290894 0.198006 -7.51692e-20)
(0.346038 0.191395 2.60335e-19)
(0.400997 0.181337 -1.75055e-19)
(0.474648 0.164538 0)
(-0.00217381 0.00314519 6.26108e-20)
(-0.00920479 0.0140157 6.52705e-20)
(-0.0177556 0.0272998 -6.08001e-20)
(-0.0256158 0.0418078 -1.14293e-19)
(-0.0314101 0.0565483 1.07615e-19)
(-0.0343381 0.0707674 -9.96105e-20)
(-0.0339277 0.0839936 1.39976e-19)
(-0.0299198 0.0960056 -4.39288e-20)
(-0.0221811 0.106777 8.09109e-20)
(-0.0106362 0.116405 0)
(0.00477977 0.125043 6.70734e-20)
(0.0241439 0.132828 -1.2697e-19)
(0.047552 0.139851 1.17842e-19)
(0.0751166 0.14612 -1.10673e-19)
(0.106959 0.15156 0)
(0.1432 0.156009 9.59067e-20)
(0.183946 0.159233 1.78755e-19)
(0.22928 0.160933 -1.69148e-19)
(0.279255 0.160761 -7.9403e-20)
(0.334079 0.158367 -7.97095e-20)
(0.39283 0.153276 2.21129e-19)
(0.459198 0.145147 7.25578e-20)
(0.520717 0.134342 -6.56494e-20)
(0.612206 0.115974 6.57801e-20)
(-0.00328981 0.00447067 -6.26194e-20)
(-0.01167 0.0157837 1.92726e-19)
(-0.0206437 0.0278697 -6.03559e-20)
(-0.0279851 0.0401553 1.1308e-19)
(-0.0323587 0.0521255 -1.06473e-19)
(-0.0330071 0.0633494 1.44155e-22)
(-0.0294919 0.073552 4.61572e-20)
(-0.02158 0.0826078 1.67818e-19)
(-0.00916004 0.0905183 -2.50271e-21)
(0.00782184 0.0973694 -7.47073e-20)
(0.0294096 0.103286 0)
(0.0556631 0.108389 -6.06323e-20)
(0.0866686 0.112765 1.16232e-19)
(0.122538 0.11644 1.06533e-19)
(0.1634 0.119374 -5.07368e-20)
(0.20939 0.121459 -1.12552e-21)
(0.260626 0.122517 -4.42956e-20)
(0.317201 0.122325 8.16901e-20)
(0.379058 0.120576 7.93956e-20)
(0.446547 0.117073 -7.58336e-20)
(0.517465 0.111128 7.11587e-20)
(0.59848 0.103096 -6.84376e-20)
(0.667856 0.092347 0)
(0.779145 0.0755738 -6.57537e-20)
(-0.00480801 0.00589488 6.20633e-20)
(-0.0147862 0.0174227 -6.41976e-20)
(-0.024131 0.0278801 6.01995e-20)
(-0.030677 0.0374506 0)
(-0.0331742 0.0461528 0)
(-0.030932 0.0539142 9.66888e-20)
(-0.0235374 0.060688 -9.15636e-20)
(-0.0107513 0.0664843 8.22378e-20)
(0.00756819 0.0713718 -3.8862e-19)
(0.0315172 0.0754624 1.06104e-21)
(0.0611879 0.0788841 6.59691e-20)
(0.0966833 0.0817583 0)
(0.138117 0.0841736 -1.1249e-19)
(0.185599 0.0861679 2.10124e-19)
(0.239208 0.0877174 -1.47414e-19)
(0.298955 0.0887309 -2.28618e-19)
(0.364746 0.0890537 -5.69542e-22)
(0.43636 0.0884856 1.60258e-19)
(0.513234 0.0867038 0)
(0.595346 0.0836831 0)
(0.679113 0.0783784 -7.11589e-20)
(0.772069 0.0722187 6.84368e-20)
(0.847419 0.0622971 -2.63899e-19)
(0.966648 0.0503558 2.47219e-19)
(-0.00672715 0.00745331 0)
(-0.0183037 0.0191161 0)
(-0.0274674 0.0277865 -1.80258e-19)
(-0.0322763 0.0344974 5.73581e-20)
(-0.0316283 0.0398376 1.17047e-21)
(-0.0249095 0.0441129 9.81664e-20)
(-0.0117091 0.0475284 0)
(0.00826275 0.0502603 -8.36878e-20)
(0.0352237 0.0524779 7.75286e-20)
(0.0693431 0.0543449 -1.40887e-19)
(0.110749 0.0560182 9.75351e-22)
(0.159518 0.057629 1.20387e-19)
(0.215641 0.0592616 -1.58321e-21)
(0.278977 0.0609385 1.02457e-19)
(0.349208 0.0626096 -1.46094e-19)
(0.425801 0.0641478 0)
(0.507967 0.0653529 1.70432e-19)
(0.594668 0.0659689 -2.40557e-19)
(0.684471 0.0656379 7.56605e-20)
(0.776259 0.0642546 0)
(0.866322 0.0607818 6.8312e-20)
(0.958903 0.0568653 2.6714e-19)
(1.03296 0.0481815 -2.50699e-19)
(1.13615 0.0412021 -3.02022e-19)
(-0.00889667 0.00898537 1.87097e-19)
(-0.0216588 0.0206733 -2.57463e-19)
(-0.0294827 0.0276099 6.78302e-22)
(-0.0308511 0.0316595 5.71119e-20)
(-0.0248832 0.0339757 -1.05825e-19)
(-0.0110404 0.0352291 -9.77996e-20)
(0.0110895 0.0358878 1.79744e-19)
(0.041838 0.036307 -3.32617e-21)
(0.0814389 0.0367667 -1.56067e-19)
(0.130008 0.0374969 2.84043e-19)
(0.187492 0.0386804 -2.60177e-21)
(0.253609 0.0404327 -1.22446e-19)
(0.3278 0.0427914 0)
(0.409182 0.0457012 0)
(0.496536 0.0490066 -4.84307e-20)
(0.588312 0.0524529 -9.05746e-20)
(0.682675 0.0557049 -1.69817e-19)
(0.777563 0.0583407 1.59394e-19)
(0.870772 0.0599755 -7.56919e-20)
(0.960156 0.0600799 1.4315e-19)
(1.0431 0.0583627 -6.70035e-20)
(1.11961 0.0548458 1.30263e-19)
(1.18059 0.0474158 -3.00816e-19)
(1.24803 0.0414968 5.8877e-20)
(-0.011001 0.0101892 6.29111e-20)
(-0.0239874 0.0216004 0)
(-0.0287035 0.0269555 1.21814e-19)
(-0.0242496 0.0288191 -1.14755e-19)
(-0.0100228 0.0288033 1.05921e-19)
(0.0143798 0.0279136 0)
(0.0493071 0.0268704 0)
(0.0949791 0.0261892 -8.31604e-20)
(0.151401 0.0262449 2.92045e-21)
(0.218266 0.0273018 7.34708e-20)
(0.294869 0.0295116 -6.53809e-20)
(0.380045 0.0329057 1.23424e-19)
(0.472154 0.0373837 0)
(0.569123 0.0427099 2.08632e-19)
(0.668536 0.0485219 -3.89969e-19)
(0.767763 0.0543519 2.72839e-19)
(0.864113 0.0596734 1.69149e-19)
(0.954985 0.063893 -1.58777e-19)
(1.03806 0.0665968 0)
(1.11135 0.0669551 0)
(1.17353 0.0655456 0)
(1.22392 0.0601244 0)
(1.26162 0.0540495 5.91036e-20)
(1.29275 0.0437402 -2.16232e-19)
(-0.0991027 0.389235 -6.90062e-21)
(-0.0644711 0.372392 6.93902e-21)
(-0.0235709 0.338879 -2.26065e-22)
(0.0229585 0.288186 0)
(0.0742813 0.22018 -7.17992e-21)
(0.128651 0.135451 1.40666e-20)
(0.18447 0.0366553 -9.44091e-24)
(0.240697 -0.0741136 -6.68768e-21)
(0.296291 -0.191958 0)
(0.350513 -0.310495 0)
(0.402133 -0.420243 -3.20627e-22)
(0.44871 -0.510378 -2.69583e-22)
(0.486977 -0.572358 -3.34351e-21)
(0.514379 -0.603408 3.03646e-21)
(0.52983 -0.607561 0)
(0.531685 -0.595907 0)
(0.516349 -0.583725 1.6109e-21)
(0.483976 -0.578437 1.30877e-23)
(0.446175 -0.566364 -1.44205e-21)
(0.424101 -0.516036 -9.88587e-23)
(0.434594 -0.401594 0)
(0.477632 -0.22556 0)
(0.540644 -0.0175151 0)
(0.609537 0.181615 0)
(0.673216 0.337037 0)
(0.723594 0.434957 0)
(0.756886 0.48221 3.3585e-22)
(0.775603 0.49323 -5.39546e-22)
(0.783354 0.486761 0)
(0.775687 0.487445 0)
(0.746918 0.505 -3.62956e-22)
(0.705171 0.512046 3.52768e-22)
(0.674824 0.452889 2.35737e-22)
(0.672987 0.302692 0)
(0.701234 0.0880423 0)
(0.74288 -0.122132 4.75846e-22)
(0.785509 -0.280591 -4.6253e-22)
(0.818822 -0.367192 0)
(0.841897 -0.401793 2.36352e-22)
(0.844052 -0.419414 -3.34511e-22)
(0.817009 -0.433649 9.09054e-23)
(0.767494 -0.435676 0)
(0.726048 -0.362633 -2.21246e-22)
(0.711257 -0.227166 2.15141e-22)
(0.734671 -0.029463 0)
(0.772923 0.130575 0)
(0.816443 0.251874 -7.57037e-23)
(0.829347 0.330549 2.05923e-22)
(0.809273 0.369431 0)
(0.769298 0.396145 0)
(0.754033 0.282327 -5.85368e-23)
(0.761278 0.173756 -8.24781e-24)
(0.804667 -0.0261155 -4.15338e-24)
(0.817804 -0.157215 4.72846e-23)
(0.816994 -0.260444 0)
(0.797748 -0.38408 0)
(0.797354 -0.264485 0)
(0.790837 -0.260084 0)
(0.802159 -0.00244912 0)
(0.784538 0.185617 0)
(0.00855864 0.348195 -6.73009e-22)
(0.0511213 0.32706 -2.99012e-20)
(0.0985996 0.289894 -1.06102e-21)
(0.150432 0.236496 2.90516e-20)
(0.205226 0.167111 4.83967e-22)
(0.261356 0.0824587 0)
(0.317286 -0.0156188 -2.92308e-20)
(0.372276 -0.124795 5.7091e-20)
(0.425635 -0.241078 -2.78535e-20)
(0.476313 -0.357622 2.31586e-20)
(0.522242 -0.463921 -2.2188e-20)
(0.560049 -0.547939 1.60765e-20)
(0.586337 -0.600945 -1.56939e-20)
(0.599365 -0.621438 -3.61124e-22)
(0.599857 -0.614616 -8.3139e-21)
(0.589328 -0.590719 8.08018e-21)
(0.566043 -0.564818 -6.02416e-21)
(0.526769 -0.549376 5.68691e-21)
(0.476415 -0.538709 -5.86992e-21)
(0.432804 -0.504194 1.19509e-20)
(0.417501 -0.413063 -6.06118e-21)
(0.43933 -0.257056 -3.96597e-22)
(0.490438 -0.0604438 -6.95551e-21)
(0.55617 0.136229 1.298e-20)
(0.623067 0.297348 -6.04521e-21)
(0.680733 0.405788 2.68077e-22)
(0.723749 0.463976 3.51687e-21)
(0.753097 0.48384 -2.76859e-22)
(0.769788 0.485695 -5.58564e-21)
(0.767994 0.495811 5.4563e-21)
(0.744346 0.520944 -2.71375e-21)
(0.710196 0.528428 4.18403e-22)
(0.690207 0.461562 -2.36228e-22)
(0.697601 0.29995 5.9527e-22)
(0.731935 0.076001 0)
(0.775069 -0.138475 0)
(0.814649 -0.29557 -1.62635e-21)
(0.840803 -0.377864 1.22662e-21)
(0.85614 -0.405984 6.92947e-22)
(0.853203 -0.414684 -4.28763e-23)
(0.82319 -0.420264 -8.54059e-22)
(0.770722 -0.419786 1.62485e-22)
(0.723161 -0.352784 0)
(0.704275 -0.228535 0)
(0.725063 -0.039983 0)
(0.76542 0.11687 0)
(0.81002 0.242887 2.84205e-22)
(0.824118 0.330866 -1.32426e-22)
(0.805518 0.376886 0)
(0.766565 0.403617 0)
(0.755065 0.283682 0)
(0.762482 0.167944 -1.30052e-22)
(0.810206 -0.0324829 -6.76407e-24)
(0.824391 -0.158997 -9.70182e-23)
(0.824012 -0.257971 0)
(0.803863 -0.381789 0)
(0.800151 -0.264165 3.7677e-23)
(0.793153 -0.260229 8.67497e-23)
(0.799649 -0.00146553 0)
(0.782322 0.18701 0)
(0.134421 0.301666 3.563e-21)
(0.181651 0.278327 -5.83693e-20)
(0.232191 0.24007 6.38276e-20)
(0.286097 0.186712 -5.96695e-20)
(0.341777 0.118559 -4.87196e-22)
(0.397693 0.0360545 0)
(0.452695 -0.0590952 -6.26879e-20)
(0.506108 -0.165128 6.14171e-20)
(0.557117 -0.278343 4.31933e-22)
(0.604115 -0.391458 8.0268e-22)
(0.643851 -0.493093 6.98736e-22)
(0.672049 -0.570478 5.70852e-22)
(0.685606 -0.615015 -2.70779e-20)
(0.684145 -0.626501 2.66797e-20)
(0.669868 -0.611798 0)
(0.646533 -0.580409 4.44498e-22)
(0.615322 -0.544591 -1.11872e-20)
(0.572099 -0.518401 1.10407e-20)
(0.515299 -0.504579 0)
(0.456419 -0.481902 0)
(0.417843 -0.414856 -1.14661e-20)
(0.416671 -0.283719 2.3393e-20)
(0.452147 -0.103515 -2.31577e-20)
(0.511244 0.0872145 1.03492e-21)
(0.578644 0.252131 1.90746e-20)
(0.64163 0.370374 -1.64586e-20)
(0.693323 0.439681 1.3012e-20)
(0.732663 0.469476 -8.23639e-22)
(0.75788 0.48101 -5.36739e-21)
(0.762259 0.501173 0)
(0.744801 0.533667 0)
(0.71914 0.541862 3.02886e-21)
(0.709502 0.468803 -3.77589e-21)
(0.725833 0.2981 3.2866e-23)
(0.76567 0.0669354 5.03793e-21)
(0.809705 -0.150745 -4.89551e-21)
(0.845883 -0.306253 0)
(0.864797 -0.384851 3.55626e-22)
(0.872152 -0.40776 2.20374e-21)
(0.864093 -0.408837 -3.81971e-21)
(0.831679 -0.406314 1.48435e-21)
(0.777223 -0.40343 1.31078e-22)
(0.724209 -0.342783 -1.67354e-21)
(0.701294 -0.230561 1.33169e-21)
(0.718908 -0.0519089 3.15495e-22)
(0.760601 0.101837 2.86312e-22)
(0.805653 0.232879 -2.84934e-22)
(0.820793 0.330511 0)
(0.803906 0.383752 0)
(0.766249 0.410916 -1.04867e-21)
(0.758583 0.285295 5.20213e-22)
(0.76591 0.162351 -5.90829e-22)
(0.817484 -0.0387472 8.02252e-22)
(0.832573 -0.160687 8.44288e-22)
(0.832405 -0.254988 -1.80154e-22)
(0.810818 -0.379107 2.51524e-22)
(0.803742 -0.263578 -1.67782e-22)
(0.79644 -0.26001 4.74444e-23)
(0.798297 -0.000304939 0)
(0.781151 0.188393 0)
(0.265212 0.253199 -1.1992e-19)
(0.314124 0.228916 -5.98958e-21)
(0.36539 0.191229 1.19865e-19)
(0.419398 0.13989 -9.91506e-22)
(0.474494 0.0747827 0)
(0.529743 -0.00385788 0)
(0.584025 -0.0949243 -1.28012e-19)
(0.636397 -0.197073 1.71279e-21)
(0.685883 -0.306379 1.73993e-19)
(0.729748 -0.415039 -5.4349e-21)
(0.763276 -0.510861 -4.88148e-20)
(0.78141 -0.580844 -3.3472e-20)
(0.781728 -0.617144 3.36727e-20)
(0.765789 -0.620819 0)
(0.737566 -0.600212 -1.64612e-20)
(0.70202 -0.564915 1.51113e-20)
(0.662856 -0.523761 0)
(0.617538 -0.488335 0)
(0.559941 -0.467184 8.20642e-21)
(0.493172 -0.449905 2.82521e-22)
(0.435936 -0.404675 -7.72595e-21)
(0.411298 -0.302077 -9.67459e-21)
(0.427728 -0.144056 9.60093e-21)
(0.476358 0.0365636 -9.0452e-21)
(0.540984 0.202666 1.18632e-21)
(0.606984 0.329363 7.35696e-21)
(0.665936 0.409594 7.10864e-22)
(0.714234 0.450097 4.1321e-23)
(0.747381 0.472182 0)
(0.758174 0.502518 5.64562e-21)
(0.747688 0.542097 -5.84918e-21)
(0.731017 0.551718 4.39795e-22)
(0.731596 0.474774 0)
(0.756598 0.297792 -6.35548e-22)
(0.801443 0.0611412 1.06019e-20)
(0.846001 -0.159034 -1.81856e-20)
(0.878721 -0.313083 7.23044e-22)
(0.890588 -0.388531 1.65995e-21)
(0.889841 -0.407401 4.58254e-21)
(0.876501 -0.402279 4.13026e-22)
(0.842053 -0.392235 -2.43896e-21)
(0.786641 -0.386655 2.07458e-21)
(0.729076 -0.332281 4.18777e-23)
(0.702211 -0.23276 1.2014e-21)
(0.716102 -0.0648476 -1.48468e-21)
(0.758337 0.0857004 -1.81267e-21)
(0.803259 0.221858 5.49006e-22)
(0.819341 0.329354 9.34794e-22)
(0.804474 0.389878 -1.91041e-21)
(0.768443 0.417999 1.48913e-21)
(0.764728 0.287311 -6.13367e-22)
(0.771682 0.157131 5.82755e-22)
(0.826446 -0.0448366 6.2287e-22)
(0.842247 -0.162301 -1.33889e-21)
(0.842123 -0.251506 4.77474e-23)
(0.818572 -0.375971 -2.52352e-22)
(0.808057 -0.262717 0)
(0.800617 -0.259459 -6.6797e-23)
(0.798033 0.00101571 5.05396e-23)
(0.780989 0.189773 0)
(0.392303 0.204293 1.18946e-19)
(0.441061 0.180648 -2.40244e-19)
(0.492013 0.14475 1.19335e-19)
(0.545571 0.0964868 1.2983e-19)
(0.600306 0.0349481 -2.58268e-19)
(0.655252 -0.0386183 -1.91905e-21)
(0.709394 -0.125002 1.27663e-19)
(0.76167 -0.222238 1.20872e-19)
(0.810071 -0.326027 -1.18373e-19)
(0.850397 -0.428062 0)
(0.876724 -0.51589 -8.46574e-20)
(0.883884 -0.577246 1.51737e-19)
(0.870719 -0.605852 -6.75322e-20)
(0.840945 -0.603913 0)
(0.800521 -0.580071 0)
(0.754867 -0.54393 4.42363e-22)
(0.708364 -0.502044 -1.95975e-20)
(0.661126 -0.461556 1.90405e-20)
(0.606294 -0.432058 0)
(0.539183 -0.413374 1.3303e-20)
(0.470423 -0.383395 -2.58638e-20)
(0.424262 -0.309324 2.69671e-20)
(0.418798 -0.178466 -2.8552e-20)
(0.452826 -0.012822 3.05348e-22)
(0.511105 0.150333 2.57117e-20)
(0.577474 0.283342 -1.2052e-20)
(0.641776 0.373816 -3.2915e-22)
(0.697563 0.425397 -4.22792e-21)
(0.737862 0.458524 -4.17492e-22)
(0.755165 0.498908 4.67548e-21)
(0.752203 0.545519 3.68049e-22)
(0.744728 0.557721 -8.21002e-21)
(0.755226 0.479684 1.79742e-20)
(0.788411 0.299412 -1.10484e-20)
(0.838039 0.0589212 0)
(0.883225 -0.163152 -1.07628e-20)
(0.91253 -0.315916 1.0245e-20)
(0.917696 -0.388756 -4.61823e-21)
(0.908935 -0.404764 5.79572e-21)
(0.890243 -0.395026 -3.97818e-22)
(0.854034 -0.378344 0)
(0.798588 -0.369849 -2.3869e-22)
(0.737487 -0.321338 7.19002e-22)
(0.706844 -0.234832 0)
(0.716423 -0.0783757 2.37233e-21)
(0.758356 0.0686476 -9.5473e-22)
(0.802678 0.209768 4.56301e-22)
(0.819659 0.327194 4.10256e-22)
(0.807184 0.395078 0)
(0.773168 0.424804 0)
(0.773517 0.289798 -1.94963e-21)
(0.779849 0.152415 3.28515e-21)
(0.837029 -0.0506605 -1.90284e-21)
(0.853295 -0.163818 5.85616e-22)
(0.853096 -0.247467 8.54383e-22)
(0.827077 -0.372289 2.52588e-22)
(0.813023 -0.261588 -2.56195e-22)
(0.8056 -0.258613 0)
(0.798777 0.0024818 -9.31579e-23)
(0.781791 0.19116 -1.07974e-23)
(0.516077 0.155392 1.17156e-19)
(0.563667 0.133729 -1.16705e-19)
(0.613802 0.100529 9.69755e-22)
(0.666573 0.0557516 -9.59087e-22)
(0.721851 -0.00101041 1.0108e-21)
(0.777408 -0.0696679 -1.01318e-21)
(0.831368 -0.150906 1.91133e-21)
(0.883113 -0.241891 0)
(0.929103 -0.338142 -1.72534e-21)
(0.963797 -0.43112 1.56455e-21)
(0.980793 -0.508962 1.3669e-21)
(0.975807 -0.561041 -1.19102e-21)
(0.949553 -0.582948 0)
(0.907596 -0.577774 0)
(0.857304 -0.553479 5.66667e-22)
(0.804362 -0.518777 0)
(0.752377 -0.47912 -3.23741e-22)
(0.702888 -0.43787 0)
(0.651453 -0.401889 -1.12335e-20)
(0.589541 -0.377187 2.09371e-20)
(0.517868 -0.353906 -1.90965e-20)
(0.455468 -0.303841 9.32946e-21)
(0.42718 -0.203142 1.01901e-20)
(0.442049 -0.0587624 -9.89679e-21)
(0.489752 0.096703 -9.35031e-21)
(0.553686 0.233141 9.0453e-21)
(0.620933 0.332594 0)
(0.682354 0.395238 1.99236e-22)
(0.728852 0.439577 0)
(0.752592 0.489766 0)
(0.757373 0.543456 1.21217e-20)
(0.759048 0.559746 -1.24141e-20)
(0.778918 0.483506 1.1025e-21)
(0.819738 0.303023 1.35361e-21)
(0.874209 0.0609612 -1.43258e-21)
(0.920428 -0.162988 -9.72263e-21)
(0.946655 -0.314881 9.43912e-21)
(0.945657 -0.385678 -6.26125e-21)
(0.929139 -0.399899 5.31689e-21)
(0.905064 -0.387165 7.92773e-22)
(0.867253 -0.364869 -2.09593e-21)
(0.812542 -0.353243 6.90618e-23)
(0.748968 -0.309928 1.26822e-21)
(0.714797 -0.236453 0)
(0.719553 -0.0922136 -8.20598e-22)
(0.760351 0.0508128 1.10778e-21)
(0.803697 0.196509 -1.48513e-21)
(0.821579 0.323799 -4.1288e-22)
(0.811908 0.399144 0)
(0.780336 0.431249 6.96992e-22)
(0.784856 0.292781 -1.22996e-21)
(0.790415 0.148432 4.36528e-23)
(0.849125 -0.0560751 -7.13066e-22)
(0.865574 -0.165212 9.52515e-22)
(0.865227 -0.242841 -8.87118e-22)
(0.836281 -0.367964 0)
(0.818572 -0.260189 2.56312e-22)
(0.811301 -0.257508 0)
(0.800436 0.00407441 0)
(0.783507 0.192553 1.63234e-23)
(0.650367 0.108392 -1.15147e-19)