/*--------------------------------*- C++ -*----------------------------------*\
| =========                 |                                                 |
| \\      /  F ield         | OpenFOAM: The Open Source CFD Toolbox           |
|  \\    /   O peration     | Version:  2512                                  |
|   \\  /    A nd           | Website:  www.openfoam.com                      |
|    \\/     M anipulation  |                                                 |
\*---------------------------------------------------------------------------*/
FoamFile
{
    version     2.0;
    format      ascii;
    arch        "LSB;label=32;scalar=64";
    class       volVectorField;
    location    "94";
    object      U;
}
// * * * * * * * * * * * * * * * * * * * * * * * * * * * * * * * * * * * * * //

dimensions      [0 1 -1 0 0 0 0];

internalField   nonuniform List<vector> 
13248
(
(-0.0133639 0.0127536 9.35485e-20)
(-0.0225892 0.0270468 0)
(-0.0137612 0.0348767 -1.76673e-19)
(0.012071 0.0377034 1.6642e-19)
(0.0541034 0.0368797 1.55824e-19)
(0.111633 0.0336022 0)
(0.183819 0.0288377 0)
(0.269478 0.0233472 3.80685e-19)
(0.366856 0.0176951 -1.90881e-22)
(0.473443 0.0122492 -3.35486e-19)
(0.585931 0.00718211 3.14788e-19)
(0.70034 0.00249169 -1.97241e-19)
(0.812309 -0.0019613 0)
(0.917493 -0.00639957 -3.422e-19)
(1.012 -0.0110674 6.38061e-19)
(1.09277 -0.0161711 -1.52892e-19)
(1.15787 -0.0218303 -2.66522e-19)
(1.20663 -0.0280638 2.5023e-19)
(1.2396 -0.0347375 0)
(1.25831 -0.0418433 0)
(1.2652 -0.0485488 0)
(1.26207 -0.0570268 0)
(1.25298 -0.0603109 6.80469e-20)
(1.2351 -0.0794582 2.33258e-19)
(-0.0122743 0.0103969 -2.82254e-19)
(-0.0151714 0.0193452 1.92156e-19)
(0.00357324 0.0226172 -1.69879e-21)
(0.0424695 0.0221129 -2.53857e-19)
(0.100411 0.0194187 -1.55657e-19)
(0.17623 0.0158409 -1.47395e-19)
(0.268254 0.0123404 -2.72328e-19)
(0.374004 0.00956222 2.57237e-19)
(0.490007 0.00784924 0)
(0.611826 0.00724549 6.11577e-22)
(0.734324 0.00752428 7.9982e-22)
(0.852153 0.00825379 1.95462e-19)
(0.960322 0.00889405 0)
(1.05475 0.00890748 0)
(1.13266 0.00786069 2.29169e-19)
(1.19282 0.00549729 -4.30777e-19)
(1.23548 0.0017691 2.53425e-19)
(1.26221 -0.0031742 -2.37949e-19)
(1.27546 -0.00903543 -1.02644e-19)
(1.27813 -0.0154241 -1.84387e-19)
(1.27308 -0.021881 -7.30783e-20)
(1.26287 -0.0282658 -1.36364e-19)
(1.24947 -0.0324144 2.0468e-19)
(1.23344 -0.0409262 5.67462e-20)
(-0.0101228 0.00790302 0)
(-0.00388465 0.0117559 0)
(0.0282546 0.0113404 8.9821e-20)
(0.0840091 0.00875583 8.29071e-20)
(0.161522 0.00571553 -1.71165e-21)
(0.258538 0.00356294 -1.51758e-19)
(0.371776 0.0031272 0)
(0.49668 0.00474536 -1.28179e-19)
(0.627514 0.00829742 1.20483e-19)
(0.757824 0.0132666 1.33405e-22)
(0.881165 0.0188574 -2.07525e-19)
(0.991895 0.0241615 -1.90597e-19)
(1.08584 0.0283353 3.50534e-21)
(1.16069 0.0307481 -1.56997e-19)
(1.21606 0.0310707 3.78057e-19)
(1.25326 0.029292 0)
(1.27484 0.0256737 -2.41473e-19)
(1.28401 0.0206562 1.18211e-19)
(1.28408 0.0147788 1.02565e-19)
(1.27796 0.00851226 0)
(1.26805 0.00249684 8.20058e-20)
(1.25582 -0.00351624 -2.75411e-19)
(1.24262 -0.00727334 2.58543e-19)
(1.22833 -0.0155212 1.56459e-19)
(-0.00639067 0.00513701 -9.91548e-20)
(0.0124121 0.00418678 -1.02409e-19)
(0.0616661 0.00121258 9.29237e-20)
(0.137884 -0.00182865 0)
(0.237823 -0.00331261 0)
(0.357325 -0.00206645 -2.95673e-21)
(0.490664 0.00234111 0)
(0.630651 0.00963379 -3.89966e-19)
(0.769314 0.0189591 3.62687e-19)
(0.898929 0.0290937 -4.48723e-19)
(1.0131 0.0387091 1.03394e-19)
(1.10757 0.0466379 0)
(1.18051 0.0520725 1.7116e-19)
(1.23244 0.0546569 -3.16643e-19)
(1.26569 0.0544673 7.56346e-20)
(1.28369 0.0519092 1.91875e-19)
(1.29019 0.047573 -9.64176e-21)
(1.28871 0.0420977 -2.11644e-19)
(1.2821 0.0360607 0)
(1.27246 0.0299394 0)
(1.26116 0.0241051 -7.40356e-20)
(1.24902 0.0186014 6.58599e-20)
(1.23667 0.0146585 2.32339e-19)
(1.22382 0.00749861 -2.18177e-19)
(-0.000585985 0.00212209 -1.03912e-19)
(0.0347207 -0.00312862 -1.03852e-19)
(0.104794 -0.00723014 2.92226e-19)
(0.204444 -0.00878097 -1.77956e-19)
(0.32825 -0.00658049 1.67497e-19)
(0.469265 1.98088e-05 3.05486e-19)
(0.618714 0.0106662 -2.15783e-19)
(0.766834 0.0241432 -2.62742e-19)
(0.904308 0.0387218 5.08915e-21)
(1.02372 0.0525742 3.37537e-19)
(1.12051 0.0641598 0)
(1.1933 0.0724841 9.24905e-20)
(1.24342 0.0771827 0)
(1.27415 0.0784461 -1.51021e-19)
(1.28969 0.076843 2.1259e-19)
(1.29429 0.0731154 2.41097e-21)
(1.29162 0.0680059 -5.52636e-20)
(1.28451 0.0621484 1.03568e-19)
(1.27489 0.0560289 8.86616e-20)
(1.264 0.0499851 -7.91855e-20)
(1.25254 0.0442584 7.40176e-20)
(1.2409 0.0388872 -6.58429e-20)
(1.22934 0.0345369 0)
(1.21774 0.0279758 -4.94433e-20)
(0.00770854 -0.000947989 1.03897e-19)
(0.0637767 -0.00958081 1.0879e-19)
(0.158049 -0.0130097 -9.78665e-20)
(0.283024 -0.0108718 1.82608e-19)
(0.430229 -0.00286265 -1.71866e-19)
(0.589245 0.0106552 1.55907e-19)
(0.748254 0.028132 -7.46847e-20)
(0.895882 0.0472383 1.97189e-19)
(1.0232 0.0655142 -1.23711e-19)
(1.12499 0.0809388 2.19089e-19)
(1.20002 0.0922728 -5.05247e-19)
(1.25035 0.0991302 1.85133e-19)
(1.28014 0.101828 -1.62425e-19)
(1.29434 0.101118 1.52573e-19)
(1.29772 0.0979114 1.3153e-19)
(1.2942 0.093073 1.15279e-19)
(1.28664 0.0873063 -3.20215e-19)
(1.27695 0.0811271 1.98679e-19)
(1.26625 0.0748849 -8.86649e-20)
(1.25519 0.0688086 2.30038e-19)
(1.2441 0.0630399 -7.43012e-20)
(1.23312 0.0576514 -1.79296e-19)
(1.22235 0.0529573 1.6528e-19)
(1.21166 0.0468841 4.94285e-20)
(0.018803 -0.00373482 0)
(0.099938 -0.014243 8.36204e-22)
(0.221108 -0.0148117 2.03721e-19)
(0.371805 -0.00668949 -1.91159e-19)
(0.539772 0.00893119 -1.72982e-19)
(0.71098 0.0301556 3.21618e-19)
(0.871483 0.0539929 -1.49419e-19)
(1.01011 0.0771567 1.99359e-19)
(1.12034 0.0969438 -4.34613e-21)
(1.20065 0.111733 -1.12872e-19)
(1.25358 0.121056 2.46694e-19)
(1.28412 0.12535 -3.63599e-19)
(1.29806 0.125575 0)
(1.30079 0.12285 -7.12971e-20)
(1.29659 0.118197 -1.90601e-19)
(1.28853 0.112423 5.98924e-20)
(1.27854 0.106099 2.48274e-21)
(1.26775 0.0996 -1.31262e-19)
(1.25676 0.093162 8.51539e-21)
(1.24586 0.0869309 1.51662e-19)
(1.23517 0.0809971 -6.73346e-20)
(1.22473 0.0754287 -2.54203e-20)
(1.21453 0.0702918 7.8941e-20)
(1.20449 0.0644665 0)
(0.0328677 -0.00579689 0)
(0.14308 -0.0159932 5.51393e-20)
(0.292778 -0.0111999 -2.64425e-19)
(0.467819 0.00505461 9.64528e-20)
(0.651851 0.0294311 -9.07752e-20)
(0.82796 0.0581332 -8.28223e-20)
(0.981874 0.0868434 -1.46847e-19)
(1.10479 0.111857 7.31058e-20)
(1.19417 0.130906 6.39087e-20)
(1.25266 0.143293 0)
(1.28601 0.149538 1.45597e-19)
(1.30094 0.150839 -2.16408e-19)
(1.30364 0.148582 1.61332e-19)
(1.29901 0.14401 7.13355e-20)
(1.29042 0.138084 -5.83884e-20)
(1.27999 0.131466 -4.89184e-20)
(1.2689 0.124578 -4.56946e-20)
(1.25775 0.117675 1.36603e-19)
(1.24683 0.110911 0)
(1.23623 0.104381 6.8522e-20)
(1.22596 0.0981492 5.74848e-20)
(1.21602 0.0922641 -1.4286e-19)
(1.20636 0.0866865 -9.73093e-20)
(1.19689 0.0809916 9.00792e-20)
(0.0498968 -0.00663119 -5.87038e-20)
(0.192517 -0.0136582 -1.896e-21)
(0.370988 -0.000863178 5.36887e-20)
(0.567176 0.0252302 1.4986e-19)
(0.761065 0.0586008 4.35905e-20)
(0.934498 0.09354 -8.41615e-20)
(1.07514 0.124949 7.70985e-20)
(1.17835 0.149479 -6.78133e-20)
(1.24622 0.165915 1.21289e-19)
(1.28503 0.174754 5.18718e-20)
(1.30257 0.177451 -1.4682e-19)
(1.30612 0.175738 4.34522e-20)
(1.30138 0.171173 7.42661e-20)
(1.2923 0.164944 -3.65155e-20)
(1.2813 0.157856 0)
(1.26971 0.15041 5.47452e-20)
(1.25819 0.142895 9.27773e-20)
(1.24701 0.13548 1.59672e-20)
(1.23628 0.128264 -7.74146e-20)
(1.22599 0.121311 3.24935e-20)
(1.21612 0.114667 0)
(1.20662 0.108349 -2.55569e-20)
(1.1974 0.102296 -2.40143e-20)
(1.1884 0.0965315 0)
(0.0696637 -0.00571844 0)
(0.246968 -0.00616152 3.06773e-20)
(0.452891 0.0171673 5.68392e-20)
(0.665488 0.0541044 -1.52222e-19)
(0.862401 0.0957352 4.89759e-20)
(1.02649 0.134905 0)
(1.14944 0.166598 7.39835e-20)
(1.23168 0.188586 -1.03228e-19)
(1.27961 0.201087 -6.04268e-20)
(1.30209 0.205785 2.74326e-20)
(1.30774 0.204848 -4.38062e-20)
(1.30346 0.200273 1.06431e-19)
(1.29405 0.19359 5.35853e-20)
(1.28243 0.185824 -3.71477e-20)
(1.2702 0.177601 -3.39018e-21)
(1.25813 0.16927 -1.0259e-19)
(1.24652 0.161025 4.67703e-20)
(1.23549 0.152974 -1.10935e-21)
(1.22503 0.145179 0)
(1.2151 0.137686 -3.2527e-20)
(1.20563 0.130521 0)
(1.19655 0.123677 7.38463e-20)
(1.18779 0.117141 -8.80325e-20)
(1.17922 0.111155 4.01393e-20)
(0.0916929 -0.00256902 -1.58e-20)
(0.304589 0.00735199 -7.70641e-20)
(0.535109 0.0433775 8.74897e-20)
(0.758393 0.0913029 5.16159e-20)
(0.951816 0.139612 -2.47107e-20)
(1.10159 0.180608 4.14919e-20)
(1.20478 0.210315 -2.0185e-20)
(1.2669 0.228186 3.36893e-20)
(1.29771 0.235967 0)
(1.30745 0.236331 7.66564e-20)
(1.30462 0.231876 -3.01712e-21)
(1.29525 0.224633 -6.2119e-20)
(1.28307 0.215974 2.67326e-20)
(1.27011 0.206722 -3.0313e-20)
(1.25734 0.197329 -1.16705e-20)
(1.24515 0.18803 1.33266e-20)
(1.23366 0.178946 -1.04051e-20)
(1.22288 0.170144 -5.64732e-20)
(1.21276 0.161666 3.46509e-20)
(1.20321 0.153539 7.15645e-21)
(1.19417 0.14577 6.32094e-21)
(1.18553 0.138342 5.58375e-21)
(1.1772 0.131309 0)
(1.16905 0.124919 0)
(0.115335 0.00324308 1.58109e-20)
(0.363227 0.0274359 -1.58759e-20)
(0.614202 0.0777119 -2.91223e-20)
(0.842131 0.135888 0)
(1.02656 0.188713 -1.22392e-20)
(1.15895 0.22911 -1.09706e-20)
(1.24224 0.254957 -1.88689e-20)
(1.28636 0.26766 0)
(1.30327 0.270361 0)
(1.30354 0.266436 0)
(1.29496 0.258648 0)
(1.28246 0.248898 0)
(1.26878 0.238336 -1.68302e-20)
(1.25523 0.227583 7.67689e-21)
(1.24236 0.216949 1.3411e-20)
(1.23031 0.206582 6.26784e-21)
(1.21911 0.196551 1.56332e-20)
(1.20869 0.186896 0)
(1.19899 0.17764 -3.79612e-21)
(1.1899 0.168796 -3.60378e-21)
(1.18135 0.160354 -6.33095e-21)
(1.17321 0.152307 -5.59262e-21)
(1.16537 0.144772 0)
(1.15772 0.137836 4.06908e-21)
(-0.00247832 0.0376772 9.15136e-21)
(-0.00908669 0.0839118 -9.48203e-21)
(-0.019614 0.10979 -1.79396e-20)
(-0.0322725 0.121176 0)
(-0.0460079 0.122748 -2.39175e-20)
(-0.0602687 0.118063 7.43199e-21)
(-0.0746555 0.109586 -1.43331e-20)
(-0.088873 0.0988082 0)
(-0.102714 0.0864477 0)
(-0.116028 0.0726824 0)
(-0.128698 0.0573685 0)
(-0.140628 0.0402147 0)
(-0.151746 0.020894 -2.59375e-22)
(-0.161918 -0.000900265 -9.49354e-21)
(-0.171009 -0.025341 1.85704e-20)
(-0.178953 -0.0524933 2.60103e-20)
(-0.185623 -0.0823545 8.5786e-21)
(-0.19087 -0.114748 0)
(-0.194565 -0.149328 6.95863e-21)
(-0.196604 -0.18557 -2.01272e-20)
(-0.196917 -0.222769 -1.26351e-20)
(-0.195468 -0.260067 -1.16873e-20)
(-0.19232 -0.296484 0)
(-0.187882 -0.330915 0)
(-0.00484557 0.0409126 -2.77863e-20)
(-0.0135853 0.0921713 4.76904e-20)
(-0.0240111 0.121872 -1.84332e-20)
(-0.0353484 0.136047 -3.44799e-20)
(-0.0470983 0.13953 4.84749e-20)
(-0.0589882 0.136044 -3.08742e-20)
(-0.0707674 0.128215 4.33682e-20)
(-0.082207 0.117676 2.81088e-20)
(-0.093116 0.105256 0)
(-0.103338 0.0912116 -2.46019e-20)
(-0.112744 0.0754469 -4.8534e-22)
(-0.121232 0.0576918 2.16482e-20)
(-0.128718 0.0376294 3.2166e-20)
(-0.135103 0.014983 4.05774e-20)
(-0.140245 -0.0104838 -1.82117e-20)
(-0.14411 -0.0389052 -5.36206e-20)
(-0.146671 -0.070243 1.77921e-20)
(-0.147813 -0.104325 -6.55722e-20)
(-0.147484 -0.140795 0)
(-0.145677 -0.179098 1.35755e-20)
(-0.142441 -0.218443 1.26172e-20)
(-0.137817 -0.257823 1.16706e-20)
(-0.131763 -0.296002 0)
(-0.124863 -0.331448 0)
(-0.00734518 0.0426562 0)
(-0.0183343 0.0974238 9.95994e-20)
(-0.0284439 0.130376 -3.74729e-20)
(-0.0379764 0.147275 3.51011e-20)
(-0.0470289 0.152843 -1.00908e-19)
(-0.0556323 0.150807 0)
(-0.0637068 0.143876 -6.04671e-20)
(-0.0711054 0.133796 2.87933e-20)
(-0.0776589 0.121512 -5.51833e-20)
(-0.0832006 0.107382 2.72135e-20)
(-0.0875795 0.0913862 1.49131e-19)
(-0.0906665 0.0733059 -7.01653e-20)
(-0.092354 0.0528517 -1.11691e-19)
(-0.0925521 0.0297481 -4.45852e-20)
(-0.0911988 0.00376379 -1.00085e-21)
(-0.0882164 -0.0252569 1.53672e-19)
(-0.0835465 -0.0572672 -7.25269e-20)
(-0.0772205 -0.0921015 -1.98309e-21)
(-0.0692928 -0.129378 0)
(-0.0598485 -0.168584 -6.22341e-20)
(-0.0490704 -0.208857 0)
(-0.037165 -0.249098 -4.95852e-20)
(-0.0238841 -0.287859 1.90541e-19)
(-0.00935234 -0.32323 -2.90009e-21)
(-0.00972792 0.0427414 0)
(-0.0229071 0.0991821 1.12867e-21)
(-0.0325503 0.134543 3.90566e-20)
(-0.039958 0.153894 -3.70846e-20)
(-0.045797 0.161572 3.36117e-20)
(-0.0504035 0.161148 1.96641e-19)
(-0.0538851 0.155308 -6.166e-20)
(-0.0561961 0.145864 -5.9575e-20)
(-0.0572049 0.133865 1.11859e-19)
(-0.0567436 0.119777 -1.60045e-19)
(-0.05464 0.103678 5.10357e-20)
(-0.0507365 0.0854188 4.93038e-20)
(-0.0448992 0.0647566 0)
(-0.0370252 0.0414384 4.3396e-20)
(-0.0270444 0.0152587 0)
(-0.0149143 -0.0138845 8.17914e-20)
(-0.000602452 -0.0459728 -1.53398e-19)
(0.0158693 -0.0808116 3.44366e-20)
(0.0342724 -0.118051 1.35976e-19)
(0.0543899 -0.157099 6.21577e-20)
(0.0759615 -0.197101 0)
(0.0984408 -0.236954 -1.60945e-19)
(0.121869 -0.274976 5.07226e-20)
(0.148684 -0.308707 0)
(-0.0117594 0.041206 0)
(-0.0268924 0.0973309 -1.25254e-19)
(-0.0360029 0.134 -3.99e-20)
(-0.0411668 0.15527 -7.47614e-20)
(-0.0435243 0.164876 7.03939e-20)
(-0.04369 0.166073 -6.60168e-20)
(-0.0419652 0.161422 1.27448e-19)
(-0.0384266 0.152731 6.09595e-20)
(-0.0330032 0.141123 -1.70726e-19)
(-0.0255445 0.127166 1.10346e-19)
(-0.0158695 0.111041 -1.56379e-19)
(-0.003798 0.0926876 3.5217e-19)
(0.0108308 0.0719268 -1.89342e-19)
(0.0281418 0.0485538 9.2123e-20)
(0.0482105 0.0224014 2.63479e-19)
(0.071078 -0.00659589 -7.95266e-20)
(0.0967359 -0.038381 -7.80072e-20)
(0.125051 -0.0727393 -7.34539e-20)
(0.155781 -0.109288 0)
(0.188546 -0.14733 -1.30531e-19)
(0.222795 -0.186038 -1.18417e-19)
(0.257967 -0.224306 1.70118e-19)
(0.292693 -0.26055 1.98049e-19)
(0.33495 -0.290963 -1.86712e-19)
(-0.0132711 0.0382896 0)
(-0.0299688 0.0921555 -1.72262e-19)
(-0.0385424 0.128832 -8.88239e-22)
(-0.04152 0.151209 1.52184e-19)
(-0.040364 0.162295 0)
(-0.0359112 0.164914 0)
(-0.0286449 0.161401 0)
(-0.0187753 0.153491 -6.17332e-20)
(-0.00631374 0.14233 -1.59027e-21)
(0.00885186 0.128564 1.10577e-19)
(0.0268959 0.112469 -1.60404e-19)
(0.0480115 0.0940747 -1.30315e-21)
(0.072381 0.0732814 0)
(0.10015 0.0499495 -9.20664e-20)
(0.131406 0.0239691 9.07106e-20)
(0.16616 -0.00467628 -2.52339e-19)
(0.204322 -0.035886 3.20603e-19)
(0.245646 -0.0693822 7.69294e-20)
(0.289711 -0.104679 -8.2719e-22)
(0.335921 -0.141048 -2.66264e-19)
(0.383261 -0.177605 -1.22025e-19)
(0.431649 -0.212998 3.87705e-19)
(0.475643 -0.246881 -2.56675e-19)
(0.534289 -0.272616 0)
(-0.0141975 0.0343922 8.58798e-20)
(-0.0319607 0.0843019 8.65569e-20)
(-0.0400013 0.119584 -8.2768e-20)
(-0.0409405 0.142007 -1.54916e-19)
(-0.0363846 0.153841 1.45858e-19)
(-0.0273143 0.157427 -1.38454e-19)
(-0.0143595 0.154807 1.95876e-19)
(0.00214453 0.147574 -6.19999e-20)
(0.0220998 0.136841 1.17348e-19)
(0.045571 0.123296 0)
(0.0727164 0.107286 1.09614e-19)
(0.103737 0.0889234 -2.03877e-19)
(0.138828 0.0682024 1.97524e-19)
(0.178135 0.0450622 -1.85512e-19)
(0.221713 0.0194664 0)
(0.269478 -0.00853246 1.6914e-19)
(0.321163 -0.0387448 3.21756e-19)
(0.376265 -0.0707988 -3.02289e-19)
(0.433987 -0.104122 -1.40688e-19)
(0.493394 -0.137871 -1.30705e-19)
(0.552556 -0.171306 3.67045e-19)
(0.612576 -0.202293 1.05399e-19)
(0.662319 -0.232961 -1.02845e-19)
(0.732612 -0.25243 8.63499e-20)
(-0.0145901 0.0300012 -8.58916e-20)
(-0.0328609 0.0746622 2.66561e-19)
(-0.0402918 0.107179 -8.42523e-20)
(-0.0392823 0.128428 1.56856e-19)
(-0.031412 0.14004 -1.47682e-19)
(-0.0177148 0.143897 1.2128e-22)
(0.00109101 0.141719 6.58108e-20)
(0.0245827 0.134912 2.51652e-19)
(0.0525989 0.124508 2.69021e-21)
(0.0851683 0.111193 -1.11551e-19)
(0.122429 0.0953588 0)
(0.164576 0.0772075 -1.04241e-19)
(0.211783 0.0568124 1.94275e-19)
(0.264101 0.0342012 1.87859e-19)
(0.321422 0.00944114 -8.81322e-20)
(0.383387 -0.0173056 -9.08139e-22)
(0.449324 -0.0457366 -7.99511e-20)
(0.518212 -0.0753711 1.47779e-19)
(0.588613 -0.105575 1.40643e-19)
(0.659082 -0.135357 -1.30391e-19)
(0.726617 -0.164382 1.16017e-19)
(0.793204 -0.189509 -1.04877e-19)
(0.844066 -0.215721 0)
(0.915808 -0.22768 -8.62834e-20)
(-0.0145973 0.0255975 8.77931e-20)
(-0.0327895 0.0642068 -8.93674e-20)
(-0.0393356 0.0927628 8.48755e-20)
(-0.0362077 0.111606 0)
(-0.0248276 0.121922 0)
(-0.00619254 0.125207 1.4142e-19)
(0.0189674 0.122886 -1.32243e-19)
(0.0502034 0.116163 1.26474e-19)
(0.0873341 0.10596 -5.93965e-19)
(0.130364 0.0929374 -1.06909e-21)
(0.179406 0.0775219 1.06988e-19)
(0.234552 0.0599712 0)
(0.295781 0.0404365 -1.95688e-19)
(0.362857 0.019064 3.69673e-19)
(0.435209 -0.00396218 -2.62828e-19)
(0.511862 -0.0283689 -4.15865e-19)
(0.5914 -0.0537587 1.81516e-22)
(0.671998 -0.0795863 2.88522e-19)
(0.751428 -0.105231 0)
(0.827593 -0.12969 0)
(0.897076 -0.153017 -1.16012e-19)
(0.961429 -0.171662 1.04876e-19)
(1.00723 -0.192539 -3.55832e-19)
(1.06704 -0.197243 3.33554e-19)
(-0.0144077 0.0215628 0)
(-0.0318849 0.0537982 0)
(-0.0369263 0.0775006 -2.55305e-19)
(-0.031019 0.0928841 8.10673e-20)
(-0.0153546 0.100912 3.73783e-22)
(0.00918229 0.102823 1.42033e-19)
(0.0419295 0.0998055 0)
(0.0824683 0.0928806 -1.25488e-19)
(0.130611 0.0828818 1.18736e-19)
(0.186302 0.0704238 -2.2556e-19)
(0.249463 0.0559393 -1.03841e-21)
(0.319865 0.0397334 2.03763e-19)
(0.396972 0.0220527 1.93493e-21)
(0.479823 0.00312651 1.84481e-19)
(0.566962 -0.0167868 -2.58418e-19)
(0.65642 -0.0373676 0)
(0.745798 -0.0582165 3.02585e-19)
(0.832406 -0.078859 -4.2774e-19)
(0.913473 -0.0987783 1.27445e-19)
(0.986511 -0.117273 0)
(1.04884 -0.134409 1.05283e-19)
(1.10096 -0.147439 3.80172e-19)
(1.13486 -0.163015 -3.56836e-19)
(1.1723 -0.162876 -3.69568e-19)
(-0.0141656 0.0181058 2.68798e-19)
(-0.0301461 0.0440324 -3.68699e-19)
(-0.0325627 0.0623848 1.03374e-21)
(-0.0225118 0.0736146 8.17266e-20)
(-0.000948838 0.0786812 -1.52135e-19)
(0.0313916 0.0787008 -1.41656e-19)
(0.0739476 0.0747118 2.67001e-19)
(0.126337 0.0676203 4.16291e-22)
(0.188254 0.0581647 -2.36606e-19)
(0.25934 0.0469074 4.49086e-19)
(0.339004 0.0342872 2.29368e-21)
(0.426231 0.0206306 -2.00016e-19)
(0.519467 0.00619577 0)
(0.616574 -0.0087935 0)
(0.71488 -0.0241192 -8.52907e-20)
(0.811332 -0.0395509 -1.55316e-19)
(0.90273 -0.0548282 -2.91583e-19)
(0.985997 -0.0696899 2.73718e-19)
(1.05853 -0.083788 -1.27519e-19)
(1.11835 -0.0969253 2.22349e-19)
(1.16447 -0.10875 -1.14025e-19)
(1.19725 -0.118459 1.69923e-19)
(1.21489 -0.129589 -4.1459e-19)
(1.22863 -0.128664 7.43366e-20)
(-0.013877 0.0152272 9.0614e-20)
(-0.0272728 0.0351501 0)
(-0.0253121 0.048091 1.743e-19)
(-0.00891781 0.0549773 -1.64188e-19)
(0.0211215 0.0569254 1.52277e-19)
(0.0641858 0.0550501 0)
(0.119729 0.0503246 0)
(0.187195 0.0435692 -1.26344e-19)
(0.265855 0.0354409 -5.0491e-22)
(0.35459 0.0264526 1.11312e-19)
(0.451721 0.0169719 -1.05569e-19)
(0.554904 0.00724055 1.98559e-19)
(0.661147 -0.00259927 0)
(0.766964 -0.0124767 3.5098e-19)
(0.868635 -0.0223619 -6.56823e-19)
(0.962533 -0.0322375 4.62707e-19)
(1.04548 -0.0420653 2.79408e-19)
(1.11503 -0.051803 -2.62309e-19)
(1.16979 -0.0612694 0)
(1.20929 -0.0705948 0)
(1.23457 -0.0789517 0)
(1.24673 -0.0877875 0)
(1.24876 -0.0948303 7.89208e-20)
(1.24523 -0.0988914 -2.62266e-19)
(-0.182038 -0.367861 -6.36988e-21)
(-0.177855 -0.408743 6.41158e-21)
(-0.168649 -0.441979 -1.87475e-22)
(-0.15501 -0.464311 0)
(-0.135372 -0.47233 -5.23653e-21)
(-0.108326 -0.462511 1.01604e-20)
(-0.0727531 -0.431853 4.35716e-23)
(-0.0279209 -0.378421 -4.8332e-21)
(0.0245376 -0.302082 0)
(0.0826677 -0.203938 0)
(0.144969 -0.0878879 -2.70244e-22)
(0.208778 0.0404498 -2.58742e-22)
(0.272555 0.173635 -4.22182e-21)
(0.335542 0.302097 3.86983e-21)
(0.395651 0.413657 0)
(0.449227 0.497223 0)
(0.492584 0.547495 1.93123e-21)
(0.523399 0.567157 -2.69257e-22)
(0.538969 0.567584 -1.47289e-21)
(0.53483 0.565677 -8.25556e-23)
(0.511103 0.570295 0)
(0.480648 0.566943 0)
(0.466364 0.520989 0)
(0.484973 0.404517 0)
(0.534203 0.221455 0)
(0.600173 0.00604937 0)
(0.668214 -0.195398 5.87675e-22)
(0.727123 -0.345987 -9.82087e-22)
(0.768809 -0.434783 0)
(0.791367 -0.472787 0)
(0.799859 -0.475272 -3.2246e-22)
(0.797955 -0.464208 3.13401e-22)
(0.777836 -0.464548 1.30626e-22)
(0.734596 -0.478873 0)
(0.683681 -0.466044 0)
(0.653501 -0.373234 3.91629e-22)
(0.658841 -0.197525 -3.80688e-22)
(0.692444 0.0146893 0)
(0.736422 0.192909 3.19144e-22)
(0.78106 0.312591 -4.43838e-22)
(0.81657 0.367478 1.07749e-22)
(0.829288 0.404236 0)
(0.808083 0.429691 -1.71475e-22)
(0.760724 0.43651 1.66745e-22)
(0.722238 0.372051 0)
(0.713764 0.215958 0)
(0.737331 0.0341232 -9.92068e-23)
(0.782382 -0.15098 2.85865e-22)
(0.819441 -0.238586 0)
(0.828574 -0.330939 0)
(0.800342 -0.354305 -4.60562e-23)
(0.760007 -0.359044 3.29712e-24)
(0.75169 -0.283707 -1.90282e-24)
(0.769231 -0.0956816 3.1055e-23)
(0.801956 0.000135706 0)
(0.808254 0.226894 0)
(0.795196 0.267417 0)
(0.780764 0.337604 0)
(0.788192 0.324606 0)
(0.778678 0.0320256 0)
(-0.119451 -0.368507 -6.81828e-22)
(-0.124386 -0.412496 -2.59295e-20)
(-0.126365 -0.449764 1.63697e-21)
(-0.126864 -0.476978 2.27672e-20)
(-0.124304 -0.491177 3.16317e-22)
(-0.116494 -0.488855 0)
(-0.101063 -0.466593 -1.75297e-20)
(-0.0759193 -0.421601 3.44534e-20)
(-0.039876 -0.353066 -1.69129e-20)
(0.00624275 -0.260885 1.63138e-20)
(0.0599071 -0.148571 -1.55856e-20)
(0.118828 -0.0201359 1.47224e-20)
(0.181632 0.112984 -1.42307e-20)
(0.246748 0.243487 -3.57822e-22)
(0.311786 0.359791 -1.01739e-20)
(0.37318 0.45149 9.88698e-21)
(0.426727 0.512842 -7.05829e-21)
(0.468173 0.54589 6.67123e-21)
(0.49247 0.561526 -5.62187e-21)
(0.495851 0.573804 1.0856e-20)
(0.482926 0.585635 -5.24471e-21)
(0.470623 0.577786 -3.69522e-22)
(0.480185 0.517662 -7.28762e-21)
(0.520901 0.385509 1.52633e-20)
(0.584976 0.191473 -7.95011e-21)
(0.658208 -0.0288903 5.4336e-22)
(0.726419 -0.228873 7.26431e-21)
(0.779405 -0.372572 -1.02914e-21)
(0.811894 -0.451232 -9.74502e-21)
(0.824083 -0.479874 7.42261e-21)
(0.821948 -0.475881 -3.16574e-21)
(0.812036 -0.458265 2.81354e-22)
(0.78812 -0.449773 -1.30882e-22)
(0.742432 -0.457507 2.34541e-22)
(0.685718 -0.447247 0)
(0.645903 -0.366535 0)
(0.64239 -0.204888 -1.44521e-21)
(0.67097 -0.00190428 1.07228e-21)
(0.715749 0.173457 8.58404e-22)
(0.764835 0.295706 -4.48082e-23)
(0.806604 0.357629 -1.02289e-21)
(0.822762 0.404953 1.79277e-22)
(0.804714 0.440046 0)
(0.761311 0.449732 0)
(0.729054 0.380196 0)
(0.725609 0.214978 0)
(0.74965 0.0253642 4.90011e-22)
(0.793733 -0.162116 -1.89559e-22)
(0.827836 -0.244946 0)
(0.837501 -0.328427 0)
(0.807624 -0.346128 0)
(0.766993 -0.352873 -7.01349e-23)
(0.756746 -0.284826 1.75766e-23)
(0.770823 -0.101471 -6.94488e-23)
(0.801442 -0.00420417 0)
(0.803576 0.227759 0)
(0.792008 0.269703 3.5485e-23)
(0.776482 0.338306 8.32929e-23)
(0.786341 0.324623 0)
(0.779703 0.0329787 0)
(-0.00266289 -0.359315 -2.8733e-21)
(-0.013369 -0.40401 -5.79698e-20)
(-0.0238293 -0.443196 4.92506e-20)
(-0.0362501 -0.473243 -4.60737e-20)
(-0.0499235 -0.492132 -3.18443e-22)
(-0.0623563 -0.496942 0)
(-0.0703862 -0.484114 -3.15093e-20)
(-0.0704375 -0.450065 3.07944e-20)
(-0.058863 -0.392743 2.39008e-22)
(-0.0337245 -0.311301 3.62093e-22)
(0.00576753 -0.207751 3.42979e-22)
(0.0537645 -0.0842869 4.29882e-22)
(0.109396 0.0472266 -2.19999e-20)
(0.173171 0.178401 2.17399e-20)
(0.240084 0.298574 0)
(0.30628 0.39795 4.27158e-22)
(0.366678 0.47079 -1.24054e-20)
(0.415495 0.518531 1.22433e-20)
(0.447015 0.550096 0)
(0.459619 0.575133 0)
(0.461524 0.591219 -1.19106e-20)
(0.470795 0.577158 2.53056e-20)
(0.504453 0.504918 -2.84442e-20)
(0.564986 0.362127 -1.88742e-21)
(0.641532 0.162618 3.46802e-20)
(0.720259 -0.0583709 -3.55972e-20)
(0.78733 -0.254734 3.06482e-20)
(0.833288 -0.391278 -3.49765e-21)
(0.855795 -0.460962 -1.14386e-20)
(0.85774 -0.481712 0)
(0.845516 -0.472917 0)
(0.827722 -0.450681 1.53666e-21)
(0.800418 -0.434512 -2.03342e-21)
(0.75357 -0.435443 -2.62785e-23)
(0.692569 -0.427172 2.05621e-21)
(0.643631 -0.358812 -1.99841e-21)
(0.63073 -0.212549 0)
(0.653479 -0.0200756 3.33903e-22)
(0.698509 0.151407 2.3405e-21)
(0.751362 0.276134 -4.13481e-21)
(0.798652 0.345713 1.66858e-21)
(0.817994 0.404185 1.65814e-22)
(0.803527 0.449109 -1.83955e-21)
(0.764775 0.461802 1.44896e-21)
(0.738991 0.387949 4.78484e-22)
(0.740615 0.214891 5.42324e-22)
(0.764983 0.0184749 -4.91252e-22)
(0.807457 -0.171685 0)
(0.838083 -0.250502 0)
(0.847967 -0.3255 -9.3442e-22)
(0.816449 -0.337793 4.24011e-22)
(0.775351 -0.346561 -2.93621e-22)
(0.763159 -0.286024 3.61965e-22)
(0.773757 -0.107026 4.04755e-22)
(0.802428 -0.00835362 -1.21371e-22)
(0.800301 0.228602 1.72645e-22)
(0.789918 0.271988 -1.43782e-22)
(0.772942 0.338765 5.67843e-23)
(0.785435 0.324277 0)
(0.78177 0.0337847 0)
(0.156338 -0.344152 -1.23652e-19)
(0.144038 -0.386444 1.05039e-20)
(0.129242 -0.424111 1.07277e-19)
(0.109688 -0.453618 -7.06987e-22)
(0.0841964 -0.473785 0)
(0.0550059 -0.48281 0)
(0.0253338 -0.477926 -5.44687e-20)
(-0.0012478 -0.455253 4.66794e-21)
(-0.0191777 -0.411909 6.78681e-20)
(-0.023275 -0.345684 -1.40141e-21)
(-0.00845181 -0.255694 -1.95921e-20)
(0.0214874 -0.145272 -1.72036e-20)
(0.063061 -0.0186386 1.71591e-20)
(0.118146 0.109779 0)
(0.181736 0.232353 -1.31508e-20)
(0.248375 0.33872 1.20281e-20)
(0.311844 0.42299 0)
(0.365456 0.485303 0)
(0.404051 0.531513 9.49849e-21)
(0.428292 0.566657 8.43297e-22)
(0.448229 0.584463 -9.45333e-21)
(0.48054 0.564263 -1.38768e-20)
(0.53686 0.483813 1.40098e-20)
(0.614277 0.33627 -1.86908e-20)
(0.700782 0.136252 -7.88125e-22)
(0.783683 -0.082325 1.84646e-20)
(0.849166 -0.273684 2.08409e-21)
(0.887824 -0.403199 -1.41363e-23)
(0.900005 -0.465071 0)
(0.891928 -0.479135 6.70223e-21)
(0.870346 -0.466737 -6.85992e-21)
(0.844814 -0.441785 2.75167e-22)
(0.814137 -0.419492 0)
(0.767253 -0.413274 -2.10851e-22)
(0.703977 -0.405528 3.46969e-21)
(0.647026 -0.349122 -6.89738e-21)
(0.624398 -0.219606 -8.77023e-22)
(0.640459 -0.0393745 4.69033e-23)
(0.684938 0.127155 3.51963e-21)
(0.740616 0.25415 4.32267e-22)
(0.792598 0.331752 -2.82293e-21)
(0.814915 0.401662 2.39574e-21)
(0.804387 0.456485 1.71806e-24)
(0.770798 0.47246 1.82552e-21)
(0.751594 0.395391 -2.25491e-21)
(0.758331 0.215878 -3.97962e-21)
(0.782977 0.0136833 1.06183e-21)
(0.82335 -0.179559 1.63391e-21)
(0.850051 -0.255314 -2.79688e-21)
(0.859798 -0.322296 1.67487e-21)
(0.826628 -0.32931 -2.97849e-22)
(0.784823 -0.339993 4.24087e-22)
(0.770628 -0.287182 2.60036e-22)
(0.77783 -0.112354 -5.25401e-22)
(0.804825 -0.0123616 -1.13267e-23)
(0.798397 0.229432 -1.28757e-22)
(0.788931 0.274342 0)
(0.770186 0.338998 -6.14278e-23)
(0.785527 0.323548 1.35123e-22)
(0.784911 0.034442 0)
(0.340644 -0.32577 1.26261e-19)
(0.329883 -0.365426 -2.36225e-19)
(0.313396 -0.399123 1.08844e-19)
(0.29097 -0.42459 8.36069e-20)
(0.260066 -0.44152 -1.51775e-19)
(0.221381 -0.449408 1.10864e-20)
(0.17744 -0.447226 5.6178e-20)
(0.130382 -0.43345 3.79718e-20)
(0.0847413 -0.404316 -3.72182e-20)
(0.04878 -0.355557 0)
(0.0306876 -0.283456 -2.44433e-20)
(0.0335291 -0.190611 4.63368e-20)
(0.0519816 -0.0786127 -2.21315e-20)
(0.0885972 0.0426097 0)
(0.141571 0.164614 0)
(0.202595 0.275934 3.22885e-22)
(0.264833 0.370034 -1.54012e-20)
(0.321126 0.445025 1.49616e-20)
(0.367153 0.503399 0)
(0.404885 0.546057 1.85139e-20)
(0.444279 0.564378 -3.90687e-20)
(0.498954 0.539915 4.7369e-20)
(0.574926 0.456113 -5.86793e-20)
(0.665658 0.309546 -5.62765e-21)
(0.75998 0.113271 7.55692e-20)
(0.846482 -0.100493 -3.87422e-20)
(0.910319 -0.285542 -1.06417e-21)
(0.941706 -0.407881 -1.15022e-20)
(0.943536 -0.463172 2.7991e-21)
(0.925793 -0.472152 8.94774e-21)
(0.895892 -0.457403 3.51958e-22)
(0.863175 -0.431496 -3.796e-21)
(0.829102 -0.405063 6.78388e-21)
(0.782942 -0.391995 -3.33651e-21)
(0.719407 -0.383201 0)
(0.656176 -0.337452 -3.63375e-21)
(0.623899 -0.225352 3.59755e-21)
(0.632322 -0.059124 -3.00292e-21)
(0.675149 0.101128 3.73686e-21)
(0.732486 0.229958 -3.20672e-22)
(0.788245 0.315628 0)
(0.81336 0.397015 -3.10163e-22)
(0.807056 0.461811 1.04191e-21)
(0.778987 0.481516 0)
(0.766295 0.402569 5.63306e-21)
(0.778165 0.217974 -2.03749e-21)
(0.803234 0.0110704 1.15287e-21)
(0.841165 -0.185566 1.00515e-21)
(0.863568 -0.259285 0)
(0.872815 -0.318794 0)
(0.83801 -0.320644 -9.79988e-22)
(0.7952 -0.333096 1.31782e-21)
(0.778859 -0.28824 -6.08561e-22)
(0.782806 -0.117495 1.4667e-22)
(0.808505 -0.0162881 2.56475e-22)
(0.797818 0.230256 1.28881e-22)
(0.789051 0.276823 -2.00793e-22)
(0.76826 0.339021 0)
(0.786662 0.322405 -2.01503e-22)
(0.789152 0.0349415 -8.38008e-23)
(0.535223 -0.305864 1.26801e-19)
(0.524872 -0.34346 -1.26037e-19)
(0.508894 -0.373117 8.19217e-22)
(0.485894 -0.393467 -6.80963e-22)
(0.453784 -0.405025 5.87302e-22)
(0.41253 -0.4079 -4.7929e-22)
(0.36261 -0.402633 6.94536e-22)
(0.304835 -0.390662 0)
(0.242294 -0.369746 -3.66338e-22)
(0.181842 -0.335793 2.51202e-22)
(0.132161 -0.283937 1.6834e-22)
(0.100493 -0.212835 -2.72159e-22)
(0.0879405 -0.122618 0)
(0.0985493 -0.0140759 0)
(0.131067 0.101128 7.40754e-23)
(0.178505 0.212739 0)
(0.233907 0.312821 -8.56993e-23)
(0.28991 0.397146 0)
(0.342461 0.464744 -1.19497e-20)
(0.393416 0.512905 2.65328e-20)
(0.451117 0.531765 -3.36781e-20)
(0.525212 0.505818 1.88823e-20)
(0.616628 0.423487 3.12543e-20)
(0.717063 0.28277 -3.03436e-20)
(0.817453 0.0937152 -3.97375e-20)
(0.90721 -0.113039 3.86167e-20)
(0.969426 -0.290587 0)
(0.993768 -0.405704 8.61216e-22)
(0.985608 -0.455712 0)
(0.958731 -0.461324 0)
(0.921659 -0.445336 9.0494e-21)
(0.882554 -0.419836 -9.45012e-21)
(0.844985 -0.391305 3.6976e-22)
(0.79993 -0.372229 3.32781e-22)
(0.738018 -0.360864 -2.5339e-22)
(0.670709 -0.323866 -2.56243e-21)
(0.629423 -0.229211 2.48832e-21)
(0.629334 -0.078646 -3.15018e-21)
(0.669165 0.0738367 2.67413e-21)
(0.726786 0.203753 5.90862e-22)
(0.785347 0.297208 -2.3784e-21)
(0.813114 0.389876 -5.68668e-22)
(0.811208 0.464748 1.8447e-21)
(0.788853 0.488876 0)
(0.782455 0.409442 -2.17592e-21)
(0.799488 0.221196 3.8751e-21)
(0.825279 0.010507 -4.96572e-21)
(0.860612 -0.189567 -1.01152e-21)
(0.87843 -0.262334 0)
(0.886798 -0.315014 3.53777e-22)
(0.850432 -0.311778 -8.49241e-22)
(0.806318 -0.325758 -1.78656e-23)
(0.78758 -0.289117 -1.13633e-22)
(0.788422 -0.122513 1.30349e-22)
(0.813306 -0.0202142 -1.88301e-22)
(0.798502 0.231061 0)