/*--------------------------------*- C++ -*----------------------------------*\
| =========                 |                                                 |
| \\      /  F ield         | OpenFOAM: The Open Source CFD Toolbox           |
|  \\    /   O peration     | Version:  2512                                  |
|   \\  /    A nd           | Website:  www.openfoam.com                      |
|    \\/     M anipulation  |                                                 |
\*---------------------------------------------------------------------------*/
FoamFile
{
    version     2.0;
    format      ascii;
    arch        "LSB;label=32;scalar=64";
    class       volScalarField;
    location    "181.5";
    object      p;
}
// * * * * * * * * * * * * * * * * * * * * * * * * * * * * * * * * * * * * * //

dimensions      [0 2 -2 0 0 0 0];

internalField   nonuniform List<scalar> 
13248
(
-0.331193
-0.329983
-0.327488
-0.323988
-0.319788
-0.315168
-0.310395
-0.305745
-0.301452
-0.297704
-0.29462
-0.292233
-0.29049
-0.289255
-0.288318
-0.287427
-0.286309
-0.28471
-0.282403
-0.279249
-0.275012
-0.269785
-0.262491
-0.253883
-0.33933
-0.337279
-0.334153
-0.330191
-0.325654
-0.320803
-0.315867
-0.311049
-0.306504
-0.302331
-0.298563
-0.295161
-0.292023
-0.288998
-0.285908
-0.28257
-0.278825
-0.274545
-0.269637
-0.264035
-0.257657
-0.250465
-0.24215
-0.233463
-0.349603
-0.346461
-0.342517
-0.337963
-0.332983
-0.327796
-0.322566
-0.317395
-0.312335
-0.30739
-0.302524
-0.297666
-0.292728
-0.287618
-0.282256
-0.27658
-0.270553
-0.26416
-0.257385
-0.250219
-0.2426
-0.234554
-0.225865
-0.217114
-0.361901
-0.357465
-0.352553
-0.347287
-0.341738
-0.336055
-0.3303
-0.324459
-0.318475
-0.312288
-0.305847
-0.299122
-0.29211
-0.284831
-0.277323
-0.269631
-0.261795
-0.253842
-0.245779
-0.237593
-0.229254
-0.220773
-0.212024
-0.203562
-0.376141
-0.370267
-0.364282
-0.358201
-0.351934
-0.345521
-0.338899
-0.331936
-0.324513
-0.316573
-0.308134
-0.299277
-0.290122
-0.280802
-0.271437
-0.26212
-0.252907
-0.243822
-0.234858
-0.225994
-0.217198
-0.208459
-0.199704
-0.191286
-0.39224
-0.384836
-0.377718
-0.37073
-0.363549
-0.356067
-0.348097
-0.339444
-0.330011
-0.319846
-0.309109
-0.298021
-0.286812
-0.275679
-0.264767
-0.254159
-0.24389
-0.233956
-0.224331
-0.214977
-0.205857
-0.196943
-0.188187
-0.179817
-0.41003
-0.401058
-0.392777
-0.384761
-0.376379
-0.367353
-0.357433
-0.346463
-0.334495
-0.32176
-0.308592
-0.29533
-0.282257
-0.269572
-0.257389
-0.245752
-0.234658
-0.224071
-0.213945
-0.20423
-0.194878
-0.185849
-0.177112
-0.168758
-0.429168
-0.418651
-0.409181
-0.399951
-0.389955
-0.378789
-0.366255
-0.352388
-0.337491
-0.322021
-0.306454
-0.291182
-0.276473
-0.262478
-0.24925
-0.236781
-0.225028
-0.21393
-0.203421
-0.193441
-0.183932
-0.174846
-0.166157
-0.157848
-0.449083
-0.437105
-0.4264
-0.415671
-0.40353
-0.389561
-0.373794
-0.3566
-0.338585
-0.320404
-0.3026
-0.285545
-0.269437
-0.254346
-0.240261
-0.227121
-0.214847
-0.203357
-0.192569
-0.182411
-0.172816
-0.163733
-0.155124
-0.146893
-0.468938
-0.455639
-0.443609
-0.430988
-0.416097
-0.398701
-0.379245
-0.358521
-0.337421
-0.316713
-0.296924
-0.278339
-0.261058
-0.245066
-0.230286
-0.216616
-0.203946
-0.192174
-0.181204
-0.17095
-0.16134
-0.152315
-0.143815
-0.135706
-0.487659
-0.473203
-0.459689
-0.4447
-0.426459
-0.405145
-0.381764
-0.357538
-0.333559
-0.310607
-0.289118
-0.269258
-0.251021
-0.234311
-0.218996
-0.204936
-0.191997
-0.180058
-0.169011
-0.158757
-0.149216
-0.140316
-0.131966
-0.124042
-0.504031
-0.488619
-0.473428
-0.455564
-0.43342
-0.40783
-0.380447
-0.352868
-0.326284
-0.301398
-0.278503
-0.257629
-0.238664
-0.221437
-0.205768
-0.191483
-0.178428
-0.166463
-0.155467
-0.145334
-0.135976
-0.127308
-0.119212
-0.111614
-0.335966
-0.338107
-0.339301
-0.339949
-0.340433
-0.34089
-0.341399
-0.342013
-0.342761
-0.343663
-0.344744
-0.346037
-0.347594
-0.349483
-0.351786
-0.354599
-0.358026
-0.362166
-0.367103
-0.372898
-0.379559
-0.386994
-0.395025
-0.403589
-0.332851
-0.334264
-0.334955
-0.335194
-0.335268
-0.335315
-0.335431
-0.33569
-0.336152
-0.336869
-0.337902
-0.33933
-0.341251
-0.343783
-0.347057
-0.351215
-0.356396
-0.362717
-0.370258
-0.379041
-0.389023
-0.400034
-0.411737
-0.423923
-0.330527
-0.331185
-0.331357
-0.331179
-0.330837
-0.330464
-0.330172
-0.330057
-0.330203
-0.330691
-0.331613
-0.333078
-0.335217
-0.33818
-0.342127
-0.34722
-0.353611
-0.361415
-0.370692
-0.381426
-0.393504
-0.406692
-0.420549
-0.434622
-0.328591
-0.328569
-0.328251
-0.327657
-0.326881
-0.326052
-0.325303
-0.324747
-0.324493
-0.324648
-0.325329
-0.326667
-0.328811
-0.331925
-0.336181
-0.341742
-0.348752
-0.357309
-0.367448
-0.379114
-0.392142
-0.406244
-0.421046
-0.435487
-0.326752
-0.326206
-0.325465
-0.324466
-0.323242
-0.321915
-0.320631
-0.319533
-0.318758
-0.31844
-0.318718
-0.319737
-0.321656
-0.324641
-0.32886
-0.334465
-0.341582
-0.350284
-0.360578
-0.37237
-0.385455
-0.39945
-0.414294
-0.427949
-0.324864
-0.324009
-0.322944
-0.321564
-0.319872
-0.317995
-0.316098
-0.314356
-0.312938
-0.312008
-0.311727
-0.312257
-0.31376
-0.3164
-0.320332
-0.325692
-0.332582
-0.341049
-0.351078
-0.36256
-0.37512
-0.388315
-0.402585
-0.414588
-0.322961
-0.322022
-0.320737
-0.319006
-0.316841
-0.314382
-0.311822
-0.309367
-0.307224
-0.305592
-0.304657
-0.304598
-0.305585
-0.307778
-0.311318
-0.31632
-0.322851
-0.330905
-0.340412
-0.351125
-0.363125
-0.375147
-0.388332
-0.398059
-0.321262
-0.320423
-0.319003
-0.316951
-0.314325
-0.311291
-0.30807
-0.304905
-0.30204
-0.299709
-0.298128
-0.297497
-0.297993
-0.299772
-0.302956
-0.307628
-0.313815
-0.321462
-0.330417
-0.340329
-0.351108
-0.361301
-0.372334
-0.378586
-0.320148
-0.319507
-0.317996
-0.315649
-0.312598
-0.309041
-0.305232
-0.301446
-0.297964
-0.295053
-0.292954
-0.291882
-0.292016
-0.293496
-0.296413
-0.300788
-0.306568
-0.3136
-0.321647
-0.330248
-0.339226
-0.347136
-0.355287
-0.35849
-0.320121
-0.319652
-0.318041
-0.315418
-0.311998
-0.308018
-0.303756
-0.299518
-0.295609
-0.292315
-0.289892
-0.28855
-0.288448
-0.289681
-0.29227
-0.296148
-0.30116
-0.307051
-0.313498
-0.320039
-0.326408
-0.331559
-0.336227
-0.336341
-0.321704
-0.321257
-0.319479
-0.316583
-0.31286
-0.308572
-0.304019
-0.299517
-0.295376
-0.291883
-0.289277
-0.287736
-0.287369
-0.288194
-0.290141
-0.293042
-0.296642
-0.300615
-0.304588
-0.308208
-0.311216
-0.313234
-0.314681
-0.312772
-0.325322
-0.324646
-0.322576
-0.319391
-0.315406
-0.310902
-0.306189
-0.301563
-0.297318
-0.293708
-0.290927
-0.289093
-0.288236
-0.288287
-0.289086
-0.290388
-0.291884
-0.293242
-0.294113
-0.294259
-0.293418
-0.291736
-0.289428
-0.286302
-0.414522
-0.426371
-0.435615
-0.440405
-0.438792
-0.428753
-0.409212
-0.37988
-0.342133
-0.299113
-0.255334
-0.215442
-0.182953
-0.159778
-0.146599
-0.143761
-0.151374
-0.167618
-0.186836
-0.200109
-0.199144
-0.183591
-0.156902
-0.127978
-0.103781
-0.0875211
-0.0794919
-0.0784412
-0.0837796
-0.0971213
-0.118936
-0.142868
-0.156597
-0.151263
-0.13039
-0.104552
-0.0831693
-0.0693044
-0.0620074
-0.0612674
-0.0688156
-0.081138
-0.0882189
-0.0841157
-0.0727279
-0.0608873
-0.0526283
-0.0484118
-0.0499573
-0.0543823
-0.055076
-0.0521357
-0.0467945
-0.0392026
-0.0339609
-0.0287603
-0.0250548
-0.0250479
-0.0203779
-0.00599346
-0.43955
-0.454945
-0.466686
-0.473175
-0.472248
-0.461744
-0.440292
-0.407647
-0.36532
-0.316841
-0.267183
-0.22139
-0.18326
-0.154804
-0.136505
-0.128353
-0.130338
-0.141303
-0.156929
-0.169398
-0.169499
-0.159785
-0.138741
-0.11511
-0.095345
-0.0827655
-0.0778973
-0.0796381
-0.0877873
-0.104357
-0.129481
-0.155924
-0.170237
-0.163216
-0.13946
-0.110434
-0.0860383
-0.0695356
-0.0599653
-0.0568259
-0.0617724
-0.0717313
-0.0778242
-0.0745902
-0.0656384
-0.056682
-0.0509136
-0.0492454
-0.0531109
-0.0598526
-0.0611043
-0.057175
-0.0502916
-0.0407121
-0.0340191
-0.0267319
-0.0221553
-0.0215287
-0.0172525
-0.00507852
-0.453399
-0.4711
-0.484389
-0.491952
-0.491678
-0.481093
-0.458651
-0.424065
-0.378887
-0.326848
-0.2732
-0.223218
-0.180874
-0.148136
-0.125359
-0.112255
-0.108684
-0.114122
-0.125655
-0.137303
-0.143232
-0.134012
-0.118148
-0.0999024
-0.0847643
-0.0760825
-0.0745081
-0.0790826
-0.0899688
-0.10946
-0.13742
-0.166042
-0.181042
-0.172858
-0.146814
-0.115102
-0.0880825
-0.0692202
-0.0575944
-0.0522531
-0.0547297
-0.0624012
-0.0675338
-0.0650747
-0.058409
-0.0521681
-0.048852
-0.0498244
-0.0561361
-0.0652789
-0.0670912
-0.0620265
-0.0535347
-0.0420245
-0.0339834
-0.0247434
-0.0192987
-0.0180186
-0.0141307
-0.00416682
-0.455568
-0.474279
-0.488622
-0.496883
-0.497153
-0.486748
-0.464096
-0.428878
-0.382633
-0.329145
-0.273742
-0.221723
-0.176952
-0.14128
-0.114968
-0.0976197
-0.0889444
-0.0887431
-0.0954734
-0.10469
-0.110396
-0.106281
-0.0959023
-0.0829245
-0.0723721
-0.0675705
-0.0691879
-0.0764081
-0.089702
-0.111598
-0.141923
-0.172506
-0.188521
-0.179905
-0.152253
-0.118439
-0.0892914
-0.068438
-0.0550265
-0.0477436
-0.0479634
-0.0534792
-0.0576562
-0.05583
-0.0511873
-0.0474228
-0.0464528
-0.0500808
-0.0589045
-0.0705228
-0.0729159
-0.0666191
-0.0564779
-0.0431169
-0.033845
-0.0228094
-0.0165087
-0.0145566
-0.0110399
-0.00326614
-0.447588
-0.465975
-0.4801
-0.489402
-0.490123
-0.480027
-0.457804
-0.42317
-0.377625
-0.324878
-0.270051
-0.218128
-0.172674
-0.135406
-0.106561
-0.0857312
-0.0725928
-0.0670961
-0.0686108
-0.0743672
-0.079456
-0.0785868
-0.0729931
-0.0647896
-0.0585229
-0.0573129
-0.0618187
-0.0713559
-0.0866111
-0.110351
-0.142534
-0.174863
-0.192297
-0.184113
-0.155683
-0.120447
-0.0897216
-0.0672872
-0.0523929
-0.0434533
-0.0416688
-0.0451994
-0.0484478
-0.0472226
-0.0441098
-0.0425187
-0.0437155
-0.0499388
-0.0612824
-0.0754146
-0.0784274
-0.0708756
-0.0590818
-0.0439718
-0.033596
-0.020942
-0.0138055
-0.0111782
-0.00800654
-0.00238393
-0.432419
-0.449376
-0.463061
-0.472134
-0.472746
-0.462923
-0.441635
-0.408662
-0.365427
-0.315403
-0.263233
-0.213313
-0.168764
-0.131149
-0.100773
-0.0773087
-0.0604513
-0.0502246
-0.0465877
-0.0482059
-0.0517788
-0.0534505
-0.0504745
-0.0462273
-0.0436842
-0.0455615
-0.052531
-0.0639902
-0.0807273
-0.105697
-0.139127
-0.173008
-0.192172
-0.1853
-0.157042
-0.121148
-0.0894316
-0.0658457
-0.0497814
-0.0394738
-0.0359693
-0.0377215
-0.0400805
-0.0390912
-0.0372912
-0.0375272
-0.0406492
-0.0493309
-0.0631293
-0.0797645
-0.0834733
-0.0747318
-0.0613153
-0.0445749
-0.0332237
-0.0191466
-0.0112057
-0.00791526
-0.00505299
-0.00152668
-0.413618
-0.426028
-0.438647
-0.446984
-0.447222
-0.437693
-0.417868
-0.387575
-0.348071
-0.302412
-0.254524
-0.208064
-0.165661
-0.128723
-0.0976896
-0.0724264
-0.0526957
-0.0385289
-0.0301773
-0.0273468
-0.0282226
-0.0297329
-0.0290876
-0.0280731
-0.028502
-0.0328205
-0.0417159
-0.0546206
-0.0723122
-0.0978602
-0.131914
-0.167091
-0.188176
-0.183377
-0.156302
-0.120588
-0.088477
-0.0641686
-0.0472477
-0.0358519
-0.0309051
-0.0311119
-0.0326576
-0.0317307
-0.0308518
-0.0325356
-0.0372816
-0.0481997
-0.064311
-0.0834053
-0.0879065
-0.078115
-0.063151
-0.0449162
-0.0327201
-0.017421
-0.00871974
-0.0047954
-0.00219604
-0.000700329
-0.388427
-0.398448
-0.408825
-0.416119
-0.41569
-0.406664
-0.388982
-0.362315
-0.32766
-0.287511
-0.244952
-0.202871
-0.163442
-0.127958
-0.0969969
-0.070679
-0.0489186
-0.0317347
-0.0194298
-0.0122885
-0.00972009
-0.00977971
-0.009892
-0.011136
-0.0136596
-0.019685
-0.0298665
-0.0436783
-0.0618227
-0.0873733
-0.121443
-0.157533
-0.180652
-0.178499
-0.153517
-0.118819
-0.0869021
-0.0622904
-0.0448242
-0.0326094
-0.0264866
-0.0253735
-0.0262004
-0.0252504
-0.0248911
-0.0276406
-0.0336577
-0.0465134
-0.0647174
-0.0862071
-0.0915763
-0.0809509
-0.064571
-0.0449929
-0.0320921
-0.0157729
-0.00635278
-0.00183964
0.000552679
8.91442e-05
-0.363508
-0.367619
-0.375939
-0.381859
-0.380614
-0.372615
-0.35777
-0.335404
-0.306223
-0.272092
-0.235256
-0.19791
-0.161856
-0.128321
-0.0980118
-0.0712825
-0.0482546
-0.0289777
-0.0136849
-0.00283126
0.00337519
0.00563455
0.0051764
0.00400263
0.000328435
-0.00667323
-0.0174696
-0.0316278
-0.0497454
-0.0748608
-0.108535
-0.145106
-0.170166
-0.171064
-0.148915
-0.116021
-0.0848769
-0.0603534
-0.042626
-0.0298216
-0.0227427
-0.0205078
-0.0207019
-0.019679
-0.0194682
-0.0229469
-0.0298287
-0.0442427
-0.0642856
-0.088072
-0.0943446
-0.0831906
-0.0655864
-0.0448221
-0.0313576
-0.0142411
-0.00412107
0.000934552
0.00318687
0.000836188
-0.335425
-0.335843
-0.342888
-0.347124
-0.34538
-0.339025
-0.327409
-0.30955
-0.285887
-0.257659
-0.226391
-0.193708
-0.161109
-0.129776
-0.100532
-0.0739062
-0.0502037
-0.0295604
-0.0121501
0.00161557
0.0112119
0.0164924
0.0180602
0.0172028
0.0131615
0.0058698
-0.00496643
-0.0190004
-0.0367971
-0.0612271
-0.093985
-0.130602
-0.157416
-0.161548
-0.142893
-0.112593
-0.0828021
-0.0586845
-0.0408948
-0.0276459
-0.0197247
-0.0164929
-0.0161494
-0.0150697
-0.014639
-0.0185215
-0.0258682
-0.041449
-0.0629742
-0.0889159
-0.0961075
-0.0848124
-0.0662188
-0.0444395
-0.0305134
-0.0128463
-0.00205905
0.00349175
0.00570476
0.00153541
-0.308137
-0.307413
-0.313101
-0.315291
-0.313454
-0.308995
-0.300535
-0.286997
-0.268544
-0.245846
-0.219846
-0.19169
-0.162571
-0.133587
-0.105643
-0.0794174
-0.0553803
-0.0338063
-0.0148651
0.00114626
0.0137014
0.0222602
0.0267689
0.0276871
0.0243059
0.0176012
0.00736881
-0.0060121
-0.0231095
-0.0467172
-0.0789084
-0.115492
-0.142934
-0.150378
-0.135237
-0.108282
-0.080476
-0.0570712
-0.0394057
-0.0258883
-0.0172457
-0.0130754
-0.0122949
-0.0113672
-0.0106385
-0.0145723
-0.0217788
-0.0380306
-0.060834
-0.0888084
-0.0967213
-0.0857184
-0.0663718
-0.0437953
-0.029486
-0.0114603
-0.000138836
0.00579548
0.00809997
0.00218159
-0.283813
-0.285075
-0.287877
-0.286849
-0.284361
-0.280786
-0.274364
-0.264102
-0.249842
-0.231795
-0.210458
-0.186562
-0.160991
-0.134686
-0.108549
-0.0833413
-0.0596616
-0.0379364
-0.0184586
-0.00147048
0.0127396
0.0237986
0.0311682
0.0334246
0.0331665
0.0276388
0.018473
0.00606523
-0.0101889
-0.0326836
-0.0633993
-0.09873
-0.126173
-0.134882
-0.123998
-0.100893
-0.075622
-0.0535159
-0.0365283
-0.0233038
-0.0144729
-0.00966128
-0.00853918
-0.00783648
-0.00766159
-0.0111387
-0.0179474
-0.0343599
-0.057829
-0.0874818
-0.0962302
-0.0856632
-0.0657703
-0.0426212
-0.0281458
-0.00981031
0.00180446
0.00797483
0.0103761
0.00276242
-0.263033
-0.273634
-0.273316
-0.269336
-0.26528
-0.260805
-0.254232
-0.244398
-0.230964
-0.214132
-0.194382
-0.172349
-0.148774
-0.124452
-0.100158
-0.0765616
-0.0541828
-0.0334069
-0.0145212
0.0022497
0.0166806
0.0285
0.037269
0.0429287
0.0427665
0.0386765
0.0310311
0.0201444
0.00501175
-0.0175177
-0.0503773
-0.0890596
-0.11895
-0.128488
-0.115465
-0.0926032
-0.0686633
-0.0479998
-0.0321568
-0.0196811
-0.0112234
-0.00630445
-0.00499439
-0.0039709
-0.00296527
-0.006297
-0.0125648
-0.0293302
-0.0539946
-0.0861695
-0.0965918
-0.085761
-0.064782
-0.0409682
-0.0266413
-0.00801248
0.0036901
0.0101841
0.0125093
0.00327585
-0.239653
-0.253436
-0.253633
-0.248133
-0.242527
-0.23728
-0.230727
-0.221474
-0.209084
-0.193782
-0.176037
-0.156369
-0.135338
-0.113548
-0.0916153
-0.0701033
-0.0494834
-0.030122
-0.0123068
0.00374828
0.017874
0.0298742
0.0393383
0.0452435
0.0470168
0.044618
0.0387511
0.0296151
0.01579
-0.00660901
-0.0405895
-0.0799278
-0.108483
-0.115388
-0.10292
-0.08213
-0.0608378
-0.0423279
-0.0279751
-0.0164956
-0.00848708
-0.00354228
-0.00216426
-0.0011426
-0.000466896
-0.00299369
-0.00863799
-0.0252078
-0.0504356
-0.08392
-0.0953836
-0.0841489
-0.0629042
-0.0388786
-0.0247564
-0.00625013
0.00526192
0.0121198
0.0142031
0.00371151
-0.217796
-0.232034
-0.232924
-0.227232
-0.22097
-0.215387
-0.209107
-0.200678
-0.189557
-0.175908
-0.160137
-0.142662
-0.123904
-0.104329
-0.0844446
-0.0647464
-0.0456728
-0.0275783
-0.010749
0.00458916
0.0182444
0.0300393
0.0397037
0.0462251
0.0490159
0.0478606
0.0433618
0.0354859
0.0223643
-8.70851e-05
-0.0334032
-0.0699461
-0.0952029
-0.100633
-0.0896737
-0.0716869
-0.0532134
-0.036824
-0.0238907
-0.0133777
-0.0058717
-0.000993192
0.000453719
0.00144529
0.00222853
-0.000206221
-0.00572144
-0.0221175
-0.0472041
-0.0804617
-0.0926271
-0.0814951
-0.0604142
-0.0364678
-0.0226338
-0.00448827
0.00679877
0.0139147
0.015665
0.00412646
-0.198088
-0.211082
-0.212441
-0.207278
-0.201047
-0.195396
-0.189392
-0.181703
-0.171721
-0.15952
-0.145448
-0.129868
-0.113118
-0.0955648
-0.0776166
-0.0596917
-0.0421771
-0.0254025
-0.00964425
0.00486854
0.0179228
0.0293189
0.0387381
0.0456357
0.0492234
0.0491729
0.0458819
0.0391102
0.026712
0.00496751
-0.0261469
-0.0589001
-0.0808706
-0.0852112
-0.0760959
-0.0610972
-0.0455111
-0.0313031
-0.0198219
-0.0103148
-0.00337937
0.00135719
0.00289849
0.00392715
0.00486114
0.00246131
-0.0030035
-0.019065
-0.0433139
-0.0757407
-0.0886226
-0.0779088
-0.0572922
-0.0337442
-0.0202642
-0.0027002
0.00829657
0.0155386
0.0169591
0.00452725
-0.179024
-0.190964
-0.192704
-0.188232
-0.182349
-0.176836
-0.171142
-0.164143
-0.155221
-0.144367
-0.131866
-0.11803
-0.103136
-0.0874672
-0.0713437
-0.0551125
-0.0391148
-0.0236571
-0.00900751
0.00460525
0.0169565
0.0278161
0.0368913
0.0438034
0.0478712
0.0486491
0.0463513
0.0406141
0.0292989
0.00928361
-0.0186226
-0.0470448
-0.065421
-0.0694498
-0.0625698
-0.0507074
-0.0379919
-0.0259275
-0.0158627
-0.00734449
-0.0010151
0.00351486
0.00515931
0.00626022
0.00732073
0.00504977
-0.000167295
-0.0154669
-0.0384579
-0.0698287
-0.0832452
-0.0732587
-0.0534967
-0.0307115
-0.0176776
-0.000886624
0.00973123
0.0169533
0.0180652
0.00490251
-0.160982
-0.172065
-0.173988
-0.170135
-0.164744
-0.159555
-0.154263
-0.147947
-0.140026
-0.130432
-0.119379
-0.107135
-0.0939298
-0.0799861
-0.0655585
-0.0509338
-0.0364091
-0.0222644
-0.0087533
0.00389829
0.0154651
0.0257057
0.0343502
0.0410742
0.0453324
0.046653
0.0450913
0.0402263
0.0302067
0.0126974
-0.0110846
-0.0347234
-0.0500483
-0.0542257
-0.0497441
-0.0408747
-0.0308186
-0.0207728
-0.0120621
-0.00449228
0.00121856
0.0054855
0.00722486
0.00843811
0.00963199
0.00755702
0.0028024
-0.0113608
-0.0328191
-0.0627088
-0.0764314
-0.0675142
-0.0490382
-0.0273978
-0.0149161
0.000951014
0.0110856
0.0181254
0.0189314
0.00524072
-0.144444
-0.154419
-0.156347
-0.153061
-0.148242
-0.143503
-0.138688
-0.133046
-0.126055
-0.117615
-0.107887
-0.0970913
-0.0854246
-0.0730663
-0.0602188
-0.0471169
-0.0340151
-0.0211644
-0.00880146
0.00285247
0.01358
0.0231425
0.0312822
0.0377027
0.0419702
0.0436382
0.0426273
0.0385153
0.029945
0.0154301
-0.00383037
-0.0229249
-0.0358602
-0.0404204
-0.0381197
-0.0318581
-0.024133
-0.015919
-0.00847432
-0.00179089
0.00331708
0.00728225
0.00910363
0.0104723
0.0118163
0.00998313
0.00581094
-0.00695731
-0.0265348
-0.0544485
-0.0682847
-0.0607387
-0.0439611
-0.0238464
-0.0120337
0.002808
0.0123469
0.019028
0.019511
0.00553777
-0.129049
-0.137923
-0.13984
-0.137093
-0.132864
-0.128626
-0.12432
-0.119331
-0.1132
-0.105816
-0.0972973
-0.0878261
-0.0775669
-0.0666666
-0.0552869
-0.0436192
-0.0318794
-0.0202897
-0.00906841
0.00157345
0.0114292
0.0202694
0.0278508
0.0339017
0.0380701
0.039959
0.039408
0.0360566
0.0290515
0.017521
0.00239364
-0.0128072
-0.023754
-0.0285954
-0.0279913
-0.023825
-0.0180388
-0.011426
-0.00513873
0.000729191
0.0052758
0.0089204
0.0108135
0.0123731
0.0138915
0.0123372
0.00881413
-0.0023215
-0.0197027
-0.0452787
-0.0590351
-0.0530821
-0.0383506
-0.0201162
-0.0090929
0.00467702
0.0135077
0.0196466
0.0197777
0.00579662
-0.114655
-0.122632
-0.124538
-0.12227
-0.118599
-0.114865
-0.111071
-0.106706
-0.101371
-0.0949528
-0.0875376
-0.0792749
-0.0703019
-0.0607395
-0.0507177
-0.0403927
-0.0299465
-0.0195738
-0.00947181
0.000163016
0.00913501
0.0172287
0.0242204
0.029861
0.0338617
0.035887
0.035751
0.0331725
0.0276526
0.0186958
0.00699303
-0.00496978
-0.014129
-0.0189094
-0.0194379
-0.0168387
-0.0125949
-0.00733671
-0.00208388
0.00303975
0.00708604
0.0104104
0.0123711
0.0141409
0.0158811
0.0146696
0.0118701
0.00254187
-0.0125207
-0.0355577
-0.0490289
-0.0447879
-0.0323384
-0.0162792
-0.00615911
0.0065452
0.0145716
0.0199892
0.0197351
0.00602653
-0.101465
-0.108584
-0.110419
-0.108559
-0.105407
-0.102162
-0.098864
-0.0950895
-0.0904882
-0.0849499
-0.0785382
-0.0713748
-0.0635743
-0.055236
-0.0464656
-0.0373906
-0.0281631
-0.0189521
-0.00993307
-0.00128454
0.00681131
0.0141559
0.0205452
0.0257543
0.0295458
0.0316441
0.0318678
0.0299994
0.0257591
0.0189017
0.00997136
0.000685719
-0.00682425
-0.0112305
-0.0123859
-0.0108855
-0.00782469
-0.00367874
0.000671822
0.0051183
0.00873286
0.0117589
0.0137854
0.0157599
0.0178006
0.0170686
0.015067
0.00755449
-0.00530368
-0.0257586
-0.0387222
-0.0361781
-0.0261005
-0.0124158
-0.00329411
0.00838763
0.015557
0.0200976
0.019427
0.00624343
-0.0894543
-0.095693
-0.0974172
-0.0959209
-0.0932503
-0.0904674
-0.0876378
-0.0844106
-0.0804799
-0.0757399
-0.0702364
-0.0640689
-0.057333
-0.0501108
-0.042488
-0.0345686
-0.0264794
-0.0183645
-0.0103787
-0.00268241
0.00455973
0.0111692
0.0169607
0.0217333
0.0252911
0.0274102
0.027928
0.0266808
0.0235269
0.0183743
0.0116621
0.00456469
-0.00144311
-0.00528125
-0.00668635
-0.00590733
-0.00372317
-0.000466265
0.00311879
0.00695172
0.0101958
0.0129678
0.015055
0.0172002
0.0196166
0.0195777
0.018432
0.012547
0.00153614
-0.01642
-0.0286325
-0.0276306
-0.0198514
-0.00861166
-0.000550201
0.0101599
0.0164898
0.0200505
0.0189445
0.00646991
-0.0783838
-0.0838641
-0.0854976
-0.084327
-0.082093
-0.0797344
-0.0773361
-0.074608
-0.0712835
-0.0672623
-0.062576
-0.057306
-0.051532
-0.0453218
-0.0387448
-0.0318857
-0.0248497
-0.0177585
-0.0107458
-0.0039542
0.00246984
0.00836866
0.0135774
0.0179213
0.0212351
0.0233377
0.0240942
0.0233849
0.0211472
0.0173781
0.0124279
0.00710732
0.00242707
-0.000762664
-0.00216604
-0.00182155
-0.000263047
0.00229882
0.005253
0.00853792
0.0114567
0.0140261
0.0161652
0.0184341
0.0212327
0.0220547
0.0217764
0.017186
0.00754655
-0.00802962
-0.0192345
-0.0195215
-0.0138271
-0.00495509
0.00203054
0.011796
0.0173865
0.0199483
0.018421
0.00672997
-0.068289
-0.0731063
-0.0746362
-0.0737341
-0.0718849
-0.0699101
-0.0679028
-0.0656236
-0.0628412
-0.059462
-0.0555063
-0.0510402
-0.0461298
-0.0408312
-0.0352006
-0.0293065
-0.0232355
-0.0170898
-0.0109837
-0.0050399
0.000613877
0.0058368
0.0104866
0.0144172
0.0174864
0.0195484
0.0204965
0.0202418
0.0187666
0.016116
0.0125678
0.00868077
0.00513609
0.00259589
0.00134813
0.00146545
0.00259806
0.00462725
0.00707391
0.00988144
0.0125064
0.0149088
0.0170816
0.0194416
0.0225471
0.0241162
0.0245778
0.0209379
0.0123524
-0.0009067
-0.0108701
-0.0121637
-0.00825913
-0.00153403
0.00441007
0.0132148
0.0182364
0.0198866
0.0179929
0.00703282
-0.0591585
-0.0633597
-0.0647656
-0.0640838
-0.0625708
-0.0609394
-0.0592827
-0.0574026
-0.0551002
-0.0522894
-0.0489819
-0.0452306
-0.0410903
-0.0366069
-0.0318261
-0.0268027
-0.0216075
-0.016325
-0.0110523
-0.00589373
-0.000958725
0.00363379
0.00775954
0.0112958
0.0141234
0.0161256
0.0172188
0.0173391
0.0164904
0.0147347
0.0122949
0.00957578
0.00696427
0.00502949
0.00401865
0.00405144
0.00491151
0.00654133
0.00858589
0.0109877
0.0133431
0.0155937
0.0177571
0.0201621
0.0235021
0.0254048
0.0262672
0.023331
0.0157795
0.00480155
-0.00376858
-0.0057843
-0.00334271
0.00157293
0.00654591
0.0143309
0.0189765
0.0199311
0.0177336
0.00734995
-0.0508901
-0.0545245
-0.0558073
-0.0553125
-0.0540974
-0.0527714
-0.0514245
-0.0498951
-0.0480131
-0.0457007
-0.0429631
-0.0398422
-0.0363827
-0.0326225
-0.028598
-0.0243531
-0.0199447
-0.0154422
-0.010926
-0.00648479
-0.0022118
0.00179683
0.00543525
0.00860109
0.0111926
0.013119
0.0143137
0.014732
0.0143848
0.0133328
0.0117612
0.0100173
0.00812154
0.00672974
0.00599282
0.00603411
0.0067336
0.00807182
0.00979967
0.0118626
0.0139687
0.016064
0.0181488
0.0204861
0.0241131
0.0256833
0.0266389
0.0242882
0.0178905
0.00906844
0.00192171
-0.00051637
0.000798597
0.00430519
0.00839168
0.0150751
0.0194785
0.020074
0.0176003
0.00760654
-0.0433994
-0.0465457
-0.0477201
-0.047381
-0.0464185
-0.0453549
-0.0442765
-0.0430512
-0.0415339
-0.0396545
-0.0374134
-0.0348434
-0.031981
-0.0288567
-0.0254995
-0.021944
-0.0182358
-0.0144306
-0.0105944
-0.00679993
-0.00312635
0.000344716
0.00353003
0.00635115
0.00871603
0.0105516
0.0118073
0.0124497
0.01249
0.0119786
0.0110321
0.00977501
0.00873042
0.00785545
0.00740163
0.00750712
0.00812352
0.00925405
0.0107329
0.0125146
0.0143883
0.0163137
0.018242
0.0202458
0.0220975
0.0249511
0.0259525
0.0241119
0.0189084
0.0119964
0.00618597
0.00362182
0.00413382
0.00661655
0.00991166
0.0154303
0.019595
0.0201784
0.0174169
0.00769884
-0.0366551
-0.0393711
-0.0404366
-0.0402187
-0.0394707
-0.0386341
-0.0377872
-0.0368232
-0.0356192
-0.0341125
-0.0323
-0.0302072
-0.0278637
-0.0252937
-0.0225199
-0.0195693
-0.0164777
-0.0132893
-0.0100575
-0.00684156
-0.00370751
-0.000721236
0.00204839
0.0045507
0.00669421
0.00842455
0.00970275
0.0105038
0.0108376
0.0107424
0.010312
0.00965799
0.0090463
0.00856333
0.00836386
0.00855821
0.0091408
0.0101259
0.0114082
0.0129566
0.0146139
0.0163562
0.0181077
0.0199093
0.0217646
0.0238615
0.024662
0.0232277
0.0191285
0.013811
0.00918368
0.00672342
0.00671507
0.00847106
0.0110794
0.0154393
0.0192393
0.01999
0.0169255
0.0075267
-0.0305957
-0.032929
-0.0338922
-0.0337772
-0.0332019
-0.032555
-0.0319063
-0.0311649
-0.0302275
-0.0290387
-0.0275931
-0.0259102
-0.0240135
-0.0219221
-0.0196536
-0.0172287
-0.0146751
-0.0120274
-0.00932805
-0.00662334
-0.00396613
-0.00140823
0.00100666
0.00318551
0.0051095
0.00672201
0.00798964
0.00889205
0.00943596
0.00964907
0.00960286
0.00938062
0.00913341
0.00896178
0.00897851
0.00926652
0.00984283
0.0107264
0.0118529
0.0132054
0.0146626
0.0162167
0.0177833
0.0193876
0.0210044
0.0225485
0.0231068
0.021988
0.0188329
0.014789
0.0111666
0.00891827
0.00863807
0.00985484
0.0118776
0.0151554
0.0183993
0.0192778
0.0159308
0.00704947
-0.0251511
-0.0271501
-0.0280183
-0.0279861
-0.0275615
-0.0270693
-0.0265855
-0.0260324
-0.0253202
-0.0244003
-0.0232658
-0.0219316
-0.0204163
-0.0187345
-0.0168999
-0.0149277
-0.0128391
-0.0106608
-0.00842568
-0.00617017
-0.00393606
-0.00176683
0.000294511
0.00220252
0.0039243
0.00541423
0.00664424
0.00759836
0.00828084
0.00871247
0.0089379
0.00902329
0.0090629
0.00913534
0.00932764
0.00970146
0.0102837
0.0110948
0.0120958
0.0132812
0.0145573
0.0159255
0.0172974
0.0186874
0.0200106
0.0211492
0.0214972
0.0206232
0.0182351
0.0151857
0.0123789
0.0104309
0.010007
0.0107895
0.0123076
0.0146311
0.0171522
0.017909
0.0144366
0.00631674
-0.0202722
-0.0219824
-0.0227634
-0.0227974
-0.0225039
-0.0221512
-0.0217957
-0.0213915
-0.0208627
-0.0201663
-0.019293
-0.018253
-0.0170603
-0.0157262
-0.0142608
-0.0126753
-0.0109852
-0.00921048
-0.00737667
-0.00551228
-0.00364932
-0.00182156
-6.57677e-05
0.00158987
0.00310437
0.00446315
0.00563164
0.00659611
0.00735822
0.00792829
0.00834524
0.00864531
0.00889621
0.00915171
0.00947922
0.00992347
0.0105138
0.0112693
0.0121666
0.0132086
0.0143217
0.0155113
0.0166886
0.0178635
0.0189129
0.0197511
0.019946
0.0192632
0.0174769
0.0151889
0.013033
0.0114246
0.0109091
0.0113256
0.0123998
0.0139278
0.0156554
0.0160138
0.0126329
0.00544274
-0.015912
-0.017371
-0.0180712
-0.0181555
-0.0179668
-0.0177277
-0.0174893
-0.0172057
-0.0168208
-0.0163077
-0.0156501
-0.0148572
-0.0139361
-0.0128949
-0.011741
-0.0104824
-0.00913079
-0.00770084
-0.00621162
-0.00468477
-0.00314471
-0.0016171
-0.000129527
0.0012922
0.00262351
0.00383512
0.00491843
0.00585824
0.00665338
0.00730708
0.00784291
0.00828485
0.00868037
0.00906481
0.00948912
0.00998465
0.0105783
0.0112867
0.0120963
0.0130137
0.0139798
0.0150032
0.0159981
0.0169729
0.0177912
0.0184076
0.018503
0.0179703
0.0166443
0.0149287
0.0132782
0.0119594
0.0114166
0.0115306
0.0122113
0.0131068
0.0140707
0.0140206
0.0107762
0.00455346
-0.0120216
-0.0132639
-0.0138909
-0.0140136
-0.0139105
-0.0137653
-0.0136227
-0.0134473
-0.013189
-0.0128101
-0.0123094
-0.0117302
-0.0110373
-0.0102409
-0.00934746
-0.00836302
-0.0072961
-0.00615752
-0.00496147
-0.00372388
-0.0024632
-0.00119881
4.85219e-05
0.00125881
0.00241195
0.00348968
0.00447794
0.00536631
0.00615348
0.00683925
0.00743812
0.00796404
0.00844946
0.00891667
0.00940276
0.00992912
0.010518
0.0111827
0.0119148
0.0127222
0.0135577
0.0144305
0.0152612
0.01606
0.0166935
0.0171473
0.017184
0.0167676
0.0157864
0.0144953
0.0132297
0.0121423
0.0116022
0.0114756
0.0118078
0.0122144
0.0124855
0.0120711
0.00904768
0.00373938
-0.00855714
-0.00961353
-0.0101749
-0.0103263
-0.0102921
-0.0102233
-0.0101584
-0.0100705
-0.00992035
-0.00968371
-0.00935649
-0.00890489
-0.0083756
-0.00777177
-0.00708952
-0.00633087
-0.00550066
-0.00460631
-0.00365784
-0.00266651
-0.00164607
-0.000610705
0.000424289
0.00144376
0.00243198
0.0033747
0.00426071
0.00508106
0.00583266
0.00651343
0.00713248
0.00769682
0.008228
0.00873928
0.00925665
0.009794
0.0103681
0.0109891
0.0116506
0.0123603
0.0130805
0.0138202
0.0145085
0.0151562
0.0156464
0.0159818
0.0159875
0.0156603
0.0149308
0.0139506
0.0129703
0.0120629
0.0115332
0.0112242
0.0112547
0.011287
0.0110409
0.0102931
0.00753577
0.00304347
-0.00547912
-0.00637619
-0.00687817
-0.00704932
-0.00706922
-0.00706022
-0.00705481
-0.00703188
-0.00695905
-0.00681497
-0.00659235
-0.00629144
-0.00591873
-0.005475
-0.00496627
-0.00439426
-0.00376096
-0.00307067
-0.00233015
-0.00154729
-0.000732019
0.000105363
0.000953573
0.00180135
0.00263675
0.0034488
0.00422855
0.00496835
0.00566462
0.00631409
0.00692157
0.00748977
0.00803232
0.0085564
0.00907942
0.00960988
0.0101591
0.0107345
0.0113303
0.011953
0.0125716
0.0131952
0.0137619
0.0142838
0.0146651
0.0149134
0.0149034
0.0146435
0.0140938
0.0133379
0.0125625
0.011789
0.0112756
0.0108294
0.0106077
0.0103532
0.00974614
0.00875032
0.00626492
0.00247395
-0.00275132
-0.00351214
-0.00396071
-0.00414486
-0.00420672
-0.00424456
-0.00428546
-0.00431314
-0.00430168
-0.00423358
-0.00410279
-0.00391004
-0.00365819
-0.00334934
-0.00298499
-0.00256585
-0.00209418
-0.00157268
-0.00100549
-0.00039802
0.00024279
0.000909729
0.0015946
0.00228925
0.00298488
0.00367303
0.00434642
0.00499872
0.00562638
0.00622564
0.00679838
0.00734468
0.00787244
0.00838497
0.00889299
0.00940125
0.00991662
0.0104437
0.0109771
0.0115215
0.0120513
0.012574
0.0130387
0.0134561
0.0137549
0.0139385
0.0139202