/*--------------------------------*- C++ -*----------------------------------*\
| =========                 |                                                 |
| \\      /  F ield         | OpenFOAM: The Open Source CFD Toolbox           |
|  \\    /   O peration     | Version:  2512                                  |
|   \\  /    A nd           | Website:  www.openfoam.com                      |
|    \\/     M anipulation  |                                                 |
\*---------------------------------------------------------------------------*/
FoamFile
{
    version     2.0;
    format      ascii;
    arch        "LSB;label=32;scalar=64";
    class       volVectorField;
    location    "133.25";
    object      U;
}
// * * * * * * * * * * * * * * * * * * * * * * * * * * * * * * * * * * * * * //

dimensions      [0 1 -1 0 0 0 0];

internalField   nonuniform List<vector> 
13248
(
(-0.0141066 0.0121961 7.39428e-20)
(-0.027239 0.0252989 0)
(-0.025945 0.0317203 -1.39532e-19)
(-0.0101409 0.0341937 1.31441e-19)
(0.0202783 0.034526 1.22602e-19)
(0.0653641 0.0339321 0)
(0.125007 0.0332509 0)
(0.198746 0.0330629 2.90765e-19)
(0.285568 0.0337355 -1.91981e-21)
(0.383751 0.0354397 -2.53108e-19)
(0.490789 0.0381463 2.3492e-19)
(0.603449 0.0416275 -1.4671e-19)
(0.717954 0.0454779 0)
(0.830255 0.0491594 -2.57123e-19)
(0.936369 0.0520664 4.82554e-19)
(1.03271 0.053603 -1.14536e-19)
(1.1164 0.0532641 -2.11046e-19)
(1.18548 0.0506782 1.9813e-19)
(1.23911 0.0457416 0)
(1.27747 0.0382161 0)
(1.30191 0.0291947 0)
(1.3141 0.0157741 0)
(1.31654 0.00711472 6.27834e-20)
(1.31142 -0.0216299 2.30485e-19)
(-0.0146884 0.0115352 -2.23423e-19)
(-0.023574 0.0218354 1.52415e-19)
(-0.0132845 0.0255206 -1.52196e-21)
(0.0153791 0.0256786 -2.01196e-19)
(0.0619974 0.0244307 -1.22467e-19)
(0.126093 0.0232441 -1.15878e-19)
(0.20677 0.0230933 -2.11108e-19)
(0.302404 0.0245645 2.00316e-19)
(0.410418 0.0279047 0)
(0.527231 0.0330383 8.63201e-22)
(0.648423 0.0395881 2.36817e-21)
(0.769091 0.0469259 1.47903e-19)
(0.884316 0.0542572 0)
(0.989661 0.0607331 0)
(1.08159 0.0655685 1.77622e-19)
(1.15778 0.0681472 -3.33832e-19)
(1.21727 0.0680946 2.03142e-19)
(1.26042 0.0653087 -1.90726e-19)
(1.28874 0.0599329 -8.49775e-20)
(1.30459 0.0523282 -1.57834e-19)
(1.31064 0.0429561 -6.66262e-20)
(1.30969 0.032206 -1.2609e-19)
(1.30355 0.0220533 1.8252e-19)
(1.29571 0.007709 5.24716e-20)
(-0.013927 0.0100785 0)
(-0.0156537 0.0170674 0)
(0.00700418 0.0185059 7.11937e-20)
(0.0522 0.0174804 6.53725e-20)
(0.118653 0.0162236 -1.86566e-21)
(0.204831 0.0163115 -1.20653e-19)
(0.308344 0.01869 0)
(0.425611 0.0237487 -9.9424e-20)
(0.551817 0.031373 9.39218e-20)
(0.681201 0.0409995 1.30472e-21)
(0.807633 0.0517176 -1.59672e-19)
(0.925327 0.0624221 -1.46909e-19)
(1.02951 0.0719936 2.09937e-21)
(1.11691 0.0794712 -1.23363e-19)
(1.18601 0.0841828 2.9456e-19)
(1.23698 0.0858119 0)
(1.27149 0.0843961 -1.95277e-19)
(1.29215 0.0802522 9.47139e-20)
(1.3021 0.073917 8.49132e-20)
(1.30436 0.0658857 0)
(1.30158 0.0570386 7.07983e-20)
(1.29553 0.0469896 -2.43661e-19)
(1.28753 0.0388627 2.2874e-19)
(1.27897 0.0256172 1.44825e-19)
(-0.0113877 0.00784991 -7.95654e-20)
(-0.00243852 0.0110804 -8.23965e-20)
(0.0361956 0.0108761 7.42112e-20)
(0.101414 0.00997838 0)
(0.190594 0.0104879 0)
(0.300426 0.0138574 -3.1547e-21)
(0.426201 0.0207215 0)
(0.561698 0.0309491 -3.07033e-19)
(0.699624 0.0437588 2.85053e-19)
(0.832453 0.0578986 -3.51147e-19)
(0.953444 0.0718966 8.01753e-20)
(1.05751 0.0843374 0)
(1.14173 0.0940988 1.34588e-19)
(1.20548 0.1005 -2.49708e-19)
(1.25011 0.103342 5.93383e-20)
(1.2784 0.102843 1.54468e-19)
(1.29384 0.0995131 -5.71279e-21)
(1.3 0.094002 -1.7246e-19)
(1.29997 0.0869531 0)
(1.29609 0.078951 0)
(1.28994 0.0704508 -6.29227e-20)
(1.28242 0.061613 5.67278e-20)
(1.27404 0.0538461 2.05846e-19)
(1.26556 0.0427434 -1.93259e-19)
(-0.00668909 0.00504544 -8.43553e-20)
(0.0169626 0.00441232 -8.39286e-20)
(0.0752808 0.00348206 2.3584e-19)
(0.16357 0.00431433 -1.42809e-19)
(0.277192 0.00856664 1.34418e-19)
(0.410209 0.0172142 2.43511e-19)
(0.55486 0.0301725 -1.72365e-19)
(0.702074 0.0464115 -2.09663e-19)
(0.842647 0.0642573 4.34471e-21)
(0.968637 0.0817862 2.66933e-19)
(1.07449 0.0972298 0)
(1.15757 0.109291 7.37583e-20)
(1.2181 0.117302 0)
(1.25849 0.121211 -1.20795e-19)
(1.2825 0.121446 1.69895e-19)
(1.2943 0.118708 1.60268e-21)
(1.29776 0.113774 -4.50218e-20)
(1.29595 0.107349 8.48756e-20)
(1.29107 0.0999994 7.33997e-20)
(1.28446 0.0921276 -6.61644e-20)
(1.27694 0.0840569 6.29097e-20)
(1.26888 0.0758391 -5.67153e-20)
(1.2605 0.0683653 0)
(1.25219 0.058572 -4.30865e-20)
(0.00050804 0.00198199 8.43432e-20)
(0.0432468 -0.00204587 8.88197e-20)
(0.124811 -0.00230721 -7.91092e-20)
(0.238385 0.00218925 1.47567e-19)
(0.376485 0.0122278 -1.38888e-19)
(0.529753 0.0278175 1.25461e-19)
(0.687123 0.0476932 -6.04098e-20)
(0.837321 0.0696593 1.57442e-19)
(0.970766 0.0912008 -9.92605e-20)
(1.08108 0.110081 1.75596e-19)
(1.16566 0.124761 -4.05397e-19)
(1.22541 0.134568 1.49189e-19)
(1.26369 0.13961 -1.30631e-19)
(1.28516 0.14054 1.22704e-19)
(1.29459 0.138265 1.06511e-19)
(1.29615 0.133704 9.39939e-20)
(1.29299 0.127635 -2.61702e-19)
(1.28723 0.120645 1.6263e-19)
(1.28017 0.113133 -7.34045e-20)
(1.2725 0.10537 1.92449e-19)
(1.26456 0.0975293 -6.21407e-20)
(1.25649 0.0897213 -1.52333e-19)
(1.24834 0.0823656 1.40808e-19)
(1.24025 0.0735311 4.30745e-20)
(0.0104959 -0.000943165 0)
(0.0768223 -0.0071782 9.13068e-22)
(0.184674 -0.00484991 1.66563e-19)
(0.324435 0.00546698 -1.56061e-19)
(0.48495 0.023111 -1.40661e-19)
(0.653066 0.0465714 2.61354e-19)
(0.815021 0.0730699 -1.21339e-19)
(0.95897 0.0993059 1.6135e-19)
(1.07708 0.122363 -3.58469e-21)
(1.16634 0.140312 -9.14317e-20)
(1.22803 0.152395 1.99129e-19)
(1.26635 0.158861 -2.94255e-19)
(1.28681 0.160601 0)
(1.29486 0.158762 -5.79556e-20)
(1.29507 0.154441 -1.55076e-19)
(1.29078 0.148527 4.87424e-20)
(1.28416 0.141661 1.82858e-21)
(1.27649 0.134263 -1.08284e-19)
(1.26845 0.126601 6.29762e-21)
(1.26033 0.118841 1.25493e-19)
(1.25224 0.111098 -5.64293e-20)
(1.24421 0.103461 -2.15551e-20)
(1.2362 0.0960673 6.61151e-20)
(1.22825 0.0879084 0)
(0.0234777 -0.00327144 0)
(0.117679 -0.00975553 4.52306e-20)
(0.253905 -0.00247907 -2.17956e-19)
(0.419024 0.0157849 7.92664e-20)
(0.597703 0.042267 -7.46002e-20)
(0.773416 0.073492 -6.82634e-20)
(0.931316 0.105186 -1.20294e-19)
(1.06122 0.133434 6.02105e-20)
(1.15895 0.155632 5.21168e-20)
(1.22574 0.170767 0)
(1.26646 0.179165 1.1864e-19)
(1.28749 0.181969 -1.76845e-19)
(1.29511 0.18061 1.31527e-19)
(1.29446 0.176429 5.79873e-20)
(1.28922 0.170484 -4.77613e-20)
(1.28176 0.163513 -4.00885e-20)
(1.27342 0.155987 -3.75429e-20)
(1.26487 0.14819 1.11939e-19)
(1.25641 0.140291 0)
(1.24814 0.132396 5.66901e-20)
(1.24008 0.124584 4.80052e-20)
(1.23218 0.116921 -1.18886e-19)
(1.22438 0.10941 -8.19055e-20)
(1.21663 0.101705 7.55921e-20)
(0.0395055 -0.00449803 -4.91537e-20)
(0.165268 -0.00853943 -2.03667e-21)
(0.330601 0.00627965 4.44629e-20)
(0.51835 0.034262 1.24561e-19)
(0.709158 0.0699305 3.62338e-20)
(0.884545 0.107735 -7.00314e-20)
(1.03086 0.142393 6.38181e-20)
(1.14165 0.170177 -5.57802e-20)
(1.21741 0.189501 1.00032e-19)
(1.26336 0.200624 4.24902e-20)
(1.28683 0.204933 -1.20842e-19)
(1.29509 0.204212 3.55353e-20)
(1.29411 0.200133 6.07717e-20)
(1.28813 0.194002 -2.98723e-20)
(1.27984 0.186714 0)
(1.27072 0.178828 4.47078e-20)
(1.26153 0.170664 7.58551e-20)
(1.25257 0.162406 1.31141e-20)
(1.24395 0.154162 -6.33709e-20)
(1.23568 0.146003 2.65843e-20)
(1.22769 0.137985 0)
(1.21994 0.130141 -2.09862e-20)
(1.21233 0.122436 -1.99959e-20)
(1.20478 0.114948 0)
(0.058417 -0.00409768 0)
(0.218429 -0.00239129 2.57952e-20)
(0.412002 0.0225303 4.7801e-20)
(0.617929 0.0613437 -1.27335e-19)
(0.813897 0.105546 4.12369e-20)
(0.981671 0.147897 0)
(1.11108 0.182972 6.17042e-20)
(1.20071 0.208086 -8.61644e-20)
(1.2556 0.223132 -5.00343e-20)
(1.28396 0.229672 2.2536e-20)
(1.29429 0.229916 -3.61905e-20)
(1.29369 0.225983 8.78027e-20)
(1.28725 0.21954 4.39335e-20)
(1.27817 0.211723 -3.05322e-20)
(1.26823 0.203228 -2.85872e-21)
(1.25828 0.194447 -8.37721e-20)
(1.24871 0.18559 3.81651e-20)
(1.23961 0.176773 -9.74598e-22)
(1.23099 0.168065 0)
(1.22281 0.159517 -2.66122e-20)
(1.21498 0.151165 0)
(1.20743 0.143012 6.04595e-20)
(1.20007 0.135063 -7.20159e-20)
(1.19276 0.127595 3.2857e-20)
(0.0797926 -0.00156315 -1.3543e-20)
(0.275396 0.0096199 -6.52548e-20)
(0.49471 0.0468849 7.43509e-20)
(0.713154 0.0967822 4.36478e-20)
(0.907395 0.147961 -2.08219e-20)
(1.0619 0.192359 3.49624e-20)
(1.17164 0.225439 -1.69706e-20)
(1.24047 0.246199 2.81689e-20)
(1.27717 0.256164 0)
(1.29165 0.257996 6.37101e-20)
(1.29253 0.254411 -2.65958e-21)
(1.2861 0.247594 -5.13645e-20)
(1.27637 0.239047 2.19829e-20)
(1.26557 0.229687 -2.48114e-20)
(1.25479 0.220017 -9.45057e-21)
(1.24449 0.210299 1.09076e-20)
(1.2348 0.200665 -8.4329e-21)
(1.22573 0.191187 -4.58154e-20)
(1.21723 0.181912 2.80784e-20)
(1.20922 0.172874 5.75792e-21)
(1.20161 0.164086 5.07723e-21)
(1.19432 0.15554 4.47922e-21)
(1.18722 0.147306 0)
(1.18018 0.139648 0)
(0.103021 0.00356038 1.35524e-20)
(0.334037 0.0281362 -1.35566e-20)
(0.57518 0.079402 -2.48023e-20)
(0.799964 0.139721 0)
(0.986492 0.195673 -1.03553e-20)
(1.12405 0.239566 -9.34063e-21)
(1.21352 0.268656 -1.59366e-20)
(1.26348 0.28396 0)
(1.28524 0.288513 0)
(1.28933 0.285769 0)
(1.28373 0.278646 0)
(1.27366 0.269203 0)
(1.26207 0.258704 -1.38326e-20)
(1.25042 0.247842 6.30203e-21)
(1.23932 0.236963 1.09439e-20)
(1.22896 0.226232 5.11434e-21)
(1.21936 0.215726 1.2667e-20)
(1.21047 0.20549 0)
(1.20221 0.195552 -3.0425e-21)
(1.19449 0.18593 -2.91062e-21)
(1.18721 0.176623 -5.08533e-21)
(1.18027 0.167623 -4.48638e-21)
(1.17353 0.15907 0)
(1.16686 0.151057 3.22626e-21)
(-0.00183537 0.0219166 8.90309e-21)
(-0.00758953 0.0619538 -9.21293e-21)
(-0.0170765 0.0978177 -1.74056e-20)
(-0.0286752 0.128653 0)
(-0.0414296 0.154318 -2.32425e-20)
(-0.0547518 0.175415 7.31179e-21)
(-0.0681208 0.192994 -1.37524e-20)
(-0.0810741 0.208214 0)
(-0.0932264 0.222075 0)
(-0.104268 0.235264 0)
(-0.113951 0.248118 0)
(-0.122076 0.260652 0)
(-0.128468 0.272633 5.98717e-23)
(-0.132961 0.283641 -9.28697e-21)
(-0.135389 0.293126 1.77624e-20)
(-0.135581 0.300445 2.54267e-20)
(-0.133359 0.304885 8.20704e-21)
(-0.128552 0.305689 0)
(-0.121012 0.302095 7.39809e-21)
(-0.110636 0.293384 -2.12168e-20)
(-0.0973528 0.278908 -1.37238e-20)
(-0.0811064 0.258222 -1.32e-20)
(-0.061863 0.231097 0)
(-0.0399622 0.197913 0)
(-0.00296187 0.0244709 -2.67146e-20)
(-0.00961911 0.0682981 4.59886e-20)
(-0.0180842 0.107126 -1.72963e-20)
(-0.0275406 0.140277 -3.27234e-20)
(-0.0374583 0.167641 4.62724e-20)
(-0.0474644 0.189796 -2.9062e-20)
(-0.0571836 0.207775 4.1081e-20)
(-0.066236 0.222753 2.57113e-20)
(-0.0742598 0.235785 0)
(-0.0809238 0.247636 -2.32687e-20)
(-0.0859338 0.258719 -3.29752e-22)
(-0.0890312 0.269118 2.05351e-20)
(-0.0899863 0.278638 2.93593e-20)
(-0.0885919 0.286887 3.75565e-20)
(-0.0846563 0.293326 -1.71585e-20)
(-0.0780033 0.297319 -5.05718e-20)
(-0.0684776 0.298173 1.67464e-20)
(-0.0559451 0.295167 -6.22964e-20)
(-0.0403049 0.287588 0)
(-0.0215794 0.274766 1.42471e-20)
(0.000172376 0.256133 1.36994e-20)
(0.0249082 0.231315 1.31762e-20)
(0.0527163 0.200258 0)
(0.0838606 0.163727 0)
(-0.00418404 0.0252538 0)
(-0.0119544 0.0706458 9.17168e-20)
(-0.0195538 0.111128 -3.45815e-20)
(-0.0268635 0.145881 3.25991e-20)
(-0.033731 0.174633 -9.18294e-20)
(-0.039989 0.197792 0)
(-0.0454231 0.216251 -5.43463e-20)
(-0.0497692 0.231102 2.54309e-20)
(-0.0527279 0.243386 -4.80502e-20)
(-0.0539857 0.253911 2.24882e-20)
(-0.0532344 0.263165 1.29745e-19)
(-0.0501851 0.271317 -6.09876e-20)
(-0.0445722 0.278254 -9.79731e-20)
(-0.0361676 0.283647 -3.81556e-20)
(-0.0247796 0.287016 -1.35738e-21)
(-0.0102489 0.287783 1.3613e-19)
(0.00753631 0.28532 -6.46154e-20)
(0.0286357 0.278982 -1.39497e-22)
(0.0530508 0.268138 0)
(0.0806915 0.252193 -5.90679e-20)
(0.111386 0.230679 0)
(0.144913 0.203238 -5.69046e-20)
(0.18116 0.169828 2.14215e-19)
(0.222204 0.130919 2.95787e-21)
(-0.0052848 0.0244528 0)
(-0.01423 0.0692413 -6.1714e-23)
(-0.0212603 0.109902 3.43979e-20)
(-0.026714 0.145275 -3.22666e-20)
(-0.0306913 0.174815 3.06252e-20)
(-0.0331804 0.198676 1.71506e-19)
(-0.034118 0.217519 -5.38344e-20)
(-0.0333751 0.232272 -5.04059e-20)
(-0.0307548 0.243886 9.54981e-20)
(-0.0260099 0.253161 -1.35905e-19)
(-0.018868 0.260636 4.21724e-20)
(-0.00905523 0.266565 4.0212e-20)
(0.00368372 0.270935 0)
(0.0195677 0.273518 3.69203e-20)
(0.0387694 0.273934 0)
(0.0614086 0.271701 6.70862e-20)
(0.0875435 0.266289 -1.32024e-19)
(0.117165 0.257153 2.76998e-20)
(0.150196 0.243769 1.19877e-19)
(0.186492 0.225648 5.89931e-20)
(0.225823 0.202396 0)
(0.26812 0.173636 -1.68535e-19)
(0.311957 0.139364 5.25127e-20)
(0.364431 0.0994618 0)
(-0.00612617 0.0224691 0)
(-0.0161938 0.0647967 -1.09534e-19)
(-0.0230484 0.104119 -3.41478e-20)
(-0.0271639 0.138894 -6.43626e-20)
(-0.028731 0.168305 6.06e-20)
(-0.0278183 0.192239 -5.69877e-20)
(-0.0244794 0.211098 1.06589e-19)
(-0.0187195 0.225588 5.04132e-20)
(-0.0104703 0.236516 -1.41744e-19)
(0.000404029 0.244616 8.92615e-20)
(0.014087 0.250435 -1.26697e-19)
(0.0307835 0.254289 2.78741e-19)
(0.0506934 0.256261 -1.50768e-19)
(0.0739894 0.256238 7.16178e-20)
(0.100801 0.253957 2.08656e-19)
(0.131204 0.249055 -6.37643e-20)
(0.165215 0.241116 -5.98763e-20)
(0.202793 0.229705 -6.08573e-20)
(0.243836 0.214392 0)
(0.28827 0.19474 -1.18558e-19)
(0.335684 0.170433 -1.18865e-19)
(0.387049 0.141161 1.61777e-19)
(0.437824 0.106936 2.16591e-19)
(0.504277 0.0666998 -2.01956e-19)
(-0.00669399 0.0198287 0)
(-0.0177872 0.0583413 -1.45475e-19)
(-0.024885 0.094917 5.6923e-22)
(-0.0282834 0.12775 1.28566e-19)
(-0.0281063 0.155848 0)
(-0.0244268 0.178899 0)
(-0.0173685 0.197072 0)
(-0.00704936 0.210855 -4.97695e-20)
(0.006467 0.220878 -4.35995e-23)
(0.0231834 0.227767 8.74569e-20)
(0.0431611 0.232033 -1.25755e-19)
(0.0665005 0.234016 -5.184e-22)
(0.0933178 0.233869 0)
(0.123724 0.231578 -7.1581e-20)
(0.157813 0.226991 6.85381e-20)
(0.195646 0.219862 -1.929e-19)
(0.237266 0.209875 2.52459e-19)
(0.282693 0.196689 6.54405e-20)
(0.331828 0.179921 7.5157e-21)
(0.384865 0.159313 -2.23892e-19)
(0.441067 0.134467 -1.0873e-19)
(0.503514 0.105284 3.76561e-19)
(0.561504 0.0714964 -2.53057e-19)
(0.644463 0.0313926 0)
(-0.00710114 0.0170888 7.07379e-20)
(-0.019156 0.0510454 7.27566e-20)
(-0.0268573 0.0837243 -6.80315e-20)
(-0.0300933 0.113304 -1.27245e-19)
(-0.0288118 0.138788 1.19802e-19)
(-0.023036 0.159781 -1.11285e-19)
(-0.0129148 0.176301 1.56605e-19)
(0.00135831 0.188657 -4.96172e-20)
(0.0196141 0.197317 9.16619e-20)
(0.0417394 0.202782 0)
(0.067686 0.205496 8.06114e-20)
(0.0974648 0.205786 -1.50892e-19)
(0.131133 0.20384 1.4612e-19)
(0.168781 0.19971 -1.3723e-19)
(0.210528 0.19332 0)
(0.256491 0.184518 1.26737e-19)
(0.306807 0.173071 2.45779e-19)
(0.361624 0.158715 -2.32283e-19)
(0.42104 0.141153 -1.12311e-19)
(0.485474 0.120243 -1.15688e-19)
(0.55302 0.0952658 3.19251e-19)
(0.629535 0.0669733 1.04481e-19)
(0.696512 0.0340583 -9.50739e-20)
(0.798546 -0.00348669 9.25484e-20)
(-0.00755534 0.0147395 -7.07478e-20)
(-0.020581 0.0440058 2.1697e-19)
(-0.0290754 0.072012 -6.82e-20)
(-0.0324281 0.0972466 1.26639e-19)
(-0.030373 0.118914 -1.19232e-19)
(-0.0228613 0.136674 1.37255e-22)
(-0.0100282 0.150501 5.18515e-20)
(0.00791047 0.1606 1.91204e-19)
(0.0307424 0.167316 -8.05585e-22)
(0.0583082 0.171042 -8.53515e-20)
(0.090526 0.172146 0)
(0.1274 0.170919 -7.46176e-20)
(0.169015 0.167552 1.41183e-19)
(0.215506 0.162116 1.35912e-19)
(0.267076 0.154604 -6.39787e-20)
(0.323949 0.144912 -1.55404e-21)
(0.386289 0.132858 -6.01722e-20)
(0.454189 0.118241 1.12937e-19)
(0.527416 0.100765 1.123e-19)
(0.606279 0.0805066 -1.08653e-19)
(0.687566 0.0564296 1.01248e-19)
(0.778027 0.0307727 -9.70777e-20)
(0.853475 -0.000344105 0)
(0.967193 -0.0318568 -9.25334e-20)
(-0.00828705 0.0131113 7.05098e-20)
(-0.022323 0.0380402 -7.24419e-20)
(-0.0314754 0.061029 6.78953e-20)
(-0.0347065 0.0812154 0)
(-0.0315688 0.0981969 0)
(-0.0219406 0.111826 1.09131e-19)
(-0.00590121 0.12214 -1.03101e-19)
(0.0163866 0.129323 9.4225e-20)
(0.0447656 0.133659 -4.45103e-19)
(0.0791387 0.135468 2.19141e-22)
(0.119496 0.135054 7.7642e-20)
(0.165913 0.132666 0)
(0.218534 0.128471 -1.39746e-19)
(0.277532 0.122556 2.64242e-19)
(0.343009 0.114911 -1.88545e-19)
(0.414945 0.105435 -3.04782e-19)
(0.493122 0.0939894 -5.542e-21)
(0.577018 0.0804343 2.17066e-19)
(0.665549 0.0645157 0)
(0.757869 0.0465718 0)
(0.849961 0.0252965 -1.01252e-19)
(0.946095 0.00413173 9.70818e-20)
(1.02403 -0.0236252 -3.62018e-19)
(1.13026 -0.0462201 3.38979e-19)
(-0.00944699 0.0123014 0)
(-0.0244204 0.0335256 0)
(-0.0335888 0.0515746 -2.03311e-19)
(-0.035705 0.0665059 6.48386e-20)
(-0.0302208 0.0784546 1.34983e-21)
(-0.0169431 0.0875726 1.10624e-19)
(0.0041531 0.0940509 0)
(0.033037 0.0981318 -9.49591e-20)
(0.0696901 0.100096 8.87432e-20)
(0.114136 0.100232 -1.64261e-19)
(0.166432 0.0988038 -3.38873e-23)
(0.226625 0.0960165 1.45676e-19)
(0.294676 0.092001 1.04738e-21)
(0.370371 0.0868035 1.32577e-19)
(0.453223 0.0803759 -1.84427e-19)
(0.542364 0.0726169 0)
(0.636509 0.0633766 2.28967e-19)
(0.733913 0.0524939 -3.24935e-19)
(0.832333 0.0397824 1.02193e-19)
(0.929403 0.0254046 0)
(1.02137 0.00848227 9.22836e-20)
(1.10836 -0.00806945 3.60984e-19)
(1.17712 -0.0311744 -3.38793e-19)
(1.25438 -0.0458288 -3.90222e-19)
(-0.0110049 0.0121452 2.12395e-19)
(-0.0265188 0.0303235 -2.91637e-19)
(-0.034411 0.0438598 1.05624e-21)
(-0.0335202 0.0538416 6.45427e-20)
(-0.0233109 0.0610103 -1.19226e-19)
(-0.0035262 0.0658832 -1.10163e-19)
(0.0259792 0.0688658 2.03433e-19)
(0.065309 0.070311 -2.56515e-21)
(0.114528 0.0705413 -1.77724e-19)
(0.173622 0.0698404 3.2949e-19)
(0.242419 0.0684333 -4.11167e-22)
(0.32049 0.0664651 -1.44763e-19)
(0.407041 0.063986 0)
(0.500831 0.0609458 0)
(0.600135 0.0572002 -6.16386e-20)
(0.702738 0.0525303 -1.1577e-19)
(0.806024 0.0466836 -2.236e-19)
(0.907064 0.0393575 2.09881e-19)
(1.00285 0.0304188 -1.02246e-19)
(1.0904 0.0195207 1.90751e-19)
(1.16705 0.00689258 -9.1723e-20)
(1.23127 -0.0070703 1.68528e-19)
(1.27888 -0.025165 -3.92115e-19)
(1.31906 -0.0366289 7.63218e-20)
(-0.0127035 0.0122619 7.14208e-20)
(-0.0278247 0.0278535 0)
(-0.0324495 0.0375108 1.37507e-19)
(-0.0258151 0.0432695 -1.29536e-19)
(-0.00751754 0.0464618 1.19338e-19)
(0.0226955 0.047977 0)
(0.0649939 0.0484478 0)
(0.119425 0.0483546 -9.49849e-20)
(0.185816 0.0480666 1.80495e-21)
(0.263646 0.0478466 8.38491e-20)
(0.351914 0.047841 -7.74654e-20)
(0.449048 0.0480662 1.45363e-19)
(0.552872 0.0484028 0)
(0.660656 0.0486036 2.58344e-19)
(0.769241 0.0483184 -4.86689e-19)
(0.875227 0.0471313 3.45046e-19)
(0.975209 0.0446281 2.17757e-19)
(1.06602 0.0403828 -2.04412e-19)
(1.14502 0.0342591 0)
(1.21021 0.0256472 0)
(1.26076 0.0157162 0)
(1.29653 0.00199204 0)
(1.31876 -0.0109757 7.57549e-20)
(1.33093 -0.0263612 -2.66029e-19)
(-0.0131053 0.153995 -8.57466e-21)
(0.0192917 0.0901069 8.63817e-21)
(0.0540318 0.013459 -2.77494e-22)
(0.0914168 -0.073464 0)
(0.130797 -0.167584 -7.66636e-21)
(0.171014 -0.264637 1.44891e-20)
(0.211095 -0.359401 -5.48089e-22)
(0.249465 -0.445171 -6.11661e-21)
(0.284024 -0.515547 0)
(0.31209 -0.566329 0)
(0.33053 -0.59738 -2.20559e-22)
(0.336034 -0.613133 -1.81631e-22)
(0.326983 -0.619882 -2.54281e-21)
(0.307377 -0.618923 2.32318e-21)
(0.289112 -0.600491 0)
(0.287933 -0.546485 0)
(0.314069 -0.442781 2.41525e-21)
(0.365973 -0.290261 1.78537e-22)
(0.434155 -0.104321 -2.30912e-21)
(0.508451 0.0912426 -1.40099e-22)
(0.580387 0.267752 0)
(0.642919 0.400395 0)
(0.690667 0.480504 0)
(0.72131 0.515542 0)
(0.737711 0.519467 0)
(0.743298 0.509077 0)
(0.734676 0.506073 3.03546e-22)
(0.706801 0.520137 -4.93114e-22)
(0.667373 0.527155 0)
(0.639035 0.475668 0)
(0.640656 0.333801 -6.61239e-22)
(0.672172 0.123264 6.42632e-22)
(0.72078 -0.0962294 3.3277e-22)
(0.768985 -0.269075 0)
(0.807044 -0.375565 0)
(0.831213 -0.418012 2.98462e-22)
(0.843635 -0.429686 -2.90121e-22)
(0.833971 -0.4371 0)
(0.797977 -0.454519 2.21518e-22)
(0.747524 -0.438696 -3.22452e-22)
(0.71087 -0.351519 1.22315e-22)
(0.705612 -0.188564 0)
(0.731193 0.00972623 -2.58837e-22)
(0.77087 0.16733 2.51687e-22)
(0.815097 0.286241 0)
(0.832532 0.339151 0)
(0.816875 0.397497 -6.87043e-23)
(0.775427 0.394945 2.03068e-22)
(0.744786 0.336338 0)
(0.745316 0.197536 0)
(0.781711 0.0024711 -6.5584e-23)
(0.811718 -0.110376 -6.04189e-24)
(0.829467 -0.27524 -8.08674e-24)
(0.803459 -0.307575 3.82138e-23)
(0.792274 -0.362981 0)
(0.787384 -0.291577 0)
(0.801834 -0.0965389 0)
(0.796163 -0.0230823 0)
(0.804249 0.279512 0)
(0.784213 0.254955 0)
(0.119104 0.118035 -8.84275e-22)
(0.155637 0.0526587 -3.78034e-20)
(0.192998 -0.0255508 1.86711e-22)
(0.232004 -0.113516 3.5271e-20)
(0.271432 -0.208182 5.4208e-22)
(0.310167 -0.305325 0)
(0.347146 -0.399104 -2.65776e-20)
(0.380664 -0.482243 4.9647e-20)
(0.408438 -0.547702 -2.30532e-20)
(0.428123 -0.590717 1.61708e-20)
(0.437656 -0.610643 -1.54976e-20)
(0.434735 -0.612222 1.05989e-20)
(0.416541 -0.604712 -1.0322e-20)
(0.382867 -0.595709 -2.4593e-22)
(0.341525 -0.58161 -7.57268e-21)
(0.308844 -0.54462 7.35989e-21)
(0.301538 -0.463361 -8.09172e-21)
(0.326201 -0.32958 7.63342e-21)
(0.377308 -0.154542 -8.66594e-21)
(0.444401 0.036883 1.64003e-20)
(0.516754 0.216184 -7.75458e-21)
(0.585182 0.357585 -3.6091e-22)
(0.64231 0.449991 -4.63001e-21)
(0.684216 0.497053 8.31662e-21)
(0.712196 0.510571 -3.70963e-21)
(0.727264 0.508915 1.93303e-22)
(0.724885 0.515441 3.41495e-21)
(0.702641 0.536906 5.75973e-22)
(0.671973 0.543802 -7.95433e-21)
(0.655812 0.483573 9.41569e-21)
(0.668826 0.328995 -5.03019e-21)
(0.707865 0.107956 7.59221e-22)
(0.759091 -0.116687 -3.33429e-22)
(0.804843 -0.287863 5.96217e-22)
(0.836617 -0.388731 0)
(0.851757 -0.425041 0)
(0.856473 -0.429589 -9.81576e-22)
(0.841898 -0.428021 7.38595e-22)
(0.80333 -0.438115 6.23316e-22)
(0.748116 -0.422177 1.94901e-22)
(0.705034 -0.343368 -9.77156e-22)
(0.694212 -0.192122 2.34835e-22)
(0.718002 -0.00263747 0)
(0.76041 0.152116 0)
(0.806968 0.275564 0)
(0.82745 0.338057 0)
(0.812401 0.405067 2.74622e-22)
(0.774686 0.404925 -1.36383e-22)
(0.746531 0.340799 0)
(0.749526 0.193873 0)
(0.787638 -0.00595882 0)
(0.817902 -0.11602 -1.1794e-22)
(0.838255 -0.274227 1.41405e-23)
(0.809467 -0.30356 -8.44371e-23)
(0.798406 -0.361007 0)
(0.790471 -0.292416 0)
(0.801557 -0.0976506 4.71791e-23)
(0.7943 -0.0230384 1.20112e-22)
(0.799472 0.28086 0)
(0.781747 0.25609 0)
(0.260727 0.0843942 3.18675e-21)
(0.299997 0.018396 -7.79464e-20)
(0.339021 -0.0591334 7.86531e-20)
(0.379131 -0.146038 -7.35414e-20)
(0.418586 -0.239361 -5.45661e-22)
(0.455961 -0.334954 0)
(0.489854 -0.426583 -5.70398e-20)
(0.518093 -0.506448 5.58233e-20)
(0.538042 -0.567149 3.38327e-22)
(0.547672 -0.603824 5.63753e-22)
(0.546169 -0.61566 4.49699e-22)
(0.53335 -0.606631 3.62389e-22)
(0.50786 -0.585866 -1.69489e-20)
(0.466998 -0.564915 1.67207e-20)
(0.412297 -0.5482 0)
(0.355784 -0.523614 3.44017e-22)
(0.316922 -0.46665 -1.29206e-20)
(0.310897 -0.358546 1.27876e-20)
(0.33926 -0.201911 0)
(0.393759 -0.0194204 0)
(0.462488 0.159195 -1.20405e-20)
(0.53367 0.307653 2.18598e-20)
(0.598025 0.41187 -1.7668e-20)
(0.650084 0.471424 1.19675e-21)
(0.688969 0.495934 1.28131e-20)
(0.713074 0.50464 -1.25852e-20)
(0.717298 0.52134 1.24259e-20)
(0.701922 0.549732 7.368e-22)
(0.681169 0.556426 -7.48294e-21)
(0.677224 0.489071 0)
(0.701281 0.324607 0)
(0.747239 0.0959049 4.61473e-21)
(0.800103 -0.132346 -6.00449e-21)
(0.84271 -0.301544 2.64552e-23)
(0.867917 -0.39725 3.33152e-21)
(0.874046 -0.42849 -3.23764e-21)
(0.87095 -0.427406 0)
(0.851694 -0.417982 2.16414e-22)
(0.8114 -0.421069 1.67554e-21)
(0.752488 -0.405087 -3.33585e-21)
(0.703525 -0.335072 1.50882e-21)
(0.686983 -0.196524 1.69429e-22)
(0.708465 -0.0166487 -2.02335e-21)
(0.752844 0.135038 1.58192e-21)
(0.800998 0.263512 3.06713e-22)
(0.82428 0.335966 2.78305e-22)
(0.810145 0.411795 -2.75333e-22)
(0.776606 0.414466 0)
(0.751287 0.345341 0)
(0.756575 0.190899 -1.44952e-21)
(0.795826 -0.0138555 6.81097e-22)
(0.825853 -0.121392 -5.86787e-22)
(0.8486 -0.272809 6.93305e-22)
(0.816758 -0.29914 6.56976e-22)
(0.805324 -0.358648 -1.55714e-22)
(0.794376 -0.293079 2.07548e-22)
(0.802463 -0.0984392 -1.68779e-22)
(0.79367 -0.0228028 4.73545e-23)
(0.795779 0.282124 0)
(0.780247 0.257139 0)
(0.402862 0.0534939 -1.6203e-19)
(0.444126 -0.0120932 -1.9516e-21)
(0.485359 -0.0882097 1.56201e-19)
(0.526876 -0.172872 -1.19443e-21)
(0.566889 -0.263615 0)
(0.603422 -0.356501 0)
(0.634501 -0.444833 -1.16683e-19)
(0.657322 -0.520354 1.24239e-20)
(0.668978 -0.575542 1.38344e-19)
(0.667826 -0.605876 -7.432e-21)
(0.654064 -0.611227 -3.26831e-20)
(0.629424 -0.595364 -1.96129e-20)
(0.595531 -0.565385 1.97362e-20)
(0.55089 -0.532353 0)
(0.492169 -0.506652 -1.0733e-20)
(0.422981 -0.485957 9.80578e-21)
(0.359376 -0.449675 0)
(0.32237 -0.371459 0)
(0.323523 -0.241387 1.05527e-20)
(0.35979 -0.0743824 1.98885e-23)
(0.419793 0.0991285 -9.63263e-21)
(0.489901 0.252077 -8.33307e-21)
(0.558788 0.366834 8.20156e-21)
(0.61931 0.438863 -6.20877e-21)
(0.667874 0.475385 2.80624e-22)
(0.700319 0.495547 5.57142e-21)
(0.7114 0.522487 7.56414e-22)
(0.703814 0.557289 1.00346e-23)
(0.693593 0.564271 0)
(0.701614 0.492198 1.1529e-20)
(0.736243 0.321548 -1.19739e-20)
(0.788646 0.0872821 8.08288e-22)
(0.842872 -0.143245 0)
(0.881997 -0.31065 -6.29916e-22)
(0.900594 -0.401751 6.86435e-21)
(0.897943 -0.428745 -1.1009e-20)
(0.886958 -0.423461 5.64007e-22)
(0.863041 -0.407523 6.59619e-22)
(0.821705 -0.403821 2.64071e-21)
(0.760418 -0.387316 3.43203e-22)
(0.706418 -0.326083 -2.92782e-21)
(0.684081 -0.201258 2.43819e-21)
(0.702588 -0.0318856 6.04765e-23)
(0.748059 0.116368 1.25452e-21)
(0.797078 0.250135 -1.52746e-21)
(0.822958 0.332713 -1.89676e-21)
(0.8101 0.417448 5.32171e-22)
(0.781141 0.423422 1.33621e-21)
(0.759053 0.350045 -2.81232e-21)
(0.766467 0.188841 2.22263e-21)
(0.806252 -0.0209986 -5.99162e-22)
(0.835471 -0.126473 7.95022e-22)
(0.860366 -0.271044 6.00427e-22)
(0.825274 -0.294271 -1.00154e-21)
(0.812951 -0.355829 3.33848e-23)
(0.798975 -0.293567 -1.63642e-22)
(0.804466 -0.0989492 0)
(0.794211 -0.0223881 -8.26409e-23)
(0.793133 0.283323 1.03946e-22)
(0.779717 0.258117 0)
(0.542196 0.0223566 1.62038e-19)
(0.58472 -0.0406258 -3.21004e-19)
(0.628505 -0.114085 1.56399e-19)
(0.672241 -0.195023 1.52555e-19)
(0.712945 -0.281591 -2.92719e-19)
(0.748257 -0.369899 9.39169e-21)
(0.775758 -0.452878 1.28235e-19)
(0.792097 -0.522314 9.94518e-20)
(0.79442 -0.571122 -9.7365e-20)
(0.781945 -0.595372 0)
(0.756095 -0.595614 -5.16943e-20)
(0.719751 -0.576075 8.98325e-20)
(0.67641 -0.542432 -3.84965e-20)
(0.627661 -0.502255 0)
(0.570127 -0.466266 0)
(0.499922 -0.44083 2.80867e-22)
(0.423598 -0.415707 -1.41653e-20)
(0.360887 -0.365066 1.37628e-20)
(0.332453 -0.267158 0)
(0.344866 -0.124097 1.51847e-20)
(0.390633 0.0386817 -2.82206e-20)
(0.455404 0.192408 2.56958e-20)
(0.525573 0.315574 -2.30497e-20)
(0.592113 0.399441 5.24225e-22)
(0.648506 0.448516 1.98949e-20)
(0.688325 0.480774 -1.00106e-20)
(0.706355 0.517808 -3.71922e-22)
(0.707176 0.558748 -7.26574e-21)
(0.707713 0.567095 -2.12568e-21)
(0.727273 0.493357 9.32664e-21)
(0.771635 0.319941 7.82819e-22)
(0.830333 0.0829642 -1.33423e-20)
(0.886271 -0.149035 2.47861e-20)
(0.921921 -0.314905 -1.28148e-20)
(0.933991 -0.402063 0)
(0.922994 -0.425697 -5.81484e-21)
(0.904277 -0.417662 5.47699e-21)
(0.87577 -0.396795 -2.50629e-21)
(0.833911 -0.38687 3.14171e-21)
(0.771573 -0.369336 -2.63989e-22)
(0.713583 -0.316403 0)
(0.685505 -0.205904 -2.87933e-22)
(0.70025 -0.04801 9.06402e-22)
(0.745833 0.0963384 0)
(0.795027 0.235396 2.55425e-21)
(0.823345 0.328055 -1.00798e-21)
(0.812164 0.421757 5.37173e-22)
(0.788136 0.431644 6.32208e-22)
(0.7697 0.35496 0)
(0.779091 0.187815 0)
(0.818841 -0.0272173 -2.18411e-21)
(0.846634 -0.131205 3.20472e-21)
(0.873388 -0.268899 -1.62356e-21)
(0.834955 -0.288864 4.31796e-22)
(0.821226 -0.352475 5.93589e-22)
(0.804144 -0.293901 1.63796e-22)
(0.807465 -0.0992357 -1.92113e-22)
(0.795848 -0.0217912 0)
(0.791491 0.284473 -1.66269e-22)
(0.780152 0.259031 -1.89693e-23)
(0.682335 -0.00942025 1.59301e-19)
(0.725724 -0.0690187 -1.58786e-19)
(0.770849 -0.138158 1.24152e-21)
(0.815601 -0.213442 -1.15287e-21)
(0.855294 -0.29387 1.14734e-21)
(0.887309 -0.375334 -1.06331e-21)
(0.908979 -0.450684 1.83388e-21)
(0.916784 -0.512405 0)
(0.908429 -0.554366 -1.3562e-21)
(0.884303 -0.573379 1.11047e-21)
(0.847194 -0.570248 8.81784e-22)
(0.800968 -0.549208 -6.96786e-22)
(0.749511 -0.515561 0)
(0.696002 -0.474101 0)
(0.639959 -0.431709 2.69078e-22)
(0.575594 -0.397528 0)
(0.499659 -0.372585 -1.39152e-22)
(0.422692 -0.340211 0)
(0.367265 -0.274376 -9.05984e-21)
(0.351414 -0.162471 1.81014e-20)
(0.376975 -0.0176321 -1.81562e-20)
(0.431419 0.13092 8.90197e-21)
(0.499066 0.259177 7.68492e-21)
(0.568525 0.353547 -7.46287e-21)
(0.630408 0.415222 -8.49177e-21)
(0.67638 0.459816 8.27919e-21)
(0.701235 0.506706 0)
(0.710737 0.553721 3.74858e-22)
(0.721949 0.564888 0)
(0.752225 0.492675 0)
(0.805587 0.319913 2.51226e-20)
(0.870697 0.0827903 -2.58848e-20)
(0.928946 -0.149847 1.60782e-21)
(0.961675 -0.314425 1.34325e-21)
(0.96752 -0.398433 -1.01513e-21)
(0.948781 -0.419556 -5.10116e-21)
(0.922642 -0.410086 4.95327e-21)
(0.889608 -0.385942 -3.13602e-21)
(0.847555 -0.370547 2.6644e-21)
(0.785387 -0.351443 4.97802e-22)
(0.724628 -0.305982 -2.07844e-21)
(0.691036 -0.210013 -2.80286e-22)
(0.701205 -0.0645914 1.48185e-21)
(0.745907 0.0751753 0)
(0.794605 0.219211 -9.06409e-22)
(0.825227 0.321728 1.49799e-21)
(0.81614 0.424442 -1.92511e-21)
(0.797331 0.438973 -6.3626e-22)
(0.782921 0.360051 0)
(0.794206 0.188023 8.28062e-22)
(0.833471 -0.0322789 -1.70121e-21)
(0.859206 -0.135492 2.72082e-23)
(0.887467 -0.266367 -5.26383e-22)
(0.845729 -0.282862 5.98132e-22)
(0.830106 -0.348486 -5.84632e-22)
(0.80976 -0.294089 0)
(0.811347 -0.0993637 1.92202e-22)
(0.798497 -0.0210179 0)
(0.7908 0.285579 0)
(0.781546 0.259881 2.91556e-23)
(0.832371 -0.0408036 -1.54873e-19)
(0.871619 -0.0966971 1.53299e-19)
(0.915078 -0.159152 -1.13767e-21)
(0.956933 -0.226577 1.18025e-21)
(0.991423 -0.2988 0)