/*--------------------------------*- C++ -*----------------------------------*\
| =========                 |                                                 |
| \\      /  F ield         | OpenFOAM: The Open Source CFD Toolbox           |
|  \\    /   O peration     | Version:  2512                                  |
|   \\  /    A nd           | Website:  www.openfoam.com                      |
|    \\/     M anipulation  |                                                 |
\*---------------------------------------------------------------------------*/
FoamFile
{
    version     2.0;
    format      ascii;
    arch        "LSB;label=32;scalar=64";
    class       volScalarField;
    location    "195";
    object      p;
}
// * * * * * * * * * * * * * * * * * * * * * * * * * * * * * * * * * * * * * //

dimensions      [0 2 -2 0 0 0 0];

internalField   nonuniform List<scalar> 
13248
(
-0.30384
-0.303166
-0.301404
-0.298752
-0.295368
-0.291331
-0.286707
-0.281576
-0.276031
-0.270186
-0.26417
-0.258119
-0.252164
-0.246423
-0.240984
-0.235898
-0.231173
-0.226782
-0.222655
-0.21873
-0.214836
-0.211004
-0.206549
-0.201982
-0.311501
-0.309862
-0.307348
-0.304104
-0.300241
-0.295836
-0.29094
-0.285598
-0.279864
-0.273806
-0.267509
-0.261067
-0.254577
-0.248125
-0.241778
-0.235581
-0.229547
-0.223671
-0.217922
-0.212256
-0.206588
-0.200857
-0.194809
-0.188879
-0.320821
-0.318046
-0.314626
-0.310662
-0.306204
-0.301319
-0.296028
-0.290323
-0.284201
-0.277676
-0.270791
-0.263614
-0.256232
-0.248739
-0.241222
-0.233756
-0.226397
-0.219182
-0.212121
-0.205205
-0.19837
-0.19161
-0.184731
-0.178108
-0.331773
-0.327719
-0.323277
-0.31849
-0.313328
-0.307829
-0.301961
-0.295646
-0.288816
-0.281445
-0.273564
-0.265258
-0.256651
-0.247881
-0.239085
-0.230382
-0.221861
-0.213578
-0.205553
-0.197777
-0.190207
-0.182833
-0.175517
-0.168649
-0.34438
-0.338936
-0.333392
-0.327706
-0.321731
-0.31544
-0.308727
-0.30144
-0.293472
-0.284804
-0.275514
-0.265754
-0.255717
-0.245604
-0.235588
-0.225807
-0.216348
-0.207256
-0.198535
-0.190167
-0.182114
-0.174351
-0.166788
-0.159694
-0.358655
-0.351736
-0.345047
-0.338402
-0.33147
-0.324125
-0.316179
-0.307444
-0.297835
-0.287416
-0.27637
-0.264949
-0.253418
-0.242012
-0.230908
-0.220222
-0.210014
-0.200298
-0.191059
-0.182264
-0.173871
-0.165843
-0.158117
-0.150876
-0.374504
-0.366066
-0.358211
-0.350523
-0.342413
-0.333632
-0.323949
-0.313215
-0.301469
-0.288927
-0.275913
-0.262769
-0.249795
-0.237216
-0.225173
-0.213737
-0.202925
-0.19272
-0.183086
-0.173976
-0.165344
-0.15714
-0.149325
-0.141978
-0.391651
-0.3817
-0.372662
-0.363789
-0.354168
-0.343449
-0.331448
-0.318178
-0.303893
-0.289006
-0.273963
-0.259153
-0.244856
-0.231245
-0.218401
-0.206338
-0.195034
-0.18444
-0.174503
-0.165164
-0.156369
-0.148066
-0.140222
-0.132825
-0.409586
-0.398188
-0.387939
-0.37765
-0.366069
-0.352831
-0.337943
-0.321709
-0.304655
-0.287374
-0.270381
-0.254044
-0.23858
-0.224083
-0.210563
-0.197984
-0.186282
-0.175388
-0.16523
-0.15574
-0.146855
-0.138523
-0.130703
-0.123312
-0.427542
-0.414823
-0.403295
-0.39126
-0.377186
-0.360855
-0.342635
-0.323204
-0.303355
-0.283795
-0.265033
-0.247361
-0.230899
-0.215658
-0.201581
-0.188587
-0.176582
-0.165473
-0.155176
-0.14561
-0.136705
-0.128405
-0.12065
-0.11332
-0.444517
-0.430635
-0.4177
-0.4035
-0.386385
-0.366489
-0.344678
-0.322027
-0.299529
-0.277916
-0.257619
-0.238819
-0.221534
-0.205693
-0.191184
-0.177886
-0.165679
-0.154454
-0.14411
-0.134556
-0.125715
-0.117521
-0.109883
-0.102688
-0.459363
-0.444518
-0.430018
-0.413195
-0.392519
-0.368694
-0.343177
-0.317405
-0.29248
-0.269075
-0.247494
-0.227789
-0.209874
-0.193603
-0.178815
-0.165354
-0.153078
-0.14186
-0.131588
-0.122161
-0.113498
-0.105518
-0.0981058
-0.0912002
-0.34118
-0.343888
-0.345423
-0.346341
-0.347115
-0.347863
-0.348605
-0.34933
-0.349999
-0.350561
-0.350939
-0.351055
-0.350828
-0.350181
-0.349045
-0.347375
-0.345155
-0.342413
-0.339235
-0.335775
-0.332247
-0.328906
-0.326097
-0.324379
-0.329976
-0.33261
-0.333968
-0.334566
-0.33485
-0.334929
-0.334826
-0.334543
-0.334056
-0.333328
-0.332316
-0.330983
-0.329298
-0.327251
-0.324858
-0.322169
-0.319277
-0.316322
-0.313499
-0.31106
-0.309295
-0.30849
-0.308972
-0.311467
-0.320334
-0.322743
-0.323863
-0.324142
-0.323973
-0.323447
-0.32259
-0.321414
-0.319911
-0.318066
-0.315867
-0.313315
-0.310429
-0.307258
-0.303888
-0.300448
-0.297111
-0.294097
-0.29167
-0.290133
-0.289808
-0.29097
-0.293825
-0.299125
-0.312224
-0.314329
-0.315187
-0.315164
-0.314588
-0.313531
-0.312018
-0.310069
-0.307695
-0.304906
-0.30172
-0.298174
-0.294332
-0.290291
-0.286192
-0.282222
-0.27861
-0.27562
-0.273549
-0.272718
-0.273443
-0.275996
-0.280482
-0.287339
-0.305532
-0.307327
-0.307929
-0.307628
-0.306689
-0.305164
-0.303077
-0.300458
-0.297336
-0.293748
-0.289742
-0.285389
-0.280791
-0.276086
-0.271445
-0.267102
-0.263311
-0.260362
-0.258559
-0.25821
-0.259604
-0.262989
-0.268521
-0.275886
-0.300139
-0.301674
-0.302045
-0.301486
-0.300212
-0.298261
-0.295657
-0.292442
-0.288664
-0.284385
-0.279686
-0.274667
-0.269463
-0.264243
-0.259211
-0.254611
-0.250716
-0.247818
-0.246213
-0.246186
-0.247989
-0.251756
-0.257932
-0.265071
-0.295987
-0.297339
-0.297508
-0.296701
-0.295107
-0.292755
-0.289675
-0.28592
-0.28156
-0.276683
-0.271398
-0.265837
-0.260162
-0.254567
-0.249278
-0.244551
-0.24066
-0.23789
-0.236513
-0.236769
-0.2389
-0.24275
-0.249335
-0.255646
-0.293115
-0.294351
-0.294339
-0.293285
-0.291377
-0.288648
-0.285136
-0.280907
-0.276053
-0.270688
-0.264946
-0.25899
-0.253007
-0.247213
-0.241848
-0.237174
-0.233457
-0.23096
-0.22992
-0.230485
-0.232925
-0.23662
-0.243321
-0.248332
-0.29169
-0.292812
-0.292609
-0.291303
-0.289093
-0.286025
-0.282146
-0.277542
-0.272321
-0.266619
-0.260597
-0.25444
-0.248356
-0.242575
-0.237343
-0.232908
-0.229513
-0.227373
-0.226666
-0.227419
-0.229915
-0.233164
-0.239254
-0.242885
-0.291911
-0.292851
-0.292415
-0.290844
-0.288351
-0.284998
-0.280846
-0.275991
-0.270559
-0.264701
-0.258593
-0.252432
-0.246435
-0.240829
-0.235842
-0.231692
-0.228569
-0.226619
-0.225944
-0.226494
-0.228447
-0.230923
-0.235481
-0.237813
-0.293966
-0.294577
-0.293826
-0.291958
-0.289193
-0.285604
-0.281263
-0.276272
-0.270761
-0.264884
-0.25882
-0.252763
-0.246919
-0.24149
-0.236667
-0.232613
-0.229448
-0.227239
-0.225997
-0.225668
-0.226259
-0.227416
-0.229851
-0.231024
-0.297953
-0.298031
-0.296841
-0.294613
-0.291552
-0.287737
-0.283244
-0.27817
-0.272637
-0.266788
-0.260788
-0.254809
-0.249027
-0.243604
-0.238679
-0.234349
-0.230663
-0.227619
-0.225156
-0.223214
-0.221658
-0.220546
-0.220024
-0.219882
-0.324174
-0.32637
-0.33198
-0.340735
-0.351894
-0.363947
-0.375373
-0.381993
-0.38209
-0.370976
-0.349161
-0.315878
-0.274012
-0.229269
-0.187979
-0.154823
-0.131886
-0.119017
-0.115172
-0.120041
-0.133975
-0.154904
-0.175534
-0.185447
-0.178793
-0.157326
-0.129779
-0.104525
-0.0862803
-0.076206
-0.0731484
-0.0763759
-0.0875245
-0.107169
-0.128572
-0.139465
-0.132126
-0.111522
-0.0889651
-0.0717368
-0.0609854
-0.0563671
-0.0593104
-0.0686
-0.0756521
-0.0735514
-0.0651429
-0.0553066
-0.0477516
-0.0438417
-0.0435693
-0.0455943
-0.0455646
-0.0418472
-0.0375969
-0.0305585
-0.0209639
-0.0168525
-0.0128257
-0.00566371
-0.317835
-0.326931
-0.339857
-0.355343
-0.372279
-0.388868
-0.402857
-0.411247
-0.411292
-0.399892
-0.375716
-0.33879
-0.292394
-0.24275
-0.196652
-0.158956
-0.131695
-0.114633
-0.10664
-0.107075
-0.116087
-0.13236
-0.150132
-0.160332
-0.156509
-0.139851
-0.117259
-0.0962447
-0.0815204
-0.0744597
-0.0740181
-0.0798422
-0.0939411
-0.116616
-0.140269
-0.151643
-0.14275
-0.119434
-0.0938109
-0.0736473
-0.0604525
-0.0535321
-0.0540332
-0.0609796
-0.0665258
-0.0649957
-0.058418
-0.051294
-0.0459869
-0.0445012
-0.046601
-0.0501977
-0.0508977
-0.0459673
-0.0406791
-0.0319687
-0.0206711
-0.0153653
-0.0104026
-0.00448329
-0.310529
-0.325261
-0.342881
-0.362694
-0.383249
-0.402553
-0.418234
-0.42763
-0.428009
-0.416446
-0.391116
-0.35217
-0.303121
-0.250494
-0.201327
-0.160552
-0.130071
-0.109515
-0.097682
-0.0937296
-0.0977253
-0.109052
-0.123516
-0.133492
-0.132444
-0.120514
-0.102873
-0.0862105
-0.0751695
-0.0712475
-0.073486
-0.0818892
-0.0987298
-0.124062
-0.149713
-0.161687
-0.151644
-0.126075
-0.0977765
-0.0749696
-0.0595428
-0.0505365
-0.0487905
-0.0535441
-0.0576525
-0.0566047
-0.0516518
-0.0470687
-0.0439467
-0.0449925
-0.0496098
-0.0548312
-0.0561918
-0.0499188
-0.0435312
-0.0332486
-0.0203434
-0.0138918
-0.00802567
-0.00333442
-0.301994
-0.319965
-0.340196
-0.362266
-0.384654
-0.405276
-0.421897
-0.431885
-0.432581
-0.42111
-0.395539
-0.35606
-0.306262
-0.252706
-0.202388
-0.160087
-0.127549
-0.104353
-0.0892971
-0.0814317
-0.0806253
-0.0868681
-0.0975078
-0.106516
-0.107832
-0.100088
-0.0871576
-0.0747667
-0.0673821
-0.0665224
-0.0713146
-0.082061
-0.101262
-0.128883
-0.156395
-0.169214
-0.158546
-0.131274
-0.100779
-0.0757193
-0.0583342
-0.0475008
-0.043762
-0.046529
-0.0492697
-0.048539
-0.0449661
-0.0426984
-0.0416444
-0.0452726
-0.0525157
-0.059418
-0.0613793
-0.053652
-0.046115
-0.0343715
-0.0199796
-0.0124504
-0.00571505
-0.00222561
-0.292014
-0.311423
-0.332527
-0.35522
-0.378006
-0.398706
-0.415585
-0.425803
-0.426609
-0.415375
-0.390258
-0.351523
-0.30279
-0.250368
-0.200776
-0.158383
-0.124805
-0.0997304
-0.0820729
-0.0708842
-0.0658611
-0.067181
-0.0736268
-0.080866
-0.0838202
-0.0792515
-0.0706442
-0.0622494
-0.0582747
-0.060221
-0.067307
-0.0800461
-0.101169
-0.130688
-0.159941
-0.173876
-0.163216
-0.134936
-0.10281
-0.075949
-0.0569185
-0.0445312
-0.0390687
-0.040078
-0.0415562
-0.0409805
-0.0384814
-0.0382467
-0.0390867
-0.0452905
-0.0552264
-0.0638571
-0.0663672
-0.0571116
-0.0483944
-0.0353138
-0.0195788
-0.0110572
-0.00348889
-0.00116462
-0.281538
-0.300998
-0.321549
-0.343615
-0.365778
-0.385836
-0.401609
-0.411484
-0.412073
-0.401137
-0.377003
-0.340138
-0.294072
-0.244554
-0.197298
-0.156078
-0.122373
-0.0960911
-0.0764106
-0.0624786
-0.0538979
-0.050832
-0.052975
-0.0576609
-0.0606873
-0.0588226
-0.0539562
-0.049052
-0.0480502
-0.0524325
-0.0614811
-0.0758262
-0.0983539
-0.129297
-0.160125
-0.175433
-0.165557
-0.137023
-0.103874
-0.0757016
-0.0553632
-0.0416956
-0.0347772
-0.0342751
-0.0346261
-0.034067
-0.0323142
-0.0337735
-0.0362851
-0.044992
-0.0576336
-0.0680272
-0.0710564
-0.0602484
-0.0503406
-0.0360515
-0.019137
-0.00972475
-0.00136214
-0.000156729
-0.271905
-0.290162
-0.308852
-0.329283
-0.350075
-0.368517
-0.382866
-0.391084
-0.39099
-0.380365
-0.357754
-0.323816
-0.281776
-0.236532
-0.192804
-0.153722
-0.120646
-0.0937394
-0.0725455
-0.0564118
-0.044916
-0.0381266
-0.0361994
-0.037869
-0.0400948
-0.0398292
-0.037786
-0.0356867
-0.0370937
-0.0434471
-0.0540555
-0.0695447
-0.0928853
-0.124724
-0.156872
-0.173825
-0.165526
-0.137512
-0.103989
-0.075007
-0.0537129
-0.039033
-0.0309099
-0.0291385
-0.028521
-0.0278824
-0.0265664
-0.0293432
-0.033261
-0.0443228
-0.0596213
-0.0717997
-0.0753442
-0.0630165
-0.0519315
-0.0365674
-0.0186497
-0.00845917
0.000654151
0.000795461
-0.263599
-0.279269
-0.294959
-0.313032
-0.33344
-0.34685
-0.359173
-0.365766
-0.36503
-0.354946
-0.334503
-0.304432
-0.267412
-0.227316
-0.187838
-0.151528
-0.119667
-0.0926647
-0.0704376
-0.0526174
-0.0388286
-0.0290358
-0.0235288
-0.0220158
-0.0227508
-0.0236139
-0.0227424
-0.0227066
-0.0258916
-0.0336525
-0.0453402
-0.0615007
-0.085088
-0.117209
-0.150403
-0.169235
-0.163086
-0.136394
-0.103179
-0.0738883
-0.0519969
-0.0365672
-0.0274699
-0.0246513
-0.0232271
-0.0224586
-0.0213143
-0.0250198
-0.0300482
-0.0432374
-0.0610753
-0.0750596
-0.0791297
-0.0653704
-0.053152
-0.0368595
-0.0181226
-0.00726715
0.00255336
0.00169186
-0.255636
-0.26725
-0.279152
-0.293085
-0.305549
-0.321246
-0.331645
-0.336983
-0.335909
-0.326886
-0.309307
-0.283774
-0.252279
-0.217661
-0.182693
-0.149459
-0.119217
-0.0925896
-0.0698008
-0.050783
-0.0352859
-0.0231964
-0.0147569
-0.0101904
-0.00880205
-0.00899224
-0.00917307
-0.0106127
-0.0149191
-0.0234717
-0.0357134
-0.0520238
-0.075326
-0.10728
-0.141222
-0.161939
-0.158438
-0.133815
-0.101586
-0.0724804
-0.0503346
-0.0343852
-0.0244881
-0.0208075
-0.0187278
-0.0177926
-0.0165991
-0.0208682
-0.026686
-0.0416907
-0.0619051
-0.0777062
-0.0823131
-0.0672874
-0.0540014
-0.036939
-0.0175757
-0.00617385
0.00432893
0.00253496
-0.246305
-0.253296
-0.26245
-0.274601
-0.284609
-0.295018
-0.302947
-0.30724
-0.306218
-0.29885
-0.284637
-0.263898
-0.237929
-0.208664
-0.178134
-0.148064
-0.119703
-0.0938396
-0.0709125
-0.0510964
-0.0343249
-0.0204797
-0.00970389
-0.00237858
0.00149227
0.00273519
0.00240693
0.000251123
-0.00451462
-0.0132912
-0.025596
-0.041704
-0.0643817
-0.0955624
-0.129791
-0.152334
-0.151916
-0.130056
-0.0995199
-0.0710773
-0.0489664
-0.032664
-0.0220345
-0.0175805
-0.0150016
-0.0139245
-0.0124355
-0.0169204
-0.0232378
-0.039686
-0.0620288
-0.0796329
-0.0848043
-0.0687606
-0.0544941
-0.0367992
-0.0170144
-0.00520709
0.00596504
0.00332874
-0.234854
-0.23858
-0.245434
-0.252574
-0.260912
-0.268763
-0.275301
-0.278902
-0.27845
-0.273149
-0.262455
-0.246405
-0.225693
-0.201514
-0.175291
-0.148421
-0.122099
-0.0972333
-0.0744373
-0.0540778
-0.0362883
-0.021041
-0.00839262
0.00133777
0.00780729
0.01102
0.0116146
0.0096285
0.00500909
-0.00342212
-0.0152143
-0.0305719
-0.0522719
-0.0828949
-0.117335
-0.140803
-0.143635
-0.124819
-0.0967414
-0.0694396
-0.0476616
-0.0312223
-0.0199683
-0.0147571
-0.0118006
-0.0107868
-0.00892323
-0.0132926
-0.0197046
-0.0371199
-0.0614573
-0.0808013
-0.0864571
-0.069703
-0.0546068
-0.036356
-0.0163698
-0.00431523
0.00745714
0.00407625
-0.222001
-0.22571
-0.230166
-0.233897
-0.23875
-0.244001
-0.248491
-0.251086
-0.250879
-0.247115
-0.239248
-0.227077
-0.210817
-0.191092
-0.168837
-0.145144
-0.121107
-0.0976791
-0.0755988
-0.0553702
-0.0372701
-0.0214195
-0.00786889
0.00329622
0.0118195
0.0170627
0.0186712
0.0176713
0.0132346
0.00543502
-0.00556859
-0.0200615
-0.0404652
-0.0695389
-0.10296
-0.12697
-0.131492
-0.116547
-0.0914307
-0.0657274
-0.0448294
-0.0288178
-0.0175087
-0.0118479
-0.00859972
-0.0077306
-0.00629902
-0.0100077
-0.016413
-0.034209
-0.0600239
-0.0810426
-0.0872904
-0.0699171
-0.0542132
-0.0354701
-0.01551
-0.0033498
0.00889011
0.00479077
-0.210149
-0.218445
-0.221567
-0.223281
-0.225736
-0.229043
-0.232284
-0.233888
-0.232893
-0.228698
-0.220892
-0.209322
-0.194173
-0.175967
-0.155493
-0.133679
-0.111466
-0.0896797
-0.0689625
-0.049761
-0.0323334
-0.0168176
-0.00328989
0.00818368
0.0174623
0.0239741
0.0270439
0.0269145
0.0229126
0.0161402
0.00657236
-0.00667093
-0.0266941
-0.0572415
-0.0937066
-0.120681
-0.126592
-0.109816
-0.0848885
-0.0602086
-0.0404342
-0.0252475
-0.0144535
-0.00891656
-0.00554428
-0.0043977
-0.00222068
-0.00560126
-0.011817
-0.030132
-0.0580423
-0.0813055
-0.0886401
-0.0699446
-0.0533922
-0.0343325
-0.0145344
-0.0023378
0.0102615
0.00545626
-0.196552
-0.207166
-0.209931
-0.209722
-0.21031
-0.212138
-0.213957
-0.214332
-0.212369
-0.207629
-0.199885
-0.18907
-0.175333
-0.159064
-0.140855
-0.121425
-0.101513
-0.0817929
-0.062815
-0.0449902
-0.0285791
-0.0137629
-0.000636428
0.0107865
0.0204167
0.0276055
0.031027
0.031848
0.0290265
0.0235941
0.0155854
0.00366139
-0.0158613
-0.0471739
-0.0846475
-0.111299
-0.115637
-0.0996271
-0.0764876
-0.0539625
-0.0359323
-0.0219767
-0.0118047
-0.00635402
-0.00299917
-0.00187678
0.000360439
-0.00265019
-0.00836657
-0.0267312
-0.0559998
-0.0806119
-0.0885076
-0.0691047
-0.0518189
-0.0328164
-0.0134608
-0.00134606
0.0113086
0.00593064
-0.182091
-0.193585
-0.196446
-0.195505
-0.194883
-0.195364
-0.195973
-0.195435
-0.19291
-0.188055
-0.180747
-0.170952
-0.158745
-0.144372
-0.128249
-0.110924
-0.0929983
-0.075045
-0.0575573
-0.0409277
-0.025426
-0.0112449
0.00148637
0.0126972
0.0223386
0.029992
0.0353478
0.0358835
0.0338504
0.0294931
0.0225835
0.0113348
-0.00814553
-0.0389879
-0.0745867
-0.0992766
-0.103003
-0.0885977
-0.0679047
-0.0477367
-0.0314503
-0.0187155
-0.00920494
-0.00393076
-0.000610443
0.000463434
0.00277683
-0.000213648
-0.00580112
-0.0241313
-0.0538166
-0.0787414
-0.0871844
-0.0675949
-0.049747
-0.0310159
-0.0122775
-0.000358347
0.0121799
0.00630719
-0.168069
-0.179228
-0.182276
-0.181121
-0.179697
-0.179214
-0.178997
-0.177891
-0.175105
-0.170325
-0.163479
-0.15456
-0.143614
-0.130808
-0.11645
-0.100969
-0.0848481
-0.0685673
-0.0525479
-0.0371429
-0.0226137
-0.0091564
0.0030805
0.0139644
0.023452
0.0312689
0.0368249
0.0385973
0.037691
0.034582
0.0288485
0.0182965
-0.000882876
-0.0304243
-0.0636965
-0.0863826
-0.089522
-0.0769172
-0.0589502
-0.0413086
-0.0268629
-0.0154329
-0.00666786
-0.0016443
0.00164735
0.00272167
0.00510249
0.00210784
-0.0034478
-0.021459
-0.0508161
-0.0757217
-0.0847811
-0.0653969
-0.0472234
-0.0288972
-0.0109625
0.000609771
0.0128832
0.00660593
-0.153947
-0.16458
-0.167773
-0.166651
-0.164869
-0.163805
-0.163028
-0.161545
-0.158635
-0.154009
-0.147622
-0.139495
-0.129675
-0.118279
-0.105528
-0.0917403
-0.0772954
-0.0625835
-0.0479639
-0.0337544
-0.0202073
-0.00752394
0.0041415
0.0146186
0.0238294
0.0315523
0.0372428
0.0399579
0.0401861
0.0384111
0.0341149
0.0247175
0.00632243
-0.0217659
-0.0525209
-0.0726324
-0.0752762
-0.0648165
-0.049874
-0.0348828
-0.0222957
-0.0121807
-0.00420895
0.000504745
0.00376863
0.00486959
0.00724929
0.00436055
-0.00100238
-0.0182216
-0.0468083
-0.0715049
-0.0810748
-0.0624065
-0.0442248
-0.0264697
-0.00951567
0.00154267
0.0133958
0.00681222
-0.139888
-0.150085
-0.153346
-0.152361
-0.15048
-0.149095
-0.147957
-0.146248
-0.143335
-0.138949
-0.133057
-0.125696
-0.116914
-0.10679
-0.0954777
-0.0832131
-0.0702916
-0.0570336
-0.0437454
-0.0307086
-0.0181585
-0.00629547
0.00472422
0.0147138
0.0235601
0.0310667
0.0367923
0.0400949
0.0412098
0.0405614
0.037593
0.0294659
0.0122648
-0.0136933
-0.0409947
-0.0581949
-0.0607809
-0.0527832
-0.0409536
-0.0285957
-0.0178235
-0.00899148
-0.00183756
0.00251545
0.00573876
0.00690304
0.0092369
0.00654237
0.00155224
-0.0144691
-0.0418537
-0.0659641
-0.0759452
-0.0585569
-0.0407684
-0.0237645
-0.00794114
0.00242807
0.0136974
0.00691012
-0.126505
-0.136025
-0.139234
-0.13842
-0.136584
-0.135068
-0.133749
-0.131959
-0.129146
-0.125067
-0.119692
-0.113064
-0.105228
-0.0962438
-0.0862196
-0.0753301
-0.063805
-0.0519039
-0.0398841
-0.0279919
-0.0164417
-0.00542926
0.00488825
0.0143236
0.0227448
0.0299576
0.0356056
0.0392254
0.040919
0.0409884
0.0388643
0.0318341
0.0165138
-0.00610834
-0.0292256
-0.0436235
-0.0467474
-0.0413101
-0.0324521
-0.022586
-0.0135319
-0.00590776
0.000434186
0.0043947
0.00755627
0.00883188
0.0110899
0.00864955
0.00412814
-0.010371
-0.0359851
-0.0590894
-0.069398
-0.0538279
-0.0368963
-0.0208323
-0.00625237
0.00325882
0.0137766
0.00689207
-0.113779
-0.122464
-0.125571
-0.124962
-0.123274
-0.121764
-0.120401
-0.118638
-0.115997
-0.112262
-0.107407
-0.101474
-0.0945075
-0.0865552
-0.0776949
-0.068055
-0.057812
-0.0471741
-0.0363561
-0.0255718
-0.0150145
-0.00487045
0.00470582
0.0135335
0.0214738
0.0283341
0.0338078
0.0375563
0.0395766
0.0400149
0.0383258
0.0323405
0.0195492
0.000969715
-0.0179595
-0.0302291
-0.0339519
-0.030851
-0.0246041
-0.0169693
-0.00949064
-0.00297085
0.00259384
0.0061557
0.00923048
0.0106655
0.0128344
0.01069
0.00669588
-0.00597979
-0.0292806
-0.0510378
-0.0615683
-0.0482617
-0.0326741
-0.0177434
-0.00447327
0.00403795
0.0136351
0.00676015
-0.101594
-0.109536
-0.112537
-0.11213
-0.110633
-0.109211
-0.107893
-0.106229
-0.103809
-0.100439
-0.096097
-0.0908243
-0.0846631
-0.0776519
-0.0698474
-0.061344
-0.0522769
-0.0428126
-0.0331293
-0.0234113
-0.0138307
-0.00456018
0.004251
0.0124314
0.0198438
0.0263139
0.0315265
0.0352663
0.0374484
0.03809
0.0367125
0.0318036
0.0216431
0.00697772
-0.00820807
-0.0187079
-0.0229452
-0.0217055
-0.0175689
-0.0118283
-0.00575268
-0.000221269
0.0046253
0.00780716
0.0107752
0.0124105
0.0145082
0.0127134
0.00931848
-0.00131897
-0.0219524
-0.0421059
-0.052742
-0.0419843
-0.0281907
-0.0145831
-0.00263874
0.00478334
0.0132941
0.0065287
-0.0901713
-0.097394
-0.10024
-0.0999961
-0.0987002
-0.0974135
-0.0961993
-0.0946837
-0.0925129
-0.0895176
-0.0856771
-0.0810294
-0.075614
-0.0694628
-0.0626178
-0.0551493
-0.0471608
-0.0387851
-0.0301693
-0.0214705
-0.0128406
-0.00443672
0.00359882
0.0111057
0.0179537
0.0240226
0.0288883
0.0325277
0.0347732
0.0355586
0.0344876
0.0305763
0.0226969
0.0113698
-0.000627879
-0.00952832
-0.0139197
-0.0139729
-0.0114218
-0.00721393
-0.00235346
0.00230522
0.00650977
0.00934761
0.0121986
0.0140656
0.0161663
0.0148081
0.0120739
0.00351855
-0.0143374
-0.0327232
-0.0433157
-0.0351955
-0.023553
-0.0114432
-0.000793292
0.00552996
0.0127983
0.00622869
-0.0795988
-0.0860496
-0.0886933
-0.0885901
-0.087503
-0.0863799
-0.085303
-0.0839634
-0.0820569
-0.0794339
-0.0760749
-0.0720139
-0.0672873
-0.0619224
-0.0559509
-0.0494253
-0.0424252
-0.0350563
-0.0274394
-0.0197075
-0.0119933
-0.00443785
0.00282476
0.00964338
0.015881
0.0213464
0.0260036
0.0295033
0.0317451
0.0326326
0.0318545
0.0287944
0.0227511
0.0141242
0.00479439
-0.00258794
-0.00677394
-0.00760359
-0.0061702
-0.00315054
0.000686099
0.00458093
0.00822728
0.0107701
0.0134972
0.015603
0.0178389
0.0170451
0.0150087
0.00838187
-0.00686498
-0.0234381
-0.0337679
-0.0281536
-0.0188794
-0.00841306
0.00101025
0.00632674
0.0122158
0.00590993
-0.0697615
-0.0754849
-0.0779294
-0.0779523
-0.0770685
-0.0761162
-0.0751905
-0.0740375
-0.0723956
-0.0701322
-0.0672279
-0.0637129
-0.05962
-0.0549729
-0.0497959
-0.0441284
-0.0380319
-0.0315902
-0.0249024
-0.0180803
-0.011239
-0.00450358
0.00200404
0.0081452
0.0137876
0.0187617
0.0230561
0.0263532
0.0285363
0.0294938
0.0289922
0.0266547
0.0220783
0.0155956
0.00844551
0.00246854
-0.00126763
-0.00246913
-0.00177521
0.00035822
0.00335672
0.00658954
0.00975699
0.0120643
0.0146613
0.016964
0.0194619
0.0193943
0.0180866
0.0130493
-1.69575e-05
-0.014811
-0.0246213
-0.021183
-0.0142992
-0.00556829
0.00271223
0.00721859
0.0116272
0.00563627
-0.0606583
-0.065733
-0.0679792
-0.0680974
-0.067398
-0.0666125
-0.0658409
-0.064874
-0.063487
-0.0615625
-0.0590817
-0.0560701
-0.052557
-0.0485628
-0.0441064
-0.0392177
-0.033944
-0.0283521
-0.0225228
-0.0165495
-0.0105312
-0.00457718
0.00120436
0.0066901
0.0117599
0.0162744
0.0201661
0.0232201
0.0253093
0.0263196
0.0260788
0.0243634
0.0209655
0.0161606
0.010765
0.00605372
0.00288653
0.00158863
0.00182902
0.0033251
0.00565714
0.00832704
0.0110812
0.0132082
0.0156726
0.0180975
0.0208849
0.0216128
0.0210148
0.0171417
0.00577524
-0.00727161
-0.0163125
-0.0146163
-0.00994624
-0.00296655
0.0042519
0.0082134
0.0110961
0.00546721
-0.0523359
-0.056796
-0.0588252
-0.0589851
-0.0584767
-0.0578541
-0.0572316
-0.0564416
-0.0552924
-0.0536809
-0.0515885
-0.0490364
-0.0460499
-0.0426464
-0.0388409
-0.0346558
-0.030128
-0.0253103
-0.0202684
-0.0150801
-0.00982918
-0.00460982
0.000482225
0.00533986
0.00985864
0.0139191
0.0174222
0.0202214
0.0221995
0.0232503
0.0232501
0.0220703
0.0196207
0.0161287
0.0121358
0.00852485
0.00594794
0.00472861
0.0047227
0.00577763
0.0075935
0.00979665
0.0121882
0.0141713
0.0164991
0.0189652
0.0219364
0.0233145
0.0232443
0.0201671
0.0102575
-0.00103715
-0.0091219
-0.00873234
-0.00594848
-0.000646838
0.00557137
0.00925513
0.0106566
0.0054218
-0.0447525
-0.0486567
-0.0505149
-0.0507999
-0.0503524
-0.0498401
-0.0493427
-0.04871
-0.0477754
-0.046447
-0.0447058
-0.0425684
-0.0400561
-0.0371835
-0.0339624
-0.0304098
-0.026554
-0.0224369
-0.0181117
-0.0136425
-0.00909982
-0.00456332
-0.000116756
0.00414803
0.0081404
0.0117555
0.0148933
0.0174434
0.0193052
0.0203862
0.0206
0.0198759
0.0181876
0.0157224
0.0128439
0.0101562
0.00814371
0.0071001
0.00699035
0.0077537
0.00917954
0.0110038
0.0130733
0.0149285
0.0171042
0.0195143
0.0224697
0.0241782
0.0243326
0.0218135
0.0133986
0.00384759
-0.00320947
-0.00373431
-0.0024132
0.00137287
0.00661959
0.010196
0.0103037
0.00545989
-0.0378174
-0.0412095
-0.0428675
-0.0431577
-0.0428646
-0.042488
-0.0421183
-0.0416344
-0.0408949
-0.0398205
-0.0383935
-0.0366266
-0.0345376
-0.0321386
-0.0294386
-0.0264507
-0.0231964
-0.0197087
-0.0160304
-0.0122138
-0.0083177
-0.00440923
-0.000559095
0.00315326
0.00664871
0.00983997
0.012637
0.0149487
0.0166924
0.0177926
0.0181887
0.0178419
0.0167622
0.0150969
0.0130949
0.011166
0.00966168
0.00883887
0.00871742
0.00929829
0.0104352
0.0119559
0.0137395
0.015463
0.0174561
0.0197108
0.0224372
0.0241411
0.0242841
0.0221721
0.0153201
0.00743878
0.00139044
0.000275238
0.000585235
0.00309535
0.0073674
0.0108227
0.00998538
0.00549106
-0.0315185
-0.0344552
-0.0359314
-0.036245
-0.036061
-0.0357941
-0.0355334
-0.0351803
-0.0346139
-0.0337641
-0.0326146
-0.0311753
-0.0294607
-0.0274805
-0.0252419
-0.0227542
-0.0200342
-0.0171073
-0.0140079
-0.0107781
-0.00746655
-0.00412876
-0.000824089
0.00237939
0.00541519
0.00821031
0.0106891
0.0127758
0.0144019
0.0155057
0.0160478
0.0160071
0.0154052
0.0143551
0.0130397
0.0117204
0.0106562
0.0100632
0.009985
0.0104597
0.0113859
0.0126638
0.0141949
0.0157686
0.0175483
0.0195695
0.0219206
0.0234052
0.0234366
0.0216174
0.0162385
0.00987602
0.00477843
0.00332081
0.00301309
0.0045226
0.00780974
0.0109821
0.00960911
0.00538747
-0.0258247
-0.0283546
-0.0296647
-0.0299938
-0.0298929
-0.0297175
-0.0295509
-0.0293127
-0.0288972
-0.0282431
-0.0273355
-0.0261824
-0.0247954
-0.0231823
-0.0213483
-0.0193004
-0.0170509
-0.0146196
-0.0120335
-0.00932642
-0.00653783
-0.00371339
-0.000902216
0.00184004
0.00445612
0.00688419
0.00906699
0.0109425
0.0124502
0.0135411
0.0141916
0.0143871
0.0141516
0.0135719
0.0127846
0.0119448
0.01125
0.0108759
0.0108689
0.0112875
0.0120611
0.013144
0.0144495
0.0158545
0.0174027
0.0191387
0.0209964
0.0222293
0.0221527
0.0205555
0.0164227
0.0113756
0.00714654
0.00552021
0.00487787
0.00564773
0.00795985
0.0106504
0.00908364
0.00504812
-0.020687
-0.0228582
-0.0240167
-0.0243525
-0.0243246
-0.0242318
-0.0241416
-0.0239964
-0.0237085
-0.0232227
-0.0225237
-0.0216178
-0.0205145
-0.01922
-0.017738
-0.016073
-0.0142344
-0.0122371
-0.0101022
-0.00785632
-0.00553108
-0.00316327
-0.000792879
0.00153414
0.0037697
0.00586477
0.00777939
0.00944956
0.0108367
0.0118979
0.0126174
0.0129855
0.0130262
0.0127974
0.0123811
0.0119302
0.0115425
0.0113642
0.0114376
0.0118305
0.0124933
0.0134168
0.0145208
0.0157461
0.0170593
0.0184979
0.0199
0.0208442
0.0206906
0.0192837
0.0161292
0.0121698
0.00871045
0.00703319
0.00622152
0.00646563
0.00786491
0.00990016
0.00803546
0.00446043
-0.016063
-0.0179217
-0.0189446
-0.019282
-0.0193129
-0.0192863
-0.0192625
-0.0191938
-0.019012
-0.0186687
-0.0181479
-0.0174536
-0.0165935
-0.0155727
-0.0143937
-0.0130594
-0.0115763
-0.00995558
-0.00821356
-0.00637086
-0.0044523
-0.00248714
-0.000507451
0.00145014
0.00334706
0.00514107
0.00679923
0.00827627
0.00954378
0.0105614
0.0113158
0.0118017
0.012039
0.0120693
0.0119424
0.0117682
0.0116183
0.0116024
0.0117524
0.0121356
0.0127155
0.0135064
0.0144326
0.0154783
0.0165658
0.0177182
0.0187572
0.0194091
0.0192043
0.0179739
0.0155564
0.0124653
0.00966155
0.00801315
0.00710913
0.00698801
0.00759726
0.00892956
0.00706907
0.00375214
-0.0119159
-0.0135023
-0.0144037
-0.014738
-0.014816
-0.0148448
-0.0148759
-0.0148704
-0.0147737
-0.0145478
-0.0141773
-0.0136627
-0.0130095
-0.0122217
-0.0113011
-0.0102494
-0.00907118
-0.00777438
-0.0063713
-0.00487765
-0.00331277
-0.00169926
-6.25294e-05
0.0015681
0.00316356
0.00468927
0.00611374
0.00740912
0.00854751
0.00950636
0.0102674
0.0108246
0.0111935
0.0113989
0.0114833
0.0115137
0.0115431
0.0116535
0.0118675
0.0122466
0.0127616
0.0134405
0.0142122
0.0150856
0.015964
0.0168569
0.0176055
0.0180158
0.0177766
0.0167111
0.0148401
0.0124194
0.010153
0.00858645
0.00762234
0.00724751
0.00722708
0.00789649
0.00612497
0.00305315
-0.0082059
-0.00955634
-0.0103496
-0.0106776
-0.0107932
-0.0108674
-0.0109443
-0.0109922
-0.0109641
-0.0108327
-0.0105854
-0.0102206
-0.00974135
-0.00914994
-0.00844766
-0.00763542
-0.00671605
-0.00569514
-0.00458174
-0.00338771
-0.00212766
-0.000818858
0.000519065
0.0018635
0.00319146
0.00447624
0.00569431
0.00681916
0.00783289
0.00871053
0.0094493
0.0100397
0.0104871
0.0108096
0.0110345
0.0112086
0.0113663
0.0115689
0.0118304
0.0122041
0.0126655
0.0132478
0.0138861
0.0145997
0.0152927
0.0159644
0.0164849
0.0167096
0.0164483
0.0155316
0.014063
0.0121469
0.0103043
0.00885365
0.00784494
0.00728981
0.00681634
0.00691035
0.00524788
0.00244762
-0.00489554
-0.0060431
-0.00674129
-0.00706063
-0.00720551
-0.00731588
-0.00742913
-0.00752057
-0.0075516
-0.00749595
-0.00734701
-0.00710428
-0.00676904
-0.00634163
-0.00582216
-0.00521085
-0.00450936
-0.00372142
-0.00285349
-0.00191433
-0.000914766
0.00013222
0.00121179
0.0023068
0.00339966
0.00446991
0.0054992
0.0064665
0.00735739
0.00815481
0.00885021
0.00943594
0.00991835
0.0103066
0.0106183
0.0108848
0.0111272
0.0113904
0.0116819
0.0120455
0.0124593
0.0129567
0.0134806
0.0140519
0.0145867
0.015077
0.0154202
0.0155083
0.0152338
0.0144463
0.0132723
0.0117331
0.0102123
0.00887917
0.00782856
0.00716887
0.00640147
0.00603537
0.00447145
0.00196268
-0.00195119
-0.00292515
-0.00353999
-0.00384921
-0.00401641
-0.0041551
-0.00429659
-0.00442181
-0.00449967
-0.00450837
-0.00443897
-0.00429258
-0.00407453
-0.0037821
-0.00341436
-0.00297036
-0.00245074
-0.00185783
-0.00119611
-0.000471894
0.000306851
0.0011306
0.00198841
0.00286754
0.0037547
0.00463435
0.00549229
0.00631253
0.00708343
0.00779105
0.00842842
0.0089889
0.00947448
0.0098905
0.0102469
0.0105646
0.0108557
0.0111523
0.0114568
0.0118035
0.012173
0.0125947
0.0130209
0.0134702
0.0138724
0.0142154
0.0144247
0.0144156
0.0141344
0.0134542
0.0124945
0.011237
0.00995647
0.0087598
0.00770983
0.0069421
0.00600297
0.00529918
0.00381749
0.00159224
0.000658762
-0.000167255
-0.00070939
-0.00100759
-0.0011914
-0.00135187
-0.00151494
-0.00166599
-0.00178039
-0.00184058
-0.00183913
-0.00177497
-0.00164748
-0.00146204
-0.0012168
-0.000909698
-0.000540122
-0.000109063
0.000380766
0.000925031
0.00151797
0.00215274
0.0028215
0.00351492
0.00422315
0.00493467
0.00563869
0.00632289
0.00697791
0.00759296
0.00816203
0.00867905
0.00914357
0.00955795
0.00992697
0.0102639
0.0105747
0.0108819
0.0111838
0.011507
0.0118337
0.0121873
0.01253
0.0128753
0.0131687