/*--------------------------------*- C++ -*----------------------------------*\
| =========                 |                                                 |
| \\      /  F ield         | OpenFOAM: The Open Source CFD Toolbox           |
|  \\    /   O peration     | Version:  2512                                  |
|   \\  /    A nd           | Website:  www.openfoam.com                      |
|    \\/     M anipulation  |                                                 |
\*---------------------------------------------------------------------------*/
FoamFile
{
    version     2.0;
    format      ascii;
    arch        "LSB;label=32;scalar=64";
    class       surfaceScalarField;
    location    "120.5";
    object      phi;
}
// * * * * * * * * * * * * * * * * * * * * * * * * * * * * * * * * * * * * * //

dimensions      [0 3 -1 0 0 0 0];

oriented        oriented;

internalField   nonuniform List<scalar> 
26232
(
-3.0157e-06
0.00108912
-0.0010861
0.000297961
0.00205642
-0.0023574
0.0011509
0.00198704
-0.00283998
0.00276955
0.000921345
-0.00254
0.00535351
-0.00113844
-0.00144551
0.00909039
-0.00420567
0.000468792
0.0141479
-0.00829068
0.00323313
0.0206558
-0.0133821
0.00687429
0.0286822
-0.0194298
0.0114034
0.0382097
-0.0263334
0.0168058
0.0491167
-0.033939
0.0230321
0.0611707
-0.0420462
0.0299922
0.0740367
-0.0504211
0.0375551
0.087301
-0.0588174
0.045553
0.100508
-0.0669971
0.0537905
0.113203
-0.0747528
0.0620575
0.124984
-0.0819258
0.0701451
0.135538
-0.0884192
0.0778643
0.144685
-0.0942015
0.0850549
0.152367
-0.0993152
0.0916334
0.158669
-0.10381
0.097507
0.163673
-0.107904
0.1029
0.16734
-0.11123
0.107563
-0.11507
0.112783
0.169626
6.17936e-05
0.00102732
0.000566214
0.001552
0.0017848
0.000768454
0.00396223
-0.00125608
0.00732235
-0.00449856
0.0120575
-0.0089408
0.018306
-0.0145392
0.0261231
-0.0211993
0.0354538
-0.0287605
0.0461166
-0.0369961
0.0578056
-0.0456281
0.0701139
-0.0543544
0.0825741
-0.0628814
0.0947113
-0.0709545
0.106097
-0.078383
0.116399
-0.0850551
0.125416
-0.090942
0.133086
-0.09609
0.139487
-0.100602
0.144784
-0.104612
0.149229
-0.108254
0.15299
-0.111666
0.156572
-0.114812
-0.118294
0.159797
0.000158357
0.000868966
0.000944588
0.000765772
0.00264603
-0.000932985
0.00552192
-0.00413197
0.0097932
-0.00876984
0.0156147
-0.0147623
0.023039
-0.0219635
0.0319843
-0.0301446
0.0422193
-0.0389955
0.0533751
-0.0481519
0.0649847
-0.0572376
0.0765426
-0.0659123
0.0875724
-0.0739112
0.0976881
-0.0810703
0.106638
-0.087333
0.114324
-0.0927408
0.120791
-0.097409
0.126196
-0.101495
0.130757
-0.105163
0.134707
-0.108563
0.138251
-0.111798
0.141552
-0.114967
0.14474
-0.117999
-0.121313
0.147759
0.000276795
0.000592171
0.00140356
-0.000360989
0.00367011
-0.00319954
0.00732656
-0.00778842
0.0125523
-0.0139956
0.0194114
-0.0216214
0.0278115
-0.0303636
0.0374872
-0.0398202
0.0480192
-0.0495276
0.0588914
-0.0590241
0.0695697
-0.0679159
0.0795837
-0.0759264
0.0885914
-0.0829189
0.0964133
-0.0888922
0.103033
-0.0939522
0.108564
-0.0982725
0.113205
-0.10205
0.117181
-0.10547
0.1207
-0.108682
0.123927
-0.111791
0.126991
-0.114862
0.129962
-0.117938
0.13295
-0.120987
-0.124278
0.135914
0.000411052
0.000181119
0.0019178
-0.00186774
0.00479476
-0.0060765
0.00925026
-0.0122439
0.015374
-0.0201193
0.0230832
-0.0293306
0.0320972
-0.0393776
0.0419599
-0.0496829
0.0521121
-0.0596798
0.0619914
-0.0689033
0.0711277
-0.0770522
0.0792108
-0.0840095
0.0861138
-0.0898219
0.0918754
-0.0946537
0.0966519
-0.0987288
0.100658
-0.102278
0.104111
-0.105504
0.107199
-0.108558
0.110061
-0.111544
0.112796
-0.114525
0.115467
-0.117533
0.118113
-0.120584
0.120788
-0.123662
-0.126908
0.123418
0.000557853
-0.000376734
0.00246742
-0.00377731
0.00596212
-0.0095712
0.0111672
-0.0174489
0.0180305
-0.0269826
0.0262792
-0.0375794
0.0354367
-0.0485351
0.044905
-0.0591512
0.0540861
-0.0688609
0.0624956
-0.0773127
0.0698344
-0.0843911
0.0760053
-0.0901804
0.0810801
-0.0948967
0.0852385
-0.0988121
0.0887022
-0.102192
0.0916826
-0.105259
0.0943519
-0.108173
0.0968339
-0.11104
0.0992111
-0.113922
0.101536
-0.11685
0.103841
-0.119839
0.106149
-0.122892
0.108488
-0.126001
-0.129239
0.11082
0.000714501
-0.00109124
0.0030318
-0.00609461
0.00710966
-0.0136491
0.0129434
-0.0232827
0.0202954
-0.0343346
0.0286902
-0.0459742
0.0374978
-0.0573428
0.0460744
-0.0677278
0.0538991
-0.0766856
0.0606583
-0.0840719
0.0662593
-0.089992
0.0707873
-0.0947084
0.0744338
-0.0985432
0.0774245
-0.101803
0.0799677
-0.104736
0.0822275
-0.107519
0.0843187
-0.110264
0.086315
-0.113036
0.0882614
-0.115868
0.0901852
-0.118774
0.0921039
-0.121757
0.0940292
-0.124817
0.0959774
-0.127949
-0.131179
0.0979167
0.000876309
-0.00196754
0.00358405
-0.00880235
0.00816437
-0.0182294
0.0144392
-0.0295575
0.0219646
-0.04186
0.0300935
-0.0541031
0.038128
-0.0653772
0.0454859
-0.0750858
0.0518081
-0.0830078
0.056979
-0.0892428
0.0610786
-0.0940916
0.064301
-0.0979308
0.066876
-0.101118
0.0690131
-0.10394
0.070875
-0.106598
0.0725734
-0.109217
0.0741782
-0.111869
0.0757308
-0.114589
0.0772554
-0.117393
0.0787672
-0.120285
0.0802769
-0.123267
0.0817934
-0.126334
0.0833265
-0.129483
-0.132713
0.0848606
0.00103564
-0.00300318
0.00409014
-0.0118569
0.00904678
-0.023186
0.0155253
-0.0360361
0.0228897
-0.0492244
0.0303906
-0.061604
0.0373617
-0.0723483
0.0433635
-0.0810876
0.0482262
-0.0878705
0.0520029
-0.0930195
0.0548812
-0.0969699
0.057094
-0.100144
0.0588567
-0.102881
0.0603363
-0.10542
0.0616467
-0.107908
0.0628581
-0.110428
0.0640108
-0.113021
0.0651277
-0.115706
0.0662225
-0.118487
0.0673047
-0.121368
0.0683816
-0.124344
0.0694596
-0.127412
0.0705442
-0.130567
-0.133797
0.0716282
0.00118234
-0.00418552
0.0045124
-0.0151869
0.00968236
-0.028356
0.0161057
-0.0424594
0.0230029
-0.0561216
0.0296107
-0.0682117
0.0353747
-0.0781124
0.0400332
-0.0857461
0.043585
-0.0914223
0.0461968
-0.0956314
0.0481017
-0.0988748
0.0495239
-0.101566
0.0506404
-0.103997
0.0515725
-0.106352
0.0523942
-0.10873
0.0531476
-0.111182
0.0538555
-0.113729
0.0545312
-0.116381
0.0551834
-0.11914
0.0558186
-0.122003
0.0564425
-0.124968
0.0570602
-0.128029
0.0576755
-0.131182
-0.13441
0.0582889
0.00130574
-0.00549127
0.00481657
-0.0186977
0.0100154
-0.0335548
0.0161336
-0.0485776
0.0223202
-0.0623083
0.0278791
-0.0737706
0.0324138
-0.082647
0.035832
-0.0891643
0.0382571
-0.0938473
0.0399133
-0.0972876
0.0410346
-0.0999961
0.0418127
-0.102344
0.0423813
-0.104566
0.0428228
-0.106793
0.0431832
-0.10909
0.0434871
-0.111486
0.043748
-0.11399
0.0439743
-0.116608
0.0441721
-0.119337
0.0443465
-0.122177
0.044502
-0.125123
0.0446418
-0.128169
0.0447675
-0.131308
-0.134525
0.0448826
0.0013992
-0.00689047
0.00498046
-0.022279
0.0100191
-0.0385935
0.0156153
-0.0541737
0.0209252
-0.0676182
0.0253776
-0.078223
0.0287418
-0.0860113
0.0310625
-0.091485
0.0325374
-0.0953222
0.0334055
-0.0981557
0.0338761
-0.100467
0.0341009
-0.102569
0.0341753
-0.10464
0.0341527
-0.106771
0.0340613
-0.108999
0.0339155
-0.11134
0.0337235
-0.113798
0.0334914
-0.116375
0.0332239
-0.11907
0.0329257
-0.121879
0.0326007
-0.124798
0.0322518
-0.12782
0.0318796
-0.130936
0.0314892
-0.134135
-0.000139797
0.00218802
-0.00204822
-0.000532859
0.00581443
-0.00542137
-0.00116737
0.0088877
-0.00825319
-0.00202456
0.0114351
-0.0105779
-0.00307585
0.0135093
-0.012458
-0.0042848
0.0151954
-0.0139864
-0.00561079
0.0165937
-0.0152677
-0.00701268
0.0177994
-0.0163975
-0.0084513
0.0188879
-0.0174493
-0.00989029
0.0199062
-0.0184672
-0.0112954
0.0208712
-0.0194661
-0.0126329
0.0217722
-0.0204347
-0.0138675
0.0225758
-0.0213412
-0.0149605
0.0232301
-0.0221371
-0.0158685
0.0236692
-0.0227612
-0.0165432
0.023816
-0.0231413
-0.0169312
0.0235843
-0.0231963
-0.0169751
0.0228815
-0.0228376
-0.0166142
0.0216116
-0.0219725
-0.0157904
0.0196844
-0.0205082
-0.0144388
0.0170053
-0.0183569
-0.0124976
0.0135015
-0.0154427
-0.0099269
0.009133
-0.0117037
0.00395674
-0.00675275
-0.00713089
-3.04401e-05
0.00221846
-0.000166947
0.00595094
-0.000439981
0.00916074
-0.000859943
0.011855
-0.00141745
0.0140668
-0.00208594
0.0158639
-0.00282629
0.017334
-0.00359213
0.0185653
-0.00433442
0.0196302
-0.00500448
0.0205762
-0.00555523
0.0214219
-0.00594113
0.0221581
-0.00611729
0.022752
-0.00603858
0.0231514
-0.00565908
0.0232897
-0.00493222
0.0230892
-0.00381157
0.0224637
-0.00225232
0.0213223
-0.000212142
0.0195714
0.0023591
0.0171132
0.00549796
0.0138664
0.00924452
0.00975495
0.013641
0.00473655
-0.00113848
0.0187362
7.11268e-05
0.00214733
0.000182785
0.00583928
0.000273239
0.00907028
0.000309339
0.0118189
0.000283762
0.0140923
0.000212829
0.0159348
0.000131991
0.0174149
8.99857e-05
0.0186073
0.00014301
0.0195772
0.000349955
0.0203693
0.000769193
0.0210027
0.00145688
0.0214705
0.00246636
0.0217425
0.003848
0.0217697
0.00564907
0.0214887
0.00791322
0.020825
0.0106797
0.0196972
0.0139828
0.0180192
0.0178509
0.0157033
0.0223016
0.0126625
0.0273541
0.00881395
0.0330251
0.00408395
0.0393251
-0.00156347
-0.00821918
0.0464058
0.000152611
0.00199472
0.00047669
0.0055152
0.000894507
0.00865247
0.00136009
0.0113534
0.00185458
0.0135978
0.00238501
0.0154044
0.00298102
0.0168189
0.00368966
0.0178986
0.00456937
0.0186975
0.00568427
0.0192544
0.00709951
0.0195875
0.00887807
0.0196919
0.0110787
0.0195418
0.0137549
0.0190936
0.0169541
0.0182894
0.0207175
0.0170617
0.0250793
0.0153353
0.0300672
0.0130313
0.0357024
0.0100682
0.0420008
0.006364
0.0489628
0.00185191
0.0566356
-0.0035888
0.0649596
-0.00988744
-0.0174431
0.0741835
0.000205255
0.00178946
0.000682795
0.00503766
0.00135657
0.00797869
0.00217976
0.0105302
0.0031293
0.0126483
0.00420593
0.0143278
0.00543281
0.015592
0.00685176
0.0164797
0.00851816
0.0170311
0.0104953
0.0172773
0.0128493
0.0172335
0.0156449
0.0168963
0.0189429
0.0162438
0.0227983
0.0152381
0.02726
0.0138278
0.0323704
0.0119513
0.0381662
0.00953948
0.0446815
0.00651604
0.0519402
0.00280949
0.0599829
-0.00167879
0.0688371
-0.00700222
0.0785341
-0.0132858
0.0889877
-0.020341
-0.0290126
0.100557
0.000224218
0.00156524
0.000781426
0.00448045
0.00161411
0.007146
0.00268664
0.00945764
0.00398012
0.0113548
0.00549391
0.012814
0.00724624
0.0138397
0.00927253
0.0144534
0.0116219
0.0146817
0.0143525
0.0145466
0.0175275
0.0140585
0.0212108
0.0132131
0.0254645
0.0119901
0.0303481
0.0103545
0.0359175
0.00825836
0.0422281
0.00564078
0.0493285
0.00243905
0.0572787
-0.00143415
0.0661369
-0.00604874
0.0759439
-0.0114858
0.0867343
-0.0177926
0.0985488
-0.0251003
0.111227
-0.033019
-0.0428677
0.125082
0.000209286
0.00135596
0.000768861
0.00392088
0.00165369
0.00626117
0.0028495
0.00826183
0.00434958
0.00985475
0.00615799
0.0110055
0.00829223
0.0117054
0.0107838
0.0119618
0.0136771
0.0117885
0.0170264
0.0111973
0.0208938
0.0101911
0.0253462
0.00876066
0.0304538
0.00688248
0.0362908
0.0045175
0.0429293
0.0016199
0.0504535
-0.00188347
0.0589449
-0.00605229
0.0684729
-0.0109621
0.079103
-0.0166789
0.090868
-0.0232508
0.103766
-0.0306908
0.117721
-0.0390554
0.132527
-0.0478245
-0.0584569
0.148116
0.000165376
0.00119058
0.000660052
0.0034262
0.0015014
0.00541983
0.00270387
0.00705936
0.00427992
0.0082787
0.00624536
0.00904011
0.00862421
0.00932656
0.0114517
0.00913429
0.0147755
0.00846472
0.0186555
0.00731719
0.0231633
0.00568335
0.0283813
0.0035427
0.0343971
0.000866641
0.041313
-0.00239843
0.0492303
-0.00629741
0.0582398
-0.010893
0.0684265
-0.0162389
0.0798419
-0.0223775
0.0924936
-0.0293306
0.106313
-0.0370702
0.121172
-0.0455502
0.136763
-0.0546463
0.152873
-0.0639344
-0.0743837
0.1688
0.000103014
0.00108757
0.000490151
0.00303907
0.00122684
0.00468314
0.00236127
0.00592492
0.00393159
0.00670838
0.00597407
0.00699764
0.00853018
0.00677045
0.0116519
0.00601256
0.0154049
0.00471168
0.0198701
0.00285202
0.0251407
0.000412763
0.0313253
-0.0026419
0.0385368
-0.00634488
0.0468789
-0.0107405
0.0564467
-0.0158652
0.0672991
-0.0217455
0.0794467
-0.0283865
0.0928305
-0.0357613
0.107305
-0.0438049
0.122623
-0.0523886
0.138455
-0.0613819
0.154297
-0.0704882
0.169902
-0.0795398
-0.0886103
0.184129
3.81706e-05
0.0010494
0.000312701
0.00276453
0.000938853
0.00405699
0.0020023
0.00486147
0.00357403
0.00513665
0.00572133
0.00485034
0.00851654
0.00397524
0.0120431
0.00248602
0.016398
0.000356812
0.0216909
-0.00244098
0.0280401
-0.00593637
0.0355564
-0.0101582
0.0443379
-0.0151264
0.0544446
-0.0208473
0.0658842
-0.0273048
0.0785919
-0.0344531
0.0924159
-0.0422106
0.107112
-0.0504577
0.122341
-0.0590339
0.137699
-0.0677461
0.1527
-0.0763833
0.16687
-0.0846579
0.179855
-0.0925245
-0.0994931
0.190737
-1.04253e-05
0.00105982
0.000190616
0.00256349
0.000765851
0.00348175
0.00184159
0.00378573
0.00352877
0.00344947
0.00593529
0.00244381
0.00917385
0.000736687
0.013365
-0.00170515
0.0186345
-0.00491264
0.0251035
-0.00891001
0.0328752
-0.0137081
0.0420145
-0.0192975
0.0525294
-0.0256412
0.0643515
-0.0326694
0.0773235
-0.0402768
0.0911938
-0.0483234
0.105621
-0.0566383
0.120195
-0.0650314
0.134458
-0.0732963
0.14797
-0.0812584
0.1603
-0.0887136
0.171259
-0.0956168
0.180521
-0.101787
-0.106968
0.187996
-2.6279e-05
0.000179814
0.000821589
0.00206733
0.00407128
0.00698388
0.0109537
0.0161228
0.0226136
0.0305094
0.0398334
0.0505281
0.062442
0.0753256
0.0888393
0.102573
0.11608
0.128913
0.140672
0.151047
0.15984
0.167124
0.172901
0.178716
-0.00234774
-0.00313056
-0.00127445
0.00255849
-0.0152904
0.0103841
0.00775129
-0.0295703
0.0243775
0.0131719
-0.0453841
0.0399634
0.0186119
-0.06198
0.05654
0.0237842
-0.0785026
0.0733303
0.0282838
-0.0939842
0.0894847
0.0315756
-0.107551
0.10426
0.0333487
-0.11872
0.116947
0.0335722
-0.127521
0.127297
0.0328853
-0.134186
0.134873
0.0328148
-0.138305
0.138376
0.0352863
-0.137914
0.135442
0.0416699
-0.129642
0.123259
0.0519758
-0.110341
0.100036
0.0650001
-0.0790467
0.0660224
0.0794089
-0.0374544
0.0230456
0.0940418
0.0106012
-0.0252341
0.107957
0.0597853
-0.0737004
0.120007
0.103167
-0.115218
0.129118
0.135664
-0.144774
0.134895
0.156055
-0.161832
0.137793
0.166173
-0.169071
0.138216
0.169816
-0.170238
0.135765
0.173325
-0.170875
0.130292
0.182146
-0.176673
0.123608
0.192756
-0.186072
0.119216
0.189086
-0.184694
0.119779
0.153775
-0.154337
0.125451
0.0837971
-0.0894689
0.13426
-0.00437408
-0.00443531
0.14353
-0.0869788
0.0777088
0.15089
-0.148036
0.140676
0.155545
-0.183213
0.178558
0.157528
-0.198215
0.196232
0.156115
-0.202715
0.204129
0.150428
-0.212272
0.217958
0.141771
-0.223146
0.231803
0.134071
-0.218961
0.226662
0.130983
-0.170765
0.173852
0.133651
-0.0834412
0.0807735
0.140348
0.0213094
-0.0280069
0.148246
0.113631
-0.121529
0.15376
0.174035
-0.179549
0.153745
0.223226
-0.223211
0.148038
0.250337
-0.24463
0.140605
0.274848
-0.267414
0.136277
0.228923
-0.224595
0.138111
0.142096
-0.14393
0.144001
0.0151114
-0.021002
0.148987
-0.103978
0.0989916
0.148867
-0.169543
0.169663
0.144875
-0.272044
0.276036
0.141534
-0.259661
0.263002
0.141651
-0.271802
0.271686
0.143125
-0.145327
0.143853
0.143379
0.0149641
-0.015219
0.142185
0.0992376
-0.0980436
0.140256
0.342372
-0.340443
0.226069
-0.224451
0.0229854
-0.0073798
0.0273172
-0.0196221
0.0317436
-0.0339967
0.0361408
-0.0497813
0.0403448
-0.0661839
0.0441419
-0.0822998
0.0472083
-0.0970506
0.0490977
-0.109441
0.0492746
-0.118897
0.0472753
-0.125522
0.0431922
-0.130103
0.0382345
-0.133348
0.0347453
-0.134425
0.0352768
-0.130174
0.0412084
-0.116273
0.0520651
-0.0899034
0.066243
-0.0516323
0.0821528
-0.00530865
0.0981227
0.0438154
0.112682
0.0886078
0.124431
0.123915
0.132757
0.147729
0.137857
0.161072
0.139906
0.167767
0.138675
0.174557
0.134549
0.186271
0.129609
0.197696
0.126832
0.191863
0.128034
0.152573
0.133073
0.0787572
0.140362
-0.0116625
0.147706
-0.0943228
0.153099
-0.153429
0.155896
-0.186011
0.156413
-0.198732
0.154115
-0.200417
0.147893
-0.20605
0.138685
-0.213937
0.130437
-0.210714
0.127253
-0.167581
0.130548
-0.0867353
0.138501
0.0133562
0.147703
0.104428
0.154209
0.167529
0.154826
0.22261
0.149649
0.255514
0.142585
0.281911
0.138139
0.233369
0.139443
0.140793
0.144725
0.00982993
0.149461
-0.108714
0.149155
-0.169237
0.144972
-0.26786
0.141547
-0.256237
0.141558
-0.271813
0.142904
-0.146673
0.142947
0.0149212
0.141731
0.100453
0.139824
0.344279
0.227684
0.0500317
-0.0110056
0.0536827
-0.0232732
0.0572145
-0.0375285
0.0604611
-0.0530279
0.0632973
-0.0690201
0.0655914
-0.084594
0.0671299
-0.098589
0.0675883
-0.109899
0.0665213
-0.11783
0.0633769
-0.122377
0.0576781
-0.124404
0.0497096
-0.125379
0.0413118
-0.126027
0.035668
-0.12453
0.0357414
-0.116346
0.0425867
-0.0967488
0.0550752
-0.0641208
0.0711148
-0.0213482
0.0885353
0.0263948
0.105213
0.0719303
0.119456
0.109671
0.130353
0.136833
0.137738
0.153687
0.141579
0.163925
0.14188
0.174257
0.139474
0.188677
0.136459
0.200711
0.135184
0.193138
0.136743
0.151014
0.140812
0.0746883
0.146328
-0.0171783
0.151596
-0.0995905
0.155006
-0.156839
0.156022
-0.187026
0.155163
-0.197873
0.152135
-0.197389
0.145639
-0.199554
0.136124
-0.204422
0.127392
-0.201982
0.123994
-0.164183
0.127693
-0.0904342
0.136717
0.00433211
0.147103
0.0940423
0.154617
0.160016
0.155999
0.221227
0.151519
0.259994
0.144927
0.288504
0.140357
0.237939
0.141019
0.14013
0.145575
0.00527424
0.150017
-0.113157
0.149556
-0.168775
0.145149
-0.263454
0.141585
-0.252672
0.141505
-0.271733
0.142797
-0.147965
0.142664
0.0150542
0.141422
0.101696
0.139538
0.346163
0.229279
0.0772844
-0.0141065
0.0803156
-0.0263044
0.0830628
-0.0402757
0.0852353
-0.0552004
0.0867171
-0.0705019
0.0874105
-0.0852873
0.0871601
-0.0983387
0.0858211
-0.10856
0.0832684
-0.115278
0.0792482
-0.118357
0.0731991
-0.118355
0.064526
-0.116706
0.0536907
-0.115192
0.0432022
-0.114041
0.0369774
-0.110122
0.0380921
-0.0978634
0.0469726
-0.0730013
0.0616677
-0.0360434
0.0795328
0.00852969
0.0977128
0.0537504
0.114148
0.0932365
0.127509
0.123471
0.137192
0.144005
0.142979
0.158137
0.145103
0.172133
0.144705
0.189075
0.143718
0.201698
0.143789
0.193067
0.145447
0.149357
0.148391
0.0717437
0.151995
-0.0207821
0.155143
-0.102739
0.156606
-0.158302
0.155939
-0.186359
0.153785
-0.19572
0.150125
-0.19373
0.143572
-0.193
0.134036
-0.194887
0.12494
-0.192886
0.121197
-0.16044
0.125074
-0.094311
0.134938
-0.00553172
0.146389
0.0825907
0.154936
0.151469
0.157228
0.218935
0.153615
0.263607
0.147596
0.294523
0.142907
0.242628
0.142843
0.140194
0.146539
0.00157804
0.150635
-0.117253
0.150047
-0.168187
0.145393
-0.2588
0.141629
-0.248908
0.141468
-0.271572
0.142784
-0.149281
0.142521
0.0153169
0.141248
0.102969
0.139396
0.348014
0.23083
0.10354
-0.0170893
0.106172
-0.0289362
0.108166
-0.0422701
0.109237
-0.0562711
0.10929
-0.070555
0.108267
-0.0842641
0.106106
-0.0961781
0.10282
-0.105274
0.0985084
-0.110966
0.0932787
-0.113127
0.0869926
-0.112069
0.0789696
-0.108683
0.068441
-0.104663
0.0560865
-0.101687
0.0450834
-0.0991185
0.0398496
-0.0926297
0.0432021
-0.0763537
0.0546038
-0.0474451
0.0715325
-0.00839892
0.0903518
0.0349311
0.108464
0.0751242
0.123984
0.107951
0.135847
0.132142
0.143665
0.150319
0.147842
0.167956
0.149668
0.187248
0.150779
0.200587
0.152126
0.191719
0.153755
0.147728
0.155474
0.0700249
0.157199
-0.0225073
0.158255
-0.103794
0.157826
-0.157874
0.155599
-0.184132
0.152259
-0.19238
0.148053
-0.189524
0.141621
-0.186568
0.132338
-0.185603
0.123063
-0.183611
0.118889
-0.156265
0.122675
-0.098097
0.133102
-0.0159588
0.14549
0.0702024
0.155098
0.141862
0.158448
0.215584
0.15587
0.266186
0.150527
0.299865
0.145743
0.247412
0.144878
0.14106
0.14761
-0.00115365
0.151289
-0.120931
0.150603
-0.167501
0.145691
-0.253888
0.141667
-0.244884
0.141423
-0.271328
0.142843
-0.150701
0.142505
0.0156548
0.141202
0.104272
0.1394
0.349816
0.232309
0.127846
-0.0198539
0.130003
-0.0310925
0.131154
-0.0434218
0.131009
-0.0561258
0.129532
-0.0690779
0.126726
-0.0814577
0.122645
-0.0920973
0.117474
-0.100104
0.111483
-0.104974
0.104955
-0.1066
0.0981014
-0.105216
0.0907305
-0.101312
0.0819174
-0.0958498
0.0707491
-0.0905186
0.0582262
-0.0865956
0.0481208
-0.0825243
0.045032
-0.0732649
0.0511305
-0.0535436
0.0649911
-0.0222595
0.0832468
0.0166753
0.102263
0.0561082
0.11947
0.0907438
0.133301
0.118311
0.143165
0.140455
0.14954
0.161582
0.153728
0.18306
0.156982
0.197333
0.159603
0.189099
0.161203
0.146128
0.161823
0.0694044
0.161784
-0.0224679
0.160843
-0.102853
0.158602
-0.155634
0.154957
-0.180486
0.150556
-0.187979
0.145866
-0.184833
0.13968
-0.180382
0.130903
-0.176826
0.121672
-0.174381
0.11704
-0.151633
0.120465
-0.101522
0.131153
-0.0266472
0.144322
0.0570338
0.155013
0.131171
0.159566
0.21103
0.158185
0.267567
0.153625
0.304426
0.14878
0.252256
0.147091
0.142749
0.148763
-0.00282586
0.151948
-0.124117
0.151192
-0.166745
0.146029
-0.248725
0.14169
-0.240545
0.141347
-0.270985
0.142951
-0.152305
0.142601
0.0160052
0.141273
0.105599
0.139547
0.351543
0.233681
0.150124
-0.0218616
0.151322
-0.0322906
0.151195
-0.0432955
0.149497
-0.0544274
0.146275
-0.0658554
0.141589
-0.0767722
0.135607
-0.0861152
0.128674
-0.0931703
0.121217
-0.0975181
0.113631
-0.0990131
0.106218
-0.0978028
0.099113
-0.0942069
0.0919105
-0.0886473
0.0834143
-0.0820224
0.0726983
-0.0758796
0.0611555
-0.0709815
0.052964
-0.0650735
0.052529
-0.0531086
0.0611823
-0.0309128
0.0768314
0.00102624
0.0954643
0.0374753
0.113663
0.0725446
0.129169
0.102806
0.141053
0.128571
0.149715
0.15292
0.156332
0.176443
0.161723
0.191942
0.165594
0.185228
0.167338
0.144384
0.167102
0.0696403
0.165581
-0.0209462
0.162799
-0.100071
0.158866
-0.151701
0.153958
-0.175578
0.148642
-0.182663
0.143518
-0.179709
0.137644
-0.174508
0.129573
-0.168755
0.120634
-0.165442
0.115587
-0.146585
0.118411
-0.104347
0.129036
-0.0372715
0.142799
0.0432704
0.15458
0.11939
0.160471
0.205139
0.16044
0.267598
0.156766
0.3081
0.151927
0.257096
0.149411
0.145264
0.149966
-0.00337997
0.152581
-0.126732
0.151779
-0.165943
0.146394
-0.24334
0.141695
-0.235846
0.141223
-0.270512
0.143083
-0.154166
0.142792
0.016297
0.141452
0.106939
0.139835
0.35316
0.234908
0.169326
-0.0223881
0.168908
-0.0318724
0.16697
-0.0413574
0.163408
-0.050865
0.158342
-0.06079
0.151868
-0.0702975
0.144238
-0.0784856
0.135892
-0.0848246
0.127332
-0.0889578
0.119019
-0.0907001
0.111292
-0.0900762
0.104345
-0.0872593
0.0981409
-0.0824434
0.0920298
-0.0759113
0.0846457
-0.0684955
0.075202
-0.0615378
0.0654524
-0.0553238
0.0596857
-0.0473419
0.0618098
-0.0330369
0.0724381
-0.0096021
0.0886625
0.0212509
0.106631
0.0545764
0.123259
0.0861775
0.13702
0.11481
0.147988
0.141952
0.157059
0.167372
0.164578
0.184423
0.169737
0.180069
0.171761
0.14236
0.171036
0.0703643
0.168376
-0.0182857
0.164019
-0.0957138
0.15855
-0.146232
0.152537
-0.169565
0.146467
-0.176593
0.140958
-0.174201
0.13541
-0.16896
0.128184
-0.161529
0.119774
-0.157032
0.114428
-0.14124
0.116465
-0.106383
0.126702
-0.0475081
0.140843
0.0291294
0.153693
0.10654
0.161033
0.197799
0.162488
0.266144
0.159812
0.310776
0.155062
0.261845
0.151776
0.148551
0.151179
-0.00278302
0.153152
-0.128706
0.152321
-0.165111
0.146767
-0.237787
0.141681
-0.23076
0.141033
-0.269864
0.143216
-0.156349
0.143061
0.0164516
0.141728
0.108272
0.140263
0.354624
0.235949
0.182891
-0.0211498
0.180568
-0.0295497
0.176685
-0.0374748
0.17137
-0.0455498
0.164759
-0.0541792
0.156946
-0.0624847
0.148238
-0.0697773
0.139092
-0.0756785
0.129992
-0.0798581
0.121388
-0.082096
0.113631
-0.0823185
0.106924
-0.0805532
0.10134
-0.0768585
0.0966912
-0.071263
0.0921567
-0.0639609
0.0863508
-0.0557319
0.0787101
-0.0476832
0.0712077
-0.0398395
0.0679517
-0.0297809
0.0721584
-0.0138088
0.0836341
0.00977517
0.0994116
0.0387989
0.116007
0.0695821
0.131131
0.0996863
0.144234
0.128848
0.155705
0.155902
0.165334
0.174794
0.171833
0.17357
0.174365
0.139828
0.17349
0.0712394
0.170061
-0.0148568
0.164395
-0.0900478
0.157554
-0.139391
0.150591
-0.162602
0.143942
-0.169944
0.13811
-0.168369
0.132867
-0.163717
0.126566
-0.155228
0.118893
-0.149358
0.113408
-0.135755
0.11457
-0.107545
0.124116
-0.0570543
0.138393
0.0148531
0.15225
0.0926829
0.16113
0.188918
0.1642
0.263073
0.162616
0.31236
0.158056
0.266405
0.154102
0.152505
0.152357
-0.00103744
0.153624
-0.129972
0.152774
-0.164262
0.147127
-0.232139
0.14165
-0.225284
0.140761
-0.268975
0.143323
-0.158911
0.143392
0.0163825
0.14209
0.109574
0.140829
0.355885
0.236757
0.188226
-0.0186386
0.184413
-0.025737
0.17913
-0.032191
0.172737
-0.0391571
0.165301
-0.0467432
0.156907
-0.0540904
0.147875
-0.0607454
0.138622
-0.0664252
0.129575
-0.0708111
0.121133
-0.0736544
0.113618
-0.0748036
0.107245
-0.0741801
0.102129
-0.0717423
0.0982849
-0.0674191
0.0954475
-0.0611234
0.0927119
-0.0529963
0.0887688
-0.0437401
0.0832688
-0.0343396
0.078223
-0.024735
0.0772397
-0.0128255
0.0827401
0.0042747
0.0941514
0.0273877
0.108848
0.054885
0.124167
0.0843678
0.138793
0.114222
0.152351
0.142344
0.163988
0.163156
0.17192
0.165639
0.175204
0.136544
0.174541
0.0719027
0.170656
-0.0109717
0.163885
-0.0832767
0.155813
-0.13132
0.148031
-0.154819
0.140984
-0.162897
0.134917
-0.162303
0.12993
-0.15873
0.124583
-0.149881
0.117819
-0.142594
0.112371
-0.130307
0.112643
-0.107817
0.121251
-0.0656618
0.135411
0.000692779
0.15017
0.0779237
0.160625
0.178463
0.165389
0.25831
0.16501
0.312739
0.160794
0.270621
0.156306
0.156993
0.153459
0.00180976
0.153963
-0.130476
0.153098
-0.163397
0.147455
-0.226495
0.141608
-0.219437
0.140397
-0.267765
0.14338
-0.161893
0.143766
0.0159962
0.142529
0.110812
0.14153
0.356883
0.237287
0.185128
-0.0157708
0.180689
-0.0212976
0.174982
-0.0264845
0.168432
-0.0326069
0.160996
-0.0393076
0.152802
-0.0458958
0.144147
-0.0520903
0.135371
-0.0576493
0.126837
-0.0622776
0.118895
-0.0657119
0.111833
-0.0677416
0.105869
-0.0682166
0.10115
-0.0670231
0.0977278
-0.063997
0.0955713
-0.0589669
0.0944077
-0.0518326
0.0934502
-0.0427827
0.0915841
-0.0324734
0.0885249
-0.0216758
0.0861326
-0.0104333
0.0870451
0.00336219
0.0931592
0.0212736
0.104021
0.0440233
0.117692
0.0706968
0.132591
0.0993234
0.147604
0.12733
0.160922
0.149838
0.170102
0.156459
0.174403
0.132243
0.174429
0.0718765
0.170419
-0.00696145
0.162758
-0.0756157
0.153613
-0.122175
0.145124
-0.146329
0.137817
-0.15559
0.131584
-0.15607
0.126739
-0.153885
0.122261
-0.145403
0.116516
-0.136849
0.111248
-0.12504
0.110637
-0.107206
0.118097
-0.0731215
0.131856
-0.0130661
0.147367
0.062412
0.159476
0.166355
0.16604
0.251746
0.166919
0.31186
0.163168
0.274371
0.158355
0.161806
0.154471
0.00569354
0.154182
-0.130188
0.153283
-0.162498
0.147753
-0.220965
0.14156
-0.213244
0.13996
-0.266165
0.143376
-0.165309
0.144168
0.0152042
0.143034
0.111946
0.142366
0.357551
0.237488
0.176065
-0.0131203
0.171639
-0.0168708
0.16652
-0.0213654
0.160646
-0.026733
0.153967
-0.0326293
0.146712
-0.0386401
0.139115
-0.0444938
0.131433
-0.049967
0.123962
-0.0548063
0.116992
-0.0587422
0.110764
-0.0615139
0.105445
-0.062897
0.101133
-0.062712
0.0979232
-0.0607868
0.0959066
-0.0569503
0.0951259
-0.0510518
0.095358
-0.0430148
0.0958626
-0.032978
0.0956695
-0.0214827
0.0945645
-0.00932826
0.0943159
0.00361078
0.0969875
0.018602
0.103624
0.0373868
0.113963
0.0603579
0.127092
0.0861942
0.141777
0.112645
0.155731
0.135884
0.166347
0.145842
0.172571
0.126019
0.17391
0.0705366
0.169724
-0.00277537
0.161084
-0.0669757
0.151117
-0.112208
0.142161
-0.137374
0.134744
-0.148172
0.128399
-0.149726
0.123536
-0.149022
0.11972
-0.141587
0.115019
-0.132148
0.110046
-0.120067
0.108604
-0.105764
0.11487
-0.0793869
0.12788
-0.026076
0.14381
0.0464818
0.157357
0.152808
0.165761
0.243341
0.168069
0.309552
0.165023
0.277418
0.160077
0.166752
0.155395
0.010376
0.154272
-0.129065
0.153321
-0.161547
0.148011
-0.215655
0.14149
-0.206723
0.139487
-0.264162
0.143326
-0.169148
0.144596
0.0139347
0.143598
0.112944
0.143333
0.357816
0.237308
0.207727
-0.010776
-0.210071
0.20615
-0.015294
0.204267
-0.0194824
0.201793
-0.0242595
0.198625
-0.0294608
0.194773
-0.0347883
0.190282
-0.0400031
0.185194
-0.0448786
0.179578
-0.0491903
0.173542
-0.052706
0.167217
-0.0551888
0.160739
-0.0564189
0.154235
-0.0562083
0.147836
-0.0543881
0.141678
-0.0507924
0.135909
-0.045282
0.130637
-0.037743
0.125735
-0.0280767
0.120688
-0.0164354
0.115097
-0.00373702
0.108864
0.00984359
0.103408
0.0240579
0.10026
0.0405348
0.100635
0.0599827
0.10506
0.0817701
0.113293
0.104412
0.124946
0.124231
0.140788
0.130001
0.160367
0.106441
0.178195
0.0527086
0.188633
-0.013214
0.190683
-0.0690254
0.186343
-0.107867
0.178781
-0.129812
0.170189
-0.13958
0.161367
-0.140904
0.153219
-0.140873
0.146004
-0.134372
0.138194
-0.124338
0.129504
-0.111378
0.122741
-0.0990004
0.121625
-0.0782711
0.126088
-0.0305392
0.132317
0.0402526
0.137204
0.147921
0.14053
0.240015
0.143856
0.306226
0.148333
0.272941
0.153123
0.161962
0.156052
0.00744739
0.157397
-0.130411
0.156197
-0.160348
0.149942
-0.209399
0.141847
-0.198628
0.136709
-0.259024
0.135519
-0.167959
0.133462
0.0159914
0.130218
0.116189
0.130158
0.357876
0.236438
0.216663
-0.00900758
-0.218432
0.214715
-0.0133457
0.212758
-0.0175259
0.21032
-0.0218216
0.207239
-0.0263799
0.203525
-0.0310735
0.199207
-0.0356854
0.194327
-0.0399986
0.188949
-0.0438123
0.18317
-0.046927
0.177116
-0.0491349
0.170929
-0.050232
0.164751
-0.0500301
0.158724
-0.0483611
0.152986
-0.0450549
0.147667
-0.0399625
0.142898
-0.0329744
0.138768
-0.0239461
0.135089
-0.0127568
0.131202
0.000149642
0.12693
0.0141162
0.122505
0.0284826
0.119227
0.0438124
0.118783
0.060427
0.122412
0.0781415
0.130447
0.0963766
0.143084
0.111595
0.16063
0.112455
0.180496
0.0865742
0.196717
0.0364872
0.20467
-0.021167
0.204496
-0.068851
0.198501
-0.101872
0.1898
-0.121111
0.18058
-0.130359
0.171401
-0.131725
0.162871
-0.132343
0.155478
-0.126979
0.147935
-0.116795
0.139381
-0.102824
0.132036
-0.0916554
0.13006
-0.0762948
0.13401
-0.0344897
0.140562
0.0337007
0.146137
0.142346
0.150414
0.235739
0.154949
0.301691
0.160513
0.267376
0.165866
0.156609
0.168686
0.00462779
0.169291
-0.131016
0.167393
-0.15845
0.160556
-0.202562
0.151535
-0.189606
0.145565
-0.253054
0.14436
-0.166753
0.142216
0.0181353
0.138694
0.119711
0.138895
0.357675
0.235304
0.225224
-0.00772084
-0.226511
0.223471
-0.0115929
0.221453
-0.0155083
0.219048
-0.0194163
0.216102
-0.0234336
0.21257
-0.0275418
0.208474
-0.0315896
0.203859
-0.0353829
0.198783
-0.0387362
0.193329
-0.0414729
0.187607
-0.0434132
0.181749
-0.0443737
0.175894
-0.0441751
0.170187
-0.0426545
0.164779
-0.0396472
0.159817