/*--------------------------------*- C++ -*----------------------------------*\
| =========                 |                                                 |
| \\      /  F ield         | OpenFOAM: The Open Source CFD Toolbox           |
|  \\    /   O peration     | Version:  2512                                  |
|   \\  /    A nd           | Website:  www.openfoam.com                      |
|    \\/     M anipulation  |                                                 |
\*---------------------------------------------------------------------------*/
FoamFile
{
    version     2.0;
    format      ascii;
    arch        "LSB;label=32;scalar=64";
    class       surfaceScalarField;
    location    "43.5";
    object      phi;
}
// * * * * * * * * * * * * * * * * * * * * * * * * * * * * * * * * * * * * * //

dimensions      [0 3 -1 0 0 0 0];

oriented        oriented;

internalField   nonuniform List<scalar> 
26232
(
4.51069e-05
0.000964654
-0.00100976
0.000345914
0.00193512
-0.00223592
0.00104577
0.00208412
-0.00278398
0.00227835
0.00145839
-0.00269097
0.00417647
8.60384e-05
-0.00198415
0.006875
-0.00201882
-0.000679716
0.0105068
-0.00484773
0.0012159
0.0151958
-0.008392
0.00370299
0.0210445
-0.0126322
0.00678354
0.0281202
-0.0175301
0.0104544
0.0364409
-0.0230225
0.0147018
0.0459646
-0.0290199
0.0194962
0.0565835
-0.0354078
0.024789
0.0681254
-0.0420535
0.0305116
0.0803618
-0.0488138
0.0365774
0.0930223
-0.0555455
0.042885
0.105814
-0.0621151
0.0493238
0.118441
-0.0684089
0.0557814
0.130631
-0.074336
0.0621461
0.142151
-0.07985
0.0683297
0.152816
-0.0848956
0.0742307
0.162506
-0.0895701
0.0798802
0.171069
-0.0936397
0.0850767
-0.097759
0.0906774
0.178151
8.08661e-05
0.000883788
0.000519875
0.00149611
0.00149099
0.00111301
0.00315693
-0.000207547
0.00567657
-0.00243361
0.00920098
-0.00554323
0.0138644
-0.00951117
0.0197679
-0.0142955
0.0269613
-0.0198257
0.0354272
-0.025996
0.0450701
-0.0326654
0.0557155
-0.0396653
0.0671187
-0.046811
0.0789829
-0.0539177
0.0909848
-0.0608157
0.102803
-0.0673635
0.114146
-0.0734579
0.124777
-0.0790399
0.134536
-0.0840949
0.143337
-0.0886517
0.151201
-0.0927593
0.158172
-0.0965407
0.164473
-0.0999412
-0.103498
0.170212
0.000137251
0.000746537
0.000768272
0.000865085
0.0020943
-0.000213025
0.0043025
-0.00241574
0.00756652
-0.00569762
0.0120343
-0.010011
0.0178083
-0.0152852
0.0249227
-0.0214098
0.0333242
-0.0282272
0.0428632
-0.0355349
0.0532987
-0.043101
0.0643181
-0.0506846
0.0755678
-0.0580607
0.0866908
-0.0650407
0.0973636
-0.0714886
0.107329
-0.0773286
0.116417
-0.0825459
0.124557
-0.0871797
0.131772
-0.09131
0.138164
-0.0950443
0.143896
-0.0984911
0.149135
-0.10178
0.154106
-0.104912
-0.10827
0.158877
0.000215474
0.000531064
0.00109367
-1.31078e-05
0.00285539
-0.00197475
0.00569999
-0.00526035
0.00979455
-0.00979219
0.0152496
-0.0154661
0.0220905
-0.0221261
0.0302345
-0.0295539
0.0394832
-0.0374759
0.049535
-0.0455867
0.0600176
-0.0535836
0.0705338
-0.0612008
0.0807104
-0.0682373
0.0902423
-0.0745726
0.0989229
-0.0801692
0.106658
-0.0850639
0.113462
-0.08935
0.119437
-0.0931548
0.124744
-0.0966163
0.129564
-0.0998649
0.134079
-0.103005
0.138429
-0.10613
0.142759
-0.109241
-0.112582
0.147071
0.000314677
0.000216386
0.00148994
-0.00118837
0.00375323
-0.00423804
0.00729487
-0.00880199
0.0122421
-0.0147394
0.0186232
-0.0218472
0.026338
-0.0298408
0.0351493
-0.0383651
0.0447031
-0.0470297
0.0545755
-0.0554591
0.064334
-0.0633421
0.0735986
-0.0704654
0.0820895
-0.0767282
0.0896525
-0.0821357
0.0962605
-0.0867771
0.101992
-0.0907956
0.106998
-0.0943561
0.111462
-0.0976179
0.115562
-0.100716
0.119451
-0.103754
0.123246
-0.106801
0.12702
-0.109904
0.130837
-0.113059
-0.116418
0.134673
0.000432565
-0.000216179
0.00194451
-0.00270031
0.00474975
-0.00704328
0.00899898
-0.0130512
0.014737
-0.0204775
0.021863
-0.0289731
0.0301157
-0.0380936
0.0390994
-0.0473488
0.0483436
-0.0562739
0.0573828
-0.0644983
0.0658293
-0.0717886
0.0734245
-0.0780606
0.0800567
-0.0833604
0.0857485
-0.0878276
0.0906221
-0.0916506
0.094853
-0.0950265
0.0986281
-0.0981312
0.102114
-0.101104
0.105441
-0.104043
0.1087
-0.107013
0.11195
-0.110051
0.115224
-0.113178
0.118557
-0.116391
-0.119773
0.121913
0.000565754
-0.000781933
0.00243859
-0.00457315
0.00579138
-0.0103961
0.0106964
-0.0179562
0.017071
-0.0268522
0.0246503
-0.0365524
0.0330092
-0.0464525
0.0416348
-0.0559744
0.0500241
-0.0646632
0.0577721
-0.0722463
0.0646276
-0.0786441
0.0705046
-0.0839376
0.0754576
-0.0883134
0.0796341
-0.092004
0.0832219
-0.0952383
0.0864055
-0.0982101
0.0893395
-0.101065
0.0921386
-0.103903
0.0948797
-0.106784
0.0976109
-0.109744
0.100361
-0.112801
0.103144
-0.115961
0.105977
-0.119224
-0.122627
0.10883
0.000709378
-0.00149131
0.00294712
-0.00681089
0.00681087
-0.0142598
0.0122525
-0.0233979
0.0190264
-0.033626
0.0266963
-0.0442223
0.0347119
-0.0544681
0.0425242
-0.0637868
0.0496943
-0.0718332
0.0559574
-0.0785095
0.0612333
-0.08392
0.0655912
-0.0882955
0.069192
-0.0919142
0.0722299
-0.095042
0.0748879
-0.0978963
0.0773135
-0.100636
0.0796121
-0.103364
0.0818527
-0.106143
0.0840769
-0.109008
0.0863089
-0.111976
0.0885621
-0.115054
0.0908434
-0.118243
0.0931598
-0.12154
-0.124956
0.0954894
0.000856552
-0.00234786
0.00343878
-0.00939312
0.0077315
-0.0185525
0.0135297
-0.0291961
0.0204105
-0.0405068
0.0277966
-0.0516083
0.0350852
-0.0617567
0.0417819
-0.0704835
0.0475834
-0.0776346
0.0523916
-0.0833177
0.0562739
-0.0878024
0.0593962
-0.0914177
0.0619571
-0.0944751
0.0641409
-0.0972258
0.0660932
-0.0998487
0.0679159
-0.102458
0.0696737
-0.105122
0.0714048
-0.107875
0.0731309
-0.110735
0.0748639
-0.113709
0.0766102
-0.1168
0.0783735
-0.120006
0.0801557
-0.123323
-0.126743
0.0819428
0.000998331
-0.00334619
0.00387792
-0.0122727
0.00847546
-0.0231501
0.0144074
-0.035128
0.0210901
-0.0471895
0.0278661
-0.0583843
0.0341642
-0.0680549
0.0396128
-0.075932
0.0440693
-0.0820911
0.0475805
-0.086829
0.0503083
-0.0905301
0.0524547
-0.0935641
0.0542088
-0.0962292
0.0557194
-0.0987363
0.0570892
-0.101219
0.0583825
-0.103752
0.0596364
-0.106376
0.0608713
-0.109109
0.0620986
-0.111962
0.0633245
-0.114935
0.0645526
-0.118029
0.0657845
-0.121238
0.0670195
-0.124558
-0.127974
0.0682502
0.00112488
-0.00447108
0.00422958
-0.0153774
0.00897588
-0.0278964
0.0148025
-0.0409547
0.0210103
-0.0533973
0.0269375
-0.0643115
0.0321129
-0.0732303
0.0363171
-0.0801363
0.0395527
-0.0853268
0.041965
-0.0892413
0.0437567
-0.0923218
0.0451242
-0.0949316
0.0462241
-0.0973291
0.0471648
-0.099677
0.0480135
-0.102067
0.0488082
-0.104546
0.0495696
-0.107137
0.0503088
-0.109849
0.0510323
-0.112685
0.0517439
-0.115647
0.0524454
-0.11873
0.0531372
-0.12193
0.0538168
-0.125237
-0.128638
0.0544806
0.0012293
-0.00570038
0.00446732
-0.0186154
0.0091884
-0.0326174
0.0146805
-0.0464467
0.0201941
-0.0589109
0.0251329
-0.0692503
0.0291634
-0.0772608
0.0322121
-0.0831849
0.034388
-0.0875027
0.0358869
-0.0907401
0.0369129
-0.0933478
0.0376348
-0.0956535
0.0381713
-0.0978656
0.0385963
-0.100102
0.0389513
-0.102422
0.0392582
-0.104853
0.0395285
-0.107407
0.0397687
-0.110089
0.0399828
-0.112899
0.0401735
-0.115837
0.0403423
-0.118899
0.0404892
-0.122077
0.0406114
-0.12536
0.0407088
-0.128735
-0.000192103
0.000642684
-0.00045058
-0.000674609
0.0015896
-0.0011071
-0.00138821
0.00230575
-0.00159215
-0.00228663
0.00283767
-0.00193925
-0.00333298
0.00322458
-0.00217823
-0.00449817
0.00350118
-0.00233599
-0.00575961
0.0036967
-0.00243527
-0.00709996
0.00383397
-0.00249362
-0.00850598
0.00392902
-0.002523
-0.00996741
0.00399131
-0.00252988
-0.011476
0.00402446
-0.0025159
-0.0130245
0.00402722
-0.00247874
-0.0146059
0.00399458
-0.00241309
-0.0162132
0.00391885
-0.00231155
-0.0178385
0.00379056
-0.00216531
-0.0194731
0.00359932
-0.00196471
-0.021108
0.00333459
-0.00169962
-0.0227347
0.00298657
-0.00135994
-0.0243466
0.00254707
-0.000935105
-0.0259435
0.00201092
-0.000414098
-0.0275255
0.00137724
0.000204798
-0.029108
0.000645692
0.000936826
-0.030728
-0.000170494
0.00179043
-0.00106266
-0.0324418
0.00277646
-0.000168606
0.00081129
-0.000597652
0.00201865
-0.0012375
0.00294559
-0.00204782
0.00364799
-0.00299519
0.00417195
-0.00405217
0.00455816
-0.0051966
0.00484113
-0.00641078
0.00504816
-0.00768074
0.00519897
-0.0089954
0.00530597
-0.0103458
0.00537486
-0.0117243
0.00540572
-0.0131239
0.00539413
-0.0145373
0.00533229
-0.0159568
0.00521009
-0.0173736
0.00501606
-0.0187774
0.00473843
-0.0201572
0.00436634
-0.0215017
0.00389163
-0.0228018
0.00331096
-0.0240524
0.0026279
-0.0252616
0.00185482
-0.0264531
0.00102099
0.000172772
-0.0276885
-0.000136638
0.000947927
-0.000491351
0.00237336
-0.00102597
0.00348021
-0.00170691
0.00432894
-0.00250443
0.00496947
-0.00339253
0.00544627
-0.00434887
0.00579747
-0.00535446
0.00605375
-0.00639333
0.00623785
-0.00745206
0.0063647
-0.00851919
0.00644199
-0.00958464
0.00647116
-0.010639
0.0064485
-0.0116729
0.00636623
-0.0126764
0.00621353
-0.0136378
0.00597752
-0.0145437
0.00564426
-0.0153774
0.00520009
-0.0161194
0.0046336
-0.0167471
0.00393869
-0.0172383
0.00311907
-0.0175768
0.00219335
-0.0177628
0.001207
0.000267247
-0.0178573
-9.96517e-05
0.00104758
-0.000366105
0.00263982
-0.000772665
0.00388677
-0.00129223
0.0048485
-0.00189835
0.00557559
-0.00256596
0.00611387
-0.00327176
0.00650327
-0.00399448
0.00677646
-0.00471475
0.00695812
-0.005415
0.00706495
-0.00607911
0.0071061
-0.00669197
0.00708403
-0.00723899
0.00699552
-0.00770548
0.00683272
-0.008076
0.00658404
-0.00833355
0.00623508
-0.00845868
0.00576938
-0.00842822
0.00516964
-0.00821392
0.0044193
-0.00778019
0.00350495
-0.00708387
0.00242275
-0.00607905
0.00118853
-0.00472766
-0.000144384
-0.00141459
-0.00304583
-6.18207e-05
0.0011094
-0.000234887
0.00281288
-0.000501874
0.00415376
-0.00084065
0.00518728
-0.00122697
0.00596191
-0.00163577
0.00652267
-0.00204194
0.00690945
-0.00242078
0.0071553
-0.00274816
0.0072855
-0.00300052
0.00731732
-0.00315474
0.00726032
-0.00318779
0.00711707
-0.00307638
0.00688412
-0.00279652
0.00655286
-0.002323
0.00611052
-0.00162887
0.00554094
-0.000684829
0.00482534
0.0005416
0.00394321
0.0020876
0.0028733
0.00399654
0.00159601
0.00633002
8.92643e-05
0.0091404
-0.00162185
0.0125132
-0.00351716
-0.00546108
0.0165597
-2.74452e-05
0.00113685
-0.000111308
0.00289675
-0.00023941
0.00428186
-0.000391924
0.00533979
-0.000544916
0.0061149
-0.000672058
0.00664981
-0.000745238
0.00698263
-0.000735142
0.0071452
-0.000611447
0.0071618
-0.000342832
0.0070487
0.000103156
0.00681433
0.000760324
0.00645991
0.00166417
0.00598027
0.00285218
0.00536485
0.00436411
0.0045986
0.00624209
0.00366296
0.00853092
0.00253652
0.0112776
0.0011965
0.0145314
-0.000380454
0.0183442
-0.00221684
0.0227653
-0.00433184
0.0278798
-0.0067363
0.0337297
-0.00936709
-0.0123775
0.0406462
-5.88486e-07
0.00113743
-6.99821e-06
0.00290315
-7.40604e-06
0.00428227
1.94858e-05
0.0053129
9.9779e-05
0.00603461
0.000263343
0.00648625
0.000542843
0.00670313
0.00097374
0.0067143
0.0015943
0.00654124
0.00244567
0.00619733
0.00357206
0.00568795
0.00502091
0.00501105
0.00684312
0.00415806
0.00909304
0.00311492
0.0118285
0.00186315
0.0151097
0.000381705
0.019
-0.00135377
0.0235622
-0.00336571
0.0288582
-0.00567639
0.0349459
-0.00830457
0.041871
-0.011257
0.04971
-0.0145752
0.0583898
-0.018047
-0.0224325
0.0684448
1.73597e-05
0.00112007
7.08726e-05
0.00284964
0.00018015
0.00417299
0.000372301
0.00512075
0.000679004
0.00572791
0.00113585
0.0060294
0.00178267
0.00605632
0.00266366
0.00583331
0.00382776
0.00537714
0.00532884
0.00469625
0.00722589
0.0037909
0.00958294
0.002654
0.0124687
0.00127226
0.0159559
-0.00037225
0.0201204
-0.0023013
0.0250387
-0.00453669
0.0307854
-0.00710043
0.0374307
-0.010011
0.0450353
-0.0132811
0.0536496
-0.0169188
0.0632902
-0.0208975
0.0740216
-0.0253066
0.0856268
-0.0296522
-0.0355374
0.0987317
2.54356e-05
0.00109464
0.000122674
0.0027524
0.000324875
0.00397079
0.000669898
0.00477573
0.00119901
0.00519879
0.00195771
0.0052707
0.00299672
0.00501731
0.00437291
0.00445711
0.00614986
0.0036002
0.00839794
0.00244817
0.0111939
0.000994901
0.0146201
-0.00077212
0.0187622
-0.00286991
0.0237074
-0.00531743
0.0295396
-0.00813353
0.0363368
-0.0113339
0.044165
-0.0149286
0.0530734
-0.0189194
0.063089
-0.0232967
0.0742142
-0.028044
0.0864076
-0.033091
0.0996557
-0.0385546
0.113695
-0.0436918
-0.050745
0.128903
2.67469e-05
0.00106789
0.000157363
0.00262179
0.000445068
0.00368308
0.000943479
0.00427732
0.00170839
0.00443388
0.00280014
0.00417896
0.00428551
0.00353194
0.00623893
0.00250369
0.0087429
0.00109622
0.0118867
-0.000695668
0.0157648
-0.00288312
0.0204725
-0.00547989
0.0261022
-0.00849962
0.0327371
-0.0119522
0.0404444
-0.0158409
0.0492697
-0.0201592
0.0592299
-0.0248887
0.0703089
-0.0299984
0.0824547
-0.0354424
0.0955765
-0.0411659
0.109552
-0.0470666
0.124213
-0.0532151
0.139392
-0.0588712
-0.0662047
0.154852
2.64544e-05
0.00104144
0.000192428
0.00245581
0.000576353
0.00329916
0.00125265
0.00360103
0.00229703
0.0033895
0.00379024
0.00268574
0.00582033
0.00150185
0.00848261
-0.000158588
0.0118797
-0.00230087
0.0161155
-0.00493151
0.0212911
-0.00805867
0.0274965
-0.0116853
0.0348026
-0.0158057
0.0432521
-0.0204017
0.0528518
-0.0254406
0.0635669
-0.0308743
0.0753175
-0.0366394
0.0879793
-0.0426602
0.101387
-0.0488502
0.115344
-0.0551225
0.129644
-0.0613675
0.144019
-0.0675897
0.158442
-0.0732944
-0.0798486
0.172086
3.16756e-05
0.000251567
0.000766748
0.0016768
0.00308215
0.00508817
0.00780592
0.0113503
0.015833
0.0213559
0.027999
0.0358099
0.0447932
0.0549031
0.0660398
0.0780505
0.090735
0.103856
0.117152
0.130359
0.143223
0.155513
0.167295
0.178124
-0.0333503
-0.00458437
0.00549288
-0.0342318
-0.00697863
0.00786013
-0.0350538
-0.00977704
0.0105991
-0.0358123
-0.0129267
0.0136852
-0.0365003
-0.0163965
0.0170845
-0.0371109
-0.0201251
0.0207356
-0.0376368
-0.0240182
0.0245442
-0.0380701
-0.0279435
0.0283768
-0.0384022
-0.0317239
0.032056
-0.0386243
-0.035132
0.0353541
-0.0387221
-0.0378955
0.0379933
-0.0386695
-0.0397002
0.0396476
-0.0384288
-0.0401867
0.039946
-0.0379469
-0.0389665
0.0384846
-0.0371602
-0.0356468
0.03486
-0.0360248
-0.0298662
0.0287308
-0.0344932
-0.0213179
0.0197864
-0.0325287
-0.00981367
0.00784918
-0.0302535
0.00445063
-0.00672579
-0.0277539
0.0212982
-0.0237979
-0.0251495
0.0400263
-0.0426307
-0.0226706
0.0596018
-0.0620807
-0.0204432
0.0787377
-0.0809651
-0.0184289
0.0959939
-0.0980082
-0.0162106
0.109626
-0.111844
-0.012959
0.11748
-0.120732
-0.00767157
0.117094
-0.122382
0.000426572
0.106245
-0.114343
0.0113593
0.0839452
-0.0948779
0.0244468
0.0509585
-0.064046
0.0388125
0.0111578
-0.0255234
0.0531587
-0.0299311
0.0155849
0.0663028
-0.0667023
0.0535582
0.0771053
-0.0943172
0.0835148
0.0847017
-0.111034
0.103437
0.0885136
-0.117649
0.113837
0.0884955
-0.116931
0.116949
0.0858772
-0.111481
0.114099
0.0833925
-0.102054
0.104539
0.0839729
-0.0866327
0.0860523
0.0888582
-0.0640301
0.0591448
0.0970661
-0.035804
0.0275961
0.106512
-0.00678188
-0.00266452
0.115311
0.0186655
-0.0274644
0.122378
0.037493
-0.0445598
0.127328
0.049428
-0.0543775
0.130464
0.0547426
-0.0578788
0.132405
0.0546404
-0.0565811
0.134048
0.049574
-0.0512177
0.135984
0.0405497
-0.0424858
0.13855
0.028577
-0.0311423
0.14151
0.0154831
-0.0184437
0.144568
0.0031271
-0.00618464
0.147301
-0.00699334
0.00426032
0.149649
-0.0141231
0.0117749
0.151526
-0.0172773
0.0154008
0.153305
-0.018332
0.0165525
0.154866
-0.0134461
0.0118857
0.156674
-0.0114349
0.00962621
0.000756129
-0.00239188
-0.0287679
-0.00350493
-0.0298769
-0.00586963
-0.0309694
-0.00868455
-0.0320402
-0.0118559
-0.033082
-0.0153547
-0.034086
-0.019121
-0.0350433
-0.0230609
-0.0359451
-0.0270417
-0.0367834
-0.0308856
-0.0375527
-0.0343627
-0.0382455
-0.0372027
-0.0388358
-0.0391099
-0.0392851
-0.0397373
-0.0395321
-0.0387195
-0.0394953
-0.0356836
-0.039086
-0.0302754
-0.0382093
-0.0221947
-0.0367551
-0.0112679
-0.0347874
0.00248295
-0.0323456
0.0188564
-0.029447
0.0371276
-0.0262262
0.056381
-0.0226687
0.0751802
-0.0186215
0.0919467
-0.0136176
0.104622
-0.00701977
0.110882
0.00162201
0.108453
0.0123542
0.0955129
0.0249153
0.0713841
0.0386467
0.037227
0.0527751
-0.00297055
0.066501
-0.043657
0.0787973
-0.0789986
0.0887596
-0.104279
0.0958135
-0.118088
0.0996278
-0.121463
0.0999378
-0.117241
0.0970525
-0.108595
0.0927261
-0.0977282
0.0898436
-0.0837502
0.0906627
-0.0648492
0.0953891
-0.0405303
0.102526
-0.0139189
0.110131
0.011061
0.116841
0.0307824
0.122014
0.0442549
0.125835
0.0509217
0.128847
0.0516285
0.131834
0.0465872
0.135168
0.0372156
0.13896
0.0247853
0.142809
0.0116338
0.146372
-0.000435885
0.14926
-0.00988108
0.15148
-0.016343
0.153033
-0.0188308
0.154345
-0.019644
0.155436
-0.014537
0.156746
-0.0127444
-0.000596587
-0.0189426
-0.0024196
-0.0201357
-0.0046766
-0.0213862
-0.00743401
-0.0226701
-0.0105721
-0.023979
-0.0140458
-0.0253007
-0.0177993
-0.0266203
-0.0217413
-0.0279238
-0.0257383
-0.0291982
-0.0296111
-0.0304328
-0.0331281
-0.0316281
-0.0360074
-0.0327456
-0.0379925
-0.0337479
-0.038735
-0.0345734
-0.037894
-0.0351335
-0.0351235
-0.0353148
-0.0300941
-0.0349846
-0.0225249
-0.0339867
-0.0122658
-0.0322324
0.000728611
-0.0297755
0.0163996
-0.026449
0.0338011
-0.0223386
0.0522706
-0.0173164
0.070158
-0.011265
0.0858952
-0.00382615
0.0971831
0.00513268
0.101923
0.0157702
0.097815
0.0278648
0.0834184
0.040817
0.0584318
0.0541831
0.0238609
0.0673994
-0.0161868
0.079977
-0.0562346
0.0909948
-0.0900164
0.0997104
-0.112995
0.105803
-0.124181
0.109289
-0.124949
0.11007
-0.118023
0.10793
-0.106455
0.103456
-0.0932544
0.0987001
-0.0789939
0.0962317
-0.0623808
0.0973842
-0.0416828
0.101653
-0.0181878
0.107455
0.00525932
0.113388
0.0248494
0.118602
0.039041
0.123102
0.0464209
0.12724
0.0474906
0.131561
0.0422668
0.136163
0.0326138
0.140941
0.0200069
0.145401
0.00717425
0.149216
-0.00425118
0.152078
-0.0127436
0.154066
-0.0183308
0.15526
-0.0200249
0.156092
-0.0204763
0.156712
-0.0151562
0.157494
-0.013527
-0.00162321
-0.00382703
-0.0016384
-0.0050352
-0.00346842
-0.00635336
-0.00611585
-0.00776001
-0.00916543
-0.00926493
-0.0125409
-0.0108519
-0.0162123
-0.0124956
-0.0200976
-0.0141769
-0.024057
-0.0158767
-0.0279113
-0.0175591
-0.0314458
-0.0192589
-0.0343076
-0.0208691
-0.0363822
-0.0223519
-0.0372522
-0.0236395
-0.0366065
-0.0246401
-0.0341229
-0.025234
-0.0295002
-0.0252749
-0.022484
-0.0246132
-0.0129275
-0.0229396
-0.000944991
-0.0204327
0.0138926
-0.0166903
0.0300587
-0.0118301
0.0474105
-0.00568014
0.064008
0.00197606
0.078239
0.0109718
0.0881874
0.0213704
0.0915247
0.0329662
0.0862193
0.0452906
0.071094
0.0577771
0.0459454
0.0701451
0.0114929
0.0820674
-0.0281091
0.0931454
-0.0673127
0.102559
-0.0994304
0.109735
-0.120171
0.114572
-0.129018
0.117357
-0.127734
0.118311
-0.118976
0.117185
-0.10533
0.113749
-0.0898182
0.108867
-0.074112
0.104611
-0.0581241
0.102909
-0.039981
0.104326
-0.0196052
0.108003
0.00158308
0.112812
0.0200403
0.11782
0.0340322
0.122832
0.0414093
0.12792
0.0424027
0.133315
0.0368716
0.138839
0.0270897
0.144217
0.0146292
0.148934
0.00245685
0.152728
-0.00804498
0.155399
-0.0154145
0.157084
-0.0200164
0.157927
-0.0208677
0.158326
-0.0208746
0.158529
-0.0153599
0.158822
-0.0138203
-0.00232394
0.0157862
-0.000864969
0.0147511
-0.00243326
0.0135178
-0.00488263
0.0121369
-0.00778453
0.0105801
-0.010984
0.00884182
-0.0144741
0.00693951
-0.0181952
0.00488471
-0.0220022
0.00268303
-0.0257096
0.000363582
-0.0291263
-0.00182299
-0.0321211
-0.0039774
-0.0342278
-0.00599222
-0.0352374
-0.00776974
-0.034829
-0.00919689
-0.0326957
-0.0101436
-0.0285534
-0.0104573
-0.0221704
-0.00997078
-0.0134139
-0.00848604
-0.00242973
-0.00588989
0.0112965
-0.00203453
0.0262034
0.00374108
0.0416348
0.0109152
0.0568339
0.0193356
0.0698186
0.0290248
0.0784982
0.0398885
0.080661
0.0515054
0.0746024
0.063308
0.0592913
0.0748268
0.0344267
0.0858401
0.000479518
0.0962512
-0.0385202
0.105581
-0.0766423
0.113133
-0.106982
0.118556
-0.125594
0.121982
-0.132444
0.123859
-0.129611
0.12463
-0.119747
0.124273
-0.104973
0.122286
-0.0878311
0.118556
-0.0703822
0.114178
-0.0537462
0.110958
-0.0367607
0.110179
-0.0188264
0.111846
-8.39533e-05
0.115366
0.0165196
0.119915
0.0294841
0.125133
0.0361907
0.130805
0.0367313
0.136834
0.0308426
0.142807
0.0211161
0.148341
0.00909571
0.152961
-0.00216362
0.15649
-0.0115739
0.158842
-0.0177664
0.160196
-0.0213702
0.160734
-0.0214061
0.16079
-0.0209305
0.16068
-0.01525
0.160579
-0.0137194
-0.00274263
0.0397162
6.50234e-05
0.0387692
-0.00148632
0.0376405
-0.0037539
0.0363165
-0.00646057
0.0347662
-0.00943361
0.032979
-0.0126869
0.0309526
-0.0161689
0.0286975
-0.019747
0.0262466
-0.0232588
0.0236486
-0.0265283
0.0208859
-0.0293584
0.0181022
-0.031444
0.0153967
-0.0325319
0.0129116
-0.032344
0.0108178
-0.0306019
0.00930652
-0.0270422
0.00857981
-0.0214437
0.00884055
-0.0136747
0.0102341
-0.00382329
0.012999
0.00853165
0.0172581
0.0219442
0.022916
0.035977
0.030065
0.0496849
0.0386051
0.0612785
0.0483586
0.0687448
0.0590063
0.0700133
0.0700435
0.0635651
0.0808904
0.0484444
0.0911917
0.0241254
0.100717
-0.00904557
0.109477
-0.0472807
0.116876
-0.0840407
0.122384
-0.11249
0.125931
-0.129141
0.127894
-0.134407
0.128816
-0.130533
0.129197
-0.120128
0.129223
-0.104999
0.128506
-0.0871136
0.126452
-0.0683281
0.123208
-0.0505027
0.119935
-0.0334874
0.118064
-0.0169557
0.118287
-0.000307393
0.120622
0.014185
0.124537
0.0255689
0.12962
0.0311077
0.135424
0.0309279
0.141579
0.0246872
0.147512
0.0151831
0.152793
0.0038147
0.15702
-0.00639077
0.160109
-0.0146629
0.16207
-0.0197273
0.163103
-0.0224029
0.163409
-0.0217128
0.163241
-0.0207623
0.162946
-0.0149551
0.162586
-0.0133596
-0.00295997
0.0673401
0.00116969
0.066186
-0.000332189
0.0649605
-0.0025284
0.0635452
-0.00504522
0.0619046
-0.00779308
0.0600224
-0.0108048
0.0578764
-0.0140228
0.0554595
-0.0173302
0.0527872
-0.0205865
0.0498842
-0.0236253
0.046775
-0.0262492
0.0435455
-0.0282145
0.0403014
-0.0292877
0.037192
-0.0292346
0.0344143
-0.0278242
0.0322026
-0.0248304
0.0308043
-0.0200454
0.0304528
-0.0133231
0.0313136
-0.00468418
0.0336334
0.00621193
0.0375081
0.0180695
0.0428891
0.0305959
0.0498014
0.0427726
0.0580896
0.0529903
0.0674655
0.0593688
0.0774848
0.059994
0.0876226
0.0534274
0.0973342
0.0387328
0.106303
0.0151564
0.114377
-0.0171195
0.12136
-0.0542638
0.126688
-0.0893681
0.130054
-0.115857
0.131707
-0.130794
0.132244
-0.134944
0.13226
-0.130549
0.132207
-0.120074
0.132334
-0.105126
0.132466
-0.0872461
0.131979
-0.0678406
0.130434
-0.0489576
0.128215
-0.0312686
0.126422
-0.0151628
0.126042
7.2229e-05
0.127559
0.0126683
0.130832
0.0222959
0.135511
0.0264292
0.141035
0.0254037
0.146862
0.0188597
0.152345
0.00970062
0.157069
-0.000909811
0.160709
-0.0100308
0.163268
-0.0172215
0.164825
-0.0212841
0.165582
-0.0231595
0.165743
-0.0218741
0.165476
-0.0204956
0.165131
-0.0146097
0.164665
-0.0128941
-0.00308064
0.0970968
0.00280458
0.0954569
0.00130775
0.0938689
-0.000940367
0.0920863
-0.0032626
0.0901282
-0.00583502
0.0879863
-0.00866282
0.0856141
-0.0116506
0.0829863
-0.0147024
0.0801047
-0.0177049
0.076983
-0.0205036
0.0736445
-0.0229107
0.0701411
-0.0247111
0.0665482
-0.0256948
0.0629792
-0.0256657
0.0596031
-0.024448
0.0566525
-0.0218799
0.0544081
-0.017801
0.0531596
-0.0120746
0.0531454
-0.00466995
0.0546566
0.00470075
0.0577998
0.0149262
0.0625644
0.0258314
0.0689055
0.0364315
0.0766028
0.0452929
0.0852893
0.0506823
0.0944703
0.050813
0.103601
0.0442972
0.112181
0.030152
0.119895
0.0074429
0.126519
-0.023744
0.131625
-0.0593692
0.134768
-0.0925115
0.135973
-0.117062
0.135814
-0.130635
0.135045
-0.134175
0.134259
-0.129763
0.133814
-0.119629
0.133912
-0.105223
0.134521
-0.0878554
0.135191
-0.0685103
0.135299
-0.0490665
0.13465
-0.0306187
0.133806
-0.0143193
0.133638
0.000239909
0.134867
0.0114394
0.137662
0.0195015
0.141819
0.022272
0.14679
0.0204325
0.151978
0.0136716
0.156753
0.00492587
0.160746
-0.00490292
0.163726
-0.0130107
0.16575
-0.019246
0.166944
-0.022478
0.167496
-0.0237112
0.167601
-0.0219791
0.167354
-0.0202484
0.167081
-0.0143374
0.166661
-0.0124733
-0.00321873
0.126516
0.0051913
0.124263
0.00356121
0.121992
0.00133035
0.11969
-0.000960641
0.117227
-0.00337242
0.114624
-0.00605943
0.111845
-0.00887187
0.108874
-0.0117314
0.105709
-0.0145395
0.102359
-0.0171538
0.0988474
-0.0193989
0.0952117
-0.0210753
0.0915052
-0.0219884
0.0877994
-0.0219599
0.0842004
-0.020849
0.0808749
-0.0185543
0.0780591
-0.0149852
0.0760418
-0.0100573
0.0751416
-0.00376974
0.0756019
0.00424047
0.0776913
0.0128368
0.0814672
0.0220555
0.0868703
0.0310284
0.0936449
0.0385183
0.101374
0.0429537
0.109535
0.0426519
0.117577
0.0362544
0.125033
0.0226967
0.131594
0.000882122
0.136783
-0.0289334
0.139982
-0.0625682
0.140907
-0.0934365
0.140023
-0.116178
0.138226
-0.128839
0.136341
-0.132289
0.134892
-0.128315
0.134133
-0.11887
0.134175
-0.105265
0.135027
-0.0887076
0.136428
-0.0699115
0.13783
-0.0504682
0.138746
-0.0315349
0.139251
-0.0148241
0.13988
-0.000389223
0.141323
0.00999579
0.143909
0.0169163
0.147586
0.0185946
0.151908
0.0161105
0.156324
0.00925601
0.160301
0.00094859
0.163532
-0.00813399
0.165883
-0.0153614
0.167442
-0.020805
0.168355
-0.0233911
0.168789
-0.0241456
0.168923
-0.0221128
0.168796
-0.0201218
0.1687
-0.014241
0.168455
-0.0122282
-0.00348431
0.151951
0.00809207
0.149238
0.00627411
0.146258
0.00431048
0.143217
0.00207982
0.140416
-0.000571288
0.13737
-0.00301311
0.134144
-0.0056463
0.130778
-0.00836542
0.127288
-0.0110493
0.123694
-0.0135599
0.120027
-0.0157316
0.116325
-0.0173736
0.112641
-0.0183042
0.109036
-0.0183543
0.105579
-0.017393
0.102371
-0.0153458
0.0995548
-0.0121691
0.0973192
-0.00782166
0.0958958
-0.00234633
0.0956373
0.00449897
0.0967526
0.0117215
0.0994126
0.0193955
0.10363
0.0268114
0.109205
0.0329425
0.115747
0.0364117
0.122733
0.0356659
0.129622
0.0293654
0.135932
0.016387
0.14133
-0.00451585
0.144881
-0.0324848
0.146066
-0.0637531
0.144856
-0.0922261
0.142095
-0.113416
0.138921
-0.125665
0.136154
-0.129523
0.134211
-0.126371
0.133234
-0.117893
0.133247
-0.105278
0.13424
-0.0896999
0.136068
-0.0717398
0.138343
-0.0527434
0.140532
-0.0337237
0.142383
-0.0166749
0.144085
-0.00209175
0.146083
0.00799805
0.148733
0.0142661
0.152078
0.0152494
0.155808
0.0123807
0.15948
0.00558389
0.16272
-0.0022907
0.165272
-0.0106867
0.167104
-0.0171931
0.168316
-0.022017
0.169056
-0.0241311
0.169468
-0.0245574
0.169707
-0.0223522
0.169782
-0.0201972
0.16994
-0.0143983
0.169973
-0.0122618
-0.00397378
0.169376
0.0108018
0.166543
0.00910763
0.163417
0.0074364
0.160127
0.00536953
0.156638
0.00291854
0.153546
7.83242e-05
0.150152
-0.00225266
0.146598
-0.00481114
0.142912
-0.00736291
0.139159
-0.00980678
0.135392
-0.0119649
0.131668
-0.0136496
0.128064
-0.0146998
0.124672
-0.0149627
0.121576
-0.0142971
0.11883
-0.0126001
0.116504
-0.00984238
0.114694
-0.0060126
0.11366
-0.00131205
0.113208
0.00495097
0.113864
0.0110656
0.115765
0.0174948
0.118971
0.0236056
0.123358
0.0285546
0.128639
0.0311308
0.134363
0.0299419
0.140011
0.0237181
0.14498
0.0114175
0.148965
-0.00850114
0.150744
-0.0342638
0.149884
-0.0628932
0.146765
-0.089107
0.142499
-0.10915
0.138251
-0.121417
0.134813
-0.126084
0.132494
-0.124053
0.131349
-0.116749
0.131336
-0.105265
0.132406
-0.0907696
0.134464
-0.0737976
0.13726
-0.0555397
0.140339
-0.0368029
0.143298
-0.0196335
0.146071
-0.00486502
0.148777
0.00529173
0.151697
0.0113465
0.154892
0.0120546
0.158178
0.00909457
0.161258
0.00250373
0.163894
-0.00492714
0.165936
-0.0127279
0.167406
-0.0186631
0.168413
-0.0230248
0.169097
-0.0248147
0.16958
-0.0250398
0.169992
-0.0227651
0.170332
-0.0205366
0.170798
-0.0148646
0.171184
-0.0126473
-0.00476439
0.176293
0.0126332
0.17383
0.0115702
0.171203
0.0100636
0.168413
0.00815988
0.165397
0.00593462
0.16194
0.00353442
0.158739
0.000949004
0.155399
-0.00147177
0.151876
-0.00383973
0.148278
-0.00620889
0.144671
-0.00835714
0.141141
-0.0101204
0.137788
-0.0113461
0.134703
-0.0118781
0.131978
-0.0115721
0.129706
-0.010328
0.127961
-0.00809694
0.126784
-0.00483622
0.126076
-0.000603525
0.126345
0.00468186
0.127238
0.0101727
0.12898
0.0157525
0.131658
0.0209275
0.135232
0.0249806
0.139476
0.026887
0.144004
0.0254135
0.148353
0.0193693
0.152085
0.00768553
0.154119
-0.0105353
0.153984
-0.0341286
0.151351
-0.0602594
0.14694
-0.0846962
0.141874
-0.104084
0.137108
-0.116651
0.133234
-0.122211
0.130549
-0.121367
0.129152
-0.115352
0.128998
-0.105111
0.130011
-0.0917831
0.132105
-0.0758911
0.135117
-0.0585515
0.138702
-0.0403877
0.142435
-0.0233664
0.146045
-0.00847546
0.14944
0.00189648
0.15272
0.00806714
0.155918
0.00885655
0.158938
0.0060744
0.161635
-0.000193131
0.16386
-0.0071521
0.165583
-0.0144514
0.166865
-0.0199454
0.167816
-0.0239756
0.168557
-0.0255561
0.169197
-0.025679
0.169841
-0.0234094
0.170491
-0.0211861
0.171302
-0.0156765
0.172086
-0.0134312
-0.00591223
0.194035
0.0141837
-0.195585
0.192972
0.0126334
0.191807
0.0112288
0.190517
0.00944926
0.18906
0.00739219
0.187453
0.00514127
0.185565
0.00283657
0.183413
0.000680684
0.181161
-0.00158832
0.178708
-0.00375517
0.176012
-0.00566201
0.173109
-0.00721667
0.170039
-0.00827635
0.166857
-0.00869587
0.163633
-0.00834812
0.160447
-0.00714272
0.15738
-0.00502969
0.154539
-0.00199488
0.152036
0.0018992
0.150149
0.00656863
0.148888
0.0114342
0.148487
0.0161537
0.149176
0.0202385
0.151158
0.0229983
0.154526
0.0235189
0.159178
0.0207613
0.164796
0.0137514
0.170769
0.00171295
0.176147
-0.015914
0.179796
-0.0377777
0.180888
-0.0613509
0.179375
-0.0831831
0.175781
-0.100491
0.170858
-0.111728
0.165364
-0.116717
0.15994
-0.115943
0.15505
-0.110462
0.150992
-0.101053
0.147945
-0.0887366
0.146021
-0.0739667
0.14526
-0.0577908
0.14557
-0.0406968
0.146718
-0.024515
0.148457
-0.010214
0.150549
-0.000195928
0.152842
0.00577419
0.155196
0.00650288
0.157376
0.00389399
0.159155
-0.00197217
0.16037
-0.00836695
0.16099
-0.0150711
0.161083
-0.0200387
0.160784
-0.0236769
0.160235
-0.025007
0.159572
-0.0250159
0.158919
-0.0227567
0.158306
-0.0205727
0.157873
-0.0152439
0.157468
-0.0130263
-0.00582279
0.206379
0.0147238
-0.206919
0.205777
0.0132356
0.205201
0.0118047
0.20443
0.0102205
0.203406
0.00841579
0.202107
0.00644031
0.200527
0.00441648
0.198802
0.00240559
0.196857
0.000356882
0.194636
-0.00153461
0.192191
-0.00321665
0.18956
-0.00458581