/*--------------------------------*- C++ -*----------------------------------*\
| =========                 |                                                 |
| \\      /  F ield         | OpenFOAM: The Open Source CFD Toolbox           |
|  \\    /   O peration     | Version:  2512                                  |
|   \\  /    A nd           | Website:  www.openfoam.com                      |
|    \\/     M anipulation  |                                                 |
\*---------------------------------------------------------------------------*/
FoamFile
{
    version     2.0;
    format      ascii;
    arch        "LSB;label=32;scalar=64";
    class       volVectorField;
    location    "172.75";
    object      U;
}
// * * * * * * * * * * * * * * * * * * * * * * * * * * * * * * * * * * * * * //

dimensions      [0 1 -1 0 0 0 0];

internalField   nonuniform List<vector> 
13248
(
(-0.0106851 0.00964246 7.08116e-20)
(-0.0173228 0.0168838 0)
(-0.011366 0.0168871 -1.3468e-19)
(0.00642363 0.012725 1.26873e-19)
(0.0358221 0.0065422 1.19088e-19)
(0.0767556 -0.000152666 0)
(0.12908 -0.00629415 0)
(0.192375 -0.0111274 2.83993e-19)
(0.265775 -0.0141229 -3.45624e-21)
(0.347862 -0.0149364 -2.44245e-19)
(0.436653 -0.0133995 2.19687e-19)
(0.529682 -0.00952033 -1.36803e-19)
(0.624169 -0.00348147 0)
(0.717234 0.00437529 -2.15915e-19)
(0.806132 0.0135796 3.96579e-19)
(0.888463 0.0235757 -9.32485e-20)
(0.96233 0.0337753 -1.5501e-19)
(1.02644 0.0435964 1.45517e-19)
(1.08014 0.0525566 0)
(1.12337 0.0601131 0)
(1.15671 0.0663287 0)
(1.18083 0.0698757 0)
(1.19783 0.0733769 4.00158e-20)
(1.20749 0.0703073 1.42079e-19)
(-0.0104223 0.00870171 -2.13992e-19)
(-0.012926 0.0144211 1.46312e-19)
(0.00123476 0.0139422 -1.0057e-21)
(0.0307136 0.00999457 -1.93751e-19)
(0.0748095 0.00465297 -1.18955e-19)
(0.132937 -0.000518104 -1.12241e-19)
(0.20425 -0.00440579 -2.05378e-19)
(0.287374 -0.00625915 1.93973e-19)
(0.380234 -0.00563358 0)
(0.480026 -0.0023691 2.1375e-21)
(0.583346 0.00342356 4.65016e-21)
(0.686465 0.0113899 1.37019e-19)
(0.785676 0.0209805 0)
(0.877642 0.0315208 0)
(0.95969 0.0422915 1.43953e-19)
(1.03 0.0526084 -2.70041e-19)
(1.08769 0.061889 1.54348e-19)
(1.13278 0.0696952 -1.44906e-19)
(1.16606 0.075763 -6.25515e-20)
(1.18897 0.0799574 -1.09329e-19)
(1.2032 0.0824074 -4.44537e-20)
(1.21096 0.0828654 -8.23548e-20)
(1.2135 0.0827893 1.23228e-19)
(1.21358 0.0786845 3.52303e-20)
(-0.00890512 0.00697007 0)
(-0.00465111 0.0100641 0)
(0.0204132 0.0086569 6.8557e-20)
(0.0643428 0.00508613 6.3299e-20)
(0.12581 0.00128427 -1.51385e-21)
(0.203398 -0.00122418 -1.15293e-19)
(0.295085 -0.00141781 0)
(0.397977 0.00126011 -9.61027e-20)
(0.508264 0.00693781 8.91475e-20)
(0.621419 0.0153488 3.72596e-22)
(0.732614 0.0258958 -1.48292e-19)
(0.837243 0.0377533 -1.32139e-19)
(0.931423 0.0499963 4.94511e-21)
(1.01237 0.0617315 -1.02195e-19)
(1.07857 0.0722093 2.50265e-19)
(1.12981 0.080897 0)
(1.16701 0.0875103 -1.52756e-19)
(1.19193 0.0919959 7.42066e-20)
(1.20685 0.0945045 6.24962e-20)
(1.21421 0.0952607 0)
(1.21637 0.0947169 4.95767e-20)
(1.21529 0.0927971 -1.70892e-19)
(1.21227 0.0909658 1.60421e-19)
(1.2095 0.0861194 1.00323e-19)
(-0.00590799 0.00469883 -7.56229e-20)
(0.00823311 0.00453568 -7.81089e-20)
(0.047342 0.00222584 7.08568e-20)
(0.108714 -0.000352043 0)
(0.190064 -0.0015119 0)
(0.288627 7.06904e-05 -1.92348e-21)
(0.400573 0.00509115 0)
(0.520918 0.0136211 -2.90638e-19)
(0.643812 0.0251777 2.68287e-19)
(0.763152 0.0388425 -3.28854e-19)
(0.873331 0.0534401 7.41375e-20)
(0.969926 0.0677493 0)
(1.05014 0.0806983 1.18195e-19)
(1.11295 0.0915057 -2.16899e-19)
(1.15896 0.0997467 5.13522e-20)
(1.19005 0.105344 1.25858e-19)
(1.20888 0.108502 -8.20303e-21)
(1.21842 0.109604 -1.39706e-19)
(1.22151 0.109109 0)
(1.22056 0.107452 0)
(1.21739 0.105048 -4.75659e-20)
(1.2132 0.101953 4.22569e-20)
(1.20871 0.0991762 1.48436e-19)
(1.20457 0.0939953 -1.39347e-19)
(-0.00113808 0.0021245 -7.94217e-20)
(0.0264932 -0.00137739 -7.91603e-20)
(0.0830664 -0.00398365 2.22775e-19)
(0.164781 -0.00442405 -1.35243e-19)
(0.267852 -0.00145027 1.27301e-19)
(0.387469 0.00579439 2.30914e-19)
(0.517361 0.0173369 -1.62635e-19)
(0.650154 0.0324185 -1.95446e-19)
(0.778232 0.0497034 5.51301e-21)
(0.894797 0.0675694 2.48112e-19)
(0.994787 0.0844292 0)
(1.0754 0.0990056 6.63467e-20)
(1.13616 0.110498 0)
(1.17851 0.118622 -1.04298e-19)
(1.20527 0.123537 1.46028e-19)
(1.21989 0.125706 8.99181e-22)
(1.22583 0.125738 -3.72566e-20)
(1.22614 0.124242 6.78137e-20)
(1.22318 0.121738 5.86734e-20)
(1.21857 0.118609 -5.20459e-20)
(1.21332 0.115126 4.75547e-20)
(1.208 0.111322 -4.22467e-20)
(1.20279 0.107796 0)
(1.19817 0.10244 -3.22122e-20)
(0.00574509 -0.000505612 7.94103e-20)
(0.0508334 -0.00681819 8.3117e-20)
(0.128273 -0.00850338 -7.45753e-20)
(0.232661 -0.00518005 1.38626e-19)
(0.357988 0.00363394 -1.30478e-19)
(0.49669 0.0179309 1.17484e-19)
(0.639717 0.0366673 -5.6388e-20)
(0.777649 0.0579858 1.46969e-19)
(0.902174 0.0796808 -9.2122e-20)
(1.00735 0.099683 1.60352e-19)
(1.09022 0.11644 -3.68061e-19)
(1.15078 0.129108 1.34546e-19)
(1.19129 0.137546 -1.14939e-19)
(1.21545 0.142159 1.07961e-19)
(1.22739 0.143672 9.08861e-20)
(1.23101 0.142902 7.81327e-20)
(1.22949 0.140596 -2.17797e-19)
(1.22514 0.137341 1.34361e-19)
(1.21948 0.133542 -5.86755e-20)
(1.21343 0.12945 1.51713e-19)
(1.20743 0.125206 -4.9033e-20)
(1.20169 0.120841 -1.17704e-19)
(1.19629 0.116666 1.08384e-19)
(1.19134 0.111194 3.22022e-20)
(0.0150745 -0.00289851 0)
(0.0817464 -0.0108434 5.84857e-22)
(0.183046 -0.00983559 1.55073e-19)
(0.311335 -0.000816628 -1.45561e-19)
(0.457627 0.0154482 -1.30887e-19)
(0.611168 0.0376109 2.42895e-19)
(0.76045 0.063238 -1.12626e-19)
(0.895187 0.0893685 1.48849e-19)
(1.00809 0.113261 -3.85229e-21)
(1.09573 0.132945 -8.36305e-20)
(1.15837 0.147454 1.79565e-19)
(1.199 0.156761 -2.64021e-19)
(1.22212 0.161512 0)
(1.23259 0.162696 -5.06754e-20)
(1.23471 0.161349 -1.33301e-19)
(1.23188 0.158365 4.22143e-20)
(1.22645 0.154413 1.93253e-21)
(1.21992 0.149939 -8.84857e-20)
(1.21313 0.145209 6.65962e-21)
(1.20651 0.140369 1.01837e-19)
(1.20024 0.135492 -4.45441e-20)
(1.19435 0.130612 -1.67777e-20)
(1.18882 0.125829 5.22055e-20)
(1.18366 0.120259 0)
(0.0271023 -0.00469157 0)
(0.119351 -0.0124214 4.20455e-20)
(0.246672 -0.00652604 -2.02056e-19)
(0.398545 0.0101533 7.33144e-20)
(0.562474 0.0350194 -6.9001e-20)
(0.724702 0.0649683 -6.2721e-20)
(0.872439 0.0961336 -1.104e-19)
(0.996365 0.124829 5.54171e-20)
(1.09199 0.148411 4.78746e-20)
(1.15948 0.165625 0)
(1.2024 0.176482 1.06532e-19)
(1.22608 0.181856 -1.57332e-19)
(1.23611 0.183021 1.16802e-19)
(1.23738 0.181267 5.07014e-20)
(1.2336 0.177672 -4.08592e-20)
(1.22728 0.173022 -3.33473e-20)
(1.21996 0.167829 -3.07505e-20)
(1.21249 0.162392 9.3627e-20)
(1.20527 0.156875 0)
(1.19848 0.15136 4.58646e-20)
(1.19215 0.145884 3.7893e-20)
(1.18622 0.140471 -9.48508e-20)
(1.18065 0.135104 -6.39587e-20)
(1.17536 0.12941 5.91502e-20)
(0.0419294 -0.00545288 -4.52626e-20)
(0.163258 -0.0104735 -1.59403e-21)
(0.317556 0.00272862 4.10499e-20)
(0.490933 0.0287469 1.14295e-19)
(0.667384 0.0625954 3.29927e-20)
(0.831179 0.0992567 -6.389e-20)
(0.970115 0.133799 5.83538e-20)
(1.07775 0.162518 -5.09236e-20)
(1.15357 0.183573 9.06531e-20)
(1.20143 0.196862 3.81646e-20)
(1.22746 0.203453 -1.08398e-19)
(1.23818 0.204941 3.1646e-20)
(1.23921 0.202937 5.33413e-20)
(1.23477 0.198767 -2.63634e-20)
(1.22767 0.193383 0)
(1.21959 0.187397 3.82291e-20)
(1.21141 0.181161 6.3862e-20)
(1.20358 0.174865 1.03241e-20)
(1.19624 0.168603 -5.27512e-20)
(1.18942 0.162419 2.1767e-20)
(1.1831 0.156337 0)
(1.1772 0.150358 -1.68063e-20)
(1.17163 0.144432 -1.57741e-20)
(1.16628 0.138551 0)
(0.0594463 -0.00470909 0)
(0.212496 -0.0039671 2.36956e-20)
(0.393265 0.0189425 4.37291e-20)
(0.584399 0.0553972 -1.16335e-19)
(0.767155 0.097686 3.75428e-20)
(0.92562 0.139146 0)
(1.05024 0.17453 5.59141e-20)
(1.13883 0.200939 -7.79672e-20)
(1.19506 0.217865 -4.52131e-20)
(1.22579 0.226482 2.03622e-20)
(1.2386 0.228747 -3.19711e-20)
(1.24014 0.22668 7.79434e-20)
(1.23538 0.221953 3.84289e-20)
(1.22761 0.215762 -2.70431e-20)
(1.21876 0.208865 -2.85293e-21)
(1.20985 0.201695 -7.16558e-20)
(1.20135 0.194481 3.24781e-20)
(1.19343 0.187336 -8.2534e-22)
(1.18612 0.180313 0)
(1.17938 0.173438 -2.17897e-20)
(1.17315 0.166721 0)
(1.16733 0.160141 4.82881e-20)
(1.16182 0.153678 -5.7137e-20)
(1.15649 0.147517 2.59198e-20)
(0.0792945 -0.0019887 -1.23027e-20)
(0.265499 0.00797413 -5.94558e-20)
(0.470703 0.0427146 6.75471e-20)
(0.674589 0.0899129 3.95861e-20)
(0.857242 0.139219 -1.89515e-20)
(1.00472 0.183055 3.15871e-20)
(1.11178 0.216815 -1.53889e-20)
(1.181 0.239091 2.54135e-20)
(1.21967 0.250938 0)
(1.23658 0.254676 5.67892e-20)
(1.23971 0.252849 -2.56155e-21)
(1.23512 0.247615 -4.54117e-20)
(1.22686 0.240525 1.9246e-20)
(1.21727 0.232561 -2.1449e-20)
(1.20759 0.224281 -7.93263e-21)
(1.19837 0.215974 9.40764e-21)
(1.18981 0.207778 -7.10005e-21)
(1.18197 0.199758 -3.81767e-20)
(1.17479 0.191944 2.33465e-20)
(1.16822 0.18435 4.69446e-21)
(1.16215 0.176968 4.09258e-21)
(1.15647 0.169771 3.56881e-21)
(1.15108 0.162799 0)
(1.14582 0.156242 0)
(0.100929 0.00314039 1.23112e-20)
(0.320323 0.0259797 -1.2303e-20)
(0.546553 0.0741459 -2.24813e-20)
(0.75754 0.131523 0)
(0.9343 0.185759 -9.38987e-21)
(1.06686 0.229435 -8.41014e-21)
(1.15523 0.25949 -1.43409e-20)
(1.20643 0.276413 0)
(1.23042 0.282771 0)
(1.23682 0.281743 0)
(1.23323 0.276158 0)
(1.22479 0.268093 0)
(1.21455 0.258877 -1.20303e-20)
(1.20408 0.249262 5.46201e-21)
(1.19411 0.239633 9.39155e-21)
(1.1849 0.230171 4.3772e-21)
(1.17648 0.220955 1.06729e-20)
(1.16885 0.212016 0)
(1.16193 0.203371 -2.48697e-21)
(1.15562 0.195023 -2.36703e-21)
(1.14981 0.186948 -4.0991e-21)
(1.14439 0.179128 -3.57451e-21)
(1.13922 0.171665 0)
(1.13417 0.164594 2.48247e-21)
(0.000313943 -0.0479436 9.16164e-21)
(-0.00285769 -0.112358 -9.50813e-21)
(-0.0118016 -0.154006 -1.7993e-20)
(-0.0242784 -0.178441 0)
(-0.0387781 -0.190502 -2.41925e-20)
(-0.0543708 -0.194231 7.67634e-21)
(-0.0703715 -0.192692 -1.4295e-20)
(-0.0862971 -0.18794 0)
(-0.101835 -0.181132 0)
(-0.116784 -0.172718 0)
(-0.131007 -0.162664 0)
(-0.144392 -0.150654 0)
(-0.15683 -0.136244 3.46527e-22)
(-0.168202 -0.118969 -9.84829e-21)
(-0.178377 -0.0984107 1.7992e-20)
(-0.18721 -0.0742329 2.57423e-20)
(-0.194518 -0.0462091 7.56311e-21)
(-0.200005 -0.014241 0)
(-0.203593 0.0216506 7.29437e-21)
(-0.205227 0.0611319 -1.96881e-20)
(-0.204668 0.103721 -1.18798e-20)
(-0.201764 0.148753 -1.09426e-20)
(-0.196615 0.195475 0)
(-0.190159 0.242938 0)
(0.00248558 -0.0431326 -2.7236e-20)
(0.00121029 -0.100669 4.71808e-20)
(-0.0079859 -0.137607 -1.73639e-20)
(-0.0217489 -0.158964 -3.3476e-20)
(-0.0379581 -0.169192 4.75482e-20)
(-0.0553811 -0.172008 -2.98067e-20)
(-0.0731754 -0.170202 4.2329e-20)
(-0.0907944 -0.165622 2.60346e-20)
(-0.107921 -0.159289 0)
(-0.124377 -0.15158 -2.409e-20)
(-0.140055 -0.142438 -8.99216e-23)
(-0.154866 -0.131558 2.13911e-20)
(-0.168711 -0.118526 2.91802e-20)
(-0.181468 -0.102918 3.68344e-20)
(-0.192985 -0.0843564 -1.80757e-20)
(-0.203075 -0.0625398 -4.92838e-20)
(-0.211509 -0.037257 1.41815e-20)
(-0.218003 -0.00841914 -5.47744e-20)
(-0.222341 0.0238207 0)
(-0.224347 0.0593041 1.28253e-20)
(-0.22375 0.0976696 1.18655e-20)
(-0.220202 0.138414 1.09291e-20)
(-0.213611 0.181037 0)
(-0.20591 0.22503 0)
(0.00396822 -0.0370544 0)
(0.00397409 -0.0865436 9.07185e-20)
(-0.00534757 -0.118486 -3.43247e-20)
(-0.0198225 -0.136967 3.29324e-20)
(-0.0368755 -0.145779 -9.14789e-20)
(-0.0550418 -0.148154 0)
(-0.0733525 -0.146518 -5.43484e-20)
(-0.0912041 -0.142476 2.51078e-20)
(-0.108265 -0.136911 -4.72227e-20)
(-0.124364 -0.13015 2.11966e-20)
(-0.139408 -0.122134 1.25689e-19)
(-0.153316 -0.112594 -5.89335e-20)
(-0.165998 -0.101164 -9.25572e-20)
(-0.177327 -0.0874748 -3.26421e-20)
(-0.187136 -0.0712017 7.95004e-22)
(-0.195203 -0.052089 1.1823e-19)
(-0.201255 -0.0299697 -5.50739e-20)
(-0.205057 -0.00480712 2.71713e-21)
(-0.206338 0.0233021 0)
(-0.204784 0.0542176 -3.93901e-20)
(-0.200123 0.0876815 0)
(-0.191864 0.123366 -3.56944e-20)
(-0.179377 0.160938 1.24794e-19)
(-0.164917 0.20018 -1.72555e-21)
(0.00462965 -0.0301962 0)
(0.00518699 -0.0709981 -8.09853e-22)
(-0.00418129 -0.0978987 3.32086e-20)
(-0.0188275 -0.113786 -3.12904e-20)
(-0.0359072 -0.121616 3.02193e-20)
(-0.0538083 -0.124019 1.67853e-19)
(-0.0714749 -0.123002 -5.28138e-20)
(-0.088255 -0.119902 -4.88734e-20)
(-0.103794 -0.115462 9.28972e-20)
(-0.117913 -0.10996 -1.30562e-19)
(-0.130513 -0.103354 3.98405e-20)
(-0.141518 -0.0954162 3.67991e-20)
(-0.150832 -0.0858397 0)
(-0.158328 -0.0743129 3.32824e-20)
(-0.163835 -0.060564 0)
(-0.167137 -0.0443914 5.24595e-20)
(-0.167992 -0.025688 -9.77605e-20)
(-0.166131 -0.00445695 2.69321e-20)
(-0.161254 0.0192483 8.32377e-20)
(-0.153054 0.0452737 3.93505e-20)
(-0.141288 0.0734189 0)
(-0.125602 0.103527 -8.96262e-20)
(-0.104849 0.135701 2.95363e-20)
(-0.0792206 0.170469 0)
(0.00442345 -0.0230202 0)
(0.004754 -0.0549722 -1.04567e-19)
(-0.00463448 -0.0769703 -3.28877e-20)
(-0.0189763 -0.0905868 -6.20328e-20)
(-0.0353526 -0.0978472 5.84154e-20)
(-0.0520996 -0.100726 -5.5526e-20)
(-0.0681217 -0.100775 1.02766e-19)
(-0.0827362 -0.0990476 4.82782e-20)
(-0.0955647 -0.0961424 -1.36036e-19)
(-0.106411 -0.0922876 8.33217e-20)
(-0.115167 -0.0874527 -1.17199e-19)
(-0.121749 -0.0814537 2.4912e-19)
(-0.126063 -0.0740397 -1.33962e-19)
(-0.127989 -0.064954 5.94713e-20)
(-0.127369 -0.0539758 1.63518e-19)
(-0.124013 -0.0409482 -5.59676e-20)
(-0.117705 -0.0257963 -4.78114e-20)
(-0.108203 -0.00852645 -4.44217e-20)
(-0.0952394 0.010771 0)
(-0.0785346 0.0319203 -6.37437e-20)
(-0.05785 0.0546942 -5.31872e-20)
(-0.0328834 0.0789614 8.16655e-20)
(-0.00235384 0.105161 9.15065e-20)
(0.0348741 0.134642 -8.33488e-20)
(0.00338385 -0.015927 0)
(0.00274112 -0.039273 -1.36533e-19)
(-0.00665747 -0.0566487 2.17806e-22)
(-0.0202582 -0.0683162 1.22075e-19)
(-0.0352544 -0.0753591 0)
(-0.0500292 -0.079083 0)
(-0.0635013 -0.0805775 0)
(-0.0749832 -0.0806089 -4.7108e-20)
(-0.0840814 -0.0796212 9.84129e-22)
(-0.090583 -0.0777852 8.21698e-20)
(-0.0943672 -0.0750725 -1.13121e-19)
(-0.0953472 -0.071333 1.10665e-21)
(-0.093436 -0.0663607 0)
(-0.0885297 -0.0599434 -5.94454e-20)
(-0.0805021 -0.0518978 4.92139e-20)
(-0.0692058 -0.0420948 -1.43481e-19)
(-0.0544751 -0.0304743 1.68835e-19)
(-0.0361282 -0.0170522 3.03785e-20)
(-0.0139677 -0.00193172 -7.88467e-21)
(0.0122133 0.0146924 -1.22965e-19)
(0.0426028 0.0325376 -5.06698e-20)
(0.0773818 0.0513026 1.58287e-19)
(0.117192 0.0711466 -1.01573e-19)
(0.167783 0.0935255 0)
(0.00161951 -0.00925246 6.50518e-20)
(-0.000615605 -0.0245745 6.80344e-20)
(-0.00995316 -0.037708 -6.40612e-20)
(-0.0223341 -0.047711 -1.20961e-19)
(-0.035227 -0.0547797 1.13904e-19)
(-0.0471506 -0.0595773 -1.06486e-19)
(-0.0570897 -0.062746 1.49986e-19)
(-0.0643775 -0.0647665 -4.6705e-20)
(-0.068615 -0.0659229 8.70767e-20)
(-0.0695737 -0.0663149 0)
(-0.0671189 -0.0658992 7.13001e-20)
(-0.0611589 -0.0645409 -1.35714e-19)
(-0.0516157 -0.0620611 1.21566e-19)
(-0.0384107 -0.0582748 -1.14177e-19)
(-0.0214596 -0.0530207 0)
(-0.000673279 -0.0461824 9.1215e-20)
(0.0240408 -0.0377036 1.55892e-19)
(0.0527755 -0.0276015 -1.4792e-19)
(0.0856232 -0.0159772 -6.22638e-20)
(0.122677 -0.00302236 -5.31311e-20)
(0.16398 0.0109668 1.51866e-19)
(0.210018 0.0256259 3.86762e-20)
(0.258164 0.0405273 -3.88869e-20)
(0.325638 0.0564037 3.27782e-20)
(-0.00069084 -0.00327863 -6.50606e-20)
(-0.00490726 -0.0114445 2.03161e-19)
(-0.0139538 -0.0207894 -6.36088e-20)
(-0.0244865 -0.0293545 1.20509e-19)
(-0.034373 -0.036554 -1.13478e-19)
(-0.0423332 -0.0424654 3.77322e-22)
(-0.0474542 -0.0473132 4.98499e-20)
(-0.0491057 -0.0513031 1.83315e-19)
(-0.0468843 -0.0545531 -2.63967e-21)
(-0.0405409 -0.057075 -8.08118e-20)
(-0.0299209 -0.0587879 0)
(-0.0149259 -0.0595481 -6.40706e-20)
(0.00450671 -0.0591807 1.23295e-19)
(0.0284136 -0.0575084 1.07466e-19)
(0.056807 -0.0543765 -5.18482e-20)
(0.089674 -0.0496731 -9.07217e-22)
(0.126975 -0.0433444 -3.98546e-20)
(0.168643 -0.03541 6.89845e-20)
(0.214582 -0.0259717 6.22476e-20)
(0.264715 -0.0152066 -5.4704e-20)
(0.318485 -0.00349507 4.71139e-20)
(0.378033 0.00915543 -4.1492e-20)
(0.433176 0.0213885 0)
(0.520663 0.034191 -3.27356e-20)
(-0.00330066 0.00174656 6.53562e-20)
(-0.00956311 -0.000381425 -6.77316e-20)
(-0.0178417 -0.00645789 6.43892e-20)
(-0.0256525 -0.0137584 0)
(-0.0313371 -0.0210585 0)
(-0.0338497 -0.0279279 1.06225e-19)
(-0.0323962 -0.0342174 -9.96776e-20)
(-0.0263889 -0.0398715 9.0988e-20)
(-0.0154209 -0.0448379 -4.27757e-19)
(0.000772928 -0.0490244 1.29956e-21)
(0.0223504 -0.0522911 7.25246e-20)
(0.0493808 -0.0544629 0)
(0.081852 -0.0553507 -1.18032e-19)
(0.119671 -0.0547741 2.17181e-19)
(0.162664 -0.0525842 -1.48913e-19)
(0.210576 -0.0486832 -2.13625e-19)
(0.263075 -0.0430406 8.78082e-21)
(0.319762 -0.0357063 1.41077e-19)
(0.380156 -0.0268288 0)
(0.443964 -0.0165525 0)
(0.509388 -0.00556709 -4.71052e-20)
(0.581218 0.00690146 4.14839e-20)
(0.64023 0.0179604 -1.44487e-19)
(0.741742 0.0311712 1.35538e-19)
(-0.00590935 0.00562641 0)
(-0.0138826 0.00819539 0)
(-0.020616 0.00478056 -1.93674e-19)
(-0.0245355 -0.00141481 6.1409e-20)
(-0.0244826 -0.0086949 4.9986e-22)
(-0.0196577 -0.016215 1.07915e-19)
(-0.00939153 -0.0235031 0)
(0.00684535 -0.0302639 -9.30271e-20)
(0.0294271 -0.0362782 8.57298e-20)
(0.0585738 -0.0413423 -1.56707e-19)
(0.0943502 -0.0452459 1.67352e-21)
(0.13666 -0.0477752 1.30318e-19)
(0.185237 -0.0487292 -4.40331e-21)
(0.239647 -0.0479402 1.01741e-19)
(0.299291 -0.0452957 -1.50695e-19)
(0.363429 -0.0407571 0)
(0.431204 -0.0343739 1.50999e-19)
(0.501685 -0.0262884 -2.1043e-19)
(0.573838 -0.0167688 6.14329e-20)
(0.647016 -0.00598982 0)
(0.718615 0.0050828 4.85143e-20)
(0.793887 0.0176301 1.67061e-19)
(0.852111 0.0277524 -1.56777e-19)
(0.948715 0.0413648 -1.73402e-19)
(-0.00820406 0.00823582 2.00951e-19)
(-0.0171174 0.0139786 -2.77381e-19)
(-0.0212029 0.0125156 1.29509e-22)
(-0.0197641 0.00723745 6.19467e-20)
(-0.0121274 0.000138337 -1.15984e-19)
(0.00225688 -0.00762259 -1.07416e-19)
(0.0239005 -0.0153073 1.99863e-19)
(0.0532113 -0.022415 -3.3238e-21)
(0.0904198 -0.028576 -1.74234e-19)
(0.135535 -0.0334841 3.16531e-19)
(0.188308 -0.0368712 -4.31752e-21)
(0.248206 -0.0385092 -1.35161e-19)
(0.314411 -0.038225 0)
(0.38584 -0.0359197 0)
(0.461195 -0.0315877 -4.8901e-20)
(0.539027 -0.0253284 -8.80712e-20)
(0.617816 -0.0173489 -1.52553e-19)
(0.696054 -0.0079618 1.43194e-19)
(0.772289 0.00243208 -6.14507e-20)
(0.845384 0.0134208 1.0748e-19)
(0.913476 0.0242697 -5.34318e-20)
(0.978843 0.0353646 8.23944e-20)
(1.02964 0.0439808 -2.01878e-19)
(1.10065 0.0550189 3.50897e-20)
(-0.00988187 0.00954511 6.78126e-20)
(-0.0185106 0.0168406 0)
(-0.0185063 0.0165338 1.32593e-19)
(-0.00995568 0.0119489 -1.24911e-19)
(0.00736227 0.005217 1.16082e-19)
(0.0337268 -0.00228591 0)
(0.0694094 -0.00962336 0)
(0.114543 -0.0161372 -9.30607e-20)
(0.168991 -0.0213431 3.26288e-21)
(0.232257 -0.0248719 8.21589e-20)
(0.303432 -0.0264509 -7.15663e-20)
(0.381183 -0.0259078 1.36025e-19)
(0.463805 -0.0231833 0)
(0.549314 -0.0183437 2.15003e-19)
(0.635573 -0.0115843 -3.94888e-19)
(0.720437 -0.00322251 2.69329e-19)
(0.801896 0.00632522 1.54191e-19)
(0.878182 0.0165551 -1.44739e-19)
(0.94788 0.0269771 0)
(1.00991 0.0369365 0)
(1.06373 0.0462214 0)
(1.1093 0.0538874 0)
(1.14492 0.0601577 4.00575e-20)
(1.18191 0.0653631 -1.45991e-19)
(-0.182662 0.297389 -6.65669e-21)
(-0.17067 0.36112 6.67723e-21)
(-0.154673 0.42147 -1.75753e-22)
(-0.135081 0.474643 0)
(-0.110986 0.516713 -4.9479e-21)
(-0.0809076 0.543662 9.43323e-21)
(-0.0428756 0.550881 -8.22581e-23)
(0.00502524 0.53392 -4.28879e-21)
(0.0634928 0.488714 0)
(0.131766 0.414117 0)
(0.207143 0.311812 -2.85762e-22)
(0.285524 0.186667 -2.89768e-22)
(0.363054 0.0439279 -4.64248e-21)
(0.437574 -0.110065 4.23308e-21)
(0.507785 -0.264236 0)
(0.570682 -0.401356 0)
(0.621803 -0.503223 2.43215e-21)
(0.657637 -0.561172 -4.5527e-22)
(0.67718 -0.579995 -1.74899e-21)
(0.682992 -0.571454 -8.38597e-23)
(0.67894 -0.549488 0)
(0.663704 -0.531523 0)
(0.632473 -0.529677 0)
(0.589093 -0.531384 0)
(0.552626 -0.495983 0)
(0.545447 -0.38469 0)
(0.573432 -0.199059 6.17673e-22)
(0.625445 0.017701 -9.65591e-22)
(0.685319 0.211408 0)
(0.739523 0.349586 0)
(0.779294 0.426468 -4.08259e-22)
(0.805117 0.455281 3.96779e-22)
(0.81866 0.457532 1.47331e-22)
(0.813773 0.464992 0)
(0.784857 0.486435 0)
(0.741733 0.488412 3.3305e-22)
(0.709484 0.417908 -3.23748e-22)
(0.705687 0.254041 0)
(0.72761 0.0463104 4.02411e-22)
(0.765253 -0.150875 -5.85697e-22)
(0.802507 -0.279721 1.55002e-22)
(0.835223 -0.355343 0)
(0.845822 -0.384951 -1.74047e-22)
(0.823488 -0.411151 1.69244e-22)
(0.777648 -0.412617 0)
(0.735823 -0.346715 0)
(0.726849 -0.220282 -8.5717e-23)
(0.752765 -0.0219077 2.38902e-22)
(0.793602 0.112523 0)
(0.824 0.254226 0)
(0.819415 0.318965 -4.99467e-23)
(0.788557 0.368061 7.21613e-25)
(0.771576 0.352089 -8.25982e-25)
(0.776798 0.192304 4.71011e-23)
(0.80105 0.102753 0)
(0.817289 -0.139477 0)
(0.810708 -0.221881 0)
(0.799476 -0.315556 0)
(0.80021 -0.361054 0)
(0.785842 -0.0777469 0)
(-0.199655 0.276321 -5.47388e-22)
(-0.18262 0.335893 -2.20309e-20)
(-0.159283 0.391836 9.85657e-22)
(-0.129585 0.4407 1.97607e-20)
(-0.0923072 0.477461 2.77671e-22)
(-0.046441 0.498384 0)
(0.00885536 0.499109 -1.74929e-20)
(0.0739559 0.475644 3.52651e-20)
(0.147838 0.425314 -1.77786e-20)
(0.228267 0.348092 1.90839e-20)
(0.311585 0.24615 -1.82612e-20)
(0.39376 0.123669 1.92299e-20)
(0.471747 -0.0150899 -1.87215e-20)
(0.544586 -0.16471 -5.83769e-22)
(0.61092 -0.314026 -1.55821e-20)
(0.666478 -0.444042 1.51422e-20)
(0.706047 -0.535562 -1.03844e-20)
(0.72741 -0.581042 9.80607e-21)
(0.731936 -0.587989 -6.37428e-21)
(0.723566 -0.570581 1.1216e-20)
(0.707686 -0.541705 -4.89803e-21)
(0.685123 -0.515512 -2.42099e-22)
(0.650022 -0.504988 -3.93792e-21)
(0.601005 -0.504381 8.06339e-21)
(0.552524 -0.479013 -4.11706e-21)
(0.528734 -0.387009 2.88653e-22)
(0.54243 -0.220247 5.80132e-21)
(0.586788 -0.0146482 7.69821e-23)
(0.645512 0.177323 -9.84433e-21)
(0.703267 0.321381 8.30512e-21)
(0.750408 0.406815 -3.68252e-21)
(0.785492 0.443721 3.22472e-22)
(0.807376 0.454419 -1.4764e-22)
(0.807936 0.471559 2.74305e-22)
(0.78371 0.500704 0)
(0.747295 0.503603 0)
(0.723454 0.426614 -1.69916e-21)
(0.727117 0.253119 1.18718e-21)
(0.752908 0.0372768 1.27682e-21)
(0.790542 -0.163635 -3.4423e-23)
(0.822398 -0.29177 -1.58709e-21)
(0.849214 -0.362308 2.49086e-22)
(0.854988 -0.383084 0)
(0.830846 -0.400375 0)
(0.782168 -0.39902 0)
(0.736238 -0.338795 0)
(0.724431 -0.222854 2.84273e-22)
(0.747915 -0.0319062 -1.55685e-22)
(0.789818 0.102022 0)
(0.818436 0.250481 0)
(0.815222 0.322741 0)
(0.784323 0.373787 -9.80443e-23)
(0.768759 0.353762 -9.83766e-24)
(0.777177 0.188835 -8.98998e-23)
(0.803561 0.0982926 0)
(0.824622 -0.140076 0)
(0.816195 -0.220538 5.27933e-23)
(0.805138 -0.314158 1.24967e-22)
(0.803954 -0.359782 0)
(0.787 -0.0763266 0)
(-0.155603 0.247267 -8.31167e-22)
(-0.134499 0.301551 -3.88912e-20)
(-0.104747 0.351788 3.67475e-20)
(-0.0674145 0.394462 -3.44089e-20)
(-0.0215235 0.425526 -2.7957e-22)
(0.0347096 0.441123 0)
(0.100536 0.437166 -3.57615e-20)
(0.174913 0.410194 3.50506e-20)
(0.25591 0.358465 2.86347e-22)
(0.340625 0.282381 6.10884e-22)
(0.425395 0.184274 6.337e-22)
(0.506732 0.0675662 6.24612e-22)
(0.582541 -0.064594 -4.00096e-20)
(0.65236 -0.207817 3.94659e-20)
(0.714061 -0.350519 0)
(0.761655 -0.472162 9.36104e-22)
(0.789138 -0.553452 -2.1674e-20)
(0.795835 -0.58839 2.13483e-20)
(0.785929 -0.586359 0)
(0.764844 -0.563078 0)
(0.738386 -0.530471 -8.61461e-21)
(0.709093 -0.498694 1.59395e-20)
(0.671423 -0.47992 -1.41787e-20)
(0.619539 -0.475121 -2.6313e-22)
(0.562095 -0.45778 1.49439e-20)
(0.522924 -0.385548 -1.71522e-20)
(0.521218 -0.240197 1.77813e-20)
(0.555627 -0.0484256 -5.86969e-22)
(0.610971 0.139793 -8.96839e-21)
(0.670715 0.288624 0)
(0.724251 0.382321 0)
(0.767892 0.427986 1.77815e-21)
(0.797647 0.448191 -2.33e-21)
(0.803861 0.475568 -4.63501e-24)
(0.78513 0.512485 2.57538e-21)
(0.756031 0.516758 -2.50288e-21)
(0.740506 0.434691 0)
(0.75145 0.253258 4.66313e-22)
(0.780814 0.0308104 4.23081e-21)
(0.818159 -0.172925 -7.67796e-21)
(0.844633 -0.300501 3.05217e-21)
(0.865117 -0.367032 2.66531e-22)
(0.86591 -0.380206 -1.75789e-21)
(0.840265 -0.389103 1.33935e-21)
(0.789466 -0.385149 2.48424e-22)
(0.739927 -0.33087 2.44476e-22)
(0.725282 -0.226007 -2.84988e-22)
(0.745776 -0.0427305 0)
(0.78819 0.0908891 0)
(0.814708 0.246215 -8.02023e-22)
(0.812893 0.326184 3.94897e-22)
(0.781882 0.37926 -3.82352e-22)
(0.767645 0.355478 6.17596e-22)
(0.779119 0.185155 8.53275e-22)
(0.807641 0.09353 -1.76754e-22)
(0.83337 -0.140572 3.53979e-22)
(0.822898 -0.218927 -2.7071e-22)
(0.811681 -0.31239 1.21592e-22)
(0.808539 -0.358227 0)
(0.789095 -0.0748092 0)
(-0.0628525 0.212434 -6.8286e-20)
(-0.0400127 0.259669 8.25963e-22)
(-0.00764883 0.303502 6.3895e-20)
(0.0340266 0.339931 -5.22028e-22)
(0.0850252 0.36618 0)
(0.145779 0.377896 0)
(0.215279 0.371215 -7.08331e-20)
(0.292013 0.343359 -6.57208e-21)
(0.373644 0.293105 1.12127e-19)
(0.457149 0.221017 2.29617e-21)
(0.539175 0.129194 -4.05613e-20)
(0.617093 0.0200547 -4.10235e-20)
(0.689818 -0.104473 4.11287e-20)
(0.756882 -0.240836 0)
(0.814412 -0.376294 -3.35432e-20)
(0.854111 -0.488928 3.06974e-20)
(0.869547 -0.560064 0)
(0.861966 -0.585849 0)
(0.838476 -0.577093 1.30096e-20)
(0.806196 -0.550049 -2.57366e-21)
(0.770622 -0.5161 -9.50519e-21)
(0.735079 -0.481688 -7.07955e-21)
(0.695629 -0.455884 7.02801e-21)
(0.643695 -0.44458 -6.37864e-21)
(0.581175 -0.431617 -4.21185e-22)
(0.528715 -0.378212 6.4481e-21)
(0.510734 -0.256907 9.5593e-22)
(0.53279 -0.0823377 1.04291e-22)
(0.582377 0.0998512 0)
(0.642316 0.251947 5.89368e-21)
(0.701018 0.353344 -6.02973e-21)
(0.752232 0.408172 2.97835e-22)
(0.789268 0.438549 0)
(0.801316 0.476306 -2.72972e-22)
(0.788683 0.521019 5.29327e-21)
(0.767234 0.527473 -1.0871e-20)
(0.759854 0.442284 -2.32344e-21)
(0.777677 0.255016 -8.86897e-22)
(0.810531 0.0273275 7.06484e-21)
(0.847707 -0.178833 8.93839e-22)
(0.868942 -0.306128 -5.03948e-21)
(0.882804 -0.369718 4.37799e-21)
(0.878404 -0.376627 6.65479e-25)
(0.851375 -0.377656 1.07351e-21)
(0.799171 -0.371028 -1.29296e-21)
(0.746576 -0.322664 -1.61034e-21)
(0.729129 -0.229437 4.81916e-22)
(0.74611 -0.0540684 8.47765e-22)
(0.788565 0.0791921 -1.61165e-21)
(0.812772 0.241371 1.1628e-21)
(0.812445 0.329237 -4.04891e-22)
(0.781366 0.384485 2.92563e-22)
(0.768423 0.357321 3.86033e-22)
(0.782739 0.181373 -1.36446e-21)
(0.813288 0.0885489 1.53734e-23)
(0.843464 -0.140954 -4.16347e-22)
(0.830777 -0.217017 0)
(0.819092 -0.310238 -1.19801e-22)
(0.813902 -0.356388 8.04646e-23)
(0.79206 -0.0732038 0)
(0.055904 0.171614 6.01819e-20)
(0.0810246 0.212966 -1.17698e-19)
(0.114853 0.251201 5.6821e-20)
(0.15761 0.282754 5.93111e-20)
(0.209382 0.304783 -1.19589e-19)
(0.269916 0.313611 -4.5955e-21)
(0.338195 0.3059 6.35376e-20)
(0.412594 0.279239 7.38298e-20)
(0.490814 0.232549 -7.23399e-20)
(0.570129 0.166166 0)
(0.647675 0.081562 -8.47083e-20)
(0.721762 -0.0194707 1.67231e-19)
(0.791938 -0.136148 -8.25387e-20)
(0.856877 -0.264834 0)
(0.910131 -0.391376 0)
(0.941254 -0.493501 9.60854e-22)
(0.944441 -0.554433 -4.47539e-20)
(0.92343 -0.572897 4.3479e-20)
(0.8879 -0.560384 0)
(0.846457 -0.532149 2.07425e-20)
(0.803876 -0.498812 -3.51805e-20)
(0.763004 -0.464474 2.80623e-20)
(0.721968 -0.43422 -2.39002e-20)
(0.671866 -0.415665 3.79654e-22)
(0.608421 -0.402783 2.10411e-20)
(0.54609 -0.364761 -1.06647e-20)
(0.511787 -0.268399 -4.28759e-22)
(0.519136 -0.114506 -5.80603e-21)
(0.560393 0.0585925 3.27347e-22)
(0.618522 0.211922 5.5811e-21)
(0.680817 0.320115 3.07077e-22)
(0.738314 0.384157 -4.00682e-21)
(0.781902 0.424984 7.97314e-21)
(0.799895 0.473072 -4.46311e-21)
(0.793804 0.525736 0)
(0.780171 0.535582 -7.33119e-21)
(0.780729 0.449557 7.31678e-21)
(0.805188 0.258617 -7.64694e-21)
(0.841276 0.0268312 9.53124e-21)
(0.878326 -0.181366 -9.66623e-22)
(0.894865 -0.308526 0)
(0.901995 -0.370191 -5.4438e-22)
(0.892276 -0.372322 1.14755e-21)
(0.863909 -0.366201 0)
(0.810916 -0.356841 2.14542e-21)
(0.755787 -0.31417 -8.55444e-22)
(0.73561 -0.232888 4.26006e-22)
(0.748618 -0.0658086 3.37657e-22)
(0.790723 0.0669439 0)
(0.812532 0.235847 0)
(0.813845 0.331793 -1.10046e-21)
(0.782882 0.389449 1.96694e-21)
(0.77125 0.35935 -1.31082e-21)
(0.788129 0.177599 5.0392e-22)
(0.820483 0.0832782 9.60538e-22)
(0.854825 -0.141214 4.16739e-22)
(0.839778 -0.214753 -6.19697e-22)
(0.827348 -0.307665 0)
(0.819978 -0.354258 -1.55465e-22)
(0.795826 -0.0715125 8.539e-24)
(0.190879 0.127691 5.51714e-20)
(0.215894 0.165571 -5.47917e-20)
(0.247713 0.199056 4.37787e-22)
(0.288365 0.226102 -4.12457e-22)
(0.337748 0.244693 4.56315e-22)
(0.395098 0.251835 -4.80489e-22)
(0.459336 0.244449 9.78893e-22)
(0.529011 0.220317 0)
(0.602175 0.178295 -1.12899e-21)
(0.676539 0.11818 1.19625e-21)
(0.750038 0.040476 1.24667e-21)
(0.821396 -0.0525136 -1.31958e-21)
(0.889873 -0.161363 0)
(0.952426 -0.28115 0)
(0.999897 -0.396718 1.07664e-21)
(1.02096 -0.487021 0)
(1.01176 -0.538263 -7.57111e-22)
(0.978816 -0.551457 0)
(0.93345 -0.537903 -2.54365e-20)
(0.884959 -0.510788 4.49125e-20)
(0.837447 -0.479411 -3.42945e-20)
(0.792458 -0.446867 1.49347e-20)
(0.749672 -0.41488 9.94602e-21)
(0.70218 -0.389862 -9.65933e-21)
(0.641526 -0.373441 -8.72674e-21)
(0.574057 -0.345696 8.49755e-21)
(0.524969 -0.272958 0)
(0.515601 -0.142797 2.58263e-22)
(0.545777 0.017551 0)
(0.599773 0.169292 0)
(0.663691 0.282929 6.82228e-21)
(0.725901 0.355878 -7.0219e-21)
(0.775195 0.407126 4.05379e-22)
(0.79914 0.465326 5.05237e-22)
(0.799796 0.526162 -5.55998e-22)
(0.794004 0.540912 -6.65503e-21)
(0.802193 0.456478 6.46127e-21)
(0.83284 0.263956 -1.00227e-20)
(0.872258 0.0290228 8.68313e-21)
(0.909577 -0.180597 1.96829e-21)
(0.921962 -0.307743 -5.35856e-21)
(0.922377 -0.36842 8.44124e-22)
(0.907278 -0.367341 2.92001e-21)
(0.877558 -0.354893 0)
(0.82427 -0.342684 -8.15954e-22)
(0.767088 -0.305316 1.02288e-21)
(0.744264 -0.236102 -1.3679e-21)
(0.75293 -0.0777789 -3.398e-22)
(0.794412 0.0541352 0)
(0.813845 0.229509 3.56595e-22)