/*--------------------------------*- C++ -*----------------------------------*\
| =========                 |                                                 |
| \\      /  F ield         | OpenFOAM: The Open Source CFD Toolbox           |
|  \\    /   O peration     | Version:  2512                                  |
|   \\  /    A nd           | Website:  www.openfoam.com                      |
|    \\/     M anipulation  |                                                 |
\*---------------------------------------------------------------------------*/
FoamFile
{
    version     2.0;
    format      ascii;
    arch        "LSB;label=32;scalar=64";
    class       volVectorField;
    location    "80";
    object      U;
}
// * * * * * * * * * * * * * * * * * * * * * * * * * * * * * * * * * * * * * //

dimensions      [0 1 -1 0 0 0 0];

internalField   nonuniform List<vector> 
13248
(
(-0.012576 0.0124719 8.60096e-20)
(-0.0203338 0.0256591 0)
(-0.0110183 0.0318482 -1.62786e-19)
(0.0136698 0.0326659 1.53341e-19)
(0.052579 0.0297331 1.44012e-19)
(0.104873 0.0244997 0)
(0.169743 0.0181143 0)
(0.246183 0.0114581 3.52768e-19)
(0.332779 0.00518359 -8.61105e-22)
(0.42753 -0.000262079 -3.09642e-19)
(0.527798 -0.00461932 2.87621e-19)
(0.630392 -0.00779764 -1.80033e-19)
(0.731791 -0.00985155 0)
(0.828441 -0.0109476 -3.0305e-19)
(0.917089 -0.0113229 5.6178e-19)
(0.995081 -0.01124 -1.34105e-19)
(1.06058 -0.0109427 -2.2775e-19)
(1.11268 -0.0106331 2.13819e-19)
(1.15143 -0.0103998 0)
(1.17763 -0.0104422 0)
(1.19294 -0.0102463 0)
(1.19854 -0.0115363 0)
(1.19818 -0.00953419 5.56913e-20)
(1.18899 -0.017839 1.87799e-19)
(-0.0110882 0.00981187 -2.59604e-19)
(-0.0129217 0.0181714 1.76835e-19)
(0.00532991 0.0209147 -1.37025e-21)
(0.0417845 0.0197117 -2.33899e-19)
(0.095104 0.0161667 -1.43857e-19)
(0.164087 0.0116957 -1.36158e-19)
(0.247248 0.00737964 -2.52028e-19)
(0.342535 0.00398179 2.37704e-19)
(0.447143 0.00196923 0)
(0.557476 0.00152214 1.07107e-21)
(0.669331 0.00255648 1.7334e-21)
(0.778244 0.00477155 1.78244e-19)
(0.879937 0.00772178 0)
(0.970764 0.0109033 0)
(1.04805 0.0138405 2.01444e-19)
(1.11032 0.0161577 -3.78383e-19)
(1.15729 0.0176248 2.19043e-19)
(1.1898 0.0181723 -2.05658e-19)
(1.20956 0.0178798 -8.8002e-20)
(1.21879 0.0169227 -1.55248e-19)
(1.21992 0.0156527 -6.07758e-20)
(1.21534 0.0139571 -1.12528e-19)
(1.20708 0.0138943 1.70902e-19)
(1.19565 0.00945749 4.72614e-20)
(-0.00867471 0.0071 0)
(-0.00202914 0.0106215 0)
(0.028229 0.0102759 8.27645e-20)
(0.079756 0.00774148 7.65444e-20)
(0.150703 0.00459632 -1.44504e-21)
(0.23904 0.00219308 -1.39539e-19)
(0.341999 0.00144258 0)
(0.455825 0.00281322 -1.18386e-19)
(0.575787 0.00635355 1.10679e-19)
(0.696479 0.0117323 -1.67883e-22)
(0.812357 0.0183252 -1.89502e-19)
(0.918379 0.0253455 -1.72538e-19)
(1.01057 0.0319931 4.23557e-21)
(1.08642 0.0375897 -1.39081e-19)
(1.145 0.0416755 3.37055e-19)
(1.18686 0.0440515 0)
(1.21378 0.0447703 -2.10666e-19)
(1.22826 0.0440804 1.03132e-19)
(1.23318 0.0423666 8.79281e-20)
(1.23128 0.0400126 0)
(1.22503 0.0375558 6.92813e-20)
(1.21617 0.0348727 -2.32846e-19)
(1.20618 0.0336691 2.18581e-19)
(1.19549 0.0288993 1.31742e-19)
(-0.00493166 0.0042953 -9.10912e-20)
(0.0133218 0.00321033 -9.39947e-20)
(0.0590378 0.000585911 8.54245e-20)
(0.129034 -0.00206541 0)
(0.220431 -0.00330929 0)
(0.329692 -0.00200314 -2.30336e-21)
(0.452036 0.00237029 0)
(0.581439 0.00970345 -3.5786e-19)
(0.711101 0.0193537 3.32347e-19)
(0.834225 0.0302959 -4.10733e-19)
(0.944909 0.0413373 9.43205e-20)
(1.03886 0.0513497 0)
(1.11381 0.0594607 1.54116e-19)
(1.1695 0.0651671 -2.84298e-19)
(1.20739 0.0683553 6.78207e-20)
(1.23013 0.0692437 1.69386e-19)
(1.24096 0.0682749 -9.79142e-21)
(1.24315 0.0659947 -1.86632e-19)
(1.23958 0.0629442 0)
(1.23254 0.0595852 0)
(1.22368 0.0563151 -6.40449e-20)
(1.21399 0.0531365 5.67416e-20)
(1.20426 0.0511745 1.98266e-19)
(1.19425 0.0464039 -1.86163e-19)
(0.000595749 0.00141354 -9.52577e-20)
(0.0340947 -0.0037509 -9.5179e-20)
(0.0988381 -0.00740331 2.67942e-19)
(0.190324 -0.00849787 -1.6321e-19)
(0.303936 -0.00599506 1.53622e-19)
(0.433834 0.000751445 2.80304e-19)
(0.572599 0.0115247 -1.97733e-19)
(0.711812 0.0253259 -2.40108e-19)
(0.843166 0.0406419 5.0467e-21)
(0.95968 0.0557869 3.08356e-19)
(1.05663 0.0692455 0)
(1.13194 0.0799334 8.38577e-20)
(1.18603 0.0873189 0)
(1.22125 0.0914018 -1.35476e-19)
(1.24108 0.092588 1.90456e-19)
(1.24938 0.0915152 1.96677e-21)
(1.2497 0.088884 -4.9022e-20)
(1.245 0.085333 9.09702e-20)
(1.23742 0.0813714 7.79117e-20)
(1.22842 0.0773596 -6.92816e-20)
(1.21887 0.0735418 6.40286e-20)
(1.20928 0.0699428 -5.67265e-20)
(1.19992 0.0671643 0)
(1.19076 0.0623886 -4.26817e-20)
(0.00834173 -0.00141633 9.52441e-20)
(0.0610771 -0.00972868 9.95627e-20)
(0.148208 -0.0127262 -8.96808e-20)
(0.263326 -0.0102496 1.6712e-19)
(0.399272 -0.00205466 -1.57294e-19)
(0.547199 0.0115853 1.42569e-19)
(0.696879 0.0293349 -6.82305e-20)
(0.838133 0.0491005 1.80271e-19)
(0.962518 0.0685736 -1.12945e-19)
(1.06457 0.0857445 1.99365e-19)
(1.14224 0.0992544 -4.5916e-19)
(1.19653 0.108524 1.68005e-19)
(1.23063 0.113672 -1.46474e-19)
(1.24883 0.115305 1.37587e-19)
(1.25553 0.114262 1.17656e-19)
(1.25462 0.1114 1.02387e-19)
(1.24913 0.107456 -2.84509e-19)
(1.24114 0.102986 1.76174e-19)
(1.23201 0.0983719 -7.79136e-20)
(1.22251 0.0938509 2.01406e-19)
(1.21307 0.0895609 -6.5076e-20)
(1.20389 0.0855413 -1.56167e-19)
(1.19509 0.0820955 1.43817e-19)
(1.18655 0.0773366 4.26679e-20)
(0.0186582 -0.00393467 0)
(0.0947316 -0.0139382 6.7366e-22)
(0.207032 -0.0142008 1.86095e-19)
(0.346594 -0.00598213 -1.74708e-19)
(0.502972 0.00962711 -1.57939e-19)
(0.664031 0.0309513 2.93581e-19)
(0.817333 0.05527 -1.36361e-19)
(0.952399 0.0794791 1.81775e-19)
(1.06249 0.100886 -4.0827e-21)
(1.1452 0.117722 -1.02753e-19)
(1.20193 0.129292 2.2387e-19)
(1.23662 0.135815 -3.29579e-19)
(1.25437 0.138106 0)
(1.26024 0.137228 -6.41926e-20)
(1.25849 0.134217 -1.70818e-19)
(1.25232 0.129927 5.37869e-20)
(1.24388 0.124984 2.34533e-21)
(1.23449 0.119803 -1.16018e-19)
(1.22486 0.114639 8.06214e-21)
(1.21539 0.109639 1.3381e-19)
(1.20624 0.10488 -5.89761e-20)
(1.19747 0.100409 -2.21942e-20)
(1.18907 0.0963002 6.91434e-20)
(1.18098 0.0914739 0)
(0.0317638 -0.00576653 0)
(0.135069 -0.0153946 5.0362e-20)
(0.274368 -0.010534 -2.4145e-19)
(0.437522 0.00550417 8.79697e-20)
(0.610395 0.029685 -8.27932e-20)
(0.77801 0.0585491 -7.54419e-20)
(0.927168 0.0880306 -1.33749e-19)
(1.04905 0.114469 6.66152e-20)
(1.14025 0.135435 5.82198e-20)
(1.20221 0.149966 0)
(1.23953 0.158328 1.32017e-19)
(1.25817 0.161555 -1.95759e-19)
(1.26395 0.160969 1.45865e-19)
(1.26172 0.157837 6.4226e-20)
(1.25497 0.153176 -5.22348e-20)
(1.24603 0.147714 -4.34127e-20)
(1.23625 0.141921 -4.0404e-20)
(1.22636 0.136081 1.21469e-19)
(1.21672 0.130355 0)
(1.20748 0.124832 6.03739e-20)
(1.19867 0.119561 5.0319e-20)
(1.19029 0.114573 -1.25415e-19)
(1.18227 0.109833 -8.49719e-20)
(1.17455 0.104891 7.86731e-20)
(0.047702 -0.00645662 -5.36043e-20)
(0.181561 -0.0130231 -1.67912e-21)
(0.348407 -0.000506483 4.89807e-20)
(0.532536 0.0250475 1.36505e-19)
(0.716346 0.0581241 3.96423e-20)
(0.883318 0.0933995 -7.65807e-20)
(1.02152 0.12591 7.01776e-20)
(1.12559 0.152168 -6.1716e-20)
(1.19637 0.170658 1.10241e-19)
(1.23891 0.181569 4.70409e-20)
(1.26009 0.186147 -1.3311e-19)
(1.26672 0.186039 3.93157e-20)
(1.26441 0.182815 6.69114e-20)
(1.2572 0.177726 -3.29612e-20)
(1.2477 0.171653 0)
(1.23741 0.16515 4.89611e-20)
(1.22709 0.158547 8.25728e-20)
(1.21713 0.152025 1.3934e-20)
(1.20764 0.145682 -6.86772e-20)
(1.19867 0.139575 2.86712e-20)
(1.1902 0.133735 0)
(1.18215 0.128169 -2.24116e-20)
(1.17447 0.122814 -2.10066e-20)
(1.16706 0.117646 0)
(0.0662992 -0.00551638 0)
(0.233089 -0.00579892 2.80037e-20)
(0.42655 0.0168268 5.17989e-20)
(0.62747 0.0529488 -1.38573e-19)
(0.815809 0.0943073 4.45672e-20)
(0.97549 0.134073 0)
(1.09786 0.167176 6.72593e-20)
(1.18218 0.191079 -9.38212e-20)
(1.23344 0.205629 -5.48941e-20)
(1.25945 0.21223 2.49191e-20)
(1.26822 0.212915 -3.95374e-20)
(1.26646 0.20967 9.61955e-20)
(1.259 0.204082 4.82092e-20)
(1.24893 0.197259 -3.35607e-20)
(1.23802 0.18989 -3.1905e-21)
(1.22714 0.182373 -9.16416e-20)
(1.21671 0.174921 4.17127e-20)
(1.20686 0.167647 -1.01391e-21)
(1.19762 0.160612 0)
(1.18897 0.15385 -2.87009e-20)
(1.18083 0.147379 0)
(1.17312 0.14118 6.46705e-20)
(1.16577 0.135232 -7.69285e-20)
(1.15865 0.129728 3.50169e-20)
(0.0871378 -0.00247294 -1.44083e-20)
(0.287972 0.00712281 -7.01998e-20)
(0.505614 0.0419837 7.96563e-20)
(0.718047 0.0889074 4.69468e-20)
(0.904571 0.137077 -2.24854e-20)
(1.05174 0.178959 3.77116e-20)
(1.1557 0.210317 -1.83569e-20)
(1.22051 0.230177 3.06033e-20)
(1.25465 0.23991 0)
(1.26753 0.241975 6.93815e-20)
(1.26732 0.238909 -2.81515e-21)
(1.26002 0.232787 -5.60645e-20)
(1.24948 0.225059 2.40434e-20)
(1.23789 0.216625 -2.71432e-20)
(1.22634 0.207993 -1.03408e-20)
(1.21531 0.199426 1.19313e-20)
(1.20498 0.191058 -9.22797e-21)
(1.19537 0.182956 -4.99772e-20)
(1.18645 0.175158 3.06355e-20)
(1.17814 0.167682 6.28144e-21)
(1.17036 0.160527 5.52851e-21)
(1.163 0.153665 4.86652e-21)
(1.15599 0.147143 0)
(1.14916 0.14117 0)
(0.109624 0.00309461 1.44183e-20)
(0.344189 0.0263178 -1.44602e-20)
(0.582281 0.0749753 -2.65014e-20)
(0.80047 0.132067 0)
(0.979629 0.184959 -1.11316e-20)
(1.11086 0.226511 -9.96904e-21)
(1.19576 0.254164 -1.71382e-20)
(1.24278 0.268842 0)
(1.26279 0.273357 0)
(1.26579 0.270943 0)
(1.25942 0.264362 0)
(1.24867 0.25559 0)
(1.23643 0.245858 -1.50929e-20)
(1.22415 0.235855 6.87449e-21)
(1.21245 0.225928 1.19715e-20)
(1.20155 0.216245 5.59377e-21)
(1.19148 0.206882 1.38643e-20)
(1.18222 0.197876 0)
(1.17369 0.189245 -3.33074e-21)
(1.1658 0.180998 -3.16431e-21)
(1.15844 0.173116 -5.53727e-21)
(1.15152 0.165578 -4.87425e-21)
(1.1449 0.158501 0)
(1.13845 0.151939 3.50348e-21)
(-0.00168574 0.00408663 8.26646e-21)
(-0.00761041 0.00191487 -8.5884e-21)
(-0.0181098 -0.00661277 -1.62729e-20)
(-0.0309053 -0.0185113 0)
(-0.0447885 -0.0317712 -2.17328e-20)
(-0.059165 -0.0452624 6.77839e-21)
(-0.0736037 -0.058539 -1.29463e-20)
(-0.0877763 -0.0716092 0)
(-0.101446 -0.0847218 0)
(-0.114442 -0.0981935 0)
(-0.126636 -0.112296 0)
(-0.137929 -0.127199 0)
(-0.148238 -0.142957 -1.23393e-22)
(-0.157481 -0.159514 -8.39823e-21)
(-0.165578 -0.176714 1.60074e-20)
(-0.172442 -0.19431 2.24277e-20)
(-0.177981 -0.211965 7.11759e-21)
(-0.18211 -0.229251 0)
(-0.18476 -0.245651 6.10686e-21)
(-0.185904 -0.260576 -1.72313e-20)
(-0.185529 -0.273392 -1.07246e-20)
(-0.183576 -0.28342 -9.99187e-21)
(-0.180125 -0.289907 0)
(-0.176074 -0.292218 0)
(-0.00249133 0.00886212 -2.49986e-20)
(-0.0092056 0.0129989 4.30522e-20)
(-0.0201628 0.00853793 -1.64789e-20)
(-0.0332167 -0.000798252 -3.10919e-20)
(-0.0472392 -0.0125404 4.37975e-20)
(-0.0616862 -0.0252603 -2.77482e-20)
(-0.0761493 -0.0382971 3.90435e-20)
(-0.0903073 -0.0515109 2.50026e-20)
(-0.103931 -0.0650497 0)
(-0.11686 -0.0791613 -2.17265e-20)
(-0.128983 -0.0940762 -1.11778e-22)
(-0.140218 -0.109945 1.91684e-20)
(-0.150502 -0.126817 2.76963e-20)
(-0.159778 -0.144645 3.45219e-20)
(-0.167989 -0.163286 -1.60205e-20)
(-0.175074 -0.182506 -4.54236e-20)
(-0.18097 -0.201972 1.43216e-20)
(-0.185618 -0.221246 -5.35344e-20)
(-0.188984 -0.239783 0)
(-0.191087 -0.256934 1.14855e-20)
(-0.19195 -0.271974 1.07125e-20)
(-0.191451 -0.284107 9.98058e-21)
(-0.189663 -0.292458 0)
(-0.188432 -0.296335 0)
(-0.00378894 0.0135636 0)
(-0.0116704 0.0240696 8.87146e-20)
(-0.0228501 0.0238262 -3.34149e-20)
(-0.0355718 0.0172091 3.14506e-20)
(-0.0489209 0.00711443 -9.01391e-20)
(-0.062455 -0.00472447 0)
(-0.0758131 -0.0174171 -5.36633e-20)
(-0.088703 -0.0306559 2.54955e-20)
(-0.100905 -0.0444662 -4.84504e-20)
(-0.112264 -0.059014 2.3516e-20)
(-0.122676 -0.0744859 1.28526e-19)
(-0.132066 -0.0910134 -6.03809e-20)
(-0.140384 -0.108648 -9.42863e-20)
(-0.147589 -0.127354 -3.61279e-20)
(-0.153646 -0.147013 1.1585e-22)
(-0.158521 -0.167415 1.24925e-19)
(-0.162185 -0.188248 -5.8531e-20)
(-0.164609 -0.209091 -6.4877e-22)
(-0.165792 -0.22939 0)
(-0.165787 -0.248458 -4.68936e-20)
(-0.164646 -0.265465 0)
(-0.162156 -0.279453 -3.81858e-20)
(-0.158154 -0.289398 1.42881e-19)
(-0.155393 -0.294561 -1.84443e-21)
(-0.00548148 0.0177479 0)
(-0.0148189 0.0341959 8.60969e-22)
(-0.0259449 0.0380918 3.46752e-20)
(-0.0377172 0.0342581 -3.29309e-20)
(-0.0495397 0.0259207 3.00203e-20)
(-0.061129 0.0150853 1.74745e-19)
(-0.0722079 0.00286281 -5.47226e-20)
(-0.0825147 -0.0102586 -5.25692e-20)
(-0.0918332 -0.0241706 9.81473e-20)
(-0.100008 -0.0389561 -1.38739e-19)
(-0.106933 -0.0547405 4.42213e-20)
(-0.112525 -0.0716288 4.19484e-20)
(-0.116728 -0.0896677 0)
(-0.119509 -0.108831 3.60843e-20)
(-0.120849 -0.129013 0)
(-0.120749 -0.150028 6.52471e-20)
(-0.119225 -0.171594 -1.19248e-19)
(-0.116314 -0.193323 2.90414e-20)
(-0.112075 -0.214699 1.03644e-19)
(-0.106631 -0.235053 4.68486e-20)
(-0.100131 -0.25352 0)
(-0.0924104 -0.268994 -1.15243e-19)
(-0.0827636 -0.280196 3.68605e-20)
(-0.0735156 -0.286161 0)
(-0.00739997 0.021028 0)
(-0.0183476 0.042534 -1.10852e-19)
(-0.0291343 0.0502512 -3.5654e-20)
(-0.0393703 0.0491538 -6.65111e-20)
(-0.0488537 0.0426452 6.263e-20)
(-0.0574926 0.0329273 -5.86942e-20)
(-0.0651121 0.0213079 1.12792e-19)
(-0.0714983 0.00844763 5.32177e-20)
(-0.0764505 -0.00541167 -1.50096e-19)
(-0.0797891 -0.0202509 9.5555e-20)
(-0.0813738 -0.0361307 -1.34484e-19)
(-0.0811098 -0.0531181 2.99452e-19)
(-0.0789244 -0.0712392 -1.60073e-19)
(-0.0747746 -0.0904571 7.63868e-20)
(-0.0686535 -0.110662 2.12782e-19)
(-0.060595 -0.131664 -6.6101e-20)
(-0.05068 -0.153187 -6.36193e-20)
(-0.0390394 -0.174863 -5.72271e-20)
(-0.0258547 -0.196221 0)
(-0.0113764 -0.216667 -9.39341e-20)
(0.00403983 -0.23544 -8.10912e-20)
(0.0201527 -0.251481 1.2015e-19)
(0.0377757 -0.263176 1.3316e-19)
(0.0586149 -0.268278 -1.25137e-19)
(-0.00933346 0.0231404 0)
(-0.0218781 0.0484458 -1.52856e-19)
(-0.0320519 0.0594187 -1.22702e-21)
(-0.0402399 0.0608578 1.35533e-19)
(-0.0466567 0.0561628 0)
(-0.0514174 0.0476358 0)
(-0.0544645 0.0367263 0)
(-0.0556375 0.0242419 -5.42751e-20)
(-0.0547431 0.0105582 -7.06273e-22)
(-0.0515895 -0.00419731 9.72903e-20)
(-0.0460032 -0.020017 -1.37426e-19)
(-0.0378473 -0.0369153 -2.63393e-22)
(-0.0270281 -0.0548803 0)
(-0.0134965 -0.073845 -7.63446e-20)
(0.00273905 -0.0936687 7.2934e-20)
(0.0215985 -0.114128 -2.03904e-19)
(0.0429192 -0.134911 2.50041e-19)
(0.0664472 -0.155618 5.4816e-20)
(0.0918394 -0.175767 -5.99763e-21)
(0.118665 -0.194804 -1.96376e-19)
(0.146353 -0.212108 -8.67914e-20)
(0.174358 -0.226863 2.65191e-19)
(0.202577 -0.237501 -1.73614e-19)
(0.237945 -0.240235 0)
(-0.0110719 0.0239827 7.61962e-20)
(-0.0250175 0.0515784 7.68149e-20)
(-0.0343148 0.0649994 -7.42003e-20)
(-0.0400266 0.0685815 -1.39047e-19)
(-0.0427501 0.0655463 1.30926e-19)
(-0.0428004 0.0581898 -1.24475e-19)
(-0.0402415 0.0480365 1.76361e-19)
(-0.0349746 0.0360038 -5.44705e-20)
(-0.02682 0.0225821 1.04921e-19)
(-0.0155726 0.00799904 0)
(-0.00103718 -0.00765308 9.56396e-20)
(0.0169462 -0.0243258 -1.79014e-19)
(0.0384777 -0.041956 1.67703e-19)
(0.0635815 -0.0604296 -1.57511e-19)
(0.0921872 -0.0795591 0)
(0.12411 -0.0990709 1.37157e-19)
(0.159039 -0.118601 2.52885e-19)
(0.196528 -0.1377 -2.36835e-19)
(0.236005 -0.155843 -1.06929e-19)
(0.276806 -0.172451 -9.27104e-20)
(0.318061 -0.186963 2.64364e-19)
(0.35957 -0.198616 7.1144e-20)
(0.39752 -0.207259 -7.16454e-20)
(0.450986 -0.206182 5.67797e-20)
(-0.0124484 0.0236203 -7.62065e-20)
(-0.0274169 0.0518955 2.39296e-19)
(-0.0355529 0.0667541 -7.56702e-20)
(-0.0384044 0.0718726 1.41774e-19)
(-0.0368729 0.0701651 -1.33491e-19)
(-0.0314428 0.0638271 6.23362e-22)
(-0.0222927 0.0543882 5.99599e-20)
(-0.00938929 0.0428304 2.28565e-19)
(0.00742135 0.0297338 1.34092e-21)
(0.0283394 0.0154184 -1.00045e-19)
(0.053557 6.29497e-05 0)
(0.083213 -0.016208 -9.10351e-20)
(0.11735 -0.0332655 1.69669e-19)
(0.155885 -0.0509339 1.58982e-19)
(0.198579 -0.0689682 -7.47737e-20)
(0.245014 -0.0870424 2.19421e-22)
(0.294592 -0.104749 -6.38163e-20)
(0.346535 -0.121611 1.16921e-19)
(0.399912 -0.137102 1.06884e-19)
(0.453778 -0.150635 -9.65039e-20)
(0.506611 -0.161854 8.50906e-20)
(0.559659 -0.169404 -7.48766e-20)
(0.602833 -0.175867 0)
(0.670146 -0.170316 -5.66809e-20)
(-0.0133714 0.0222622 7.88354e-20)
(-0.0288091 0.0496652 -8.03065e-20)
(-0.0354039 0.0648118 7.70862e-20)
(-0.0349639 0.0706663 0)
(-0.0285786 0.0697761 0)
(-0.0168566 0.0641677 1.30314e-19)
(-7.06099e-05 0.0553181 -1.20968e-19)
(0.0217472 0.0442295 1.15872e-19)
(0.0487069 0.0315452 -5.41736e-19)
(0.080967 0.0176677 -2.85312e-22)
(0.118654 0.00286311 9.67094e-20)
(0.161791 -0.0126609 0)
(0.210239 -0.0286967 -1.70621e-19)
(0.263646 -0.0449999 3.19661e-19)
(0.32142 -0.0612695 -2.24213e-19)
(0.382715 -0.0771433 -3.4318e-19)
(0.44645 -0.0922043 5.73904e-21)
(0.511358 -0.105998 2.34656e-19)
(0.576021 -0.118075 0)
(0.639209 -0.127877 0)
(0.698651 -0.135502 -8.50741e-20)
(0.756959 -0.138804 7.48627e-20)
(0.800047 -0.142933 -2.47543e-19)
(0.868828 -0.133644 2.32234e-19)
(-0.0138248 0.0202028 0)
(-0.0290127 0.0453691 0)
(-0.0334889 0.0596205 -2.32625e-19)
(-0.0291197 0.0653018 7.37731e-20)
(-0.0170738 0.0645992 -1.07846e-22)
(0.00197261 0.0593458 1.31292e-19)
(0.0276797 0.0509291 0)
(0.0599466 0.0403419 -1.15981e-19)
(0.0988004 0.0282685 1.08714e-19)
(0.144275 0.0151822 -2.06419e-19)
(0.196302 0.00143124 -3.20179e-23)
(0.254608 -0.0126944 1.82054e-19)
(0.318644 -0.0269168 -6.43748e-22)
(0.387536 -0.0409427 1.5746e-19)
(0.460076 -0.0544532 -2.24418e-19)
(0.534763 -0.0671071 0)
(0.609872 -0.0785535 2.47829e-19)
(0.683569 -0.0884497 -3.48133e-19)
(0.754017 -0.0965071 1.02086e-19)
(0.819719 -0.102333 0)
(0.878487 -0.106307 8.10835e-20)
(0.932535 -0.106307 2.79953e-19)
(0.970056 -0.108172 -2.62751e-19)
(1.02559 -0.0970118 -2.64282e-19)
(-0.0138413 0.0177424 2.44945e-19)
(-0.0278637 0.0395861 -3.3675e-19)
(-0.0293203 0.051869 4.7551e-22)
(-0.0200041 0.0564974 7.50039e-20)
(-0.00107878 0.0553676 -1.4044e-19)
(0.0267568 0.0501345 -1.30691e-19)
(0.0631055 0.0420935 2.47392e-19)
(0.107761 0.0322095 -2.7818e-22)
(0.160565 0.0211897 -2.19027e-19)
(0.221252 0.00955969 4.12443e-19)
(0.289306 -0.00227329 1.99886e-23)
(0.363854 -0.0139733 -1.81926e-19)
(0.443603 -0.0252451 0)
(0.526845 -0.0358194 0)
(0.611522 -0.0454503 -7.3676e-20)
(0.695357 -0.0539208 -1.33226e-19)
(0.776017 -0.0610482 -2.42412e-19)
(0.851293 -0.0667027 2.27557e-19)
(0.919302 -0.0707826 -1.02131e-19)
(0.978595 -0.073253 1.75225e-19)
(1.02813 -0.0742848 -9.06907e-20)
(1.06876 -0.0729558 1.26879e-19)
(1.09543 -0.0731996 -3.16097e-19)
(1.1282 -0.0632196 5.40056e-20)
(-0.0134416 0.0151196 8.28057e-20)
(-0.0251172 0.0328732 0)
(-0.0221871 0.0423626 1.60365e-19)
(-0.00634905 0.0452688 -1.51065e-19)
(0.0212715 0.0432993 1.40566e-19)
(0.0599608 0.0379782 0)
(0.109212 0.0305155 0)
(0.168576 0.0218384 -1.17187e-19)
(0.237477 0.0126542 2.37078e-22)
(0.315021 0.00349613 1.03278e-19)
(0.399855 -0.00523751 -9.60183e-20)
(0.490101 -0.0132561 1.81155e-19)
(0.58339 -0.0203595 0)
(0.676986 -0.0264275 3.09198e-19)
(0.767988 -0.0314102 -5.74588e-19)
(0.85357 -0.0353179 4.00208e-19)
(0.931224 -0.0382033 2.35642e-19)
(0.99896 -0.0401671 -2.21215e-19)
(1.0555 -0.0412609 0)
(1.10018 -0.0417518 0)
(1.13344 -0.0413463 0)
(1.15574 -0.0408703 0)
(1.16847 -0.0399317 6.06009e-20)
(1.17863 -0.0349747 -2.02258e-19)
(-0.171941 -0.290321 -6.30924e-21)
(-0.162715 -0.280529 6.33338e-21)
(-0.149706 -0.259573 -1.86438e-22)
(-0.132735 -0.226425 0)
(-0.111205 -0.179982 -6.12099e-21)
(-0.0848677 -0.11991 1.19354e-20)
(-0.05373 -0.0472222 -2.99876e-23)
(-0.0181294 0.0365663 -5.62667e-21)
(0.0205751 0.128001 0)
(0.0613898 0.222288 0)
(0.103198 0.314689 -2.5534e-22)
(0.143072 0.397539 -2.26142e-22)
(0.178514 0.466041 -3.32588e-21)
(0.206237 0.51848 3.04197e-21)
(0.22318 0.556092 0)
(0.229138 0.580855 0)
(0.229765 0.590417 1.91775e-21)
(0.23673 0.574537 7.21454e-23)
(0.262584 0.518775 -1.75376e-21)
(0.312157 0.4147 -1.39398e-22)
(0.379862 0.266416 0)
(0.456299 0.0875111 0)
(0.533922 -0.100843 0)
(0.605755 -0.27041 0)
(0.664792 -0.395814 0)
(0.705987 -0.468825 0)
(0.727878 -0.497907 3.15868e-22)
(0.735385 -0.496224 -5.23127e-22)
(0.732364 -0.480783 0)
(0.711869 -0.475076 0)
(0.667835 -0.4863 -3.34123e-22)
(0.614874 -0.481279 3.24746e-22)
(0.583799 -0.406339 1.92051e-22)
(0.593495 -0.24344 0)
(0.636191 -0.033317 0)
(0.692232 0.163622 4.01152e-22)
(0.742799 0.304824 -3.8993e-22)
(0.783347 0.381185 0)
(0.810391 0.40768 2.10902e-22)
(0.814341 0.427121 -3.01622e-22)
(0.783957 0.452863 9.31775e-23)
(0.734164 0.456934 0)
(0.698529 0.376337 -2.48981e-22)
(0.697118 0.207848 2.42105e-22)
(0.726204 0.00109118 0)
(0.770519 -0.175751 0)
(0.811886 -0.27982 -7.69745e-23)
(0.832319 -0.348099 2.10157e-22)
(0.807731 -0.375872 0)
(0.76292 -0.402738 0)
(0.726885 -0.316982 -4.9507e-23)
(0.729406 -0.188681 5.11189e-24)
(0.766095 0.000220827 -3.4602e-24)
(0.792491 0.1645 3.2359e-23)
(0.796563 0.265339 0)
(0.765118 0.400859 0)
(0.752588 0.306144 0)
(0.745531 0.290603 0)
(0.758671 0.0567348 0)
(0.742497 -0.162678 0)
(-0.190958 -0.296273 -5.69566e-22)
(-0.190694 -0.290611 -2.34809e-20)
(-0.186636 -0.273908 3.42949e-22)
(-0.17942 -0.245535 2.17368e-20)
(-0.167732 -0.204166 3.07923e-22)
(-0.150909 -0.149271 0)
(-0.128317 -0.0812991 -1.9442e-20)
(-0.0998391 -0.001799 3.78876e-20)
(-0.0662198 0.0865365 -1.84416e-20)
(-0.0279228 0.179767 1.60711e-20)
(0.0124018 0.27308 -1.5365e-20)
(0.0519667 0.360154 1.26442e-20)
(0.0900636 0.434824 -1.22433e-20)
(0.123813 0.495764 -2.95329e-22)
(0.151385 0.541934 -8.64311e-21)
(0.174467 0.57177 8.39958e-21)
(0.199554 0.579655 -7.93438e-21)
(0.236201 0.555077 7.46024e-21)
(0.291472 0.487598 -9.22766e-21)
(0.36414 0.374417 1.89051e-20)
(0.446125 0.221891 -9.64192e-21)
(0.529591 0.0424404 -6.71962e-22)
(0.608973 -0.144176 -9.41356e-21)
(0.677319 -0.308515 1.70882e-20)
(0.727872 -0.424898 -7.71658e-21)
(0.757919 -0.486521 3.41994e-22)
(0.768109 -0.505234 3.74718e-21)
(0.764024 -0.49638 -5.57902e-22)
(0.752253 -0.474039 -5.22716e-21)
(0.728228 -0.458667 4.64918e-21)
(0.682422 -0.462006 -2.21283e-21)
(0.623172 -0.459419 2.79349e-22)
(0.579785 -0.398901 -1.92431e-22)
(0.57663 -0.253691 3.73743e-22)
(0.61107 -0.0552938 0)
(0.664353 0.138864 0)
(0.717916 0.283432 -1.16748e-21)
(0.76538 0.365782 8.91421e-22)
(0.799529 0.400797 6.18108e-22)
(0.807231 0.431227 7.32144e-23)
(0.78002 0.465949 -8.50817e-22)
(0.73528 0.471053 2.19428e-22)
(0.707873 0.383483 0)
(0.712805 0.205077 0)
(0.744079 -0.00909494 0)
(0.786081 -0.188201 0)
(0.823065 -0.288531 3.74149e-22)
(0.841887 -0.347658 -1.35419e-22)
(0.815111 -0.366829 0)
(0.770478 -0.392132 0)
(0.730645 -0.312729 0)
(0.73214 -0.193539 -7.27178e-23)
(0.765406 -0.00735169 1.74234e-23)
(0.789374 0.160798 -7.4328e-23)
(0.793421 0.267819 0)
(0.760553 0.405741 0)
(0.75117 0.307629 4.42086e-23)
(0.744163 0.289972 1.36825e-22)
(0.761637 0.0572922 0)
(0.745937 -0.161356 0)
(-0.161208 -0.295725 -1.2846e-21)
(-0.170108 -0.294156 -4.44755e-20)
(-0.174574 -0.281714 4.09431e-20)
(-0.177232 -0.258283 -3.83425e-20)
(-0.176218 -0.222486 -3.10051e-22)
(-0.170575 -0.173585 0)
(-0.159142 -0.111607 -3.24872e-20)
(-0.140821 -0.0376795 3.17307e-20)
(-0.115692 0.0458531 2.53011e-22)
(-0.0838342 0.136351 3.62011e-22)
(-0.0470748 0.2286 3.29226e-22)
(-0.00942097 0.318112 3.84599e-22)
(0.0298079 0.396939 -1.88396e-20)
(0.0704001 0.463774 1.8606e-20)
(0.110568 0.515045 0)
(0.152604 0.546568 4.45492e-22)
(0.201855 0.551196 -1.59634e-20)
(0.264361 0.519668 1.57622e-20)
(0.342256 0.445455 0)
(0.430724 0.329386 0)
(0.52157 0.178188 -2.30921e-20)
(0.608565 0.00213185 4.51823e-20)
(0.68749 -0.179705 -4.14543e-20)
(0.751058 -0.337133 3.24174e-21)
(0.792073 -0.444522 2.90517e-20)
(0.810229 -0.496288 -2.30627e-20)
(0.808998 -0.506477 1.65025e-20)
(0.794207 -0.492441 -1.89668e-21)
(0.773825 -0.465718 -5.51831e-21)
(0.746447 -0.442337 0)
(0.700473 -0.43724 0)
(0.637335 -0.435426 1.73227e-21)
(0.582943 -0.388822 -2.18469e-21)
(0.566276 -0.262684 -6.59486e-23)
(0.590952 -0.0778959 2.82357e-21)
(0.640381 0.111864 -2.74412e-21)
(0.696308 0.258792 0)
(0.749946 0.347277 2.444e-22)
(0.790421 0.39173 1.80806e-21)
(0.801694 0.433756 -3.51318e-21)
(0.778217 0.477457 1.53534e-21)
(0.73922 0.483692 2.45906e-22)
(0.719983 0.389949 -2.97417e-21)
(0.731203 0.203185 2.3344e-21)
(0.764633 -0.0170407 6.34181e-22)
(0.804053 -0.198377 5.26114e-22)
(0.836114 -0.295769 -3.75085e-22)
(0.853006 -0.346566 0)
(0.82411 -0.357464 0)
(0.779724 -0.381425 -6.47497e-22)
(0.736328 -0.308547 3.14474e-22)
(0.736663 -0.198542 -2.598e-22)
(0.766423 -0.014967 3.74752e-22)
(0.787813 0.157074 4.50559e-22)
(0.791762 0.270064 -1.29655e-22)
(0.757173 0.410519 2.05103e-22)
(0.750743 0.308926 -1.95178e-22)
(0.743757 0.288969 1.15276e-22)
(0.76594 0.0576286 0)
(0.75053 -0.160044 0)
(-0.0801802 -0.287422 -8.62783e-20)
(-0.0981352 -0.289505 5.97929e-21)
(-0.110568 -0.281301 7.59133e-20)
(-0.122337 -0.262718 -5.67736e-22)
(-0.131472 -0.232594 0)
(-0.136836 -0.190045 0)
(-0.137098 -0.134811 -5.07118e-20)
(-0.130913 -0.0675593 2.46352e-21)
(-0.116518 0.00963652 6.61539e-20)
(-0.0934832 0.0952974 -1.57353e-21)
(-0.0631691 0.185442 -1.90818e-20)
(-0.0293848 0.271365 -1.59128e-20)
(0.00970564 0.351836 1.58955e-20)
(0.0560228 0.421495 0)
(0.107418 0.474942 -1.3728e-20)
(0.165766 0.506335 1.24933e-20)
(0.234342 0.5081 0)
(0.315709 0.472712 0)
(0.408423 0.396817 2.01227e-20)
(0.505955 0.28328 2.68341e-21)
(0.600813 0.137694 -2.08936e-20)
(0.688939 -0.0323747 -2.37037e-20)
(0.766607 -0.207717 2.37111e-20)
(0.824911 -0.357522 -1.80389e-20)
(0.856185 -0.456173 3.80346e-21)
(0.862241 -0.499451 1.32325e-20)
(0.8499 -0.502679 1.05797e-21)
(0.825476 -0.484807 4.22927e-24)
(0.796808 -0.455961 0)
(0.765756 -0.426859 3.72178e-21)
(0.720821 -0.413033 -3.81698e-21)
(0.656696 -0.409355 2.36904e-22)
(0.593451 -0.375003 0)
(0.563068 -0.269098 -3.11767e-22)
(0.576553 -0.100121 4.72922e-21)
(0.620896 0.0831569 -8.36611e-21)
(0.678265 0.23127 5.17185e-23)
(0.737048 0.325916 3.42865e-22)
(0.782967 0.380427 2.7648e-21)
(0.797663 0.434325 3.81156e-22)
(0.778388 0.48692 -3.58734e-21)
(0.745536 0.494631 3.01754e-21)
(0.734262 0.39591 -3.22019e-23)
(0.751678 0.202298 2.70648e-21)
(0.78734 -0.0228055 -3.26729e-21)
(0.824156 -0.206248 -3.57291e-21)
(0.850887 -0.30162 1.04682e-21)
(0.865499 -0.345016 9.96991e-22)
(0.834516 -0.347918 -1.70153e-21)
(0.790355 -0.370557 1.03709e-21)
(0.743594 -0.304261 -2.61595e-22)
(0.742697 -0.203579 2.99954e-22)
(0.769001 -0.0226259 2.04891e-22)
(0.787759 0.153302 -6.01355e-22)
(0.791563 0.272073 -9.13021e-24)
(0.755026 0.415242 -1.99258e-22)
(0.751362 0.310085 0)
(0.744345 0.287576 -9.78764e-23)
(0.771565 0.0577595 3.14248e-22)
(0.756277 -0.158723 0)
(0.0520708 -0.270999 8.26567e-20)
(0.0253368 -0.275473 -1.53911e-19)
(0.0047116 -0.271641 7.0726e-20)
(-0.0158026 -0.257907 5.65011e-20)
(-0.0346964 -0.233434 -1.04701e-19)
(-0.0504973 -0.197286 5.09106e-21)
(-0.0618326 -0.149002 4.24006e-20)
(-0.067443 -0.0889188 3.41209e-20)
(-0.0646891 -0.0184591 -3.34603e-20)
(-0.0510133 0.0596754 0)
(-0.0303485 0.141947 -2.45709e-20)
(-0.00325792 0.222479 4.67229e-20)
(0.0350693 0.301634 -2.23516e-20)
(0.0835872 0.370914 0)
(0.141861 0.424241 0)
(0.210727 0.454796 4.00541e-22)
(0.291347 0.455123 -2.99878e-20)
(0.383558 0.419238 2.91281e-20)
(0.483616 0.345961 0)
(0.584301 0.239005 4.64601e-20)
(0.679676 0.101883 -9.1461e-20)
(0.767881 -0.0601882 9.3116e-20)
(0.844111 -0.228059 -8.94808e-20)
(0.896921 -0.369398 5.73652e-21)
(0.918424 -0.459321 6.33017e-20)
(0.912611 -0.495589 -2.76926e-20)
(0.889687 -0.493941 -5.36667e-22)
(0.856995 -0.473683 -5.12882e-21)
(0.821025 -0.444544 1.17965e-21)
(0.785974 -0.412437 4.06427e-21)
(0.74257 -0.390779 2.03086e-22)
(0.680149 -0.382822 -2.97935e-21)
(0.611043 -0.357793 6.22705e-21)
(0.567627 -0.271998 -3.62148e-21)
(0.568652 -0.121228 0)
(0.606412 0.0532607 -4.06985e-21)
(0.663988 0.201221 3.90113e-21)
(0.726595 0.301823 -2.54739e-21)
(0.776976 0.36667 3.16209e-21)
(0.794979 0.432489 -3.53149e-22)
(0.780281 0.493951 0)
(0.753771 0.5038 -5.02611e-22)
(0.75003 0.401552 1.88417e-21)
(0.773489 0.202532 0)
(0.811685 -0.0263589 6.58917e-21)
(0.84609 -0.211683 -2.72074e-21)
(0.867174 -0.30594 8.30757e-22)
(0.879171 -0.342988 5.83172e-22)
(0.846182 -0.33822 0)
(0.802135 -0.359519 0)
(0.752104 -0.299815 -6.66662e-22)
(0.749928 -0.208596 9.42743e-22)
(0.772946 -0.030346 -4.87899e-22)
(0.789127 0.149444 1.45628e-22)
(0.792788 0.27383 3.21398e-22)
(0.75416 0.419946 1.99451e-22)
(0.75308 0.311153 -4.44422e-22)
(0.745963 0.285772 0)
(0.778491 0.0575953 -4.53465e-22)
(0.76317 -0.157381 -1.53321e-22)
(0.229025 -0.245619 8.03964e-20)
(0.197597 -0.251001 -7.97133e-20)
(0.168281 -0.250603 5.1734e-22)
(0.139406 -0.241533 -4.03914e-22)
(0.110766 -0.222917 3.8186e-22)
(0.084461 -0.193886 -3.25287e-22)
(0.0622201 -0.153871 4.27016e-22)
(0.0451752 -0.102983 0)
(0.0351368 -0.0418265 -2.73252e-22)
(0.0359496 0.0271991 2.15249e-22)
(0.0474144 0.100219 1.88044e-22)
(0.0683539 0.176198 -2.99354e-22)
(0.102137 0.250475 0)
(0.148778 0.316564 0)
(0.208403 0.367903 2.32927e-22)
(0.280991 0.397295 0)
(0.366102 0.397606 -3.69127e-22)
(0.461758 0.36387 0)
(0.56291 0.296137 -3.89119e-20)
(0.66237 0.19809 8.23759e-20)
(0.75618 0.0710367 -8.96148e-20)
(0.843971 -0.081972 4.6102e-20)
(0.918598 -0.241148 4.26463e-20)
(0.965522 -0.373158 -4.14071e-20)
(0.977291 -0.454585 -2.89295e-20)
(0.960337 -0.485385 2.78788e-20)
(0.92767 -0.481013 0)
(0.888044 -0.459752 3.85094e-22)
(0.846112 -0.431499 0)
(0.806838 -0.398854 0)
(0.764744 -0.371142 4.70782e-21)
(0.70622 -0.35718 -4.87185e-21)
(0.63481 -0.33778 2.51371e-22)
(0.580016 -0.270846 3.88695e-22)
(0.567821 -0.140225 -3.15523e-22)
(0.597492 0.0229408 -2.83581e-21)
(0.653606 0.169095 2.75371e-21)
(0.718417 0.275106 -2.85303e-21)
(0.77223 0.350242 2.44389e-21)
(0.793427 0.427813 6.89288e-22)
(0.783545 0.498241 -3.71863e-21)
(0.763401 0.511229 -1.61926e-21)
(0.76665 0.406992 3.2968e-21)
(0.795969 0.20402 0)
(0.837079 -0.0277235 -2.91304e-21)
(0.8695 -0.214621 3.04722e-21)
(0.884737 -0.308635 -4.10835e-21)
(0.893775 -0.340516 -5.86858e-22)
(0.858926 -0.328434 0)
(0.814845 -0.348247 2.10256e-22)