/*--------------------------------*- C++ -*----------------------------------*\
| =========                 |                                                 |
| \\      /  F ield         | OpenFOAM: The Open Source CFD Toolbox           |
|  \\    /   O peration     | Version:  2512                                  |
|   \\  /    A nd           | Website:  www.openfoam.com                      |
|    \\/     M anipulation  |                                                 |
\*---------------------------------------------------------------------------*/
FoamFile
{
    version     2.0;
    format      ascii;
    arch        "LSB;label=32;scalar=64";
    class       surfaceScalarField;
    location    "120";
    object      phi;
}
// * * * * * * * * * * * * * * * * * * * * * * * * * * * * * * * * * * * * * //

dimensions      [0 3 -1 0 0 0 0];

oriented        oriented;

internalField   nonuniform List<scalar> 
26232
(
1.91478e-05
0.00108375
-0.0011029
0.000386186
0.0020162
-0.00238323
0.00134317
0.00187986
-0.00283684
0.00309931
0.000709833
-0.00246597
0.00584934
-0.00149351
-0.00125652
0.00977549
-0.00474264
0.000816485
0.0150384
-0.00904398
0.0037811
0.0217575
-0.0143788
0.00765967
0.0299866
-0.020686
0.0124569
0.0396883
-0.0278509
0.0181492
0.0507163
-0.0357031
0.0246751
0.062811
-0.044024
0.0319294
0.0756113
-0.0525635
0.0397632
0.0886831
-0.0610612
0.0479894
0.10156
-0.0692711
0.0563938
0.113794
-0.0769839
0.0647504
0.125001
-0.0840463
0.0728395
0.134905
-0.0903735
0.0804688
0.143372
-0.0959507
0.0874845
0.150392
-0.100836
0.0938155
0.156093
-0.105096
0.0993957
0.160583
-0.108947
0.104456
0.163818
-0.11204
0.108805
-0.115601
0.113664
0.165755
7.9811e-05
0.00100394
0.000639402
0.0014566
0.00194952
0.000569744
0.00425179
-0.00159243
0.00776545
-0.00500717
0.0126757
-0.00965293
0.01911
-0.0154782
0.0271073
-0.0223761
0.0365912
-0.0301699
0.047355
-0.0386147
0.0590671
-0.0474152
0.0712985
-0.0562555
0.0835688
-0.0648337
0.0954013
-0.0728938
0.106381
-0.0802506
0.116201
-0.0868042
0.124695
-0.0925406
0.131843
-0.0975216
0.137755
-0.101863
0.142624
-0.105705
0.14671
-0.109183
0.150193
-0.112429
0.153567
-0.115413
-0.118714
0.15668
0.000173472
0.000830464
0.00100858
0.000621494
0.00279325
-0.00121492
0.0057843
-0.00458348
0.0101968
-0.00941971
0.016175
-0.0156311
0.0237549
-0.0230581
0.0328325
-0.0314537
0.0431511
-0.0404886
0.0543176
-0.0497812
0.0658467
-0.0589443
0.0772253
-0.0676342
0.0879827
-0.075591
0.0977511
-0.0826621
0.106307
-0.0888064
0.113584
-0.094081
0.119657
-0.0986138
0.124705
-0.102569
0.128957
-0.106115
0.132649
-0.109396
0.135979
-0.112513
0.139106
-0.115556
0.142153
-0.118461
-0.121625
0.145064
0.0002913
0.000539165
0.00146447
-0.000551672
0.00380974
-0.00356019
0.00757355
-0.00834729
0.0129263
-0.0147724
0.0199162
-0.0226211
0.0284293
-0.0315711
0.0381747
-0.0411992
0.0487104
-0.0510243
0.0595049
-0.0605756
0.0700208
-0.0694601
0.0797976
-0.077411
0.0885141
-0.0843076
0.0960177
-0.0901657
0.102318
-0.0951068
0.107551
-0.0993142
0.111926
-0.102989
0.115671
-0.106314
0.118992
-0.109436
0.122051
-0.112455
0.12497
-0.115432
0.127821
-0.118407
0.130713
-0.121353
-0.124526
0.133614
0.000426438
0.000112726
0.00197956
-0.00210479
0.00493233
-0.00651297
0.00948637
-0.0129013
0.0157176
-0.0210037
0.0235228
-0.0304263
0.0325967
-0.040645
0.0424609
-0.0510634
0.0525428
-0.0611062
0.0622791
-0.0703119
0.0712119
-0.0783929
0.079052
-0.0852511
0.0856969
-0.0909525
0.0912068
-0.0956756
0.0957524
-0.0996524
0.0995542
-0.103116
0.10283
-0.106265
0.105764
-0.109248
0.108491
-0.112164
0.111107
-0.115071
0.113675
-0.118
0.116235
-0.120967
0.118839
-0.123956
-0.127104
0.121417
0.000574578
-0.000461851
0.00253099
-0.0040612
0.00609765
-0.0100796
0.0113886
-0.0181923
0.0183334
-0.0279484
0.0266357
-0.0387286
0.035797
-0.0498062
0.045206
-0.0604724
0.0542646
-0.0701648
0.0625007
-0.0785481
0.0696359
-0.0855281
0.0755947
-0.09121
0.0804667
-0.0958244
0.0844417
-0.0996506
0.0877448
-0.102955
0.0905856
-0.105957
0.0931324
-0.108812
0.0955055
-0.111621
0.0977852
-0.114443
0.100023
-0.117308
0.102252
-0.120229
0.104496
-0.123211
0.106784
-0.126244
-0.129401
0.109081
0.000732354
-0.00119421
0.00309578
-0.00642463
0.00723885
-0.0142227
0.0131411
-0.0240945
0.0205429
-0.0353503
0.028947
-0.0471327
0.037709
-0.0585683
0.0461839
-0.0689473
0.0538622
-0.0778431
0.0604495
-0.0851353
0.0658729
-0.0909516
0.0702331
-0.0955702
0.0737296
-0.0993209
0.0765901
-0.102511
0.0790205
-0.105386
0.0811811
-0.108117
0.0831833
-0.110814
0.0850988
-0.113536
0.0869718
-0.116316
0.0888296
-0.119166
0.0906908
-0.122091
0.092568
-0.125088
0.0944781
-0.128155
-0.131314
0.0963916
0.000894554
-0.00208876
0.00364564
-0.00917571
0.0082808
-0.0188579
0.0146023
-0.0304161
0.0221443
-0.0428922
0.030243
-0.0552314
0.0381968
-0.066522
0.0454327
-0.0761832
0.0516089
-0.0840193
0.0566283
-0.0901548
0.0605852
-0.0949084
0.0636811
-0.0986661
0.0661471
-0.101787
0.0681904
-0.104554
0.0699701
-0.107166
0.0715946
-0.109742
0.0731319
-0.112351
0.0746223
-0.115027
0.0760901
-0.117784
0.0775513
-0.120627
0.0790174
-0.123557
0.0804981
-0.126569
0.0820042
-0.129661
-0.132831
0.0835214
0.00105337
-0.00314212
0.00414609
-0.0122684
0.00914404
-0.0238558
0.0156455
-0.0369176
0.0229957
-0.0502424
0.0304371
-0.0626729
0.0373089
-0.0733938
0.0431869
-0.0820611
0.0479185
-0.0887509
0.0515709
-0.0938072
0.0543391
-0.0976767
0.0564577
-0.100785
0.0581401
-0.103469
0.0595499
-0.105964
0.0607978
-0.108413
0.0619519
-0.110896
0.0630515
-0.113451
0.0641194
-0.116095
0.0651698
-0.118834
0.0662127
-0.12167
0.0672562
-0.1246
0.0683075
-0.12762
0.0693726
-0.130726
-0.133904
0.0704453
0.00119864
-0.00434076
0.00455976
-0.0156296
0.00975557
-0.0290516
0.0161789
-0.0433409
0.0230375
-0.0571009
0.0295681
-0.0692035
0.0352285
-0.0790542
0.0397728
-0.0866055
0.0432142
-0.0921923
0.0457275
-0.0963205
0.0475484
-0.0994975
0.0488997
-0.102136
0.0499552
-0.104525
0.0508332
-0.106842
0.0516055
-0.109186
0.0523129
-0.111603
0.0529782
-0.114116
0.0536147
-0.116731
0.0542316
-0.119451
0.0548362
-0.122275
0.0554345
-0.125199
0.0560325
-0.128218
0.0566343
-0.131327
-0.134511
0.0572413
0.00131982
-0.00566058
0.00485311
-0.0191629
0.010062
-0.0342605
0.0161605
-0.0494395
0.0222918
-0.0632322
0.0277666
-0.0746783
0.0322026
-0.0834902
0.0355218
-0.0899247
0.0378569
-0.0945273
0.039436
-0.0978997
0.0404928
-0.100554
0.041216
-0.102859
0.0417366
-0.105045
0.0421345
-0.10724
0.0424546
-0.109506
0.0427209
-0.11187
0.042947
-0.114342
0.0431415
-0.116926
0.0433111
-0.119621
0.0434614
-0.122425
0.0435972
-0.125334
0.0437221
-0.128343
0.0438382
-0.131444
-0.134623
0.0439498
0.00141045
-0.00707103
0.00500489
-0.0227573
0.010039
-0.0392945
0.0156004
-0.0550009
0.020846
-0.0684779
0.0252152
-0.0790475
0.0284909
-0.0867659
0.0307284
-0.0921622
0.0321311
-0.09593
0.0329386
-0.0987072
0.0333584
-0.100974
0.0335393
-0.10304
0.0335744
-0.10508
0.0335158
-0.107182
0.0333908
-0.109381
0.0332137
-0.111693
0.032993
-0.114121
0.0327349
-0.116668
0.0324446
-0.119331
0.0321271
-0.122108
0.0317867
-0.124994
0.0314267
-0.127983
0.0310478
-0.131065
0.0306567
-0.134232
-0.000120764
0.0025705
-0.00244974
-0.000482182
0.00662654
-0.00626512
-0.00108478
0.00988793
-0.00928533
-0.00191439
0.0124433
-0.0116137
-0.00294312
0.0143996
-0.0133709
-0.00413429
0.0158847
-0.0146936
-0.0054478
0.0170274
-0.0157139
-0.00684428
0.0179382
-0.0165417
-0.00828737
0.0186965
-0.0172534
-0.00974412
0.0193461
-0.0178893
-0.0111839
0.0198967
-0.0184569
-0.0125766
0.0203288
-0.0189361
-0.0138909
0.0206007
-0.0192865
-0.0150921
0.0206542
-0.019453
-0.0161418
0.0204194
-0.0193698
-0.0169969
0.0198187
-0.0189636
-0.0176099
0.0187693
-0.0181563
-0.0179295
0.0171865
-0.0168669
-0.0179007
0.0149866
-0.0150154
-0.0174651
0.0120917
-0.0125273
-0.0165682
0.00844251
-0.00933943
-0.0151557
0.00398567
-0.00539819
-0.0132743
-0.00124011
-0.000641276
-0.00713429
-0.0107608
0.00462079
-9.17393e-06
0.00257967
-0.000110629
0.00672799
-0.000350425
0.0101277
-0.000745461
0.0128384
-0.00128757
0.0149418
-0.0019494
0.0165466
-0.00269132
0.0177694
-0.0034678
0.0187147
-0.00423218
0.0194608
-0.00493943
0.0200533
-0.00554708
0.0205043
-0.00601484
0.0207966
-0.00630366
0.0208895
-0.00637481
0.0207253
-0.00618928
0.0202339
-0.00570772
0.0193372
-0.00489071
0.0179523
-0.00369918
0.0159949
-0.00209493
0.0133824
-4.02884e-05
0.0100371
0.00251841
0.00588382
0.00563305
0.000871028
0.00931627
-0.00492334
-0.0114877
0.0136697
9.53468e-05
0.00248433
0.000247622
0.00657572
0.000376706
0.00999864
0.000440602
0.0127745
0.000429698
0.0149527
0.000361249
0.016615
0.000272174
0.0178584
0.000211549
0.0187753
0.000234084
0.0194383
0.000395281
0.0198921
0.000748557
0.020151
0.0013439
0.0202012
0.00222761
0.0200058
0.00344246
0.0195105
0.00502793
0.0186484
0.00702021
0.0173449
0.00945196
0.0155206
0.0123524
0.0130945
0.0157469
0.00998775
0.0196579
0.00612617
0.0241046
0.00143707
0.0290958
-0.0041202
0.0347008
-0.0105283
-0.0178213
0.0410344
0.000180377
0.00230395
0.000553504
0.00620259
0.00102052
0.00953162
0.00152402
0.012271
0.00204104
0.0144356
0.00257892
0.0160771
0.0031692
0.0172682
0.00386033
0.0180842
0.0047104
0.0185882
0.00578105
0.0188215
0.00713296
0.0187991
0.00882305
0.0185112
0.010903
0.0179259
0.0134188
0.0169946
0.0164109
0.0156564
0.019914
0.0138418
0.0239581
0.0114764
0.028569
0.00848362
0.0337716
0.00478521
0.0395596
0.000338135
0.0459931
-0.00499643
0.0530707
-0.0111977
0.0607705
-0.0182281
-0.0263418
0.0692909
0.000236925
0.00206702
0.000774152
0.00566536
0.00151251
0.00879327
0.00239112
0.0113924
0.00338046
0.0134463
0.0044801
0.0149775
0.00571469
0.0160336
0.00712797
0.0166709
0.00877612
0.0169401
0.0107214
0.0168763
0.0130267
0.0164937
0.0157525
0.0157854
0.0189541
0.0147244
0.0226809
0.0132678
0.0269772
0.0113602
0.0318821
0.00893684
0.0374325
0.00592601
0.0436543
0.0022619
0.0505922
-0.00215278
0.0582973
-0.00736692
0.066744
-0.0134431
0.0759891
-0.0204428
0.0859431
-0.0281821
-0.0372632
0.0968645
0.000259684
0.00180734
0.000888237
0.00503681
0.00180408
0.00787743
0.0029555
0.0102409
0.00431471
0.0120871
0.00587785
0.0134143
0.00766349
0.0142479
0.00970885
0.0146255
0.0120647
0.0145842
0.01479
0.014151
0.017947
0.0133368
0.0215978
0.0121345
0.0258026
0.0105196
0.0306188
0.00845158
0.0361021
0.00587683
0.042305
0.00273394
0.0492841
-0.0010531
0.0571028
-0.00555677
0.0657972
-0.0108472
0.0754135
-0.0169832
0.0859603
-0.0239899
0.0974287
-0.0319112
0.109656
-0.0404096
-0.050406
0.122799
0.000247961
0.00155938
0.000889991
0.00439478
0.00187729
0.00689012
0.00317848
0.00893976
0.00477611
0.0104895
0.00666903
0.0115214
0.00887362
0.0120433
0.0114227
0.0120764
0.0143628
0.0116441
0.0177508
0.010763
0.0216505
0.00943708
0.0261305
0.00765452
0.0312628
0.00538719
0.0371216
0.00259277
0.0437841
-0.000785628
0.0513336
-0.0048155
0.0598416
-0.00956117
0.0693726
-0.0150877
0.079969
-0.0214436
0.0916297
-0.028644
0.104309
-0.0366696
0.117856
-0.0454578
0.13205
-0.0546036
-0.0650219
0.146666
0.000206165
0.00135321
0.000792104
0.00380884
0.00175293
0.0059293
0.00308621
0.00760648
0.00479283
0.00878283
0.00688207
0.00943218
0.00937561
0.00954981
0.0123094
0.00914268
0.0157336
0.0082199
0.0197118
0.00678477
0.0243196
0.00482934
0.0296421
0.00233202
0.0357724
-0.000743136
0.0428113
-0.00444613
0.0508549
-0.00882919
0.0599878
-0.0139484
0.0702747
-0.0198481
0.0817379
-0.0265509
0.0943421
-0.0340478
0.107964
-0.0422662
0.122417
-0.0511218
0.137334
-0.0603755
0.152476
-0.069745
-0.0796284
0.167082
0.00014423
0.00120898
0.000627365
0.00332571
0.0014951
0.00506157
0.00278011
0.00632146
0.00450931
0.00705364
0.00671197
0.00722952
0.00942654
0.00683524
0.0127051
0.00586412
0.0166156
0.00430937
0.0212421
0.00215823
0.0266826
-0.000611093
0.0330457
-0.00403112
0.0404416
-0.008139
0.0489698
-0.0129743
0.0587083
-0.0185677
0.0696923
-0.0249324
0.0818965
-0.0320522
0.095216
-0.0398704
0.109453
-0.0482846
0.12431
-0.0571233
0.139408
-0.0662198
0.154242
-0.0752099
0.168535
-0.0840376
-0.0923535
0.18126
7.74928e-05
0.00113149
0.00044732
0.00295588
0.00120813
0.00430076
0.00243237
0.00509722
0.00418097
0.00530504
0.00651455
0.00489594
0.00950201
0.00384778
0.013226
0.00214014
0.0177842
-0.000248849
0.0232874
-0.00334494
0.0298512
-0.00717489
0.0375836
-0.0117635
0.0465698
-0.0171253
0.0568517
-0.0232562
0.0684083
-0.0301243
0.081138
-0.0376622
0.0948467
-0.0457609
0.109246
-0.0542697
0.123958
-0.0629967
0.138556
-0.0717208
0.152551
-0.0802148
0.165517
-0.0881767
0.17711
-0.0956302
-0.101888
0.186644
2.46842e-05
0.00110681
0.000314429
0.00266613
0.00101917
0.00359603
0.00225477
0.00386162
0.00412376
0.00343604
0.006728
0.0022917
0.0101762
0.000399573
0.0145865
-0.0022702
0.0200819
-0.00574422
0.0267789
-0.010042
0.0347718
-0.0151677
0.044111
-0.0211027
0.0547824
-0.0277967
0.0666889
-0.0351627
0.0796387
-0.0430742
0.0933443
-0.0513678
0.107432
-0.0598487
0.121469
-0.0683061
0.134992
-0.0765197
0.14758
-0.084309
0.158848
-0.0914833
0.168679
-0.0980071
0.176806
-0.103758
-0.108415
0.183333
3.91272e-06
0.000286813
0.001046
0.00244164
0.00462116
0.00772935
0.01191
0.0172995
0.0240122
0.0321195
0.0416268
0.0524535
0.06442
0.0772468
0.0905663
0.103949
0.11694
0.129103
0.140067
0.149574
0.157486
0.163935
0.168982
0.174232
-0.00720712
-0.0190517
0.0154981
-0.00337346
-0.0318762
0.0280426
0.000726659
-0.0462137
0.0421136
0.00474154
-0.0611909
0.057176
0.00848127
-0.0761912
0.0724514
0.0116589
-0.090455
0.0872773
0.0139884
-0.103317
0.100988
0.0153729
-0.114333
0.112949
0.0162146
-0.123274
0.122432
0.0174115
-0.129679
0.128482
0.0202985
-0.132394
0.129507
0.0261689
-0.129292
0.123422
0.0355195
-0.117793
0.108443
0.047789
-0.096113
0.0838436
0.0618097
-0.0643259
0.0503053
0.0764994
-0.0242991
0.00960931
0.0910689
0.0208267
-0.0353962
0.1048
0.0663927
-0.0801235
0.116644
0.106401
-0.118245
0.125597
0.136333
-0.145286
0.131298
0.15506
-0.160761
0.134155
0.164206
-0.167063
0.134455
0.167504
-0.167804
0.131797
0.171003
-0.168345
0.126233
0.179532
-0.173968
0.119808
0.188822
-0.182397
0.116054
0.183558
-0.179804
0.117404
0.14752
-0.14887
0.123759
0.0789417
-0.085296
0.133116
-0.00669529
-0.00266249
0.142767
-0.0867822
0.0771316
0.15038
-0.145983
0.138369
0.155107
-0.180823
0.176097
0.157186
-0.195425
0.193345
0.156208
-0.199942
0.200921
0.151174
-0.205968
0.211002
0.142832
-0.219039
0.227382
0.134633
-0.218476
0.226675
0.130589
-0.183569
0.187612
0.132178
-0.101535
0.0999465
0.138308
-0.000570156
-0.00556018
0.146257
0.0950252
-0.102974
0.152896
0.163556
-0.170196
0.154887
0.206692
-0.208683
0.15087
0.246174
-0.242157
0.143233
0.262376
-0.254738
0.137195
0.258482
-0.252444
0.136307
0.171806
-0.170918
0.141167
0.0647401
-0.0695997
0.147388
-0.061723
0.0555019
0.150054
-0.156026
0.153359
0.147278
-0.212647
0.215424
0.142731
-0.292776
0.297322
0.140731
-0.246195
0.248196
0.142301
-0.228712
0.227142
0.143841
-0.0634947
0.0619549
0.14344
0.0803024
-0.0799015
0.141907
0.171986
-0.170453
0.14011
0.368776
-0.36698
0.192969
-0.191368
0.0169734
-0.0223555
0.0202232
-0.0351261
0.0234322
-0.0494227
0.0264987
-0.0642574
0.0291169
-0.0788094
0.0309548
-0.0922928
0.0316224
-0.103985
0.0307732
-0.113484
0.0283229
-0.120823
0.0249156
-0.126272
0.0220728
-0.129551
0.0218711
-0.129091
0.0259986
-0.121921
0.0348691
-0.104984
0.0475579
-0.0770146
0.0626073
-0.0393486
0.0787266
0.00470743
0.0946592
0.0504601
0.109078
0.0919814
0.120728
0.124684
0.129039
0.146749
0.134132
0.159114
0.136066
0.165571
0.134655
0.172414
0.130537
0.18365
0.126002
0.193357
0.12401
0.185551
0.126088
0.145441
0.131851
0.0731785
0.139633
-0.014477
0.147294
-0.0944431
0.152876
-0.151564
0.155689
-0.183636
0.156202
-0.195938
0.154243
-0.197983
0.148642
-0.200367
0.139741
-0.210139
0.130929
-0.209664
0.126621
-0.179261
0.128653
-0.103566
0.135939
-0.00785629
0.145303
0.0856613
0.153096
0.155762
0.155884
0.203905
0.152443
0.249615
0.145313
0.269506
0.13943
0.264365
0.138086
0.17315
0.142253
0.060573
0.147916
-0.067386
0.150393
-0.158502
0.147399
-0.209653
0.142723
-0.2881
0.140687
-0.244159
0.142134
-0.23016
0.143534
-0.0648943
0.142996
0.0808397
0.141507
0.173475
0.139753
0.37053
0.194545
0.0435985
-0.0249195
0.0461719
-0.0376995
0.0485476
-0.0517984
0.0505575
-0.0662672
0.052023
-0.0802749
0.0527134
-0.0929833
0.0522635
-0.103535
0.0501765
-0.111397
0.0460088
-0.116655
0.0397393
-0.120002
0.0323655
-0.122177
0.0260987
-0.122824
0.0237259
-0.119548
0.0271955
-0.108453
0.036606
-0.0864251
0.0505461
-0.0532887
0.0672653
-0.0120117
0.0847887
0.0329367
0.101404
0.0753658
0.115605
0.110483
0.126531
0.135822
0.133926
0.151719
0.137665
0.161832
0.137849
0.17223
0.135566
0.185933
0.133098
0.195825
0.132707
0.185942
0.135214
0.142934
0.140025
0.068368
0.145994
-0.0204457
0.151504
-0.0999538
0.15503
-0.15509
0.156013
-0.184619
0.155062
-0.194986
0.152265
-0.195187
0.14635
-0.194451
0.137165
-0.200954
0.127842
-0.200341
0.123159
-0.174578
0.125456
-0.105864
0.133642
-0.0160416
0.144298
0.0750054
0.153217
0.146843
0.156909
0.200213
0.154222
0.252301
0.147738
0.275991
0.142049
0.270054
0.14018
0.175019
0.143508
0.0572442
0.148532
-0.0724101
0.150819
-0.160788
0.147631
-0.206465
0.142767
-0.283236
0.140661
-0.242053
0.142033
-0.231532
0.143362
-0.0662226
0.142699
0.0815026
0.141238
0.174936
0.13954
0.372228
0.196071
0.0712212
-0.0268498
0.0730877
-0.039566
0.0746241
-0.0533348
0.0755317
-0.0671748
0.0756904
-0.0804336
0.0749846
-0.0922775
0.0732356
-0.101786
0.0701873
-0.108349
0.0654119
-0.11188
0.0583738
-0.112964
0.0490029
-0.112806
0.03859
-0.112411
0.0300368
-0.110995
0.0267535
-0.10517
0.0307443
-0.0904159
0.0416078
-0.0641522
0.0573083
-0.0277123
0.0755435
0.0147015
0.0937612
0.0571482
0.110195
0.0940494
0.123591
0.122426
0.133271
0.142038
0.138971
0.156132
0.141058
0.170143
0.140912
0.186079
0.140602
0.196135
0.14165
0.184894
0.144263
0.140321
0.147976
0.0646541
0.152009
-0.0244782
0.155336
-0.103281
0.156836
-0.156591
0.156095
-0.183878
0.153778
-0.192669
0.150233
-0.191641
0.144204
-0.188422
0.13503
-0.19178
0.125382
-0.190693
0.120223
-0.16942
0.122536
-0.108177
0.131409
-0.0249147
0.143184
0.0632304
0.153204
0.136824
0.157917
0.195499
0.156165
0.254053
0.150464
0.281692
0.145008
0.27551
0.142559
0.177468
0.144934
0.054869
0.14922
-0.0766956
0.151307
-0.162876
0.147951
-0.20311
0.142843
-0.278127
0.140628
-0.239838
0.141974
-0.232879
0.143309
-0.0675574
0.142539
0.0822726
0.141094
0.176381
0.139472
0.373849
0.197516
0.0985441
-0.0285294
0.0998217
-0.0408436
0.100403
-0.053916
0.100034
-0.0668062
0.0986736
-0.079073
0.0963172
-0.0899211
0.0929593
-0.0984278
0.0886181
-0.104007
0.083222
-0.106484
0.0763777
-0.10612
0.0673879
-0.103816
0.056057
-0.10108
0.0439298
-0.0988678
0.03452
-0.0957601
0.0316486
-0.0875445
0.0371123
-0.0696159
0.0497822
-0.0403821
0.0673555
-0.00287174
0.0862862
0.0382174
0.104415
0.0759202
0.119932
0.10691
0.131754
0.130215
0.139505
0.148381
0.143739
0.165908
0.145956
0.183863
0.147858
0.194233
0.150233
0.182518
0.152816
0.137738
0.155358
0.0621121
0.157505
-0.0266245
0.158692
-0.104468
0.15822
-0.156118
0.15588
-0.181539
0.152328
-0.189117
0.14812
-0.187433
0.142135
-0.182438
0.133252
-0.182896
0.123509
-0.18095
0.117853
-0.163764
0.119923
-0.110247
0.129171
-0.0341623
0.141889
0.0505118
0.152983
0.125731
0.158838
0.189644
0.158194
0.254697
0.15341
0.286476
0.148234
0.280686
0.14519
0.180512
0.146499
0.0535598
0.149956
-0.0801531
0.151829
-0.164748
0.148341
-0.199622
0.142938
-0.272724
0.140566
-0.237467
0.141929
-0.234242
0.143355
-0.0689827
0.142506
0.0831214
0.141069
0.177819
0.139552
0.375366
0.198846
0.124099
-0.0298292
0.124687
-0.0414322
0.124205
-0.0534334
0.122456
-0.0650573
0.119509
-0.0761261
0.115465
-0.0858767
0.110446
-0.0934096
0.104646
-0.0982065
0.0982663
-0.100105
0.0913463
-0.0991997
0.0834452
-0.0959153
0.0736548
-0.0912897
0.0616429
-0.0868559
0.0491848
-0.083302
0.0402391
-0.0785988
0.0387653
-0.0681421
0.0461615
-0.0477784
0.0605786
-0.0172888
0.079026
0.01977
0.09803
0.0569163
0.115168
0.0897718
0.128921
0.116462
0.138761
0.138542
0.145309
0.15936
0.15002
0.179152
0.154155
0.190097
0.157836
0.178837
0.160468
0.135106
0.161882
0.0606982
0.162313
-0.027056
0.161471
-0.103626
0.159111
-0.153758
0.155316
-0.177744
0.150678
-0.184479
0.14588
-0.182636
0.140043
-0.176601
0.131695
-0.174548
0.122129
-0.171385
0.116014
-0.157648
0.117598
-0.11183
0.126898
-0.043462
0.140331
0.0370789
0.152462
0.1136
0.159573
0.182532
0.160203
0.254066
0.156468
0.290212
0.151626
0.285528
0.147984
0.184154
0.148186
0.0533568
0.150714
-0.0826808
0.15235
-0.166384
0.148774
-0.196046
0.143042
-0.266992
0.140459
-0.234884
0.141871
-0.235653
0.143477
-0.070589
0.142587
0.0840111
0.141156
0.17925
0.139781
0.376741
0.200023
0.147093
-0.0302564
0.146586
-0.0409251
0.144706
-0.0515538
0.141354
-0.0617053
0.136714
-0.0714851
0.130971
-0.0801339
0.124372
-0.0868112
0.117247
-0.0910809
0.109915
-0.0927731
0.102619
-0.091904
0.0953665
-0.0886623
0.0875784
-0.0835016
0.0781416
-0.0774192
0.0666488
-0.0718092
0.0550588
-0.0670087
0.0475367
-0.06062
0.0479079
-0.0481496
0.0569471
-0.026328
0.0725858
0.00413128
0.0910202
0.0384818
0.109013
0.0717795
0.124396
0.101079
0.136319
0.126619
0.145287
0.150392
0.152553
0.171886
0.158889
0.183761
0.163839
0.173888
0.166617
0.132328
0.167282
0.0600328
0.16625
-0.0260242
0.163564
-0.10094
0.159445
-0.149638
0.154348
-0.172648
0.148791
-0.178921
0.143476
-0.177321
0.13783
-0.170955
0.130199
-0.166917
0.121087
-0.162273
0.114636
-0.151197
0.115534
-0.112729
0.124552
-0.0524805
0.138428
0.0232032
0.15154
0.100488
0.160005
0.174067
0.162067
0.252004
0.1595
0.292779
0.155059
0.289969
0.150878
0.188335
0.149927
0.0543072
0.151463
-0.0842165
0.152832
-0.167753
0.14922
-0.192434
0.143148
-0.26092
0.140296
-0.232032
0.141771
-0.237128
0.143652
-0.0724701
0.14277
0.0848929
0.141349
0.180672
0.140159
0.37793
0.201005
0.166071
-0.0292451
0.163995
-0.0388493
0.160397
-0.0479559
0.155333
-0.0566414
0.149061
-0.0652128
0.141798
-0.0728713
0.13387
-0.078883
0.125698
-0.0829087
0.117677
-0.0847526
0.110105
-0.0843314
0.103149
-0.0817071
0.0966977
-0.0770499
0.0900099
-0.0707313
0.0818438
-0.0636431
0.0718079
-0.0569728
0.0619442
-0.0507563
0.056351
-0.0425564
0.0584719
-0.0284489
0.0687276
-0.00612443
0.0843751
0.0228342
0.101841
0.0543139
0.118201
0.0847191
0.132006
0.112813
0.143375
0.139024
0.153184
0.162077
0.16168
0.175264
0.167914
0.167654
0.171012
0.12923
0.171248
0.0597968
0.169116
-0.0238921
0.164857
-0.0966811
0.159152
-0.143933
0.152911
-0.166407
0.146612
-0.172622
0.140861
-0.17157
0.135406
-0.1655
0.128598
-0.16011
0.120189
-0.153864
0.113592
-0.1446
0.113702
-0.112839
0.122087
-0.0608652
0.136113
0.00917646
0.150116
0.086485
0.160008
0.164176
0.16363
0.248382
0.162352
0.294057
0.1584
0.29392
0.153757
0.192978
0.151681
0.0563836
0.152167
-0.0847029
0.153235
-0.168821
0.149644
-0.188844
0.143247
-0.254522
0.140071
-0.228856
0.141604
-0.238661
0.143854
-0.0747198
0.14304
0.0857069
0.14164
0.182072
0.140687
0.378884
0.201748
0.178697
-0.026682
0.174965
-0.0351174
0.169724
-0.0427155
0.163236
-0.0501526
0.155751
-0.0577286
0.147471
-0.0645906
0.138745
-0.0701578
0.130008
-0.0741716
0.121665
-0.0764093
0.114042
-0.0767082
0.107354
-0.0750189
0.101676
-0.071372
0.0967766
-0.0658321
0.0917981
-0.0586646
0.0854868
-0.0506615
0.0775164
-0.0427858
0.0698708
-0.0349108
0.0663429
-0.024921
0.0699088
-0.00969028
0.0803877
0.0123553
0.095226
0.0394756
0.111226
0.068719
0.126226
0.0978132
0.139673
0.125576
0.151849
0.149902
0.16239
0.164722
0.169937
0.160108
0.173603
0.125564
0.1737
0.0597
0.170818
-0.0210102
0.165243
-0.0911062
0.158134
-0.136825
0.150901
-0.159174
0.144043
-0.165764
0.137956
-0.165482
0.132665
-0.16021
0.126725
-0.154169
0.119223
-0.146362
0.1127
-0.138077
0.112011
-0.112149
0.119489
-0.068343
0.133342
-0.00467643
0.148101
0.0717261
0.159457
0.152819
0.164766
0.243073
0.164883
0.29394
0.161499
0.297304
0.1565
0.197977
0.153395
0.0594895
0.152789
-0.0840968
0.153515
-0.169547
0.150007
-0.185336
0.14333
-0.247845
0.139787
-0.225313
0.141347
-0.240221
0.144058
-0.0774316
0.143383
0.0863818
0.142024
0.183432
0.141364
0.379544
0.202209
0.183101
-0.0231387
0.178224
-0.0302408
0.171962
-0.0364537
0.164763
-0.0429532
0.156784
-0.0497492
0.14819
-0.0559965
0.139331
-0.0612993
0.130602
-0.0654424
0.122368
-0.0681755
0.114948
-0.0692878
0.108584
-0.0686552
0.10343
-0.0662186
0.0995026
-0.0619043
0.0964972
-0.0556592
0.0935359
-0.0477003
0.0894107
-0.0386606
0.0838455
-0.0293456
0.0786545
-0.01973
0.0771246
-0.00816041
0.0815144
0.00796556
0.0916508
0.0293392
0.105325
0.0550449
0.120145
0.0829932
0.134831
0.11089
0.148874
0.135859
0.16122
0.152377
0.170068
0.15126
0.174469
0.121163
0.174787
0.0593812
0.171382
-0.0176049
0.164673
-0.0843971
0.156323
-0.128475
0.148235
-0.151085
0.140994
-0.158523
0.134697
-0.159185
0.129535
-0.155048
0.124443
-0.149077
0.118003
-0.139923
0.111776
-0.13185
0.11036
-0.110734
0.116727
-0.0747103
0.130096
-0.0180447
0.145431
0.0563912
0.158235
0.140015
0.165289
0.23602
0.166898
0.29233
0.164209
0.299993
0.159026
0.20316
0.154988
0.0635277
0.153299
-0.082408
0.153632
-0.16988
0.150269
-0.181973
0.143396
-0.240972
0.139455
-0.221372
0.140974
-0.241741
0.144238
-0.0806949
0.143785
0.0868343
0.142493
0.184724
0.14219
0.379846
0.202338
0.179693
-0.0194983
0.174484
-0.0250324
0.168092
-0.0300611
0.160998
-0.0358594
0.153234
-0.041985
0.144982
-0.0477445
0.136563
-0.0528804
0.128304
-0.0571839
0.120529
-0.0604
0.113539
-0.0622982
0.107595
-0.062711
0.102884
-0.0615077
0.0994781
-0.0584983
0.097329
-0.0535101
0.0961181
-0.0464894
0.0950911
-0.0376336
0.0932916
-0.0275461
0.0904442
-0.0168826
0.0880964
-0.00581254
0.0882485
0.00781341
0.093201
0.0243867
0.102799
0.0454471
0.115532
0.0702601
0.129976
0.0964465
0.14494
0.120895
0.158503
0.138814
0.16839
0.141373
0.173814
0.115739
0.174769
0.0584262
0.171091
-0.0139264
0.163424
-0.0767302
0.154013
-0.119064
0.1452
-0.142272
0.137703
-0.151026
0.131298
-0.15278
0.12618
-0.14993
0.121808
-0.144704
0.116495
-0.13461
0.110745
-0.1261
0.108683
-0.108672
0.11378
-0.0798076
0.12637
-0.0306352
0.142031
0.0407307
0.156278
0.125767
0.165204
0.227094
0.168364
0.289171
0.166419
0.301938
0.161262
0.208318
0.156458
0.0683318
0.153717
-0.0796671
0.153594
-0.169757
0.150421
-0.178799
0.14346
-0.234011
0.139097
-0.217009
0.140491
-0.243135
0.14437
-0.0845743
0.14423
0.0869743
0.143042
0.185912
0.143166
0.379722
0.202089
0.171053
-0.0163191
0.16606
-0.0200397
0.16044
-0.024441
0.154173
-0.0295927
0.147278
-0.0350894
0.140023
-0.0404903
0.132666
-0.0455225
0.125455
-0.0499733
0.118663
-0.0536076
0.112539
-0.0561744
0.107272
-0.0574437
0.102986
-0.0572225
0.0998058
-0.0553178
0.0978434
-0.0515478
0.0971283
-0.0457742
0.0974391
-0.0379444
0.0981067
-0.0282137
0.0982594
-0.0170354
0.0974248
-0.00497791
0.0973948
0.0078434
0.0995784
0.0222032
0.105294
0.0397316
0.114619
0.0609352
0.126901
0.0841641
0.140966
0.10683
0.154648
0.125131
0.165634
0.130388
0.172636
0.108736
0.174528
0.0565344
0.170293
-0.0096912
0.161567
-0.0680048
0.151375
-0.108872
0.142111
-0.133009
0.134497
-0.143411
0.128064
-0.146347
0.122877
-0.144743
0.118986
-0.140814
0.114744
-0.130368
0.109613
-0.120968
0.106994
-0.106053
0.110833
-0.083646
0.12233
-0.0421331
0.137997
0.0250642
0.153317
0.110448
0.16407
0.21634
0.168927
0.284314
0.167939
0.302925
0.163048
0.213209
0.157739
0.0736405
0.154011
-0.0759383
0.153409
-0.169156
0.150453
-0.175843
0.143519
-0.227077
0.138706
-0.212196
0.139937
-0.244366
0.144457
-0.0890944
0.144712
0.0867199
0.143665
0.186959
0.144288
0.379099
0.201408
0.205491
-0.0133953
-0.208415
0.20338
-0.0179281
0.200948
-0.022009
0.197911
-0.0265562
0.194197
-0.031375
0.189853
-0.036147
0.184954
-0.0406228
0.179559
-0.0445783
0.173752
-0.0478006
0.167649
-0.0500723
0.161383
-0.0511774
0.155081
-0.0509201
0.148879
-0.0491163
0.142925
-0.0455936
0.137365
-0.0402138
0.132297
-0.0328767
0.127612
-0.0235285
0.122908
-0.0123315
0.117781
0.000148964
0.112129
0.0134951
0.106987
0.0273458
0.103789
0.0429291
0.103915
0.060809
0.108187
0.0798921
0.116576
0.0984414
0.128816
0.112891
0.145383
0.113821
0.16499
0.0891287
0.181863
0.0396619
0.191207
-0.0190357
0.192458
-0.0692558
0.18774
-0.104154
0.179992
-0.125261
0.171355
-0.134775
0.162602
-0.137594
0.154284
-0.136425
0.146959
-0.133489
0.139559
-0.122968
0.130939
-0.112349
0.123275
-0.0983881
0.120218
-0.0805889
0.123332
-0.0452476
0.129607
0.0187897
0.135485
0.10457
0.139383
0.212442
0.1427
0.280998
0.147047
0.298578
0.152266
0.20799
0.156196
0.0697103
0.157975
-0.077718
0.157688
-0.168869
0.153983
-0.172138
0.14582
-0.218914
0.138676
-0.205052
0.135727
-0.241417
0.135114
-0.088481
0.132527
0.0893065
0.12988
0.189606
0.131233
0.377746
0.2001
0.214333
-0.0111872
-0.216541
0.211914
-0.0155089
0.209466
-0.0195615
0.20653
-0.0236197
0.202971
-0.0278165
0.198828
-0.032004
0.194158
-0.0359525
0.189023
-0.0394432
0.183504
-0.0422815
0.17771
-0.0442785
0.171773
-0.0452406
0.165833
-0.0449799
0.160035
-0.0433179
0.154527
-0.0400861
0.149449
-0.0351354
0.144939
-0.0283668
0.14108
-0.0196692
0.137716
-0.00896839
0.134402
0.00346304
0.130933
0.0169643
0.127398
0.0308813
0.124858
0.0454688
0.124883
0.0607845
0.128768
0.0760064
0.137022
0.0901878
0.149906
0.100006
0.167274
0.0964533
0.186005
0.0703981
0.200522
0.0251451
0.207003
-0.0255166
0.205971
-0.0682241
0.199667
-0.0978495
0.19087
-0.116464
0.181638
-0.125543
0.1726
-0.128556
0.163964
-0.127789
0.156391
-0.125916
0.149175
-0.115752
0.140866
-0.104039
0.132871
-0.0903933
0.128915
-0.0766333
0.131302
-0.0476343
0.137601
0.0124905
0.144094
0.0980765
0.148861
0.207675
0.153275
0.276583
0.158851
0.293003
0.16489
0.201951
0.169109
0.0654915
0.170273
-0.0788818
0.169217
-0.167812
0.164863
-0.167784
0.156028
-0.210079
0.147912
-0.196936
0.144452
-0.237957
0.143975
-0.0880045
0.141249
0.0920332
0.138404
0.192451
0.140224
0.375926
0.198496
0.22288
-0.00952855
-0.224538
0.220701
-0.0133301
0.218242
-0.0171026
0.2154
-0.0207774
0.212037
-0.0244542
0.208133
-0.0281
0.203732
-0.0315513
0.198899
-0.0346096
0.193709
-0.0370918
0.18826
-0.0388298
0.182673
-0.0396535
0.177085
-0.0393913
0.171642
-0.0378754
0.166503
-0.0349471
0.161824
-0.030456
0.157751