/*--------------------------------*- C++ -*----------------------------------*\
| =========                 |                                                 |
| \\      /  F ield         | OpenFOAM: The Open Source CFD Toolbox           |
|  \\    /   O peration     | Version:  2512                                  |
|   \\  /    A nd           | Website:  www.openfoam.com                      |
|    \\/     M anipulation  |                                                 |
\*---------------------------------------------------------------------------*/
FoamFile
{
    version     2.0;
    format      ascii;
    arch        "LSB;label=32;scalar=64";
    class       volVectorField;
    location    "120";
    object      U;
}
// * * * * * * * * * * * * * * * * * * * * * * * * * * * * * * * * * * * * * //

dimensions      [0 1 -1 0 0 0 0];

internalField   nonuniform List<vector> 
13248
(
(-0.0143164 0.0127061 8.49129e-20)
(-0.0265024 0.0267032 0)
(-0.0222904 0.0341254 -1.60156e-19)
(-0.00188371 0.0372758 1.50865e-19)
(0.0345991 0.0377563 1.40844e-19)
(0.0869835 0.0366998 0)
(0.154877 0.0349186 0)
(0.23747 0.0329981 3.38206e-19)
(0.333307 0.0313299 -9.89207e-22)
(0.440122 0.0301119 -2.96619e-19)
(0.554778 0.0293427 2.77974e-19)
(0.673371 0.0288311 -1.73936e-19)
(0.791487 0.0282304 0)
(0.904574 0.0270966 -3.07349e-19)
(1.00835 0.0249647 5.76345e-19)
(1.09924 0.0214283 -1.37663e-19)
(1.17466 0.0162111 -2.49211e-19)
(1.23329 0.00919773 2.33972e-19)
(1.27513 0.000514453 0)
(1.30135 -0.00983242 0)
(1.31422 -0.0207165 0)
(1.31577 -0.0348328 0)
(1.30966 -0.0431694 6.95373e-20)
(1.29532 -0.0717829 2.47838e-19)
(-0.0143684 0.0114792 -2.564e-19)
(-0.0212951 0.0215216 1.74733e-19)
(-0.00726273 0.0251432 -1.71196e-21)
(0.0267184 0.0251418 -2.30667e-19)
(0.0800239 0.0234764 -1.4069e-19)
(0.151914 0.0215333 -1.33248e-19)
(0.24111 0.0202373 -2.4412e-19)
(0.345459 0.0201444 2.31354e-19)
(0.46173 0.0214785 0)
(0.585612 0.0241435 5.60683e-22)
(0.711967 0.0277513 1.41887e-21)
(0.835296 0.0316878 1.74089e-19)
(0.950313 0.0352155 0)
(1.05251 0.0375967 0)
(1.13861 0.0382144 2.09751e-19)
(1.20684 0.0366651 -3.94364e-19)
(1.25701 0.0328075 2.37357e-19)
(1.29035 0.0267617 -2.2286e-19)
(1.30918 0.0188501 -9.79488e-20)
(1.31642 0.00955175 -1.79968e-19)
(1.31503 -0.000622505 -7.38593e-20)
(1.30777 -0.0112869 -1.39117e-19)
(1.29643 -0.0203731 2.04341e-19)
(1.28317 -0.0336496 5.77075e-20)
(-0.0131174 0.00965669 0)
(-0.0117944 0.0155801 0)
(0.0156214 0.0161961 8.16304e-20)
(0.067055 0.0144127 7.50895e-20)
(0.140958 0.0123455 -1.90975e-21)
(0.235402 0.0114955 -1.38327e-19)
(0.34741 0.0127375 0)
(0.472654 0.0163868 -1.15057e-19)
(0.605492 0.0222528 1.08716e-19)
(0.739404 0.0297073 1.01023e-21)
(0.867713 0.0378085 -1.86404e-19)
(0.984416 0.0454761 -1.71981e-19)
(1.08489 0.0516857 2.37285e-21)
(1.16635 0.0556376 -1.4428e-19)
(1.22801 0.0568677 3.45086e-19)
(1.2709 0.0552802 0)
(1.29742 0.0511085 -2.26364e-19)
(1.31078 0.0448132 1.10311e-19)
(1.31439 0.0369995 9.78764e-20)
(1.31129 0.0281889 0)
(1.30395 0.0191872 8.02742e-20)
(1.29385 0.00962254 -2.72724e-19)
(1.28229 0.00242758 2.56024e-19)
(1.26969 -0.00993578 1.586e-19)
(-0.010061 0.00718388 -9.08294e-20)
(0.00312087 0.00883027 -9.39838e-20)
(0.0476714 0.00734286 8.48782e-20)
(0.120151 0.00534673 0)
(0.217506 0.00484943 0)
(0.335803 0.00721958 -3.37733e-21)
(0.469497 0.0129832 0)
(0.611452 0.0218837 -3.53943e-19)
(0.75356 0.0330225 3.2908e-19)
(0.887791 0.0450742 -4.0637e-19)
(1.00732 0.0565677 9.3305e-20)
(1.1074 0.0661757 0)
(1.18581 0.0729392 1.56393e-19)
(1.24275 0.0763838 -2.90062e-19)
(1.28039 0.076514 6.91372e-20)
(1.30215 0.0737131 1.787e-19)
(1.31188 0.0685884 -7.32145e-21)
(1.31321 0.0618215 -1.98374e-19)
(1.30909 0.0540371 0)
(1.30166 0.0457739 0)
(1.29228 0.037436 -7.13207e-20)
(1.28173 0.0291539 6.39489e-20)
(1.27054 0.022289 2.29477e-19)
(1.25896 0.012016 -2.15472e-19)
(-0.0047681 0.00420532 -9.58765e-20)
(0.0243903 0.00169419 -9.56065e-20)
(0.0898359 -0.000721919 2.68763e-19)
(0.186349 -0.0010973 -1.6318e-19)
(0.308608 0.00211861 1.53589e-19)
(0.449773 0.00978014 2.79104e-19)
(0.60106 0.0216426 -1.97489e-19)
(0.752501 0.0365122 -2.40633e-19)
(0.894381 0.0526026 4.67503e-21)
(1.01877 0.0679723 3.07672e-19)
(1.12061 0.0809414 0)
(1.19811 0.0903839 8.49236e-20)
(1.25238 0.0958373 0)
(1.28663 0.0974389 -1.394e-19)
(1.30513 0.0957461 1.96238e-19)
(1.31227 0.0915187 2.10744e-21)
(1.31184 0.085531 -5.16887e-20)
(1.30675 0.0784496 9.74875e-20)
(1.29898 0.0707935 8.38591e-20)
(1.28974 0.0629264 -7.53499e-20)
(1.27971 0.0551361 7.13051e-20)
(1.26926 0.0474781 -6.39338e-20)
(1.2586 0.0407638 0)
(1.24784 0.0317148 -4.82419e-20)
(0.00312342 0.00101743 9.58627e-20)
(0.0527036 -0.0050026 1.0076e-19)
(0.142546 -0.00674632 -9.01113e-20)
(0.265071 -0.00339118 1.6823e-19)
(0.411813 0.00568314 -1.58334e-19)
(0.572278 0.0203021 1.43384e-19)
(0.734371 0.0389968 -6.89017e-20)
(0.886227 0.0594188 1.8062e-19)
(1.0183 0.0790159 -1.13677e-19)
(1.12482 0.0956431 2.01445e-19)
(1.20413 0.107947 -4.65045e-19)
(1.25809 0.115465 1.70878e-19)
(1.29084 0.118482 -1.50081e-19)
(1.30746 0.117753 1.40978e-19)
(1.31289 0.114214 1.223e-19)
(1.31117 0.108757 1.07823e-19)
(1.30526 0.102109 -2.99813e-19)
(1.2971 0.0948062 1.86292e-19)
(1.28782 0.0872137 -8.38639e-20)
(1.27804 0.0795811 2.18969e-19)
(1.26804 0.0720711 -7.07086e-20)
(1.25797 0.0647918 -1.72256e-19)
(1.24787 0.0581182 1.59053e-19)
(1.23776 0.0499984 4.82284e-20)
(0.013899 -0.00197558 0)
(0.0884081 -0.0101581 9.57985e-22)
(0.205518 -0.00915402 1.89001e-19)
(0.35458 0.000194711 -1.77165e-19)
(0.523187 0.0169696 -1.60074e-19)
(0.696979 0.039411 2.97551e-19)
(0.861429 0.0645392 -1.38207e-19)
(1.00465 0.0889855 1.84136e-19)
(1.11944 0.109926 -4.01341e-21)
(1.20381 0.125633 -1.04362e-19)
(1.2601 0.135576 2.27902e-19)
(1.2933 0.14018 -3.36498e-19)
(1.30933 0.140425 0)
(1.31377 0.137466 -6.62859e-20)
(1.31106 0.132357 -1.77552e-19)
(1.30436 0.125926 5.57614e-20)
(1.29564 0.11876 2.1624e-21)
(1.28605 0.111241 -1.2369e-19)
(1.27617 0.103618 7.4257e-21)
(1.26625 0.0960471 1.43208e-19)
(1.25639 0.0886385 -6.41373e-20)
(1.24663 0.0814821 -2.43728e-20)
(1.23693 0.0746795 7.51577e-20)
(1.22729 0.0671657 0)
(0.0277311 -0.00429834 0)
(0.131392 -0.0125348 5.12464e-20)
(0.27759 -0.00631482 -2.46418e-19)
(0.451908 0.011192 8.97979e-20)
(0.637613 0.0368542 -8.45111e-20)
(0.817148 0.0669199 -7.72775e-20)
(0.97541 0.0969912 -1.36575e-19)
(1.10278 0.123229 6.81793e-20)
(1.19616 0.143248 5.92907e-20)
(1.25792 0.156292 0)
(1.29379 0.162881 1.35225e-19)
(1.31063 0.16425 -2.01459e-19)
(1.31485 0.161833 1.50022e-19)
(1.31149 0.156917 6.63224e-20)
(1.30404 0.150487 -5.45789e-20)
(1.29468 0.14322 -4.58882e-20)
(1.2846 0.135547 -4.29646e-20)
(1.27441 0.127726 1.28045e-19)
(1.26435 0.119918 0)
(1.25451 0.112228 6.47237e-20)
(1.24489 0.104734 5.46605e-20)
(1.23547 0.0975015 -1.35487e-19)
(1.22619 0.090515 -9.29584e-20)
(1.21699 0.0834065 8.59163e-20)
(0.0446303 -0.00542968 -5.51671e-20)
(0.180987 -0.0108848 -2.07712e-21)
(0.356675 0.00321129 5.01794e-20)
(0.553075 0.0306245 1.40447e-19)
(0.749488 0.0654374 4.08879e-20)
(0.926826 0.101869 -7.89621e-20)
(1.07179 0.134659 7.21235e-20)
(1.179 0.160309 -6.32268e-20)
(1.25015 0.177525 1.13295e-19)
(1.29148 0.186802 4.83105e-20)
(1.31088 0.189644 -1.37107e-19)
(1.31583 0.187849 4.04644e-20)
(1.31222 0.183028 6.92813e-20)
(1.30413 0.176408 -3.40364e-20)
(1.29405 0.168813 0)
(1.28333 0.16075 5.11358e-20)
(1.27263 0.152515 8.68504e-20)
(1.26221 0.144277 1.50739e-20)
(1.25215 0.136141 -7.25865e-20)
(1.24246 0.12818 3.0511e-20)
(1.23309 0.120451 0)
(1.22398 0.112983 -2.40863e-20)
(1.21506 0.105732 -2.28054e-20)
(1.20624 0.0987725 0)
(0.0643863 -0.00483512 0)
(0.235913 -0.0040762 2.88979e-20)
(0.439869 0.0204787 5.35893e-20)
(0.653541 0.0588456 -1.43187e-19)
(0.853566 0.102071 4.6238e-20)
(1.02168 0.142811 0)
(1.14861 0.175842 6.95218e-20)
(1.23423 0.198811 -9.70533e-20)
(1.28476 0.211912 -5.6575e-20)
(1.30913 0.21688 2.55744e-20)
(1.31615 0.215959 -4.10563e-20)
(1.31294 0.211219 9.96239e-20)
(1.30441 0.20424 5.0069e-20)
(1.2936 0.196077 -3.47061e-20)
(1.28212 0.187367 -3.16751e-21)
(1.27075 0.178465 -9.58808e-20)
(1.25981 0.169565 4.37181e-20)
(1.24938 0.160778 -1.06557e-21)
(1.23946 0.152172 0)
(1.22999 0.1438 -3.05428e-20)
(1.22091 0.135698 0)
(1.21214 0.127867 6.95244e-20)
(1.20361 0.120312 -8.29005e-20)
(1.19517 0.113308 3.78298e-20)
(0.0865323 -0.00200804 -1.5046e-20)
(0.294304 0.0087938 -7.29399e-20)
(0.523698 0.0460319 8.29884e-20)
(0.748766 0.0955223 4.88548e-20)
(0.945603 0.145545 -2.33395e-20)
(1.09923 0.188125 3.92096e-20)
(1.20589 0.219076 -1.90477e-20)
(1.27076 0.237776 3.17093e-20)
(1.30357 0.246003 0)
(1.31472 0.246515 7.20087e-20)
(1.31292 0.241999 -2.89564e-21)
(1.30438 0.234556 -5.82506e-20)
(1.29292 0.225595 2.50245e-20)
(1.28062 0.215961 -2.83496e-20)
(1.26847 0.206113 -1.08931e-20)
(1.25687 0.196291 1.24623e-20)
(1.24592 0.186617 -9.71313e-21)
(1.23562 0.17716 -5.27699e-20)
(1.22592 0.167967 3.23703e-20)
(1.21674 0.159073 6.67742e-21)
(1.208 0.150491 5.89926e-21)
(1.1996 0.142211 5.21339e-21)
(1.19144 0.13431 0)
(1.18338 0.127042 0)
(0.110417 0.00349654 1.50564e-20)
(0.353962 0.028321 -1.50953e-20)
(0.604612 0.0798536 -2.76626e-20)
(0.834833 0.139731 0)
(1.02273 0.194337 -1.15883e-20)
(1.15861 0.236269 -1.04261e-20)
(1.24482 0.263233 -1.78578e-20)
(1.2911 0.276617 0)
(1.30951 0.279642 0)
(1.31085 0.275785 0)
(1.30306 0.267896 0)
(1.29122 0.257936 0)
(1.27813 0.247083 -1.57689e-20)
(1.26514 0.235974 7.1922e-21)
(1.25278 0.224924 1.25371e-20)
(1.24122 0.214082 5.85881e-21)
(1.23045 0.203521 1.45926e-20)
(1.22042 0.193284 0)
(1.21105 0.183398 -3.53616e-21)
(1.20226 0.173883 -3.36808e-21)
(1.19393 0.164732 -5.90864e-21)
(1.18598 0.155949 -5.2217e-21)
(1.17828 0.147672 0)
(1.1707 0.139978 3.79171e-21)
(-0.00199024 0.0438445 9.41252e-21)
(-0.0068552 0.109158 -9.7198e-21)
(-0.014414 0.157277 -1.8346e-20)
(-0.0239329 0.191139 0)
(-0.0347507 0.213705 -2.44464e-20)
(-0.0463201 0.227918 7.64029e-21)
(-0.0581177 0.236393 -1.45878e-20)
(-0.0696864 0.241179 0)
(-0.0806642 0.243661 0)
(-0.0907785 0.244596 0)
(-0.0998256 0.244219 0)
(-0.107648 0.242396 0)
(-0.114112 0.238751 -8.12001e-23)
(-0.119093 0.232779 -1.00507e-20)
(-0.122466 0.223917 1.97237e-20)
(-0.124106 0.211599 2.8209e-20)
(-0.123884 0.195293 9.3566e-21)
(-0.121675 0.174528 0)
(-0.117365 0.14893 8.10685e-21)
(-0.110846 0.118273 -2.34845e-20)
(-0.102052 0.0825514 -1.51379e-20)
(-0.0909441 0.0419308 -1.4382e-20)
(-0.0777079 -0.0030753 0)
(-0.062179 -0.0512986 0)
(-0.00431553 0.0447578 -2.84136e-20)
(-0.0113485 0.112551 4.87434e-20)
(-0.018279 0.163431 -1.86167e-20)
(-0.0255339 0.199891 -3.48737e-20)
(-0.0331222 0.224574 4.91506e-20)
(-0.0408576 0.240249 -3.11284e-20)
(-0.0484393 0.249486 4.38594e-20)
(-0.0555236 0.254382 2.80116e-20)
(-0.0617764 0.256422 0)
(-0.0668996 0.256472 -2.52713e-20)
(-0.0706396 0.254869 -7.0334e-22)
(-0.0727857 0.251549 2.22674e-20)
(-0.0731623 0.246184 3.28532e-20)
(-0.0716221 0.238295 4.22987e-20)
(-0.0680405 0.227333 -1.88195e-20)
(-0.0623149 0.212742 -5.6989e-20)
(-0.0543655 0.193997 1.94053e-20)
(-0.0441388 0.170637 -7.14868e-20)
(-0.0316024 0.142298 0)
(-0.0166949 0.108751 1.58471e-20)
(0.000502341 0.0699388 1.51117e-20)
(0.0198746 0.0260659 1.43568e-20)
(0.041633 -0.0222241 0)
(0.0664964 -0.0731425 0)
(-0.0065225 0.0436585 0)
(-0.0157898 0.111443 9.95389e-20)
(-0.0222551 0.163713 -3.74773e-20)
(-0.0272903 0.202141 3.51399e-20)
(-0.0314761 0.228788 -9.99148e-20)
(-0.0349657 0.246044 0)
(-0.0376999 0.256274 -5.96505e-20)
(-0.0394863 0.26151 2.81218e-20)
(-0.0400612 0.263277 -5.37336e-20)
(-0.0391393 0.262538 2.58876e-20)
(-0.0364487 0.259744 1.46979e-19)
(-0.0317495 0.25494 -6.91548e-20)
(-0.0248424 0.24789 -1.12239e-19)
(-0.0155715 0.238188 -4.51187e-20)
(-0.00382372 0.225343 -2.06538e-21)
(0.0104712 0.208849 1.58891e-19)
(0.0273418 0.188223 -7.55709e-20)
(0.0467752 0.163045 -1.05622e-21)
(0.0687196 0.132982 0)
(0.0930879 0.0978193 -6.92444e-20)
(0.119757 0.0574152 0)
(0.148485 0.0119639 -6.25692e-20)
(0.179347 -0.0379022 2.37315e-19)
(0.215118 -0.0906749 2.39527e-22)
(-0.00835991 0.0408124 0)
(-0.0197168 0.106175 4.63329e-22)
(-0.0259664 0.158252 3.80394e-20)
(-0.029074 0.197697 -3.58363e-20)
(-0.0300191 0.225837 3.33141e-20)
(-0.0292301 0.244539 1.90229e-19)
(-0.0268815 0.255825 -5.97259e-20)
(-0.0229612 0.261557 -5.68185e-20)
(-0.0173237 0.263221 1.07646e-19)
(-0.00975009 0.261838 -1.54634e-19)
(2.22212e-06 0.257967 4.84609e-20)
(0.0121628 0.251779 4.6977e-20)
(0.0269256 0.243163 0)
(0.0444369 0.231818 4.30699e-20)
(0.0647908 0.217348 0)
(0.0880294 0.19932 8.0737e-20)
(0.114147 0.177316 -1.57994e-19)
(0.143095 0.150958 3.30321e-20)
(0.1748 0.119934 1.43201e-19)
(0.209085 0.0840313 6.91557e-20)
(0.245808 0.043237 0)
(0.285065 -0.00238153 -1.9214e-19)
(0.325266 -0.0522948 6.01164e-20)
(0.374697 -0.105072 0)
(-0.00967448 0.0366862 0)
(-0.0228093 0.0975393 -1.21663e-19)
(-0.0291417 0.147754 -3.81075e-20)
(-0.0308113 0.186968 -7.17477e-20)
(-0.0289776 0.215764 6.75521e-20)
(-0.0242458 0.235435 -6.34585e-20)
(-0.0169884 0.247584 1.20523e-19)
(-0.00738228 0.253808 5.76993e-20)
(0.00456205 0.255478 -1.61354e-19)
(0.0189469 0.253613 1.03573e-19)
(0.0359334 0.248846 -1.47451e-19)
(0.0556981 0.241467 3.29589e-19)
(0.0784012 0.23149 -1.78369e-19)
(0.104168 0.21874 8.63998e-20)
(0.133082 0.202929 2.52874e-19)
(0.165184 0.18371 -7.61058e-20)
(0.200482 0.160728 -7.31694e-20)
(0.238933 0.133651 -7.36039e-20)
(0.280496 0.10222 0)
(0.325224 0.0662805 -1.41443e-19)
(0.372671 0.0257824 -1.37908e-19)
(0.423794 -0.0190667 1.90553e-19)
(0.473204 -0.0682389 2.43363e-19)
(0.539249 -0.119382 -2.27514e-19)
(-0.0104448 0.0318628 0)
(-0.0249607 0.0866498 -1.638e-19)
(-0.0316648 0.1334 2.28534e-22)
(-0.0324719 0.170935 1.44471e-19)
(-0.0285037 0.19922 0)
(-0.0204318 0.21902 0)
(-0.00876763 0.231507 0)
(0.00614241 0.23797 -5.73335e-20)
(0.0241212 0.2396 -1.03798e-21)
(0.0451268 0.23735 1.01625e-19)
(0.0692085 0.231878 -1.48648e-19)
(0.0964662 0.22355 -1.40976e-21)
(0.127019 0.212489 0)
(0.160986 0.198631 -8.63529e-20)
(0.198476 0.181787 8.47259e-20)
(0.23958 0.161694 -2.36935e-19)
(0.284385 0.138069 3.1055e-19)
(0.332973 0.110651 8.00882e-20)
(0.385354 0.0792104 7.20779e-21)
(0.441607 0.0436519 -2.72772e-19)
(0.500685 0.00375357 -1.30338e-19)
(0.565356 -0.0394401 4.3962e-19)
(0.62385 -0.0871944 -2.93661e-19)
(0.707173 -0.134896 0)
(-0.0107876 0.026954 8.05321e-20)
(-0.026297 0.0747776 8.20902e-20)
(-0.0335821 0.116697 -7.72235e-20)
(-0.0340308 0.15107 -1.44286e-19)
(-0.0285575 0.177464 1.35843e-19)
(-0.0178034 0.196253 -1.27205e-19)
(-0.00234771 0.208235 1.79337e-19)
(0.0173425 0.214397 -5.7305e-20)
(0.0409528 0.215716 1.06344e-19)
(0.0683152 0.213033 0)
(0.0993836 0.206972 9.73079e-20)
(0.134205 0.197928 -1.81079e-19)
(0.172896 0.186088 1.78181e-19)
(0.215614 0.171465 -1.6734e-19)
(0.262544 0.153954 0)
(0.313886 0.133377 1.56838e-19)
(0.369815 0.109514 3.05093e-19)
(0.430409 0.0821601 -2.87945e-19)
(0.495499 0.0511189 -1.38283e-19)
(0.565134 0.0165752 -1.39059e-19)
(0.637003 -0.0219205 3.84978e-19)
(0.715327 -0.0619514 1.20132e-19)
(0.781946 -0.107074 -1.12061e-19)
(0.878171 -0.148366 1.02948e-19)
(-0.0109297 0.0225062 -8.05434e-20)
(-0.0271224 0.0631443 2.47316e-19)
(-0.0350271 0.0992442 -7.79266e-20)
(-0.035355 0.129128 1.44402e-19)
(-0.0287226 0.15225 -1.35952e-19)
(-0.0156732 0.168768 3.20269e-23)
(0.0032205 0.179218 5.95606e-20)
(0.0274488 0.184332 2.23453e-19)
(0.056637 0.184886 1.07245e-21)
(0.0905673 0.181581 -9.98414e-20)
(0.129174 0.174969 0)
(0.172522 0.165426 -9.13431e-20)
(0.220777 0.15316 1.71499e-19)
(0.274172 0.138236 1.67876e-19)
(0.332947 0.120607 -7.87457e-20)
(0.397255 0.100153 -1.79933e-21)
(0.467084 0.0767306 -7.47742e-20)
(0.54218 0.050267 1.39825e-19)
(0.621734 0.0206981 1.3826e-19)
(0.705075 -0.0114009 -1.32297e-19)
(0.788567 -0.0468226 1.20618e-19)
(0.875935 -0.081573 -1.13219e-19)
(0.946713 -0.122184 0)
(1.04357 -0.153768 -1.02935e-19)
(-0.0111429 0.0189114 8.08639e-20)
(-0.0277805 0.0527175 -8.2713e-20)
(-0.0360433 0.0824676 7.77249e-20)
(-0.0359932 0.106891 0)
(-0.0279408 0.125604 0)
(-0.0122924 0.138735 1.26198e-19)
(0.0104633 0.14669 -1.1888e-19)
(0.0398773 0.150029 1.10873e-19)
(0.0756288 0.149366 -5.23103e-19)
(0.117559 0.145268 -6.20518e-22)
(0.165663 0.138202 9.30967e-20)
(0.220058 0.128501 0)
(0.280916 0.116367 -1.71617e-19)
(0.348354 0.101879 3.2561e-19)
(0.422334 0.0850331 -2.33311e-19)
(0.502533 0.0657888 -3.78707e-19)
(0.588203 0.044125 -6.01268e-21)
(0.678103 0.0201156 2.67948e-19)
(0.770301 -0.00616823 0)
(0.862768 -0.0339467 0)
(0.951256 -0.0640822 -1.20624e-19)
(1.03694 -0.0919387 1.13227e-19)
(1.10339 -0.126096 -4.03696e-19)
(1.18317 -0.146768 3.78081e-19)
(-0.0116461 0.0163365 0)
(-0.0284517 0.0440444 0)
(-0.0363434 0.0673914 -2.32985e-19)
(-0.0349253 0.0858803 7.42541e-20)
(-0.0242589 0.0995173 1.21443e-21)
(-0.00459256 0.108566 1.27447e-19)
(0.0237424 0.113425 0)
(0.060454 0.11458 -1.1072e-19)
(0.10536 0.112537 1.04314e-19)
(0.158392 0.107765 -1.95864e-19)
(0.219549 0.100652 -8.57517e-22)
(0.288798 0.0914781 1.77087e-19)
(0.365947 0.0804156 2.56948e-21)
(0.450503 0.0675487 1.64169e-19)
(0.541533 0.0529052 -2.27327e-19)
(0.637568 0.0364918 0)
(0.736567 0.0183421 2.81166e-19)
(0.835936 -0.0014465 -3.99213e-19)
(0.932641 -0.022699 1.22909e-19)
(1.02353 -0.0448808 0)
(1.10485 -0.0683505 1.07453e-19)
(1.17555 -0.0896498 4.09092e-19)
(1.22678 -0.116484 -3.83973e-19)
(1.27607 -0.128737 -4.20818e-19)
(-0.0124985 0.014686 2.44372e-19)
(-0.0289568 0.0371625 -3.35176e-19)
(-0.0351191 0.0544785 1.25523e-21)
(-0.0304393 0.0671229 7.41392e-20)
(-0.0148301 0.0756344 -1.37104e-19)
(0.0116143 0.0805295 -1.27e-19)
(0.0487414 0.0823046 2.36405e-19)
(0.0964134 0.0814475 -1.35082e-21)
(0.154504 0.0784191 -2.07955e-19)
(0.222824 0.0736196 3.91161e-19)
(0.300995 0.0673617 1.47389e-21)
(0.388301 0.0598561 -1.73774e-19)
(0.483541 0.0512128 0)
(0.584938 0.0414551 0)
(0.690105 0.0305467 -7.57585e-20)
(0.79611 0.0184236 -1.40685e-19)
(0.899632 0.00504872 -2.71221e-19)
(0.997159 -0.00960487 2.5459e-19)
(1.08536 -0.0253444 -1.22983e-19)
(1.16124 -0.042163 2.22669e-19)
(1.22271 -0.0594804 -1.10635e-19)
(1.26888 -0.0765726 1.8538e-19)
(1.29785 -0.0965846 -4.39311e-19)
(1.31679 -0.105754 8.31194e-20)
(-0.0135208 0.0136242 8.22168e-20)
(-0.0286552 0.0316309 0)
(-0.0310173 0.0436 1.57915e-19)
(-0.020271 0.0510198 -1.48757e-19)
(0.0036793 0.0549985 1.37234e-19)
(0.0408171 0.0563628 0)
(0.0910511 0.0557626 0)
(0.154171 0.0537345 -1.11209e-19)
(0.229726 0.0507169 6.29149e-22)
(0.316863 0.0470394 9.80717e-20)
(0.41416 0.0429065 -9.25703e-20)
(0.519518 0.0383902 1.73529e-19)
(0.630146 0.0334361 0)
(0.742651 0.0278866 3.1247e-19)
(0.85324 0.0215199 -5.88488e-19)
(0.957998 0.0140974 4.17853e-19)
(1.05323 0.00542963 2.6054e-19)
(1.13577 -0.00463325 -2.44586e-19)
(1.20336 -0.015958 0)
(1.25471 -0.0288182 0)
(1.29013 -0.0419232 0)
(1.31041 -0.0574149 0)
(1.31839 -0.0710707 8.39862e-20)
(1.31781 -0.0845989 -2.86003e-19)
(-0.0426317 -0.108891 -8.47538e-21)
(-0.0228343 -0.182912 8.54408e-21)
(-0.00176096 -0.261268 -2.59214e-22)
(0.0203348 -0.339313 0)
(0.0421797 -0.413052 -6.31883e-21)
(0.0615581 -0.478975 1.17101e-20)
(0.0767193 -0.534232 -5.7116e-22)
(0.0864502 -0.576905 -4.70612e-21)
(0.0911984 -0.605657 0)
(0.0941691 -0.617913 0)
(0.101628 -0.608218 -1.85378e-22)
(0.121175 -0.568744 -1.73248e-22)
(0.158382 -0.492843 -3.20517e-21)
(0.213538 -0.379069 2.94943e-21)
(0.281648 -0.233324 0)
(0.356249 -0.0660388 0)
(0.432192 0.109383 2.81991e-21)
(0.505241 0.273928 -3.01e-22)
(0.570646 0.406421 -2.24275e-21)
(0.623364 0.493743 -1.02939e-22)
(0.660119 0.5369 0)
(0.681678 0.546109 0)
(0.691233 0.535919 0)
(0.687459 0.525934 0)
(0.665603 0.531611 0)
(0.629578 0.541834 0)
(0.598509 0.514368 4.98621e-22)
(0.594714 0.406359 -8.16537e-22)
(0.62346 0.217583 0)
(0.674249 -0.00673658 0)
(0.730837 -0.207045 -6.35282e-22)
(0.779362 -0.347079 6.17399e-22)
(0.81181 -0.422047 2.21723e-22)
(0.829623 -0.445504 0)
(0.835633 -0.445121 0)
(0.82206 -0.448783 2.40575e-22)
(0.783967 -0.46603 -2.33859e-22)
(0.733831 -0.450889 0)
(0.698059 -0.3647 3.1799e-22)
(0.695215 -0.191981 -4.64263e-22)
(0.719333 0.00484601 1.51735e-22)
(0.760306 0.177778 0)
(0.80372 0.290358 -2.05978e-22)
(0.831614 0.350366 2.0029e-22)
(0.827923 0.399498 0)
(0.790549 0.410364 0)
(0.748039 0.393155 -8.20701e-23)
(0.73293 0.255481 2.5774e-22)
(0.74883 0.0967687 0)
(0.790843 -0.0829679 0)
(0.824505 -0.211431 -5.84366e-23)
(0.821602 -0.283636 -1.55174e-24)
(0.800627 -0.379148 -6.43121e-24)
(0.775917 -0.3082 3.22587e-23)
(0.782238 -0.275717 0)
(0.797874 -0.073857 0)
(0.806274 0.090755 0)
(0.795599 0.188593 0)
(0.797552 0.393359 0)
(0.782214 0.199186 0)
(0.0935586 -0.132079 -9.13362e-22)
(0.116277 -0.206895 -3.64094e-20)
(0.1393 -0.285998 1.91357e-21)
(0.162217 -0.363493 3.23176e-20)
(0.182837 -0.435046 4.57508e-22)
(0.199163 -0.496696 0)
(0.209045 -0.545561 -1.9953e-20)
(0.210295 -0.580684 3.68913e-20)
(0.201692 -0.602907 -1.69214e-20)
(0.184519 -0.612991 1.24533e-20)
(0.164178 -0.60839 -1.19197e-20)
(0.150159 -0.581618 1.02441e-20)
(0.152567 -0.522507 -9.9103e-21)
(0.177525 -0.424154 -2.8172e-22)
(0.223798 -0.288511 -1.05061e-20)
(0.285562 -0.126017 1.02098e-20)
(0.356445 0.0481984 -9.57326e-21)
(0.430556 0.2159 9.05067e-21)
(0.501896 0.356348 -7.11527e-21)
(0.564279 0.455663 1.256e-20)
(0.613048 0.511934 -5.50684e-21)
(0.647481 0.532588 -2.4716e-22)
(0.66818 0.532543 -3.7706e-21)
(0.671983 0.533036 7.48465e-21)
(0.656066 0.54751 -3.71272e-21)
(0.628911 0.559435 2.76349e-22)
(0.611579 0.523943 5.86055e-21)
(0.622628 0.402272 1.17212e-21)
(0.662512 0.200946 -1.32072e-20)
(0.718794 -0.0309826 1.31046e-20)
(0.774914 -0.231759 -6.25889e-21)
(0.818269 -0.366073 6.12449e-22)
(0.842515 -0.433226 -2.22155e-22)
(0.850557 -0.450005 3.47401e-22)
(0.848448 -0.442781 0)
(0.830171 -0.437764 0)
(0.789407 -0.448007 -9.00087e-22)
(0.73401 -0.433353 6.60908e-22)
(0.691159 -0.356383 8.77647e-22)
(0.681199 -0.195774 2.33877e-22)
(0.703116 -0.00821249 -1.28879e-21)
(0.745764 0.161242 2.34149e-22)
(0.793546 0.2769 0)
(0.825039 0.345619 0)
(0.823166 0.405052 0)
(0.78942 0.421649 0)
(0.749979 0.401879 3.46702e-22)
(0.739855 0.256545 -1.78095e-22)
(0.755909 0.0895463 0)
(0.798813 -0.0922079 0)
(0.832403 -0.215765 0)
(0.829337 -0.280543 -9.10074e-23)
(0.808414 -0.373838 2.11448e-23)
(0.780412 -0.306187 -7.21054e-23)
(0.786662 -0.27801 0)
(0.796826 -0.0761334 0)
(0.803601 0.0906412 4.54015e-23)
(0.791969 0.189574 1.06748e-22)
(0.793334 0.39451 0)
(0.780809 0.200189 0)
(0.245649 -0.15097 -1.35441e-22)
(0.271279 -0.226501 -7.97393e-20)
(0.2951 -0.305157 7.27428e-20)
(0.317795 -0.381433 -6.80261e-20)
(0.336696 -0.450512 -4.60512e-22)
(0.34978 -0.508079 0)
(0.355212 -0.550641 -4.18541e-20)
(0.350947 -0.577057 4.0932e-20)
(0.334939 -0.589352 2.40857e-22)
(0.306009 -0.591613 3.7694e-22)
(0.266201 -0.586088 3.05884e-22)
(0.223515 -0.568785 3.03536e-22)
(0.190523 -0.52843 -1.63983e-20)
(0.179626 -0.452396 1.62209e-20)
(0.196213 -0.335572 0)
(0.237572 -0.184734 4.37735e-22)
(0.297352 -0.0157391 -1.53958e-20)
(0.367934 0.151896 1.52141e-20)
(0.441502 0.298485 0)
(0.510763 0.408918 0)
(0.569834 0.478404 -8.44339e-21)
(0.615983 0.511827 1.58224e-20)
(0.646889 0.523942 -1.4411e-20)
(0.658243 0.53607 -3.75813e-22)
(0.649592 0.558846 1.5723e-20)
(0.63309 0.571591 -1.8724e-20)
(0.630083 0.528892 2.12947e-20)
(0.655455 0.396647 1.3267e-21)
(0.705762 0.186336 -1.35558e-20)
(0.766729 -0.0502676 0)
(0.821452 -0.250387 0)
(0.858771 -0.379235 3.21848e-21)
(0.874607 -0.439453 -4.34599e-21)
(0.873052 -0.450857 3.80581e-24)
(0.862867 -0.438426 2.0016e-21)
(0.84019 -0.425832 -1.94528e-21)
(0.797745 -0.429271 0)
(0.73825 -0.415063 2.14906e-22)
(0.688848 -0.34773 2.19082e-21)
(0.671549 -0.200333 -4.38949e-21)
(0.690757 -0.0231581 1.97659e-21)
(0.734338 0.142405 1.7455e-22)
(0.785755 0.261541 -1.7626e-21)
(0.820367 0.339486 1.37242e-21)
(0.820478 0.409549 2.98424e-22)
(0.790912 0.432033 3.1465e-22)
(0.75507 0.410267 -3.47598e-22)
(0.749983 0.258222 0)
(0.765981 0.0833748 0)
(0.808973 -0.100561 -1.41127e-21)
(0.842034 -0.219709 6.39596e-22)
(0.838648 -0.277006 -4.56674e-22)
(0.81747 -0.368157 5.11286e-22)
(0.785782 -0.304005 4.92793e-22)
(0.792037 -0.280062 -1.33967e-22)
(0.797053 -0.0782147 1.86565e-22)
(0.802305 0.0906812 -1.61495e-22)
(0.789434 0.190473 4.78881e-23)
(0.790033 0.395457 0)
(0.780376 0.201083 0)
(0.40533 -0.16526 -1.68487e-19)
(0.433083 -0.241639 6.12396e-21)
(0.458088 -0.319637 1.54515e-19)
(0.48024 -0.393735 -1.07643e-21)
(0.49663 -0.459802 0)
(0.505418 -0.513461 0)
(0.505384 -0.550663 -8.41515e-20)
(0.495278 -0.569615 1.27635e-20)
(0.4739 -0.57191 9.33603e-20)
(0.439738 -0.562688 -5.26929e-21)
(0.391466 -0.548564 -2.10853e-20)
(0.331835 -0.532082 -1.37464e-20)
(0.270749 -0.506008 1.37799e-20)
(0.223911 -0.455051 0)
(0.204903 -0.365541 -1.19309e-20)
(0.218112 -0.235933 1.08498e-20)
(0.259313 -0.0788762 0)
(0.320555 0.0845302 0)
(0.392021 0.234749 9.13441e-21)
(0.464628 0.354629 -1.05417e-21)
(0.53139 0.436866 -7.35033e-21)
(0.587128 0.483901 -6.74115e-21)
(0.626773 0.509506 6.70533e-21)
(0.645533 0.533623 -7.58496e-21)
(0.645259 0.563882 -1.14815e-21)
(0.640591 0.577106 8.30391e-21)
(0.652081 0.529149 1.39258e-21)
(0.690983 0.390195 -1.25512e-23)
(0.750916 0.174478 0)
(0.816335 -0.0644693 1.42897e-20)
(0.869447 -0.263387 -1.47107e-20)
(0.900344 -0.387382 6.43444e-22)
(0.907762 -0.441469 0)
(0.896963 -0.448463 -3.55339e-22)
(0.878772 -0.432397 3.89443e-21)
(0.851735 -0.413604 -6.56472e-21)
(0.808451 -0.410314 -1.40165e-22)
(0.746352 -0.395822 -1.85992e-22)
(0.691344 -0.33812 2.56165e-21)
(0.66651 -0.204985 4.67803e-22)
(0.682421 -0.0394236 -3.28025e-21)
(0.726102 0.121629 2.77614e-21)
(0.780223 0.244431 4.20358e-23)
(0.817519 0.331845 1.21047e-21)
(0.819798 0.412697 -1.47633e-21)
(0.794898 0.441251 -2.37799e-21)
(0.763147 0.418279 6.00858e-22)
(0.763099 0.260685 1.80418e-21)
(0.778925 0.0785451 -3.45111e-21)
(0.821242 -0.107862 2.40588e-21)
(0.853266 -0.223288 -4.65401e-22)
(0.849398 -0.273116 6.95463e-22)
(0.82769 -0.362033 4.49812e-22)
(0.791884 -0.301548 -7.03041e-22)
(0.798191 -0.281876 9.37349e-24)
(0.798453 -0.0801598 -1.29354e-22)
(0.802339 0.0908797 0)
(0.787959 0.191327 -7.70616e-23)
(0.787653 0.396212 9.41223e-23)
(0.780946 0.201869 0)
(0.568269 -0.177723 1.69806e-19)
(0.596526 -0.252807 -3.27992e-19)
(0.622786 -0.328087 1.55872e-19)
(0.644211 -0.398211 1.34614e-19)
(0.657182 -0.460002 -2.49897e-19)
(0.660404 -0.509197 1.50697e-20)
(0.653267 -0.541734 9.84409e-20)
(0.635333 -0.555798 6.66766e-20)
(0.606891 -0.552107 -6.52724e-20)
(0.568264 -0.534215 0)
(0.518185 -0.50903 -3.00661e-20)
(0.454862 -0.484346 5.21463e-20)
(0.380772 -0.461416 -2.23446e-20)
(0.307636 -0.42938 0)
(0.25328 -0.369967 0)
(0.231804 -0.270866 3.05827e-22)
(0.246181 -0.135445 -1.49868e-20)
(0.291155 0.0183269 1.45602e-20)
(0.355368 0.167356 0)
(0.427175 0.294043 1.19062e-20)
(0.498133 0.387917 -2.20479e-20)
(0.560476 0.448752 2.13339e-20)
(0.606998 0.488448 -2.27913e-20)
(0.632896 0.52442 -2.1563e-21)
(0.641856 0.561493 3.01787e-20)
(0.64978 0.57558 -1.6528e-20)
(0.675478 0.525044 -7.05681e-22)
(0.726775 0.383392 -1.39151e-20)
(0.795744 0.166151 -1.28473e-21)
(0.865835 -0.073323 1.51768e-20)
(0.917728 -0.270465 8.38697e-22)
(0.942159 -0.390147 -9.45094e-21)
(0.941271 -0.439124 1.61102e-20)
(0.921808 -0.442776 -7.44501e-21)
(0.895969 -0.42463 0)
(0.86465 -0.401299 -3.39854e-21)
(0.821172 -0.391781 3.24497e-21)
(0.757968 -0.376245 -2.27695e-21)
(0.698619 -0.327532 2.84436e-21)
(0.666372 -0.209313 -3.23684e-22)
(0.67814 -0.0564169 0)
(0.720835 0.0992454 -2.96186e-22)
(0.776735 0.225622 8.53818e-22)
(0.816335 0.322467 0)
(0.820967 0.414164 3.02949e-21)
(0.801141 0.449052 -1.11193e-21)
(0.773908 0.425844 7.84838e-22)
(0.778891 0.264043 9.75847e-22)
(0.794532 0.075161 0)
(0.835459 -0.11396 0)
(0.865929 -0.226433 -1.73585e-21)
(0.861432 -0.268855 2.38137e-21)
(0.838984 -0.355358 -1.12397e-21)
(0.798604 -0.298742 2.73391e-22)
(0.804948 -0.283486 3.81733e-22)
(0.800902 -0.0820314 1.29477e-22)
(0.803633 0.0912382 -1.7034e-22)
(0.787499 0.192172 0)
(0.786195 0.396775 -1.5096e-22)
(0.782547 0.202539 -2.87918e-23)
(0.732727 -0.190036 1.67541e-19)
(0.759146 -0.260992 -1.66926e-19)
(0.784795 -0.330551 1.20596e-21)
(0.803588 -0.394541 -1.06043e-21)
(0.811318 -0.450673 9.80995e-22)
(0.80759 -0.494647 -8.47108e-22)
(0.792463 -0.522527 1.37484e-21)
(0.766035 -0.532874 0)
(0.72946 -0.526373 -8.792e-22)
(0.684659 -0.505235 6.66295e-22)
(0.632646 -0.473729 4.8502e-22)
(0.571898 -0.439252 -3.78062e-22)
(0.499436 -0.409231 0)
(0.417431 -0.382834 0)
(0.338765 -0.346209 9.82323e-23)
(0.282752 -0.280394 0)
(0.263457 -0.176166 -7.72698e-23)
(0.282608 -0.04214 0)
(0.33184 0.0993615 -7.66732e-21)
(0.398202 0.229063 1.46764e-20)
(0.469299 0.332566 -1.44555e-20)
(0.535022 0.40668 7.23504e-21)
(0.586598 0.460391 9.82001e-21)
(0.61936 0.507758 -9.53624e-21)
(0.638155 0.551173 -1.56567e-20)
(0.659008 0.567011 1.5325e-20)
(0.698259 0.516851 0)
(0.760853 0.376578 8.20886e-22)
(0.838341 0.160865 0)
(0.91362 -0.077197 0)
(0.965157 -0.271832 2.3216e-20)
(0.983467 -0.38775 -2.41877e-20)
(0.974549 -0.432776 9.93674e-22)
(0.947157 -0.434089 7.22069e-22)
(0.9142 -0.415213 -5.0942e-22)
(0.878648 -0.389067 -2.78746e-21)
(0.835386 -0.374093 2.70669e-21)
(0.7725 -0.356739 -2.44363e-21)
(0.710307 -0.315909 2.09615e-21)
(0.671026 -0.212864 5.89216e-22)
(0.677816 -0.0738868 -2.29728e-21)
(0.718371 0.0755682 -7.75519e-23)
(0.775024 0.205119 1.51262e-21)
(0.816589 0.311104 0)
(0.823741 0.413619 -1.08987e-21)
(0.809288 0.4552 2.35759e-21)
(0.786934 0.432881 -2.92127e-21)
(0.79684 0.268296 -9.82077e-22)
(0.812476 0.0735171 0)
(0.851467 -0.118641 6.58691e-22)
(0.879843 -0.229066 -1.51771e-21)
(0.874561 -0.264244 4.43833e-24)
(0.851255 -0.348039 -3.15189e-22)
(0.80586 -0.295489 3.16846e-22)
(0.812137 -0.284915 -3.40674e-22)
(0.804254 -0.0839064 0)
(0.806104 0.0917433 1.70419e-22)
(0.788007 0.193038 0)
(0.785658 0.397139 0)
(0.785198 0.203082 3.89362e-23)
(0.896771 -0.199482 -1.62493e-19)
(0.917091 -0.264052 1.60822e-19)
(0.938093 -0.325328 -1.11123e-21)