/*--------------------------------*- C++ -*----------------------------------*\
| =========                 |                                                 |
| \\      /  F ield         | OpenFOAM: The Open Source CFD Toolbox           |
|  \\    /   O peration     | Version:  2512                                  |
|   \\  /    A nd           | Website:  www.openfoam.com                      |
|    \\/     M anipulation  |                                                 |
\*---------------------------------------------------------------------------*/
FoamFile
{
    version     2.0;
    format      ascii;
    arch        "LSB;label=32;scalar=64";
    class       surfaceScalarField;
    location    "22";
    object      phi;
}
// * * * * * * * * * * * * * * * * * * * * * * * * * * * * * * * * * * * * * //

dimensions      [0 3 -1 0 0 0 0];

oriented        oriented;

internalField   nonuniform List<scalar> 
26232
(
3.85516e-05
0.000967042
-0.00100559
0.000318958
0.00190393
-0.00218434
0.000988674
0.00199463
-0.00266435
0.00218843
0.00129359
-0.00249335
0.00405969
-0.000167617
-0.00170364
0.00674604
-0.00237317
-0.000313185
0.0103887
-0.00531451
0.00167181
0.0151181
-0.00898203
0.00425263
0.0210409
-0.013354
0.00743129
0.0282252
-0.0183878
0.0112036
0.0366866
-0.024014
0.0155525
0.046378
-0.0301349
0.0204435
0.0571846
-0.0366283
0.0258217
0.0689269
-0.0433544
0.0316121
0.0813702
-0.0501657
0.0377224
0.0942402
-0.0569177
0.0440478
0.107243
-0.0634796
0.0504769
0.120086
-0.0697436
0.0569004
0.132502
-0.0756283
0.0632128
0.144264
-0.081099
0.0693362
0.155198
-0.086113
0.0751794
0.165189
-0.0907801
0.0807892
0.174125
-0.0948948
0.0859589
-0.0990893
0.091599
0.181615
8.07325e-05
0.00088631
0.000516615
0.00146805
0.00148464
0.00102661
0.00315378
-0.00037554
0.00569038
-0.00270422
0.00925328
-0.00593606
0.0139827
-0.0100439
0.019983
-0.0149823
0.0273035
-0.0206746
0.0359224
-0.0270067
0.0457362
-0.0338277
0.0565602
-0.0409589
0.0681394
-0.0482074
0.0801683
-0.0553834
0.0923183
-0.0623157
0.104267
-0.068866
0.115725
-0.0749383
0.126465
-0.0804832
0.136334
-0.0854975
0.145257
-0.0900222
0.153261
-0.0941164
0.160395
-0.0979149
0.166864
-0.101364
-0.105007
0.172783
0.000141525
0.000744785
0.000782885
0.000826687
0.00212823
-0.000318735
0.00437028
-0.00261759
0.00768906
-0.00602301
0.0122379
-0.0104849
0.0181215
-0.0159276
0.0253725
-0.0222332
0.0339309
-0.0292331
0.0436367
-0.0367125
0.054236
-0.044427
0.0654036
-0.0521265
0.0767762
-0.05958
0.0879916
-0.0665988
0.0987271
-0.0730512
0.108731
-0.0788701
0.117845
-0.0840518
0.126009
-0.0886474
0.13326
-0.0927481
0.139708
-0.0964705
0.145521
-0.0999294
0.150865
-0.103259
0.155959
-0.106458
-0.109918
0.16087
0.000222507
0.000522279
0.00112116
-7.19616e-05
0.00292025
-0.00211782
0.00582411
-0.00552146
0.0100043
-0.0102032
0.0155732
-0.0160537
0.0225532
-0.0229076
0.0308535
-0.0305334
0.0402624
-0.0386421
0.0504634
-0.0469135
0.0610701
-0.0550337
0.0716752
-0.0627315
0.0819019
-0.0698067
0.0914483
-0.0761452
0.100117
-0.0817203
0.107829
-0.0865813
0.11461
-0.0908335
0.120577
-0.0946144
0.125898
-0.0980691
0.130759
-0.101332
0.135338
-0.104508
0.139769
-0.10769
0.144185
-0.110875
-0.114313
0.14858
0.000323638
0.00019864
0.00152759
-0.00127591
0.00384334
-0.00443358
0.00746528
-0.0091434
0.0125222
-0.0152601
0.0190388
-0.0225704
0.0269055
-0.0307743
0.0358699
-0.0394979
0.045561
-0.0483332
0.0555393
-0.0568918
0.0653624
-0.0648568
0.0746483
-0.0720174
0.0831233
-0.0782816
0.0906453
-0.0836673
0.0972023
-0.0882773
0.102888
-0.0922668
0.107864
-0.0958093
0.112318
-0.099069
0.116432
-0.102183
0.120354
-0.105253
0.124194
-0.108348
0.128016
-0.111512
0.131879
-0.114738
-0.118184
0.135751
0.00044351
-0.000244869
0.00199173
-0.00282413
0.00486277
-0.00730462
0.00920928
-0.0134899
0.015073
-0.0211238
0.0223427
-0.0298402
0.0307412
-0.0391728
0.0398531
-0.0486098
0.0491911
-0.0576712
0.0582797
-0.0659803
0.0667304
-0.0733075
0.0742926
-0.0795796
0.0808684
-0.0848574
0.0864962
-0.0892951
0.0913117
-0.0930928
0.0954998
-0.0964549
0.099251
-0.0995605
0.102731
-0.102549
0.106066
-0.105518
0.109341
-0.108528
0.112609
-0.111616
0.115899
-0.114802
0.119242
-0.118081
-0.121537
0.122595
0.000579171
-0.00082404
0.0024959
-0.00474086
0.00592612
-0.0107348
0.0109403
-0.0185041
0.0174465
-0.02763
0.0251628
-0.0375564
0.033643
-0.047653
0.0423557
-0.0573225
0.0507868
-0.0661023
0.0585309
-0.0737244
0.0653456
-0.0801222
0.0711595
-0.0853935
0.0760426
-0.0897406
0.080155
-0.0934075
0.083692
-0.0966298
0.0868405
-0.0996034
0.0897534
-0.102473
0.0925416
-0.105337
0.0952775
-0.108253
0.0980048
-0.111256
0.100748
-0.11436
0.10352
-0.117574
0.106333
-0.120894
-0.124359
0.109154
0.00072574
-0.00154978
0.00301474
-0.00702986
0.0069648
-0.0146849
0.0125207
-0.0240599
0.0194205
-0.0345298
0.027206
-0.045342
0.035306
-0.055753
0.0431586
-0.065175
0.0503231
-0.0732668
0.0565438
-0.0799451
0.0617549
-0.0853333
0.0660407
-0.0896793
0.0695739
-0.0932738
0.0725554
-0.096389
0.0751698
-0.0992442
0.0775628
-0.101996
0.0798366
-0.104747
0.0820563
-0.107557
0.0842601
-0.110457
0.0864693
-0.113465
0.0886948
-0.116586
0.0909414
-0.11982
0.0932143
-0.123166
-0.126633
0.0954888
0.000876015
-0.0024258
0.0035157
-0.00966954
0.00789949
-0.0190687
0.0138087
-0.0299692
0.0207988
-0.0415199
0.0282689
-0.0528122
0.0356005
-0.0630846
0.0422951
-0.0718696
0.0480566
-0.0790284
0.0528013
-0.0846898
0.0566113
-0.0891433
0.0596639
-0.0927318
0.0621641
-0.095774
0.0642979
-0.0985228
0.0662091
-0.101155
0.0679967
-0.103784
0.0697221
-0.106473
0.0714207
-0.109255
0.0731116
-0.112148
0.074805
-0.115158
0.0765058
-0.118286
0.0782159
-0.12153
0.0799363
-0.124887
-0.128348
0.0816515
0.0010206
-0.0034464
0.00396168
-0.0126106
0.00864972
-0.0237567
0.0146814
-0.0360008
0.0214482
-0.0482867
0.0282727
-0.0596367
0.0345757
-0.0693876
0.0399903
-0.0772841
0.0443867
-0.0834249
0.0478266
-0.0881297
0.0504834
-0.0918
0.0525658
-0.0948143
0.0542648
-0.0974731
0.0557278
-0.0999858
0.057055
-0.102483
0.0583075
-0.105037
0.05952
-0.107685
0.0607109
-0.110446
0.0618901
-0.113327
0.0630627
-0.116331
0.0642309
-0.119454
0.0653954
-0.122695
0.0665546
-0.126046
-0.129494
0.0677003
0.00114926
-0.00459566
0.00431648
-0.0157778
0.00914702
-0.0285873
0.0150552
-0.041909
0.0213178
-0.0545493
0.0272596
-0.0655785
0.0324099
-0.0745378
0.0365598
-0.0814341
0.0397263
-0.0865914
0.042067
-0.0904704
0.043792
-0.093525
0.0451003
-0.0961225
0.0461476
-0.0985203
0.0470399
-0.100878
0.0478416
-0.103284
0.0485886
-0.105784
0.0492998
-0.108396
0.049985
-0.111131
0.0506497
-0.113992
0.0512968
-0.116978
0.0519274
-0.120085
0.052541
-0.123308
0.0531346
-0.12664
-0.130063
0.0537041
0.00125478
-0.00585044
0.00455298
-0.019076
0.00934684
-0.0333811
0.014898
-0.0474602
0.0204372
-0.0600886
0.0253623
-0.0705036
0.0293468
-0.0785223
0.0323303
-0.0844176
0.0344349
-0.088696
0.0358649
-0.0919004
0.0368282
-0.0944883
0.0374934
-0.0967877
0.037977
-0.099004
0.0383506
-0.101252
0.0386533
-0.103587
0.0389056
-0.106036
0.0391178
-0.108608
0.0392954
-0.111309
0.039442
-0.114139
0.0395596
-0.117095
0.0396491
-0.120175
0.0397099
-0.123369
0.0397389
-0.126669
0.0397358
-0.13006
-0.000249626
7.24131e-05
0.000177213
-0.000866762
0.000168405
0.000448731
-0.00177304
0.00024285
0.000663426
-0.00291168
0.000306951
0.00083169
-0.00424051
0.000365833
0.000962998
-0.00572886
0.000421825
0.00106653
-0.00735525
0.000475758
0.00115063
-0.00910536
0.000527842
0.00122226
-0.0109703
0.000578315
0.00128664
-0.0129452
0.000627794
0.00134715
-0.0150281
0.000677384
0.00140546
-0.0172185
0.000728646
0.00146179
-0.0195173
0.000783517
0.00151521
-0.0219255
0.000844272
0.00156397
-0.0244447
0.000913548
0.0016057
-0.0270768
0.00099447
0.00163762
-0.0298243
0.00109084
0.00165661
-0.0326911
0.00120743
0.00165938
-0.035684
0.00135036
0.00164254
-0.0388141
0.00152724
0.00160287
-0.0420981
0.0017466
0.00153738
-0.0455595
0.00201825
0.00144316
-0.0492371
0.00236019
0.0013174
0.00279934
-0.0531965
0.00116005
-0.000239107
0.00031152
-0.000831954
0.000761252
-0.00170267
0.00111357
-0.00279498
0.00139926
-0.00406622
0.00163708
-0.00548465
0.00184025
-0.00702722
0.00201832
-0.00867764
0.00217827
-0.0104247
0.00232541
-0.0122609
0.00246397
-0.014181
0.00259743
-0.016181
0.00272867
-0.0182576
0.00286015
-0.0204074
0.00299406
-0.0226264
0.00313257
-0.0249101
0.00327817
-0.0272534
0.00343417
-0.0296513
0.00360525
-0.0320994
0.00379846
-0.0345963
0.00402415
-0.0371458
0.00429609
-0.0397583
0.00463079
-0.0424548
0.00505665
0.00563365
-0.0452891
-0.000212418
0.000523939
-0.000743426
0.00129226
-0.00152468
0.00189482
-0.00250272
0.0023773
-0.00363512
0.00276948
-0.00488854
0.00309368
-0.00623704
0.00336681
-0.00766038
0.00360161
-0.00914258
0.0038076
-0.0106705
0.00399187
-0.0122326
0.00415953
-0.013818
0.0043141
-0.0154156
0.00445778
-0.0170134
0.00459181
-0.0185976
0.00471681
-0.0201527
0.00483321
-0.0216604
0.00494184
-0.0230998
0.00504467
-0.0244473
0.00514603
-0.0256778
0.00525459
-0.0267677
0.00538606
-0.0277006
0.00556367
-0.0284657
0.00582173
0.00624382
-0.0290759
-0.000174429
0.000698368
-0.000616165
0.001734
-0.00126732
0.00254598
-0.00207869
0.00318867
-0.00300852
0.00369931
-0.00402167
0.00410683
-0.00508854
0.00443368
-0.00618385
0.00469693
-0.00728542
0.00490917
-0.00837294
0.00507939
-0.00942696
0.00521356
-0.0104279
0.00531507
-0.0113554
0.00538522
-0.0121872
0.00542363
-0.012899
0.00542858
-0.0134632
0.00539748
-0.0138487
0.00532732
-0.0140193
0.0052153
-0.013933
0.00505974
-0.0135405
0.00486207
-0.0127858
0.00463132
-0.0116126
0.00439047
-0.00997359
0.00418274
0.00412884
-0.00785861
-0.000131501
0.000829869
-0.000469804
0.0020723
-0.000967692
0.00304387
-0.00158035
0.00380133
-0.00226678
0.00438574
-0.00298998
0.00483002
-0.00371648
0.00516019
-0.00441563
0.00539607
-0.00505859
0.00555213
-0.00561745
0.00563825
-0.00606426
0.00566037
-0.0063703
0.0056211
-0.00650534
0.00552026
-0.00643705
0.00535534
-0.00613039
0.00512192
-0.00554702
0.00481411
-0.00464453
0.00442483
-0.00337545
0.00394621
-0.00168573
0.00337002
0.000487936
0.00268841
0.00322202
0.00189724
0.00660713
0.00100536
0.0107411
4.87752e-05
-0.000874649
0.0157446
-9.00863e-05
0.000919955
-0.000324422
0.00230663
-0.000663901
0.00338335
-0.00106686
0.00420429
-0.00149247
0.00481134
-0.0019016
0.00523915
-0.00225687
0.00551546
-0.00252216
0.00566136
-0.00266188
0.00569185
-0.00264021
0.00561658
-0.00242034
0.0054405
-0.00196376
0.00516453
-0.00122969
0.00478619
-0.00017455
0.0043002
0.00124842
0.00369895
0.00308955
0.00297298
0.00540311
0.00211126
0.00824761
0.00110171
0.0116861
-6.84729e-05
0.0157882
-0.00141366
0.0206322
-0.00294673
0.026319
-0.00468151
0.0329257
-0.00655792
-0.00878893
0.04084
-5.53747e-05
0.00097533
-0.00019629
0.00244755
-0.00038691
0.00357397
-0.000586119
0.0044035
-0.000751766
0.00497699
-0.000841732
0.00532912
-0.000814024
0.00548776
-0.000626357
0.00547369
-0.000235488
0.00530098
0.000403514
0.00497758
0.00133799
0.00450602
0.00261832
0.0038842
0.00429837
0.00310614
0.0064359
0.00216267
0.0090926
0.00104225
0.0123339
-0.000268287
0.0162289
-0.0017838
0.0208493
-0.00351864
0.0262684
-0.00548763
0.0325599
-0.00770517
0.0397905
-0.0101773
0.0480684
-0.0129594
0.0573362
-0.0158257
-0.0196949
0.0682421
-3.02247e-05
0.00100556
-9.43468e-05
0.00251167
-0.000153473
0.00363309
-0.000163271
0.0044133
-7.76757e-05
0.0048914
0.000150544
0.0051009
0.000570074
0.00506823
0.00123166
0.0048121
0.00218893
0.00434371
0.00349916
0.00366735
0.0052239
0.00278129
0.00742935
0.00167874
0.0101864
0.000349098
0.0135703
-0.00122126
0.0176598
-0.00304727
0.0225359
-0.00514436
0.0282792
-0.00752713
0.0349685
-0.0102079
0.0426763
-0.0131954
0.0514694
-0.0164982
0.0613815
-0.0200894
0.0725168
-0.0240948
0.0846432
-0.0279521
-0.0335632
0.0985116
-1.45453e-05
0.0010201
-1.79444e-05
0.00251507
3.84486e-05
0.0035767
0.000206858
0.00424489
0.00054134
0.00455691
0.00109803
0.00454421
0.00193622
0.00423003
0.00311952
0.0036288
0.00471669
0.00274655
0.00680217
0.00158187
0.00945607
0.000127382
0.0127637
-0.00162886
0.0168138
-0.00370099
0.0216964
-0.00610386
0.0274998
-0.00885076
0.0343071
-0.0119516
0.0421909
-0.015411
0.0512101
-0.0192271
0.0614035
-0.0233889
0.0727907
-0.0278854
0.0853443
-0.0326429
0.0990879
-0.0378384
0.113736
-0.0426004
-0.0495785
0.129751
-5.31952e-06
0.00102542
4.29481e-05
0.0024668
0.000209927
0.00340972
0.000561155
0.00389366
0.00116359
0.00395448
0.00208765
0.00362015
0.00340892
0.00290876
0.0052094
0.00182832
0.00757783
0.000378123
0.010609
-0.00144931
0.0144018
-0.00366544
0.0190558
-0.00628283
0.0246668
-0.00931199
0.0313213
-0.0127584
0.0390905
-0.01662
0.0480241
-0.0208852
0.058145
-0.0255318
0.0694449
-0.030527
0.0818823
-0.0358263
0.0953797
-0.0413829
0.109829
-0.0470924
0.125078
-0.0530875
0.140973
-0.0584953
-0.0658933
0.157288
2.9342e-06
0.00102249
0.000106638
0.0023631
0.000398302
0.00311806
0.000962146
0.00332981
0.00188401
0.00303261
0.00325451
0.00224966
0.00517083
0.000992431
0.00773701
-0.000737855
0.0110622
-0.00294712
0.0152568
-0.00564385
0.0204262
-0.00883489
0.026664
-0.0125205
0.0340427
-0.0166907
0.0426063
-0.021322
0.0523624
-0.0263761
0.0632775
-0.0318003
0.0752745
-0.0375288
0.0882338
-0.0434863
0.101998
-0.04959
0.116377
-0.055762
0.131181
-0.0618971
0.146133
-0.068039
0.16126
-0.073622
-0.0802782
0.175645
1.68921e-05
0.000195656
0.000649364
0.00148582
0.0028148
0.00475127
0.00741551
0.0109303
0.0154145
0.0209742
0.0276918
0.0356147
0.0447457
0.0550358
0.0663822
0.0786296
0.0915777
0.104992
0.118615
0.132189
0.145471
0.158221
0.170558
0.181879
-0.0562116
0.00174989
0.00126526
-0.0591699
0.00215017
0.000808048
-0.0620176
0.00261005
0.000237711
-0.064725
0.00311787
-0.000410496
-0.0672109
0.00366145
-0.0011755
-0.0693891
0.00421847
-0.00204032
-0.0711804
0.00474713
-0.00295581
-0.0724816
0.00520372
-0.00390253
-0.0731769
0.00553375
-0.00483842
-0.0731413
0.0056736
-0.00570927
-0.0722443
0.00556033
-0.00645732
-0.0703594
0.00513653
-0.00702139
-0.0673652
0.00434304
-0.00733725
-0.0631588
0.00312296
-0.00732937
-0.0576518
0.00144029
-0.00694726
-0.0507916
-0.000689304
-0.00617095
-0.0426062
-0.00317375
-0.00501157
-0.0330887
-0.00608125
-0.00343627
-0.0223666
-0.00914225
-0.00157984
-0.010605
-0.0121586
0.000396905
0.00196407
-0.0148778
0.00230873
0.0150107
-0.0169707
0.00392409
0.0282447
-0.018295
0.00506099
0.0413587
-0.0187055
0.00559152
0.0540898
-0.0181907
0.00545954
0.0662372
-0.0168369
0.00468952
0.0776694
-0.014814
0.00338187
0.0883152
-0.0123132
0.00166738
0.098142
-0.00954269
-0.000284115
0.107145
-0.00663872
-0.00236454
0.11534
-0.00379203
-0.00440262
0.122746
-0.00103766
-0.00636877
0.129421
0.00138196
-0.00805675
0.135399
0.00362589
-0.00960362
0.140734
0.00541661
-0.0107522
0.145487
0.00703526
-0.0117877
0.149708
0.00812858
-0.0123499
0.153458
0.0091917
-0.0129409
0.156791
0.00968582
-0.0130192
0.159762
0.0103665
-0.0133374
0.16242
0.0104739
-0.0131323
0.164812
0.0110184
-0.0134105
0.166986
0.0109238
-0.0130972
0.168982
0.0115579
-0.0135547
0.170837
0.0113936
-0.0132487
0.172555
0.0123948
-0.0141123
0.174119
0.012321
-0.0138849
0.175488
0.0138626
-0.0152319
0.176627
0.0138869
-0.0150253
0.177508
0.0159041
-0.0167856
0.178133
0.0159541
-0.0165787
0.178512
0.0185164
-0.0188961
0.178682
0.0186146
-0.0187841
0.178669
0.021948
-0.0219348
0.178513
0.0221722
-0.0220166
0.178238
0.0263706
-0.0260957
0.177878
0.0268063
-0.026446
0.177438
0.0319765
-0.0315368
0.176952
0.0326885
-0.0322021
0.0390304
-0.0384817
-0.0479075
0.00436829
-0.0505112
0.00475393
-0.0530005
0.00509932
-0.055336
0.00545334
-0.0574494
0.00577484
-0.0592619
0.006031
-0.0606858
0.00617108
-0.0616207
0.00613858
-0.0619531
0.0058662
-0.0615586
0.00527908
-0.0603087
0.00431044
-0.0580724
0.00290019
-0.054706
0.000976592
-0.0501998
-0.00138316
-0.0445728
-0.00418677
-0.0376743
-0.00758778
-0.0294448
-0.0114032
-0.0199947
-0.0155313
-0.00942168
-0.0197153
0.00199602
-0.0235763
0.0139535
-0.0268353
0.0262834
-0.0293006
0.0386416
-0.0306531
0.050726
-0.0307899
0.0622996
-0.0297643
0.0732076
-0.0277449
0.0833741
-0.0249805
0.0927852
-0.0217244
0.10146
-0.0182169
0.10943
-0.0146087
0.116737
-0.0110995
0.123432
-0.00773259
0.129535
-0.00472117
0.135089
-0.00192805
0.14013
0.000375634
0.144701
0.0024643
0.148825
0.00400476
0.152543
0.00547329
0.155889
0.00633997
0.158901
0.00735468
0.161616
0.00775859
0.164073
0.00856145
0.166313
0.00868367
0.168378
0.00949284
0.170303
0.00946918
0.172092
0.0106054
0.173729
0.0106838
0.175171
0.0124212
0.176377
0.0126804
0.177319
0.0149623
0.177996
0.0152771
0.178419
0.0180937
0.178625
0.0184082
0.178642
0.0219314
0.178513
0.0223009
0.17826
0.0266235
0.177921
0.0271455
0.177498
0.0323991
0.177029
0.0331577
0.0395664
-0.0308573
0.00614973
-0.0326878
0.00658444
-0.0344256
0.00683714
-0.0360231
0.00705082
-0.0374213
0.00717296
-0.0385404
0.00715014
-0.0393068
0.0069375
-0.0396293
0.00646106
-0.0394029
0.00563984
-0.0385106
0.00438671
-0.0368332
0.00263312
-0.0341277
0.00019465
-0.0306945
-0.00245662
-0.0261596
-0.00591805
-0.0204903
-0.00985605
-0.0136955
-0.0143826
-0.00574057
-0.0193581
0.00318465
-0.0244566
0.0129153
-0.0294459
0.0234017
-0.0340626
0.0344125
-0.0378462
0.0455979
-0.0404859
0.0566534
-0.0417086
0.0673064
-0.0414429
0.0773528
-0.0398107
0.0866734
-0.0370655
0.0952306
-0.0335378
0.103051
-0.0295444
0.110197
-0.025363
0.116735
-0.021147
0.122735
-0.0170991
0.128258
-0.0132554
0.133347
-0.00981042
0.138051
-0.0066328
0.142393
-0.00396617
0.146378
-0.00152006
0.150035
0.000347607
0.15339
0.00211838
0.156451
0.00327827
0.15924
0.00456574
0.16178
0.00521902
0.164097
0.00624464
0.166223
0.00655774
0.168195
0.00752072
0.170045
0.0076192
0.171779
0.00887065
0.173382
0.00908101
0.174809
0.0109943
0.176019
0.0114704
0.176978
0.0140032
0.177684
0.0145713
0.178142
0.0176354
0.178391
0.0181602
0.178451
0.0218712
0.178369
0.0223826
0.178163
0.02683
0.177872
0.0274362
0.177496
0.0327751
0.177075
0.0335788
0.0400571
-0.00847741
0.00676853
-0.00928488
0.00739191
-0.0100642
0.00761643
-0.0107301
0.00771676
-0.011247
0.0076899
-0.0115514
0.00745446
-0.0115515
0.00693769
-0.0111823
0.00609182
-0.0103659
0.00482345
-0.00898815
0.00300895
-0.00684379
0.00048876
-0.00418185
-0.0024673
-0.000558139
-0.00608033
0.00371991
-0.0101961
0.00893796
-0.0150741
0.0150873
-0.020532
0.0221579
-0.0264287
0.0301143
-0.032413
0.0388675
-0.0381991
0.0481906
-0.0433858
0.0578561
-0.0475116
0.0675739
-0.0502038
0.0770713
-0.051206
0.0861147
-0.0504863
0.094539
-0.048235
0.102256
-0.0447827
0.109249
-0.0405306
0.115554
-0.0358499
0.121249
-0.0310572
0.126407
-0.0263058
0.131109
-0.0218008
0.135426
-0.0175719
0.139415
-0.0137993
0.14312
-0.0103381
0.146575
-0.00742109
0.149801
-0.00474643
0.152809
-0.00265993
0.155578
-0.000651408
0.158157
0.000699824
0.160535
0.00218753
0.162727
0.00302667
0.164746
0.00422576
0.166615
0.00468952
0.168363
0.00577262
0.170018
0.00596358
0.17159
0.00729897
0.173064
0.00760717
0.174398
0.00966
0.175552
0.0103161
0.176489
0.013067
0.177201
0.0138592
0.177687
0.017149
0.177981
0.0178661
0.178098
0.021754
0.178083
0.0223978
0.177947
0.0269663
0.177731
0.0276516
0.177431
0.0330752
0.177089
0.0339208
0.0404701
0.0160666
0.00644647
0.0162474
0.00721111
0.016408
0.00745587
0.0166537
0.00747107
0.0170025
0.00734109
0.0174871
0.00696989
0.018168
0.00625678
0.0191277
0.0051321
0.0204012
0.00354989
0.022116
0.00129416
0.0241926
-0.00158786
0.0268357
-0.00511035
0.0300736
-0.00931822
0.0340518
-0.0141743
0.0387402
-0.0197625
0.0441594
-0.0259512
0.050291
-0.0325603
0.0571194
-0.0392413
0.0645375
-0.0456173
0.0723639
-0.0512122
0.0803871
-0.0555349
0.0883715
-0.0581881
0.0961007
-0.0589352
0.103403
-0.0577883
0.110168
-0.0550005
0.116346
-0.0509608
0.121933
-0.0461174
0.126959
-0.0408753
0.131481
-0.0355792
0.135559
-0.0303841
0.139251
-0.0254933
0.142617
-0.020938
0.145709
-0.0168906
0.148571
-0.0132004
0.151242
-0.0100923
0.15374
-0.00724373
0.156082
-0.00500204
0.158284
-0.0028533
0.160328
-0.00134444
0.162229
0.000286783
0.164011
0.00124474
0.165666
0.00257047
0.16721
0.00314541
0.168668
0.00431444
0.170065
0.00456706
0.171411
0.00595306
0.172697
0.00632027
0.173889
0.00846846
0.174948
0.00925697
0.175834
0.0121807
0.176539
0.0131552
0.17705
0.0166373
0.177397
0.0175194
0.177585
0.0215657
0.177656
0.0223269
0.177614
0.0270084
0.177501
0.0277651
0.177305
0.0332707
0.177072
0.0341536
0.0407731
0.0415185
0.00576794
0.042223
0.0065066
0.0429847
0.00669419
0.0438536
0.00660222
0.0448212
0.00637349
0.0458967
0.00589441
0.0471117
0.00504173
0.0485065
0.00373733
0.0501326
0.00192373
0.0519886
-0.00056175
0.0541078
-0.0037071
0.0565881
-0.00759063
0.059498
-0.0122281
0.0629277
-0.017604
0.0668801
-0.0237149
0.0713685
-0.0304396
0.0763767
-0.0375685
0.0818725
-0.0447372
0.0877558
-0.0515005
0.0938701
-0.0573265
0.100039
-0.0617039
0.106093
-0.0642422
0.111896
-0.0647378
0.117358
-0.06325
0.122438
-0.060081
0.127131
-0.0556536
0.131444
-0.0504309
0.135395
-0.0448255
0.139007
-0.0391913
0.14231
-0.0336874
0.145321
-0.0285047
0.148068
-0.0236844
0.150578
-0.0194012
0.152885
-0.0155067
0.155016
-0.0122235
0.156994
-0.00922206
0.158842
-0.00684969
0.160565
-0.00457692
0.16218
-0.00295884
0.163692
-0.00122567
0.165087
-0.000150006
0.166411
0.00124613
0.167651
0.00190582
0.168828
0.00313745
0.169966
0.00342902
0.17108
0.00483926
0.172169
0.00523106
0.173205
0.00743215
0.174158
0.00830375
0.174988
0.0113507
0.175684
0.0124599
0.176226
0.0160947
0.176637
0.0171085
0.176913
0.0212897
0.17709
0.0221494
0.177166
0.0269324
0.177181
0.0277505
0.177119
0.0333328
0.177025
0.0342471
0.0409344
0.0685364
0.0054737
0.0690441
0.00599884
0.0697676
0.0059707
0.0706928
0.00567706
0.0717743
0.00529192
0.0730072
0.00466154
0.0743925
0.00365645
0.0759322
0.00219764
0.0776501
0.000205829
0.0795028
-0.00241449
0.0815406
-0.00574486
0.0837883
-0.00983832
0.0862838
-0.0147236
0.0890714
-0.0203916
0.0921657
-0.0268092
0.0955844
-0.0338583
0.0993128
-0.0412969
0.103311
-0.0487352
0.107494
-0.0556834
0.111736
-0.0615684
0.11591
-0.0658787
0.11993
-0.0682615
0.123752
-0.0685598
0.127377
-0.0668747
0.130831
-0.063535
0.134143
-0.0589661
0.137328
-0.0536155
0.140379
-0.0478766
0.143285
-0.0420975
0.14604
-0.0364424
0.148618
-0.0310833
0.151009
-0.0260748
0.15321
-0.0216024
0.155229
-0.0175251
0.157079
-0.0140735
0.158777
-0.0109204
0.160341
-0.00841388
0.161785
-0.00602076
0.163119
-0.00429241
0.164359
-0.00246566
0.165527
-0.0013189
0.166592
0.000181362
0.167611
0.00088678
0.168575
0.00217384
0.169509
0.00249462
0.170434
0.00391461
0.171358
0.00430686
0.172263
0.00652704
0.173129
0.0074383
0.173917
0.0105622
0.174618
0.0117594
0.175206
0.0155062
0.175698
0.0166166
0.176081
0.0209064
0.176388
0.0218433
0.176606
0.0267139
0.176775
0.0275818
0.176874
0.0332335
0.176949
0.0341723
0.040923
0.0978561
0.00612919
0.0975622
0.0062927
0.097618
0.0059149
0.0979593
0.00533573
0.0985428
0.00470849
0.0993677
0.00383656
0.100406
0.00261805
0.101629
0.000974685
0.103019
-0.00118449
0.10455
-0.00394476
0.106205
-0.0073997
0.107983
-0.0116169
0.109886
-0.0166266
0.111917
-0.0224225
0.114062
-0.0289538
0.116291
-0.0360875
0.118572
-0.043578
0.120892
-0.0510558
0.123213
-0.058004
0.125461
-0.0638161
0.127584
-0.068002
0.129586
-0.0702633
0.131518
-0.0704917
0.133455
-0.0688124
0.135471
-0.0655506
0.137606
-0.0611012
0.139863
-0.0558723
0.142206
-0.0502195
0.144586
-0.0444775
0.14696
-0.0388164
0.149273
-0.0333962
0.151476
-0.0282782
0.153544
-0.0236699
0.155458
-0.0194396
0.157216
-0.0158319
0.158823
-0.0125267
0.160289
-0.0098803
0.161627
-0.00735803
0.162848
-0.00551382
0.163974
-0.00359127
0.165015
-0.00236012
0.165983
-0.000786828
0.166868
1.51554e-06
0.167719
0.00132344
0.168536
0.00167685
0.169346
0.00310498
0.170168
0.0034853
0.170992
0.00570231
0.171811
0.00661982
0.172591
0.00978232
0.173324
0.0110264
0.173982
0.0148476
0.174578
0.016021
0.175091
0.0203929
0.175549
0.0213854
0.175935
0.026328
0.176284
0.0272331
0.176572
0.0329451
0.176844
0.0339005
0.0407082
0.128025
0.00785601
0.126745
0.00757189
0.125828
0.00683188
0.125188
0.00597621
0.124859
0.00503772
0.124842
0.00385383
0.125089
0.00237055
0.125558
0.000505535
0.126218
-0.00184447
0.12702
-0.00474612
0.127927
-0.00830699
0.128907
-0.0125974
0.129926
-0.0176456
0.130951
-0.0234475
0.131943
-0.0299458
0.132851
-0.0369955
0.133619
-0.044346
0.134196
-0.0516326
0.134578
-0.0583854
0.134817
-0.0640554
0.134967
-0.0681526
0.135126
-0.0704223
0.135418
-0.0707833
0.13596
-0.0693543
0.136835
-0.0664252
0.138069
-0.0623352
0.139637
-0.0574408
0.141472
-0.0520541
0.143487
-0.0464932
0.145608
-0.0409376
0.147769
-0.0355564
0.149889
-0.0303986
0.151922
-0.0257032
0.153835
-0.0213523
0.155611
-0.0176081
0.157243
-0.0141582
0.158735
-0.0113721
0.160092
-0.00871548
0.161328
-0.0067497
0.162457
-0.00472051
0.163496
-0.00339946
0.164453
-0.00174352
0.165349
-0.000894225
0.166167
0.000505274
0.166963
0.000881048
0.167742
0.00232555
0.168536
0.00269123
0.169345
0.00489336
0.170171
0.00579424
0.170987
0.00896657
0.171789
0.0102243
0.172548
0.0140881
0.173275
0.0152947
0.173944
0.0197238
0.174578
0.0207511
0.175157
0.0257494
0.175711
0.0266787
0.176216
0.0324404
0.176712
0.0334039
0.0402604
0.15486
0.0102838
0.152877
0.00955485
0.151107
0.00860194
0.149535
0.00754793
0.148291
0.00628174
0.147338
0.00480733
0.146612
0.00309604
0.146174
0.000944067
0.145927
-0.0015981
0.145784
-0.00460305
0.145714
-0.00823678
0.145669
-0.0125521
0.145591
-0.0175674
0.145423
-0.0232798
0.145106
-0.0296288
0.144577
-0.0364666
0.143779
-0.0435481
0.142679
-0.0505325
0.141285
-0.0569916
0.139722
-0.0624917
0.138179
-0.0666097
0.136842
-0.0690856
0.135878
-0.0698191
0.135407
-0.0688833
0.135489
-0.0665079
0.136119
-0.0629644
0.137236
-0.0585582
0.138746
-0.0535645
0.140539
-0.0482857
0.142509
-0.0429075
0.144591
-0.0376388
0.146699
-0.0325068
0.148764
-0.0277675
0.150735
-0.0233235
0.152589
-0.0194622
0.15431
-0.0158787
0.155897
-0.0129595
0.157351
-0.0101691
0.158681
-0.00808017
0.159898
-0.00593778
0.161023
-0.00452385
0.162063
-0.00278379
0.163034
-0.00186522
0.163922
-0.000382295
0.164768
3.447e-05
0.165599
0.00149427
0.166442
0.00184904
0.167302
0.00403317
0.168193
0.00490344
0.169093
0.00806572
0.170006
0.00931207
0.170901
0.0131928
0.171788
0.0144077
0.17264
0.0188718
0.173476
0.0199148
0.174273
0.0249527
0.175058
0.0258932
0.175806
0.0316928
0.176554
0.0326558
0.0395507
0.173297
0.0126315
0.171162
0.0116895
0.169006
0.0107586
0.167012
0.00954118
0.165261
0.00803331
0.163731
0.00633756
0.16239
0.00443645
0.161159
0.00217504
0.16009
-0.000528644
0.159064
-0.00357743
0.158053
-0.007226
0.157006
-0.0115043
0.155846
-0.0164082
0.154509
-0.0219421
0.152927
-0.028047
0.151044
-0.0345836
0.148823
-0.0413276
0.146271
-0.0479796
0.143452
-0.0541732
0.14051
-0.0595493
0.137728
-0.0638275
0.135354
-0.066712
0.13356
-0.0680253
0.132446
-0.0677692
0.132042
-0.0661039
0.132308
-0.0632308
0.133161
-0.0594105
0.134486
-0.0548902
0.136163
-0.0499623
0.138074
-0.0448188
0.140132
-0.0396962
0.142263
-0.0346376
0.144395
-0.0298996
0.146463
-0.0253915
0.148434
-0.0214334
0.150284
-0.0177289
0.15201
-0.0146855
0.153607
-0.0117655
0.155082
-0.009556
0.156443
-0.00729874
0.157711
-0.00579134
0.158891
-0.00396394
0.159994
-0.00296848
0.161019
-0.00140729
0.161998
-0.000944739
0.162935
0.000557324
0.163891
0.0008935
0.164863
0.00306062
0.165875
0.00389207
0.166909
0.00703124
0.167973
0.00824805
0.16904
0.0121261
0.170119
0.0133289
0.171182
0.0178088
0.172246
0.0188505
0.173287
0.0239123
0.174328
0.0248517
0.175345
0.0306764
0.17637
0.03163
0.0385512
0.180473
0.0140379
0.178685
0.0134772
0.176937
0.012507
0.175224
0.0112539
0.173533
0.00972448
0.171889
0.0079816
0.170286
0.00603887
0.16872
0.00374168
0.167237
0.000953754
0.165712
-0.00205196
0.164076
-0.0055906
0.162287
-0.00971502
0.160297
-0.0144179
0.158056
-0.0197017
0.15552
-0.0255107
0.152664
-0.0317279
0.149501
-0.0381647
0.146091
-0.0445688
0.142551
-0.0506335
0.139034
-0.056032
0.135699
-0.0604932
0.132747
-0.0637593
0.13039
-0.0656689
0.128793
-0.0661717
0.127979
-0.0652905
0.127901
-0.0631526
0.128471
-0.0599801
0.129575
-0.0559945
0.131093
-0.0514801
0.132905
-0.0466307
0.134917
-0.0417084
0.137039
-0.0367603
0.139203
-0.0320637
0.141346
-0.0275338
0.143426
-0.0235134
0.145409
-0.0197119
0.147286
-0.016563
0.149046
-0.0135251
0.150694
-0.011204
0.15223
-0.00883531
0.153676
-0.00723726
0.155035
-0.00532268
0.156321
-0.0042545
0.157528
-0.0026142
0.158684
-0.00210088
0.159794
-0.00055281
0.16091
-0.000222123
0.162047
0.00192377
0.163228
0.00271081
0.164441
0.00581862
0.165696
0.0069927
0.166969
0.0108528
0.16827
0.0120277
0.169573
0.0165065
0.170891
0.0175323
0.1722
0.0226028
0.173523
0.0235295
0.174833
0.0293658
0.176162
0.0303015
0.0372351
0.197414
0.0152033
-0.19858
0.196772
0.0141192
0.196114
0.0131656
0.19549
0.011878
0.19492
0.0102945
0.19442
0.00848159
0.194045
0.00641348
0.193758
0.00402824
0.193369
0.00134353
0.193116
-0.00179931
0.192887
-0.00536199
0.192594
-0.00942145
0.192186
-0.0140101
0.19158
-0.0190956
0.190684
-0.024615
0.189416
-0.0304599
0.187713
-0.0364619
0.185544
-0.0423995
0.182924
-0.0480133
0.179917
-0.0530248
0.176618
-0.0571941
0.17316
-0.0603013
0.169688
-0.0621975
0.166344
-0.0628274
0.163262
-0.0622081
0.160542
-0.060433
0.15825
-0.0576879
0.156413
-0.0541574
0.155025
-0.0500921
0.154052
-0.0456576
0.153446
-0.0411023
0.153155
-0.03647
0.153127
-0.032035
0.153302
-0.0277088
0.153624
-0.0238353
0.15404
-0.0201288
0.154511
-0.0170339
0.155001
-0.014015
0.155486
-0.0116891
0.155947
-0.00929547
0.156374
-0.00766434
0.156759
-0.00570776
0.157097
-0.00459294
0.15738
-0.00289744
0.157606
-0.00232633
0.157782
-0.000729195
0.15793
-0.00036972
0.158052
0.00180168
0.158186
0.00257648
0.158333
0.00567175
0.158508
0.00681814
0.1587
0.0106606
0.158914
0.0118134
0.159132
0.0162883
0.159361
0.0173034
0.159581
0.0223834
0.159805
0.0233055
0.160014
0.0291568
0.160231
0.0300846
0.0370324
0.210134
0.0153934
-0.210324
0.210002
0.0142504
0.210011
0.0131567
0.209991
0.0118979
0.209913
0.010373
0.209809
0.00858564
0.209691
0.00653145
0.209513
0.00420655
0.209307
0.00154936
0.209033
-0.00152579
0.208668
-0.00499717
0.208153
-0.00890555
0.207423