/*--------------------------------*- C++ -*----------------------------------*\
| =========                 |                                                 |
| \\      /  F ield         | OpenFOAM: The Open Source CFD Toolbox           |
|  \\    /   O peration     | Version:  2512                                  |
|   \\  /    A nd           | Website:  www.openfoam.com                      |
|    \\/     M anipulation  |                                                 |
\*---------------------------------------------------------------------------*/
FoamFile
{
    version     2.0;
    format      ascii;
    arch        "LSB;label=32;scalar=64";
    class       volVectorField;
    location    "22";
    object      U;
}
// * * * * * * * * * * * * * * * * * * * * * * * * * * * * * * * * * * * * * //

dimensions      [0 1 -1 0 0 0 0];

internalField   nonuniform List<vector> 
13248
(
(-0.0126902 0.0117073 6.374e-20)
(-0.0244331 0.0250295 0)
(-0.0233574 0.0321846 -1.20552e-19)
(-0.0102628 0.035195 1.13562e-19)
(0.01431 0.0356793 1.06356e-19)
(0.04998 0.0349151 0)
(0.0964244 0.0338797 0)
(0.153263 0.0333114 2.56487e-19)
(0.219919 0.0337499 -1.2522e-21)
(0.295488 0.0355551 -2.24089e-19)
(0.378649 0.0389131 2.07868e-19)
(0.467634 0.04384 -1.29945e-19)
(0.560279 0.0501907 0)
(0.654134 0.0576759 -2.23762e-19)
(0.746623 0.0658919 4.18191e-19)
(0.835223 0.0743582 -9.89266e-20)
(0.917641 0.0825668 -1.79256e-19)
(0.991965 0.0900043 1.68274e-19)
(1.05679 0.0962928 0)
(1.11121 0.100841 0)
(1.15521 0.104109 0)
(1.18815 0.103813 0)
(1.21333 0.105175 5.44066e-20)
(1.22676 0.0952639 2.03498e-19)
(-0.0125779 0.0103349 -1.92553e-19)
(-0.0206685 0.0206362 1.31328e-19)
(-0.0126608 0.0254617 -1.14445e-21)
(0.0102482 0.0269753 -1.73569e-19)
(0.0472798 0.026903 -1.06242e-19)
(0.0978048 0.026601 -1.00464e-19)
(0.161104 0.0270689 -1.84543e-19)
(0.236172 0.0290063 1.74479e-19)
(0.321536 0.032843 0)
(0.415146 0.0387476 7.734e-22)
(0.514379 0.0466347 1.64921e-21)
(0.61616 0.0561857 1.29999e-19)
(0.717177 0.0668899 0)
(0.814151 0.0781052 0)
(0.904108 0.0891317 1.53805e-19)
(0.984614 0.0992887 -2.88856e-19)
(1.05394 0.107985 1.74979e-19)
(1.11115 0.114768 -1.6427e-19)
(1.1561 0.119367 -7.36578e-20)
(1.18945 0.121655 -1.36209e-19)
(1.21221 0.121818 -5.89067e-20)
(1.22645 0.119584 -1.11424e-19)
(1.23314 0.117054 1.60321e-19)
(1.23518 0.109556 4.73201e-20)
(-0.011572 0.00859699 0)
(-0.0137166 0.0155356 0)
(0.00399228 0.0182325 6.13982e-20)
(0.0398059 0.0188716 5.65551e-20)
(0.0925092 0.0192189 -1.3887e-21)
(0.160919 0.020654 -1.03665e-19)
(0.243477 0.0241093 0)
(0.337997 0.0301054 -8.67434e-20)
(0.441536 0.0387743 8.15203e-20)
(0.550436 0.0498786 5.85818e-22)
(0.660557 0.0628558 -1.3948e-19)
(0.767636 0.0769013 -1.28255e-19)
(0.867709 0.09108 1.90153e-21)
(0.957482 0.104451 -1.0747e-19)
(1.03461 0.116185 2.56682e-19)
(1.09784 0.125654 0)
(1.14701 0.132485 -1.70191e-19)
(1.18294 0.136564 8.21132e-20)
(1.20721 0.138041 7.35898e-20)
(1.22186 0.137167 0)
(1.2292 0.134567 6.18119e-20)
(1.23133 0.13015 -2.17749e-19)
(1.22989 0.126074 2.04409e-19)
(1.22797 0.118363 1.34111e-19)
(-0.00930769 0.00648975 -6.82033e-20)
(-0.00264135 0.0098893 -7.0531e-20)
(0.0279466 0.0109614 6.37315e-20)
(0.0799425 0.0117211 0)
(0.151361 0.0138452 0)
(0.239968 0.0186026 -2.18169e-21)
(0.342745 0.0266674 0)
(0.455696 0.0381347 -2.64949e-19)
(0.573951 0.0525712 2.46263e-19)
(0.692137 0.0691025 -3.04262e-19)
(0.804946 0.0865589 6.98106e-20)
(0.907731 0.103663 0)
(0.996995 0.119223 1.17389e-19)
(1.07068 0.132292 -2.17972e-19)
(1.12823 0.142272 5.17195e-20)
(1.17042 0.148939 1.35433e-19)
(1.19907 0.152415 -4.56961e-21)
(1.21664 0.153082 -1.52303e-19)
(1.22581 0.151477 0)
(1.22913 0.148171 0)
(1.22872 0.14378 -5.65448e-20)
(1.22617 0.138458 5.14096e-20)
(1.22263 0.133699 1.88702e-19)
(1.21899 0.12629 -1.77123e-19)
(-0.00538925 0.00408248 -7.19966e-20)
(0.0134923 0.00404605 -7.16473e-20)
(0.0603903 0.00436749 2.01507e-19)
(0.131724 0.00663406 -1.2212e-19)
(0.224231 0.0122174 1.14951e-19)
(0.333956 0.0220287 2.0873e-19)
(0.455729 0.0361751 -1.47543e-19)
(0.583281 0.0539987 -1.79771e-19)
(0.709804 0.0742407 3.31412e-21)
(0.828774 0.0952833 2.30275e-19)
(0.934791 0.115443 0)
(1.02419 0.133255 6.40374e-20)
(1.0953 0.147673 0)
(1.14836 0.158172 -1.05756e-19)
(1.18513 0.164731 1.48744e-19)
(1.20835 0.167727 1.24183e-21)
(1.22118 0.167786 -3.98373e-20)
(1.22668 0.165623 7.50041e-20)
(1.22745 0.161921 6.5591e-20)
(1.22544 0.157236 -5.94946e-20)
(1.222 0.152013 5.6532e-20)
(1.21792 0.14638 -5.13976e-20)
(1.21353 0.141219 0)
(1.20963 0.134132 -4.02194e-20)
(0.000577941 0.00153782 7.19864e-20)
(0.0355138 -0.00141587 7.56206e-20)
(0.102165 -0.000538472 -6.75262e-20)
(0.195463 0.00498511 1.25733e-19)
(0.310197 0.015885 -1.18345e-19)
(0.439952 0.0323357 1.07e-19)
(0.576908 0.0534791 -5.13937e-20)
(0.712565 0.0776007 1.34989e-19)
(0.838917 0.102525 -8.50049e-20)
(0.949604 0.126064 1.51448e-19)
(1.04069 0.146417 -3.50342e-19)
(1.11086 0.162427 1.29185e-19)
(1.16116 0.173662 -1.14084e-19)
(1.19427 0.180319 1.07156e-19)
(1.21377 0.183039 9.37963e-20)
(1.22338 0.182679 8.33032e-20)
(1.22641 0.180109 -2.32311e-19)
(1.22543 0.176078 1.44523e-19)
(1.22228 0.171157 -6.55939e-20)
(1.2181 0.165735 1.73804e-19)
(1.21353 0.160062 -5.59548e-20)
(1.20888 0.154228 -1.40177e-19)
(1.20432 0.148708 1.2999e-19)
(1.20013 0.141871 4.02059e-20)
(0.00894966 -0.000882063 0)
(0.0640244 -0.0056929 6.67578e-22)
(0.153559 -0.00250468 1.4143e-19)
(0.270452 0.00827538 -1.32616e-19)
(0.406804 0.0262615 -1.19493e-19)
(0.553176 0.0504108 2.22138e-19)
(0.699125 0.0785315 -1.03185e-19)
(0.834766 0.107754 1.37889e-19)
(0.952386 0.135224 -2.73715e-21)
(1.04748 0.15868 -7.84564e-20)
(1.11894 0.176786 1.72349e-19)
(1.16849 0.189174 -2.55084e-19)
(1.1997 0.196264 0)
(1.21692 0.198963 -5.07686e-20)
(1.22438 0.198355 -1.36661e-19)
(1.22563 0.195462 4.29159e-20)
(1.22331 0.191114 1.40131e-21)
(1.21917 0.185903 -9.73391e-20)
(1.21427 0.180217 4.86262e-21)
(1.20917 0.174292 1.13164e-19)
(1.20415 0.168262 -5.13713e-20)
(1.19931 0.162205 -2.03262e-20)
(1.19465 0.156318 6.11004e-20)
(1.19031 0.149647 0)
(0.0199961 -0.00282055 0)
(0.0992638 -0.00780089 3.83846e-20)
(0.214108 -0.000156984 -1.84918e-19)
(0.354797 0.0179171 6.71693e-20)
(0.510129 0.0443348 -6.32177e-20)
(0.667572 0.0763704 -5.78756e-20)
(0.814904 0.110351 -1.024e-19)
(0.942461 0.142521 5.10026e-20)
(1.04464 0.169929 4.44221e-20)
(1.12017 0.190902 0)
(1.17129 0.205059 1.02656e-19)
(1.20238 0.213022 -1.53626e-19)
(1.21858 0.215972 1.14421e-19)
(1.22471 0.215249 5.07945e-20)
(1.22467 0.212059 -4.22488e-20)
(1.22123 0.20734 -3.58523e-20)
(1.21618 0.201743 -3.37631e-20)
(1.21056 0.195677 9.98788e-20)
(1.2049 0.189384 0)
(1.19944 0.183 5.15707e-20)
(1.19426 0.176603 4.44394e-20)
(1.18936 0.17025 -1.09137e-19)
(1.18468 0.163969 -7.66074e-20)
(1.18024 0.157384 7.06843e-20)
(0.033849 -0.00384528 -4.17073e-20)
(0.140988 -0.00665967 -1.68314e-21)
(0.282485 0.00783106 3.76746e-20)
(0.445457 0.0349915 1.05383e-19)
(0.615208 0.0704417 3.07112e-20)
(0.776824 0.109515 -5.93619e-20)
(0.917939 0.147302 5.41556e-20)
(1.03105 0.179809 -4.75664e-20)
(1.11411 0.204732 8.56773e-20)
(1.16955 0.22152 3.67076e-20)
(1.20252 0.230942 -1.04248e-19)
(1.219 0.234479 3.08429e-20)
(1.22457 0.233778 5.30837e-20)
(1.22362 0.230291 -2.60546e-20)
(1.21922 0.225122 0)
(1.21329 0.219016 3.95281e-20)
(1.20691 0.212432 6.75862e-20)
(1.20061 0.205631 1.20829e-20)
(1.19462 0.198757 -5.68073e-20)
(1.18902 0.191888 2.40551e-20)
(1.18379 0.185073 0)
(1.17887 0.178336 -1.93039e-20)
(1.17418 0.171648 -1.86004e-20)
(1.16968 0.165038 0)
(0.0504471 -0.00347969 0)
(0.188381 -0.00120549 2.18886e-20)
(0.356484 0.0225534 4.04617e-20)
(0.538505 0.0600537 -1.07696e-19)
(0.716747 0.1042 3.48623e-20)
(0.875447 0.148523 0)
(1.00413 0.187549 5.25645e-20)
(1.09905 0.217888 -7.34573e-20)
(1.16231 0.238514 -4.28639e-20)
(1.19963 0.250227 1.93878e-20)
(1.21797 0.254822 -3.13793e-20)
(1.22385 0.254332 7.60059e-20)
(1.22242 0.250553 3.83626e-20)
(1.21721 0.244831 -2.65109e-20)
(1.21041 0.238063 -2.32089e-21)
(1.20322 0.230788 -7.38987e-20)
(1.1962 0.223305 3.37526e-20)
(1.18961 0.215773 -9.08903e-22)
(1.18351 0.208277 0)
(1.17789 0.200864 -2.40805e-20)
(1.17268 0.193563 0)
(1.16779 0.186369 5.57291e-20)
(1.16315 0.179269 -6.67775e-20)
(1.15864 0.172514 3.06093e-20)
(0.069491 -0.00124312 -1.14979e-20)
(0.240023 0.00949212 -5.52336e-20)
(0.433161 0.0447182 6.29209e-20)
(0.629582 0.0930416 3.69304e-20)
(0.809889 0.144609 -1.75959e-20)
(0.95952 0.191771 2.97142e-20)
(1.07173 0.229438 -1.43915e-20)
(1.14735 0.255601 2.4053e-20)
(1.19232 0.270839 0)
(1.21464 0.277227 5.48637e-20)
(1.22205 0.277282 -2.1854e-21)
(1.22071 0.273267 -4.44379e-20)
(1.21492 0.266891 1.91065e-20)
(1.20729 0.259282 -2.1681e-20)
(1.19924 0.25111 -8.34146e-21)
(1.19144 0.242739 9.56924e-21)
(1.18418 0.234355 -7.43736e-21)
(1.17751 0.22605 -4.08221e-20)
(1.17142 0.217875 2.50277e-20)
(1.16587 0.20986 5.17013e-21)
(1.16075 0.202013 4.59291e-21)
(1.15596 0.194313 4.08554e-21)
(1.15141 0.186809 0)
(1.14693 0.179772 0)
(0.0904927 0.00331473 1.15058e-20)
(0.29408 0.0261377 -1.14843e-20)
(0.509245 0.0745465 -2.09835e-20)
(0.714568 0.133287 0)
(0.890882 0.19025 -8.75693e-21)
(1.02691 0.23763 -7.92725e-21)
(1.12081 0.271694 -1.35746e-20)
(1.17798 0.292317 0)
(1.20731 0.301697 0)
(1.21801 0.302905 0)
(1.21768 0.298843 0)
(1.21169 0.291747 0)
(1.20334 0.283105 -1.20038e-20)
(1.19444 0.273796 5.46892e-21)
(1.18582 0.264288 9.56562e-21)
(1.17782 0.254813 4.4894e-21)
(1.17054 0.24548 1.11538e-20)
(1.16395 0.236341 0)
(1.15801 0.227426 -2.71469e-21)
(1.15262 0.218749 -2.62969e-21)
(1.1477 0.210301 -4.60025e-21)
(1.14311 0.202063 -4.0921e-21)
(1.13873 0.194161 0)
(1.1344 0.186709 3.00462e-21)
(-0.00136714 -0.000947563 6.88092e-21)
(-0.00682024 -0.00256579 -7.15289e-21)
(-0.016785 -0.00395686 -1.3559e-20)
(-0.0290911 -0.00507264 0)
(-0.0425548 -0.00593617 -1.81814e-20)
(-0.0565863 -0.00660298 5.70941e-21)
(-0.0707868 -0.00713238 -1.08009e-20)
(-0.0848889 -0.00757492 0)
(-0.0987342 -0.00796623 0)
(-0.112237 -0.00832513 0)
(-0.125357 -0.00865529 0)
(-0.13808 -0.00894881 0)
(-0.150406 -0.00918999 1.97372e-23)
(-0.162342 -0.00935832 -7.17906e-21)
(-0.173897 -0.00943039 1.35635e-20)
(-0.185079 -0.00938065 1.9209e-20)
(-0.195901 -0.00918157 6.03579e-21)
(-0.206381 -0.00880346 0)
(-0.216548 -0.00821438 5.38549e-21)
(-0.226452 -0.00738165 -1.51637e-20)
(-0.236146 -0.00627494 -9.52846e-21)
(-0.24569 -0.00486178 -8.98216e-21)
(-0.255274 -0.00308729 0)
(-0.265364 -0.000907392 0)
(-0.00165779 0.00324165 -2.06951e-20)
(-0.00735142 0.00728365 3.5733e-20)
(-0.0172258 0.00963902 -1.34863e-20)
(-0.0292352 0.0109539 -2.56741e-20)
(-0.0422547 0.0115971 3.62813e-20)
(-0.0557192 0.0117901 -2.2903e-20)
(-0.069243 0.0116802 3.23402e-20)
(-0.0825648 0.0113685 2.03946e-20)
(-0.095527 0.0109265 0)
(-0.108041 0.0104084 -1.81829e-20)
(-0.120062 0.00985759 -1.28426e-22)
(-0.131567 0.00931041 1.60648e-20)
(-0.142548 0.00879792 2.28392e-20)
(-0.153 0.00834811 2.87623e-20)
(-0.162921 0.00798827 -1.34405e-20)
(-0.172306 0.00774789 -3.82451e-20)
(-0.181148 0.00766186 1.2055e-20)
(-0.189443 0.0077741 -4.52767e-20)
(-0.197198 0.00814101 0)
(-0.20444 0.00883227 1.00942e-20)
(-0.211192 0.00992642 9.5154e-21)
(-0.217435 0.0115153 8.96963e-21)
(-0.22327 0.0137439 0)
(-0.22955 0.0167548 0)
(-0.00235298 0.00704828 0)
(-0.00864612 0.0163194 7.18926e-20)
(-0.0183329 0.0221965 -2.71201e-20)
(-0.0296675 0.0258218 2.57056e-20)
(-0.0416734 0.0279051 -7.28093e-20)
(-0.0538519 0.0289181 0)
(-0.0658545 0.0291992 -4.33118e-20)
(-0.0774393 0.0289912 2.03629e-20)
(-0.0884538 0.0284676 -3.85556e-20)
(-0.0988053 0.0277525 1.82231e-20)
(-0.108438 0.026935 1.02861e-19)
(-0.117316 0.0260787 -4.83147e-20)
(-0.125415 0.0252293 -7.61768e-20)
(-0.13271 0.0244206 -2.88979e-20)
(-0.139179 0.0236804 -1.81631e-22)
(-0.144793 0.0230368 1.01876e-19)
(-0.149518 0.0225241 -4.79075e-20)
(-0.153315 0.0221901 4.58344e-23)
(-0.156146 0.0221044 0)
(-0.157995 0.0223665 -3.99705e-20)
(-0.158843 0.0231124 0)
(-0.158545 0.0245254 -3.56358e-20)
(-0.156924 0.0268721 1.33459e-19)
(-0.155257 0.0304322 4.8013e-22)
(-0.00335788 0.0102077 0)
(-0.0105555 0.0239575 2.21499e-22)
(-0.0200141 0.0329496 2.74395e-20)
(-0.0303988 0.0386612 -2.59614e-20)
(-0.0409429 0.042059 2.41969e-20)
(-0.0512476 0.0438182 1.3817e-19)
(-0.0610248 0.0444392 -4.3347e-20)
(-0.070067 0.0442895 -4.1027e-20)
(-0.0782356 0.0436342 7.7201e-20)
(-0.0854388 0.0426625 -1.09204e-19)
(-0.0916128 0.0415073 3.4239e-20)
(-0.0967091 0.0402595 3.23602e-20)
(-0.100686 0.0389795 0)
(-0.103504 0.0377072 2.86757e-20)
(-0.10512 0.0364693 0)
(-0.105487 0.0352873 5.08741e-20)
(-0.10455 0.0341849 -9.58937e-20)
(-0.102246 0.0331966 2.23688e-20)
(-0.0985019 0.0323793 8.46922e-20)
(-0.0932535 0.0318285 3.99279e-20)
(-0.0864559 0.0317064 0)
(-0.0779045 0.0322976 -1.05689e-19)
(-0.0669605 0.0341068 3.31611e-20)
(-0.054483 0.0377722 0)
(-0.00455276 0.0125674 0)
(-0.0128836 0.0298242 -8.7324e-20)
(-0.0221363 0.041364 -2.77592e-20)
(-0.031418 0.0488228 -5.20417e-20)
(-0.0401994 0.0533286 4.90038e-20)
(-0.0482026 0.0557041 -4.61249e-20)
(-0.0552195 0.0565754 8.7305e-20)
(-0.0610927 0.0564112 4.1181e-20)
(-0.0657101 0.0555547 -1.16029e-19)
(-0.06899 0.054253 7.30685e-20)
(-0.0708677 0.0526796 -1.03084e-19)
(-0.0712876 0.0509527 2.26802e-19)
(-0.070197 0.0491501 -1.21805e-19)
(-0.0675432 0.0473203 5.74048e-20)
(-0.0632714 0.0454922 1.62148e-19)
(-0.0573229 0.0436827 -5.06556e-20)
(-0.049634 0.0419033 -4.76012e-20)
(-0.040133 0.0401678 -4.49458e-20)
(-0.0287367 0.0384997 0)
(-0.0153588 0.0369466 -7.93212e-20)
(5.62443e-05 0.0356132 -7.44435e-20)
(0.0176556 0.0347685 1.04944e-19)
(0.0383479 0.0351494 1.31193e-19)
(0.062876 0.0381336 -1.23338e-19)
(-0.00582225 0.0140991 0)
(-0.0154263 0.0337839 -1.17974e-19)
(-0.0245381 0.0471776 -3.75855e-22)
(-0.0326652 0.0559271 1.04715e-19)
(-0.0395089 0.0612366 0)
(-0.0449215 0.0640231 0)
(-0.0487866 0.0650007 0)
(-0.0510098 0.0647141 -4.12503e-20)
(-0.0515167 0.0635683 -1.14127e-22)
(-0.0502443 0.0618583 7.31371e-20)
(-0.0471336 0.059794 -1.03355e-19)
(-0.0421253 0.0575204 -7.07637e-23)
(-0.0351578 0.0551344 0)
(-0.026166 0.0526979 -5.73775e-20)
(-0.0150819 0.0502487 5.39963e-20)
(-0.00183478 0.0478076 -1.52034e-19)
(0.0136479 0.0453849 1.90633e-19)
(0.0314399 0.0429852 4.47239e-20)
(0.0516179 0.0406104 -2.40782e-23)
(0.0742609 0.0382639 -1.57765e-19)
(0.0994126 0.035959 -7.37008e-20)
(0.12713 0.0337883 2.42282e-19)
(0.157834 0.0323903 -1.61995e-19)
(0.196622 0.0339244 0)
(-0.00707977 0.0148826 5.79231e-20)
(-0.0180034 0.0359209 5.91116e-20)
(-0.0270348 0.0503954 -5.63436e-20)
(-0.0339922 0.0598765 -1.05682e-19)
(-0.0387774 0.0655887 9.95092e-20)
(-0.0413676 0.0685011 -9.3683e-20)
(-0.0417413 0.0693844 1.32328e-19)
(-0.0398709 0.0688349 -4.12259e-20)
(-0.0357229 0.0673029 7.79891e-20)
(-0.029254 0.0651208 0)
(-0.0204087 0.0625291 6.90871e-20)
(-0.00911966 0.059698 -1.29685e-19)
(0.00469078 0.0567452 1.21975e-19)
(0.021108 0.0537506 -1.14563e-19)
(0.0402209 0.0507673 0)
(0.0621176 0.0478296 1.01084e-19)
(0.086881 0.0449599 1.89626e-19)
(0.114582 0.0421714 -1.78211e-19)
(0.145274 0.0394706 -8.32923e-20)
(0.178994 0.0368586 -7.85015e-20)
(0.215665 0.0343171 2.20605e-19)
(0.255671 0.0318653 6.82629e-20)
(0.296412 0.0294528 -6.42299e-20)
(0.353831 0.0301629 5.95249e-20)
(-0.00827926 0.0150699 -5.7931e-20)
(-0.0204696 0.0364801 1.80601e-19)
(-0.0294049 0.0512395 -5.69127e-20)
(-0.0351117 0.0608288 1.06569e-19)
(-0.0376494 0.0664721 -1.00343e-19)
(-0.037105 0.0691678 3.50002e-22)
(-0.0335413 0.0697201 4.44689e-20)
(-0.026988 0.0687589 1.66784e-19)
(-0.0174415 0.0667654 -1.05019e-22)
(-0.00486575 0.0641005 -7.34962e-20)
(0.0108048 0.0610306 0)
(0.0296588 0.05775 -6.47929e-20)
(0.0518 0.0543992 1.21779e-19)
(0.0773377 0.0510799 1.14286e-19)
(0.106375 0.0478656 -5.37861e-20)
(0.138997 0.0448103 -2.33155e-22)
(0.175257 0.0419543 -4.73405e-20)
(0.215161 0.0393273 8.82552e-20)
(0.258651 0.0369496 8.32738e-20)
(0.305672 0.034855 -7.80351e-20)
(0.35555 0.0329388 7.24531e-20)
(0.410328 0.0316758 -6.76689e-20)
(0.460075 0.0294752 0)
(0.539449 0.0315233 -5.94458e-20)
(-0.0094092 0.0148356 5.90251e-20)
(-0.0226967 0.0357801 -6.04533e-20)
(-0.0313538 0.0500659 5.75568e-20)
(-0.0355328 0.0591343 0)
(-0.0354086 0.0642216 0)
(-0.0311542 0.0663512 9.54298e-20)
(-0.0228927 0.0663516 -8.91974e-20)
(-0.0106861 0.0648749 8.35719e-20)
(0.00546341 0.0624252 -3.9226e-19)
(0.0256057 0.0593865 1.42939e-22)
(0.0498297 0.0560491 6.90222e-20)
(0.0782461 0.0526318 0)
(0.110966 0.0492993 -1.21419e-19)
(0.148079 0.0461753 2.27911e-19)
(0.189626 0.0433526 -1.60476e-19)
(0.235579 0.0409001 -2.50405e-19)
(0.285816 0.038867 3.50989e-22)
(0.34011 0.0372875 1.75428e-19)
(0.39807 0.0361628 0)
(0.459482 0.0356084 0)
(0.522356 0.0351484 -7.24452e-20)
(0.591563 0.0363262 6.766e-20)
(0.647536 0.0351677 -2.5051e-19)
(0.744726 0.0404174 2.35001e-19)
(-0.0104702 0.0143299 0)
(-0.0245293 0.0341254 0)
(-0.0324567 0.0472692 -1.73215e-19)
(-0.0344944 0.0552507 5.50488e-20)
(-0.0309005 0.0593545 3.99804e-22)
(-0.0219035 0.0606415 9.64849e-20)
(-0.00765513 0.0599647 0)
(0.0117805 0.0579975 -8.41186e-20)
(0.0364157 0.0552644 7.85549e-20)
(0.0663162 0.0521721 -1.47242e-19)
(0.101568 0.0490342 1.91578e-22)
(0.14224 0.0460912 1.29226e-19)
(0.188341 0.0435248 -2.9524e-22)
(0.23978 0.0414684 1.13166e-19)
(0.296332 0.0400131 -1.59987e-19)
(0.357612 0.0392112 0)
(0.423062 0.0390789 1.86213e-19)
(0.491959 0.0396044 -2.62402e-19)
(0.563338 0.0406974 8.10694e-20)
(0.636616 0.0425088 0)
(0.708703 0.0441397 7.06317e-20)
(0.785619 0.0478968 2.65471e-19)
(0.843789 0.0480117 -2.49134e-19)
(0.943401 0.0561673 -2.89547e-19)
(-0.0114388 0.0136411 1.81565e-19)
(-0.0257233 0.0317331 -2.49736e-19)
(-0.0321025 0.0431984 4.86477e-22)
(-0.0309252 0.0496663 5.55582e-20)
(-0.0225184 0.0525123 -1.03554e-19)
(-0.00714051 0.0528531 -9.60376e-20)
(0.0150518 0.0515768 1.79886e-19)
(0.0439993 0.0493819 -1.28565e-21)
(0.0797047 0.046816 -1.58226e-19)
(0.122178 0.0443049 2.9505e-19)
(0.171373 0.0421752 -5.9573e-22)
(0.227119 0.0406694 -1.29547e-19)
(0.28907 0.0399545 0)
(0.356652 0.0401266 0)
(0.42905 0.0412136 -5.30749e-20)
(0.505209 0.0431772 -9.85562e-20)
(0.583869 0.0459192 -1.84491e-19)
(0.663614 0.0492864 1.73176e-19)
(0.742901 0.0530677 -8.10989e-20)
(0.820447 0.0571524 1.49757e-19)
(0.893683 0.0608396 -7.16986e-20)
(0.965808 0.0655228 1.2939e-19)
(1.02053 0.0666217 -3.04201e-19)
(1.10171 0.0744636 5.71414e-20)
(-0.0122304 0.0127807 6.12818e-20)
(-0.0258812 0.0287001 0)
(-0.0294408 0.0381157 1.18703e-19)
(-0.0234303 0.0428556 -1.11823e-19)
(-0.00825559 0.0444141 1.03649e-19)
(0.0157966 0.0439821 0)
(0.0485465 0.0424914 0)
(0.0898762 0.0406672 -8.45837e-20)
(0.139648 0.0390698 1.00316e-21)
(0.197608 0.0381221 7.46196e-20)
(0.263288 0.0381244 -6.88634e-20)
(0.335931 0.039262 1.29665e-19)
(0.414454 0.0416087 0)
(0.497441 0.0451293 2.2495e-19)
(0.583195 0.0496874 -4.2111e-19)
(0.669816 0.0550552 2.95676e-19)
(0.75531 0.0609378 1.82255e-19)
(0.837694 0.0669678 -1.71082e-19)
(0.915173 0.072837 0)
(0.986071 0.0779917 0)
(1.04932 0.0825184 0)
(1.10441 0.0854082 0)
(1.14782 0.087092 5.99413e-20)
(1.1962 0.0891715 -2.20381e-19)
(-0.278081 0.00189303 -5.75328e-21)
(-0.294046 0.00439494 5.77408e-21)
(-0.309023 0.00725668 -1.7712e-22)
(-0.323541 0.0104113 0)
(-0.337136 0.0137351 -5.4735e-21)
(-0.349417 0.0171149 1.06581e-20)
(-0.359948 0.0203243 -6.71687e-24)
(-0.368254 0.0232076 -5.03742e-21)
(-0.373755 0.0255451 0)
(-0.375817 0.0270978 0)
(-0.37377 0.0276469 -2.74619e-22)
(-0.366931 0.0270139 -2.57304e-22)
(-0.354646 0.0251294 -3.8813e-21)
(-0.336342 0.0219744 3.54134e-21)
(-0.311513 0.0174077 0)
(-0.279796 0.0111593 0)
(-0.241065 0.00343817 1.97454e-21)
(-0.195356 -0.00524209 -3.86979e-22)
(-0.143084 -0.0141456 -1.40489e-21)
(-0.0849267 -0.0227109 -5.77145e-23)
(-0.0218223 -0.0300662 0)
(0.0447196 -0.0353659 0)
(0.11304 -0.0382964 0)
(0.181644 -0.0386336 0)
(0.249095 -0.0365004 0)
(0.314184 -0.03228 0)
(0.376041 -0.0265517 -2.15077e-22)
(0.434138 -0.0199109 3.46543e-22)
(0.488206 -0.0129668 0)
(0.538142 -0.00608798 0)
(0.58395 0.000251783 2.34824e-22)
(0.625734 0.0059856 -2.28216e-22)
(0.663654 0.0107771 -9.95455e-23)
(0.697993 0.0148736 0)
(0.728909 0.0177454 0)
(0.756791 0.0200963 -1.31712e-22)
(0.781816 0.02122 1.28029e-22)
(0.804385 0.0222438 0)
(0.824676 0.0221231 -8.79866e-23)
(0.843093 0.0223959 1.25984e-22)
(0.859796 0.0216152 -3.5183e-23)
(0.87513 0.0216843 0)
(0.889245 0.0206576 5.01698e-23)
(0.902483 0.0209391 -4.87845e-23)
(0.914956 0.0199071 0)
(0.926917 0.0207729 0)
(0.93816 0.0198996 1.40274e-23)
(0.948714 0.0214422 -3.92812e-23)
(0.958104 0.0206473 0)
(0.966416 0.0226643 0)
(0.973253 0.0218588 7.3324e-24)
(0.979033 0.0244145 -3.22004e-26)
(0.983404 0.0236579 9.01766e-25)
(0.987162 0.0269717 -4.08721e-24)
(0.989705 0.0263356 0)
(0.992202 0.0303845 0)
(0.993578 0.02991 0)
(0.995476 0.034661 0)
(0.996088 0.0343494 0)
(0.997869 0.0398594 0)
(-0.238883 0.0206776 -5.50239e-22)
(-0.253789 0.022297 -2.31688e-20)
(-0.267027 0.023963 -2.01731e-23)
(-0.279709 0.0256283 2.17625e-20)
(-0.291415 0.0271126 3.39166e-22)
(-0.301757 0.0282762 0)
(-0.310287 0.0289374 -2.03869e-20)
(-0.316503 0.0288931 4.01873e-20)
(-0.319829 0.027908 -1.9798e-20)
(-0.319626 0.0257553 1.84106e-20)
(-0.315219 0.0222683 -1.762e-20)
(-0.305892 0.0173763 1.59419e-20)
(-0.290989 0.0112905 -1.55138e-20)
(-0.270216 0.00326814 -4.43377e-22)
(-0.24338 -0.00643507 -1.17958e-20)
(-0.210252 -0.0176573 1.1463e-20)
(-0.170402 -0.0300036 -8.31157e-21)
(-0.123835 -0.0429261 7.8404e-21)
(-0.0713496 -0.0551878 -4.85085e-21)
(-0.0139044 -0.065853 7.81473e-21)
(0.0476178 -0.074158 -3.0363e-21)
(0.111453 -0.0794522 -6.9403e-23)
(0.175791 -0.0812461 5.85107e-22)
(0.239299 -0.0794703 -1.89605e-21)
(0.300711 -0.0745319 1.28992e-21)
(0.359078 -0.0671153 -1.21531e-22)
(0.413858 -0.0580625 -2.32955e-21)
(0.464847 -0.0481812 -1.41871e-22)
(0.512124 -0.0382354 4.39212e-21)
(0.555818 -0.0286071 -4.18098e-21)
(0.596155 -0.019763 1.99633e-21)
(0.633342 -0.0117664 -2.21375e-22)
(0.667612 -0.00495189 9.97471e-23)
(0.69907 0.000924572 -1.78019e-22)
(0.727947 0.00543816 0)
(0.7544 0.00937737 0)
(0.778626 0.0118735 4.64087e-22)
(0.800755 0.0140672 -3.44422e-22)
(0.820992 0.0149372 -2.60426e-22)
(0.839492 0.0160571 -4.52779e-24)
(0.856462 0.0160001 3.34345e-22)
(0.872071 0.016681 -6.12781e-23)
(0.886532 0.0161546 0)
(0.90008 0.0168386 0)
(0.912898 0.0161312 0)
(0.925178 0.0172981 0)
(0.936768 0.0167375 -5.98038e-23)
(0.94765 0.0186406 2.56631e-23)
(0.957354 0.0182428 0)
(0.965948 0.0206737 0)
(0.973005 0.02026 0)
(0.978978 0.0231687 1.13518e-23)
(0.98347 0.0226994 -1.89913e-24)
(0.987349 0.0262482 9.00717e-24)
(0.989948 0.0257836 0)
(0.992529 0.0299658 0)
(0.993927 0.0295779 -3.68035e-24)
(0.9959 0.0344025 -8.40145e-24)
(0.99652 0.0341253 0)
(0.998381 0.0396823 0)
(-0.157916 0.035419 9.16193e-22)
(-0.169691 0.0365471 -4.59339e-20)
(-0.179172 0.0371381 4.62219e-20)
(-0.187813 0.03756 -4.32228e-20)
(-0.195544 0.0374798 -3.41455e-22)
(-0.201915 0.0366844 0)
(-0.206504 0.0349954 -4.2074e-20)
(-0.20886 0.032249 4.12218e-20)
(-0.208449 0.0282295 3.06406e-22)
(-0.204639 0.0226949 5.94493e-22)
(-0.196751 0.0155598 5.68015e-22)
(-0.183979 0.00712074 5.26761e-22)
(-0.166517 -0.00363039 -3.07611e-20)
(-0.143977 -0.0168418 3.034e-20)
(-0.115478 -0.0312698 0)
(-0.0810808 -0.0469953 7.28404e-22)
(-0.0410521 -0.0633025 -1.77587e-20)
(0.00468298 -0.0793081 1.7493e-20)
(0.055947 -0.0940772 0)
(0.111022 -0.106434 0)
(0.16867 -0.115341 -4.18872e-21)
(0.227428 -0.120234 5.43576e-21)
(0.2856 -0.120492 -6.04524e-22)
(0.341823 -0.116282 1.57084e-21)
(0.395036 -0.108324 -5.60508e-21)
(0.444565 -0.0976319 7.5421e-21)
(0.490173 -0.0853208 -8.12375e-21)
(0.53193 -0.0723738 9.03863e-23)
(0.57021 -0.0596862 4.33487e-21)
(0.605373 -0.0476794 0)
(0.637863 -0.0367601 0)
(0.667946 -0.0269238 -1.2689e-21)
(0.695992 -0.0185828 1.66269e-21)
(0.722096 -0.0113286 1.30643e-24)
(0.746603 -0.00557224 -1.20809e-21)
(0.769386 -0.000563675 1.17404e-21)
(0.790659 0.00294524 0)
(0.81037 0.00622487 -1.07116e-22)
(0.828765 0.00800895 -8.02377e-22)
(0.845754 0.00990472 1.46843e-21)
(0.861572 0.0105082 -5.99821e-22)
(0.876195 0.0117612 -6.12438e-23)
(0.889879 0.0117128 5.10695e-22)
(0.902725 0.0127827 -3.92903e-22)
(0.914973 0.0123861 -8.01347e-23)
(0.926737 0.0138384 -6.94289e-23)
(0.937929 0.0135762 5.99557e-23)
(0.948487 0.0158272 0)
(0.957965 0.0158187 0)
(0.966412 0.0186606 1.45568e-22)
(0.973371 0.0186383 -6.83897e-23)
(0.979312 0.0219023 5.32827e-23)
(0.983774 0.0217221 -6.62358e-23)
(0.987676 0.0255088 -6.939e-23)
(0.990271 0.025217 1.62526e-23)
(0.992902 0.0295349 -2.29761e-23)
(0.994302 0.029234 1.72572e-23)
(0.996339 0.0341341 -7.21108e-24)
(0.996962 0.0338914 0)
(0.998898 0.0394972 0)
(-0.0495359 0.043416 -9.46947e-20)
(-0.056612 0.0449237 -1.39073e-22)
(-0.0613231 0.0449219 8.99297e-20)
(-0.0647522 0.0444122 -7.00853e-22)
(-0.0674126 0.0431917 0)
(-0.0688929 0.0409171 0)
(-0.0687139 0.037324 -8.52467e-20)
(-0.0664727 0.0322433 -7.89277e-22)
(-0.0617842 0.025547 1.20593e-19)
(-0.0540612 0.0170759 -1.01587e-21)
(-0.0423941 0.00687704 -3.7858e-20)
(-0.027232 -0.00556902 -3.33216e-20)
(-0.00853287 -0.0206026 3.34539e-20)
(0.015811 -0.0371317 0)
(0.0455875 -0.0551081 -2.60583e-20)
(0.0799461 -0.0743882 2.38152e-20)
(0.119198 -0.0941521 0)
(0.16285 -0.112796 0)
(0.210643 -0.129554 1.16119e-20)
(0.261226 -0.143319 -3.19584e-21)
(0.313252 -0.152634 -7.67179e-21)
(0.365201 -0.156696 -2.20066e-21)
(0.415553 -0.155135 2.1251e-21)
(0.463123 -0.148343 1.89838e-21)
(0.507137 -0.137337 1.16565e-21)
(0.547219 -0.123443 -2.96695e-21)
(0.583396 -0.108036 -4.98754e-22)
(0.615909 -0.0922478 -1.67368e-23)
(0.645272 -0.0770573 0)
(0.67195 -0.0629636 -4.00925e-21)
(0.696494 -0.050327 4.12948e-21)
(0.719175 -0.0390717 -2.21379e-22)
(0.740469 -0.0295093 0)
(0.760447 -0.0211635 1.78828e-22)
(0.779501 -0.0144917 -2.41232e-21)
(0.797465 -0.00876207 4.19178e-21)
(0.814692 -0.00454364 4.10158e-23)
(0.830837 -0.000685937 -1.83443e-22)
(0.846157 0.00177466 -1.39378e-21)
(0.860474 0.0043741 -1.63252e-22)
(0.874051 0.00555177 1.07508e-21)
(0.886701 0.00729013 -9.21353e-22)
(0.89869 0.00765137 -4.44805e-25)
(0.909995 0.00905443 -3.51381e-22)
(0.920889 0.00892376 4.22016e-22)
(0.931411 0.0106161 4.7232e-22)
(0.941534 0.0106066 -1.35848e-22)
(0.951174 0.0131601 -1.95127e-22)
(0.959919 0.0134993 3.56251e-22)
(0.967813 0.0167171 -2.37406e-22)
(0.974361 0.0170586 5.50966e-23)
(0.980047 0.0206582 -6.98195e-23)
(0.984325 0.0207532 -5.21307e-23)
(0.988151 0.0247696 1.05947e-22)
(0.990681 0.0246448 -3.14155e-24)
(0.993325 0.0290965 2.29801e-23)
(0.994705 0.0288808 0)
(0.996795 0.033857 7.18235e-24)
(0.997413 0.0336485 -9.3543e-24)
(0.999421 0.0393046 0)
(0.0739036 0.0438641 9.53672e-20)
(0.0723231 0.0463559 -1.87123e-19)
(0.0718327 0.046434 9.07011e-20)
(0.0733831 0.0454359 9.0819e-20)
(0.0758357 0.0435547 -1.78271e-19)
(0.0792181 0.0404029 -1.74431e-22)
(0.0839931 0.0356141 8.58712e-20)
(0.0906 0.0289451 8.38073e-20)
(0.0993699 0.0202414 -8.20896e-20)
(0.110878 0.00949765 0)
(0.125164 -0.00345884 -7.51153e-20)
(0.142418 -0.0192501 1.44078e-19)
(0.163313 -0.0368268 -6.90589e-20)
(0.188282 -0.0557002 0)
(0.217585 -0.0767225 0)
(0.250946 -0.098806 7.78585e-22)
(0.28815 -0.121116 -4.07939e-20)
(0.328645 -0.142222 3.96276e-20)
(0.371909 -0.160807 0)
(0.416659 -0.175415 1.91243e-20)
(0.461494 -0.184677 -2.96441e-20)
(0.505024 -0.187728 1.73781e-20)
(0.546029 -0.184336 -7.06506e-21)
(0.583692 -0.175111 3.63377e-21)
(0.617673 -0.161349 -7.5932e-21)
(0.647986 -0.144629 5.11702e-21)
(0.674942 -0.126526 2.41587e-22)
(0.698909 -0.108294 3.80542e-21)
(0.720395 -0.0909334 9.70982e-23)
(0.739827 -0.0750218 -3.92805e-21)
(0.757706 -0.0609154 -2.3691e-22)
(0.774201 -0.0484739 3.33167e-21)
(0.789739 -0.0379403 -6.25081e-21)
(0.804341 -0.0288117 3.27477e-21)
(0.818427 -0.0214725 0)
(0.831809 -0.0150856 2.39495e-21)
(0.844838 -0.0103187 -2.30068e-21)
(0.857198 -0.0060803 1.41363e-21)
(0.869214 -0.00323809 -1.76692e-21)
(0.880477 -0.000298076 1.61884e-22)
(0.891315 0.00138052 0)
(0.901507 0.00352074 1.22761e-22)
(0.91131 0.00420151 -3.20794e-22)
(0.920601 0.0058647 0)
(0.92966 0.00593805 -7.71274e-22)
(0.938477 0.00780887 3.13857e-22)
(0.947073 0.00798698 -1.20883e-22)
(0.955372 0.0107747 -1.03855e-22)
(0.963001 0.0113946 0)
(0.970023 0.0149282 0)
(0.975907 0.0155826 1.83338e-22)
(0.981149 0.0194789 -2.69186e-22)
(0.98511 0.0198205 1.41242e-22)
(0.988771 0.0240481 -4.26854e-23)
(0.991177 0.0240779 -6.48726e-23)
(0.9938 0.0286569 -2.3002e-23)
(0.995139 0.0285222 3.45142e-23)
(0.997268 0.0335732 0)
(0.997875 0.0333977 1.52285e-23)
(0.99995 0.0391048 3.5603e-24)
(0.210032 0.039379 9.63455e-20)
(0.212309 0.0422408 -9.56674e-20)
(0.214106 0.0424267 7.28455e-22)
(0.218696 0.0412479 -7.09168e-22)
(0.224862 0.0390851 7.04418e-22)
(0.231992 0.0355101 -6.92471e-22)
(0.240371 0.0300988 1.34925e-21)
(0.250393 0.0226068 0)
(0.262357 0.0128087 -1.29213e-21)
(0.276679 0.000659271 1.25602e-21)
(0.293195 -0.0141975 1.21253e-21)
(0.312273 -0.0314962 -1.15434e-21)
(0.334273 -0.0510498 0)
(0.359477 -0.072523 0)
(0.388047 -0.0957223 9.39118e-22)
(0.419757 -0.119911 0)
(0.454232 -0.144109 -7.3744e-22)
(0.4908 -0.166821 0)
(0.528627 -0.186504 -2.7198e-20)
(0.566411 -0.201502 4.74793e-20)
(0.602754 -0.210392 -3.35888e-20)
(0.63648 -0.212339 1.35468e-20)
(0.666807 -0.207266 2.94054e-21)
(0.693459 -0.195998 -2.85549e-21)
(0.716663 -0.180057 3.93324e-21)
(0.736909 -0.161188 -3.89194e-21)
(0.754805 -0.141071 0)
(0.770835 -0.121018 -2.10333e-22)
(0.785431 -0.102012 0)
(0.798883 -0.0846443 0)
(0.811546 -0.0693265 -6.57672e-21)
(0.823406 -0.0558891 6.80461e-21)
(0.834708 -0.0445389 -3.73526e-22)
(0.845366 -0.0347425 -3.5095e-22)
(0.855719 -0.0268443 3.0468e-22)
(0.865549 -0.0199943 2.10067e-21)
(0.875217 -0.0148245 -2.03969e-21)
(0.884392 -0.0101274 1.83652e-21)
(0.893405 -0.00699174 -1.5748e-21)
(0.901937 -0.0038497 -3.25354e-22)
(0.91024 -0.00203563 1.07538e-21)
(0.918019 0.000473123 1.28137e-23)
(0.925606 0.00143144 -6.93464e-22)
(0.932828 0.00329653 0)