/*--------------------------------*- C++ -*----------------------------------*\
| =========                 |                                                 |
| \\      /  F ield         | OpenFOAM: The Open Source CFD Toolbox           |
|  \\    /   O peration     | Version:  2512                                  |
|   \\  /    A nd           | Website:  www.openfoam.com                      |
|    \\/     M anipulation  |                                                 |
\*---------------------------------------------------------------------------*/
FoamFile
{
    version     2.0;
    format      ascii;
    arch        "LSB;label=32;scalar=64";
    class       surfaceScalarField;
    location    "70.75";
    object      phi;
}
// * * * * * * * * * * * * * * * * * * * * * * * * * * * * * * * * * * * * * //

dimensions      [0 3 -1 0 0 0 0];

oriented        oriented;

internalField   nonuniform List<scalar> 
26232
(
5.98563e-05
0.00101016
-0.00107001
0.000464213
0.00193355
-0.0023379
0.00139526
0.00189441
-0.00282546
0.00301545
0.000926704
-0.0025469
0.005482
-0.000956565
-0.00150998
0.00894921
-0.00375292
0.000285703
0.0135625
-0.00745965
0.00284639
0.0194441
-0.0120614
0.0061797
0.0266744
-0.0175169
0.0102866
0.0352702
-0.023749
0.0151532
0.0451678
-0.0306399
0.0207422
0.0562133
-0.0380323
0.0269868
0.068164
-0.0457389
0.0337882
0.0807019
-0.0535551
0.0410172
0.093458
-0.0612759
0.0485198
0.106044
-0.0687125
0.0561262
0.11809
-0.0757078
0.0636621
0.129276
-0.0821493
0.0709631
0.139369
-0.0879735
0.0778807
0.148228
-0.0931807
0.0843218
0.155825
-0.0977754
0.0901787
0.162162
-0.101934
0.0955962
0.167144
-0.105329
0.100347
-0.109049
0.105537
0.170656
9.93645e-05
0.000910793
0.000652866
0.00138004
0.00187791
0.000669368
0.00397127
-0.00116666
0.00711779
-0.00410309
0.0114835
-0.00811864
0.0171985
-0.0131746
0.0243329
-0.0191958
0.0328727
-0.0260567
0.0427023
-0.0335787
0.0536
-0.0415375
0.0652498
-0.0496821
0.0772685
-0.0577576
0.0892442
-0.0655308
0.10078
-0.0728113
0.111534
-0.0794673
0.12126
-0.085433
0.129819
-0.0907084
0.137195
-0.0953496
0.143468
-0.0994535
0.148823
-0.10313
0.15341
-0.106522
0.157682
-0.1096
-0.112951
0.161584
0.000168411
0.000742382
0.000944224
0.00060423
0.00257146
-0.000957864
0.00527008
-0.00386528
0.00923272
-0.00806573
0.0146041
-0.01349
0.0214517
-0.0200222
0.0297368
-0.0274809
0.039297
-0.0356169
0.0498476
-0.0441293
0.0610068
-0.0526967
0.0723379
-0.0610132
0.0834035
-0.0688232
0.0938182
-0.0759455
0.103293
-0.0822859
0.111661
-0.0878359
0.118888
-0.0926596
0.125052
-0.0968726
0.130318
-0.100615
0.134894
-0.104029
0.138993
-0.10723
0.142804
-0.110332
0.146499
-0.113296
-0.11652
0.150068
0.000264213
0.000478169
0.001328
-0.000459552
0.00344891
-0.00307877
0.00684989
-0.00726627
0.0116986
-0.0129145
0.0180718
-0.0198632
0.025919
-0.0278695
0.0350429
-0.0366048
0.0451065
-0.0456804
0.0556714
-0.0546943
0.0662587
-0.063284
0.0764171
-0.0711716
0.0857837
-0.0781898
0.0941254
-0.0842872
0.101353
-0.0895138
0.107511
-0.0939933
0.112741
-0.0978895
0.117241
-0.101373
0.121221
-0.104595
0.124867
-0.107675
0.128331
-0.110694
0.131711
-0.113712
0.135121
-0.116706
-0.119932
0.138534
0.000382124
9.60451e-05
0.0017854
-0.00186283
0.00446249
-0.00575586
0.00860949
-0.0114133
0.0143253
-0.0186303
0.0215656
-0.0271035
0.0301151
-0.036419
0.0395976
-0.0460873
0.0495269
-0.0556096
0.0593858
-0.0645532
0.0687109
-0.0726091
0.0771592
-0.0796198
0.084544
-0.0855747
0.0908357
-0.0905789
0.0961319
-0.0948099
0.10061
-0.0984716
0.104478
-0.101757
0.107931
-0.104826
0.11113
-0.107794
0.114193
-0.110738
0.117201
-0.113702
0.1202
-0.116712
0.123249
-0.119754
-0.122975
0.126291
0.00051738
-0.000421335
0.00229447
-0.00363992
0.00555348
-0.00901487
0.0104249
-0.0162846
0.0168891
-0.0250946
0.024735
-0.0349493
0.0335634
-0.0452474
0.0428479
-0.0553717
0.0520322
-0.064794
0.0606327
-0.0731537
0.0683132
-0.0802896
0.0749166
-0.0862233
0.080452
-0.0911101
0.0850504
-0.0951773
0.0889075
-0.0986671
0.092231
-0.101795
0.0952037
-0.10473
0.097967
-0.107589
0.10062
-0.110447
0.103227
-0.113345
0.10583
-0.116305
0.108455
-0.119336
0.111133
-0.122432
-0.125669
0.113827
0.000665417
-0.00108675
0.00283059
-0.0058051
0.0066545
-0.0128388
0.0121572
-0.0217874
0.0191557
-0.0320931
0.0272502
-0.0430438
0.0358834
-0.0538806
0.0444553
-0.0639437
0.0524472
-0.0727858
0.0595091
-0.0802156
0.0654914
-0.0862719
0.0704218
-0.0911536
0.0744492
-0.0951375
0.0777788
-0.0985069
0.0806171
-0.101505
0.0831384
-0.104316
0.0854726
-0.107064
0.0877074
-0.109824
0.0898983
-0.112638
0.0920795
-0.115526
0.0942722
-0.118498
0.0964896
-0.121554
0.0987475
-0.12469
-0.127937
0.101016
0.000820455
-0.00190721
0.00336467
-0.00834932
0.00768968
-0.0171638
0.0136618
-0.0277595
0.0209078
-0.0393391
0.0288559
-0.0509918
0.0368592
-0.0618839
0.0443448
-0.0714293
0.0509229
-0.0793639
0.0564254
-0.0857181
0.0608785
-0.090725
0.0644371
-0.0947123
0.0673118
-0.0980122
0.0697103
-0.100905
0.071804
-0.103599
0.0737176
-0.10623
0.075533
-0.10888
0.0773007
-0.111592
0.0790505
-0.114388
0.0808007
-0.117277
0.082563
-0.12026
0.0843459
-0.123336
0.0861585
-0.126503
-0.129762
0.0879834
0.000974838
-0.00288205
0.0038626
-0.0112371
0.00857863
-0.0218798
0.0148037
-0.0339846
0.0219779
-0.0465133
0.0294127
-0.0584267
0.0364633
-0.0689344
0.0426697
-0.0776357
0.0478155
-0.0845098
0.0519035
-0.0898061
0.0550827
-0.0939041
0.0575659
-0.0971955
0.0595652
-0.100012
0.0612548
-0.102595
0.0627594
-0.105104
0.0641599
-0.107631
0.0655044
-0.110224
0.0668208
-0.112908
0.0681255
-0.115693
0.0694291
-0.11858
0.0707388
-0.12157
0.0720604
-0.124658
0.0733985
-0.127841
-0.131107
0.0747438
0.00111887
-0.00400092
0.00428733
-0.0144055
0.00924527
-0.0268377
0.0154775
-0.0402169
0.0222744
-0.0533102
0.02891
-0.0650623
0.0348245
-0.0748489
0.0397181
-0.0825293
0.0435427
-0.0883343
0.0464259
-0.0926893
0.0485785
-0.0960567
0.0502188
-0.0988359
0.0515288
-0.101321
0.0526389
-0.103705
0.0536327
-0.106097
0.0545592
-0.108557
0.0554459
-0.111111
0.0563083
-0.113771
0.0571564
-0.116541
0.0579968
-0.119421
0.0588345
-0.122408
0.0596737
-0.125497
0.0605169
-0.128684
-0.131952
0.0613618
0.00124229
-0.00524321
0.00460453
-0.0177678
0.00963014
-0.0318633
0.0156238
-0.0462105
0.0217889
-0.0594753
0.0274425
-0.0707159
0.0321633
-0.0795697
0.0358168
-0.0861829
0.0384868
-0.0910043
0.0403723
-0.0945747
0.0416976
-0.0973821
0.0426567
-0.0997949
0.0433907
-0.102055
0.0439904
-0.104305
0.0445086
-0.106616
0.0449741
-0.109023
0.0454028
-0.111539
0.0458039
-0.114172
0.0461841
-0.116921
0.0465481
-0.119785
0.0468997
-0.122759
0.0472412
-0.125839
0.0475729
-0.129016
-0.132275
0.0478959
0.00133845
-0.00658166
0.0047907
-0.02122
0.00970054
-0.0367732
0.0152349
-0.0517449
0.0205849
-0.0648253
0.0251723
-0.0753033
0.0287331
-0.0831304
0.031273
-0.0887228
0.032961
-0.0926923
0.0340221
-0.0956359
0.0346644
-0.0980244
0.035045
-0.100176
0.0352667
-0.102277
0.0353894
-0.104427
0.0354453
-0.106672
0.0354514
-0.109029
0.0354169
-0.111505
0.0353482
-0.114103
0.0352502
-0.116823
0.0351268
-0.119661
0.0349815
-0.122614
0.0348161
-0.125673
0.0346298
-0.128829
0.0344259
-0.132071
-0.000178871
0.00171915
-0.00154028
-0.000645701
0.00425687
-0.00379004
-0.00135602
0.00615803
-0.00544771
-0.00227068
0.00753906
-0.0066244
-0.00335434
0.00850879
-0.00742513
-0.00457621
0.00917036
-0.0079485
-0.00591063
0.00961374
-0.00827931
-0.00733711
0.00990936
-0.00848289
-0.00883971
0.0101053
-0.00860266
-0.0104061
0.0102273
-0.00866084
-0.0120265
0.0102816
-0.00866119
-0.013692
0.0102584
-0.00859297
-0.0153935
0.0101364
-0.00843489
-0.0171205
0.00988554
-0.00815853
-0.01886
0.00947039
-0.00773086
-0.0205957
0.00885178
-0.00711606
-0.0223075
0.00798859
-0.00627688
-0.0239708
0.00683938
-0.00517601
-0.0255601
0.00536496
-0.00377566
-0.027051
0.00353116
-0.00204031
-0.0284025
0.00131335
3.8167e-05
-0.0296054
-0.00126857
0.00247145
-0.0306757
-0.0042346
0.00530491
-0.00751798
-0.0316905
0.00853278
-0.000117832
0.00183699
-0.000446897
0.00458593
-0.000969641
0.00668077
-0.00166414
0.00823356
-0.00250504
0.00934969
-0.00346585
0.0101312
-0.00452107
0.010669
-0.00564761
0.0110359
-0.0068255
0.0112832
-0.00803794
0.0114397
-0.00927074
0.0115144
-0.0105114
0.0114991
-0.0117481
0.0113731
-0.0129684
0.0111058
-0.0141579
0.0106599
-0.0152997
0.00999358
-0.0163728
0.00906165
-0.0173516
0.00781814
-0.0182054
0.00621884
-0.0188992
0.00422491
-0.019383
0.00179714
-0.0196398
-0.00101179
-0.0196526
-0.00422172
-0.00769403
-0.0194766
-5.08596e-05
0.00188785
-0.000224331
0.0047594
-0.00052843
0.00698487
-0.000957498
0.00866263
-0.00149555
0.00988774
-0.00211995
0.0107556
-0.00280463
0.0113536
-0.00352273
0.011754
-0.00424835
0.0120088
-0.00495753
0.0121489
-0.00562847
0.0121853
-0.00624109
0.0121118
-0.00677628
0.0119083
-0.00721484
0.0115443
-0.00753641
0.0109815
-0.00771901
0.0101762
-0.00773679
0.00907943
-0.00756028
0.00764162
-0.00715431
0.00581287
-0.00647654
0.00354714
-0.00548524
0.000805842
-0.00411149
-0.00238554
-0.00230147
-0.00603175
-0.00998494
-1.05587e-05
1.50407e-05
0.0018728
6.29947e-07
0.00477381
-7.22667e-05
0.00705777
-0.000210956
0.00880132
-0.000407407
0.0100842
-0.000642259
0.0109904
-0.000888654
0.0116
-0.00111555
0.0119809
-0.00129028
0.0121835
-0.00138027
0.0122389
-0.00135389
0.0121589
-0.00118061
0.0119385
-0.000830591
0.0115583
-0.000274126
0.0109879
0.000519153
0.0101882
0.00158199
0.00911334
0.00294755
0.00771387
0.00465254
0.00593663
0.00673575
0.00372966
0.00924011
0.00104278
0.0122008
-0.00215483
0.0157009
-0.00588567
0.0197863
-0.0101172
-0.0147898
0.0245912
7.21596e-05
0.00180065
0.000203671
0.0046423
0.000353076
0.00690836
0.000504443
0.00864995
0.000660513
0.00992812
0.000838404
0.0108125
0.00106582
0.0113726
0.0013776
0.0116691
0.00181284
0.0117483
0.00241282
0.0116389
0.00321958
0.0113522
0.00427543
0.0108826
0.00562288
0.0102108
0.00730498
0.00930578
0.00936579
0.00812743
0.01185
0.00662914
0.0148035
0.0047604
0.0182757
0.00246435
0.0223127
-0.000307297
0.0269577
-0.00360221
0.032257
-0.00745417
0.0382624
-0.011891
0.0449723
-0.0168271
-0.0224655
0.052648
0.000114332
0.00168631
0.000363813
0.00439282
0.000704657
0.00656752
0.00111928
0.00823532
0.00160891
0.0094385
0.00219009
0.0102314
0.00289169
0.010671
0.00375187
0.0108089
0.00481543
0.0106847
0.00613165
0.0103227
0.00775283
0.00973099
0.00973333
0.00890211
0.0121294
0.00781477
0.014999
0.00643618
0.0184019
0.0047245
0.0224008
0.00263029
0.0270453
0.00011592
0.0324169
-0.00290733
0.0385604
-0.00645078
0.045526
-0.0105678
0.0533442
-0.0152724
0.0620598
-0.0206066
0.0715752
-0.0263425
-0.033157
0.0822666
0.000136966
0.00154935
0.000465255
0.00406453
0.000950294
0.00608248
0.00158022
0.0076054
0.00235952
0.00865919
0.00330705
0.00928382
0.00445427
0.0095238
0.00584329
0.00941992
0.00752489
0.0090031
0.00955677
0.00829081
0.0120021
0.00728561
0.0149288
0.00597549
0.0184081
0.00433538
0.0225153
0.00232907
0.0273239
-8.41225e-05
0.032915
-0.00296081
0.0393719
-0.00634096
0.0467409
-0.0102763
0.0550871
-0.0147971
0.0644441
-0.0199247
0.0748076
-0.0256359
0.0861787
-0.0319776
0.0983535
-0.0385174
-0.046468
0.111665
0.000138773
0.00141057
0.000502876
0.00370043
0.00107805
0.00550731
0.00186569
0.00681776
0.00287918
0.0076457
0.00414396
0.00801904
0.00569756
0.0079702
0.00758905
0.00752842
0.00987816
0.006714
0.0126341
0.0055349
0.0159341
0.00398558
0.0198624
0.00204716
0.0245069
-0.000309049
0.0299608
-0.00312483
0.0363153
-0.00643866
0.0436489
-0.0102945
0.0520344
-0.0147264
0.0615154
-0.0197574
0.0721075
-0.0253891
0.0837834
-0.0316006
0.0964664
-0.0383189
0.110039
-0.0455504
0.124259
-0.0527368
-0.0613213
0.139112
0.00012251
0.00128806
0.000485171
0.00333777
0.00110357
0.00488891
0.00199951
0.00592182
0.00320163
0.00644358
0.00474808
0.00647259
0.00668857
0.00602971
0.00908531
0.00513169
0.0120127
0.00378663
0.0155573
0.00199024
0.0198135
-0.000270615
0.0248835
-0.00302284
0.0308694
-0.00629496
0.0378651
-0.0101205
0.0459531
-0.0145267
0.0551895
-0.0195309
0.065596
-0.0251329
0.0771477
-0.0313091
0.0897658
-0.0380072
0.103308
-0.0451424
0.11758
-0.0525916
0.132299
-0.0602687
0.147259
-0.0676974
-0.0759951
0.161933
9.53617e-05
0.0011927
0.000435611
0.00299752
0.00107329
0.00425123
0.00205712
0.00493799
0.00343813
0.00506258
0.00527501
0.00463571
0.0076379
0.00366682
0.0106102
0.00215935
0.0142855
0.000111333
0.0187729
-0.00249713
0.0241803
-0.00567796
0.0306121
-0.00945464
0.0381601
-0.013843
0.0468885
-0.0188488
0.0568224
-0.0244606
0.0679362
-0.0306447
0.0801439
-0.0373406
0.0932952
-0.0444603
0.107175
-0.0518873
0.121515
-0.0594824
0.136004
-0.06708
0.150269
-0.0745342
0.164114
-0.081542
-0.0886159
0.176734
6.83421e-05
0.00112436
0.000390397
0.00267546
0.00105982
0.00358181
0.00215791
0.0038399
0.00376532
0.00345517
0.00596929
0.00243173
0.00886743
0.000768686
0.012568
-0.00154124
0.0171884
-0.00450908
0.0228388
-0.00814751
0.0296225
-0.0124616
0.0376129
-0.017445
0.0468416
-0.0230718
0.0572842
-0.0292914
0.0688496
-0.036026
0.0813752
-0.0431702
0.0946286
-0.050594
0.108319
-0.0581505
0.12211
-0.0656789
0.135664
-0.0730357
0.148637
-0.0800536
0.160786
-0.0866831
0.171907
-0.0926628
-0.098181
0.181472
5.43463e-05
0.000391907
0.00114826
0.00244126
0.00438645
0.00710389
0.010719
0.0153574
0.021135
0.0281407
0.0364213
0.0459631
0.0566795
0.0684053
0.0808991
0.0938551
0.106923
0.119736
0.131938
0.143224
0.153349
0.162262
0.169946
0.177302
-0.0318795
-0.0169446
0.0171336
-0.0318305
-0.0247859
0.0247369
-0.0315148
-0.0336503
0.0333346
-0.030914
-0.0433241
0.0427233
-0.0300102
-0.053531
0.0526272
-0.0287672
-0.0638984
0.0626554
-0.0271063
-0.0739504
0.0722895
-0.0248573
-0.0831115
0.0808626
-0.0217679
-0.0906568
0.0875674
-0.0175336
-0.095675
0.0914407
-0.0118464
-0.0970979
0.0914106
-0.00447516
-0.0937852
0.086414
0.00480396
-0.0847371
0.075458
0.015639
-0.0689975
0.0581624
0.0273854
-0.0462373
0.0344909
0.0396491
-0.0173782
0.00511454
0.0520986
0.0156588
-0.0281083
0.0644473
0.0510664
-0.0634151
0.0761209
0.0853971
-0.0970706
0.0862714
0.115101
-0.125252
0.0940184
0.13766
-0.145407
0.0984856
0.152873
-0.15734
0.0987655
0.163549
-0.163829
0.0948376
0.17383
-0.169902
0.0889298
0.184038
-0.17813
0.0852055
0.186345
-0.182621
0.0870093
0.168127
-0.169931
0.0946038
0.121922
-0.129516
0.106081
0.0516372
-0.0631146
0.118934
-0.0284829
0.0156306
0.130689
-0.101354
0.0895986
0.139267
-0.155045
0.146466
0.144166
-0.187718
0.182819
0.146181
-0.202115
0.2001
0.144912
-0.204636
0.205906
0.138903
-0.208756
0.214765
0.129211
-0.221654
0.231346
0.120617
-0.226364
0.234958
0.11794
-0.191027
0.193705
0.121942
-0.105253
0.101251
0.129952
0.00822405
-0.0162333
0.139039
0.111275
-0.120362
0.146522
0.182427
-0.18991
0.149243
0.224216
-0.226938
0.145349
0.259663
-0.255768
0.136703
0.289855
-0.281209
0.12861
0.284003
-0.27591
0.125928
0.211173
-0.208491
0.129819
0.0742672
-0.0781582
0.137195
-0.061196
0.0538199
0.142102
-0.176407
0.1715
0.141026
-0.241936
0.243012
0.134985
-0.307068
0.313109
0.128791
-0.308911
0.315105
0.125642
-0.258856
0.262005
0.126889
-0.140831
0.139584
0.130172
0.0369716
-0.040254
0.129496
0.119169
-0.118493
0.125201
0.297911
-0.293616
0.221294
-0.219703
-0.0198954
-0.0165257
-0.020172
-0.0245094
-0.0204414
-0.0333809
-0.0206839
-0.0430816
-0.0209368
-0.0532781
-0.0212196
-0.0636156
-0.0215093
-0.0736607
-0.0216812
-0.0829396
-0.0214938
-0.0908442
-0.0205429
-0.0966259
-0.018307
-0.0993338
-0.0141646
-0.0979276
-0.00777911
-0.0911226
0.000995146
-0.0777717
0.0125715
-0.0578137
0.0252822
-0.0300889
0.038997
0.00194402
0.0529181
0.0371452
0.0663688
0.0719463
0.0783877
0.103083
0.0878838
0.128164
0.0937581
0.146999
0.0953207
0.161986
0.093312
0.175839
0.0905199
0.18683
0.0905564
0.186309
0.0953272
0.163356
0.104125
0.113124
0.115148
0.0406135
0.126412
-0.0397465
0.136121
-0.111062
0.142617
-0.161541
0.145493
-0.190594
0.145842
-0.202465
0.143721
-0.202515
0.137418
-0.202453
0.127228
-0.211464
0.117675
-0.216811
0.114185
-0.187538
0.118186
-0.109255
0.127148
-0.000737221
0.137669
0.100754
0.146425
0.173671
0.149983
0.220657
0.146683
0.262964
0.138583
0.297954
0.130847
0.291739
0.127984
0.214036
0.131129
0.0711227
0.137827
-0.0678941
0.142379
-0.180959
0.141095
-0.240652
0.135009
-0.300983
0.129022
-0.302924
0.126265
-0.256099
0.127405
-0.141971
0.130287
0.0340891
0.129023
0.120433
0.124098
0.302836
0.22302
0.000314916
-0.0168512
-0.000209422
-0.023985
-0.000836154
-0.0327542
-0.00170182
-0.0422159
-0.00288649
-0.0520934
-0.00443225
-0.0620699
-0.0063606
-0.0717323
-0.00869083
-0.0806093
-0.0112724
-0.0882626
-0.0136944
-0.0942039
-0.015425
-0.0976031
-0.0154671
-0.0978855
-0.0129805
-0.0936092
-0.00744589
-0.0833063
0.00107165
-0.0663313
0.0132331
-0.0422503
0.0271802
-0.012003
0.0421421
0.0221833
0.057023
0.0570654
0.0706342
0.0894713
0.0816906
0.117108
0.0890792
0.13961
0.0924985
0.158567
0.0932483
0.175089
0.0941281
0.18595
0.0978102
0.182627
0.104952
0.156214
0.114316
0.103761
0.124388
0.0305414
0.133762
-0.0491209
0.141212
-0.118512
0.14559
-0.165919
0.146566
-0.19157
0.145345
-0.201243
0.142468
-0.199638
0.136134
-0.196119
0.125775
-0.201106
0.11541
-0.206445
0.110983
-0.183111
0.114773
-0.113044
0.124487
-0.0104513
0.136291
0.0889497
0.146265
0.163697
0.150726
0.216196
0.148176
0.265514
0.140788
0.305343
0.133496
0.29903
0.130417
0.217116
0.132688
0.0688516
0.138574
-0.0737796
0.142751
-0.185136
0.141305
-0.239206
0.135158
-0.294835
0.129337
-0.297103
0.126984
-0.253746
0.128034
-0.14302
0.13051
0.0316125
0.12872
0.122224
0.123179
0.308377
0.224894
0.0245313
-0.0167913
0.0243566
-0.0238104
0.0238045
-0.032202
0.0228584
-0.0412699
0.0213914
-0.0506264
0.019278
-0.0599565
0.0163647
-0.068819
0.0125186
-0.0767633
0.00773276
-0.0834767
0.00228
-0.0887512
-0.00286149
-0.0924616
-0.00711725
-0.0936298
-0.00927571
-0.0914507
-0.00822887
-0.0843532
-0.00354664
-0.0710135
0.00535164
-0.0511486
0.017926
-0.0245774
0.0327682
0.00734113
0.0482691
0.0415645
0.0630095
0.0747308
0.0755159
0.104601
0.0847283
0.130397
0.0906553
0.15264
0.0947791
0.170965
0.0994826
0.181247
0.106395
0.175714
0.115229
0.14738
0.124585
0.0944047
0.133386
0.0217412
0.140747
-0.0564827
0.145875
-0.123639
0.148143
-0.168188
0.147366
-0.190793
0.144686
-0.198563
0.141085
-0.196037
0.134908
-0.189942
0.12475
-0.190948
0.113829
-0.195523
0.108407
-0.177689
0.11174
-0.116377
0.121957
-0.0206682
0.134876
0.0760302
0.146002
0.152571
0.151437
0.210761
0.149796
0.267155
0.143273
0.311865
0.1365
0.305804
0.133177
0.220439
0.13448
0.0675485
0.139425
-0.078725
0.143197
-0.188909
0.141632
-0.237641
0.135406
-0.288609
0.129691
-0.291389
0.127734
-0.251788
0.128729
-0.144016
0.130825
0.0295166
0.128574
0.124475
0.122451
0.314499
0.226912
0.0526293
-0.0167726
0.0525491
-0.0237302
0.0521244
-0.0317773
0.0511365
-0.0402819
0.0494843
-0.0489743
0.0470646
-0.0575368
0.0437346
-0.065489
0.0393554
-0.072384
0.0338063
-0.0779277
0.0270583
-0.0820032
0.0192064
-0.0846097
0.0110933
-0.0855166
0.00388586
-0.0842433
-0.000441461
-0.0800258
-0.000664173
-0.0707908
0.00405778
-0.0558706
0.0133616
-0.0338812
0.0263594
-0.00565671
0.0412284
0.0266955
0.0563395
0.0596198
0.0700167
0.090924
0.0812138
0.1192
0.0900078
0.143846
0.0977032
0.16327
0.106023
0.172927
0.115621
0.166116
0.125511
0.13749
0.134423
0.0854933
0.141803
0.0143608
0.147157
-0.0618369
0.149988
-0.12647
0.150172
-0.168372
0.147799
-0.18842
0.143833
-0.194598
0.139543
-0.191747
0.133648
-0.184047
0.12403
-0.18133
0.11288
-0.184374
0.1065
-0.171308
0.109139
-0.119017
0.119571
-0.0310998
0.133385
0.0622161
0.14558
0.140376
0.152058
0.204282
0.151481
0.267732
0.145963
0.317383
0.139764
0.312003
0.136195
0.224008
0.136464
0.0672795
0.140369
-0.0826294
0.143691
-0.192231
0.142052
-0.236002
0.135735
-0.282292
0.130049
-0.285703
0.128455
-0.250195
0.12945
-0.145011
0.131213
0.0277541
0.12857
0.127118
0.121923
0.321147
0.229056
0.0822424
-0.0167484
0.0820648
-0.0235525
0.0814327
-0.0311453
0.0801205
-0.0389697
0.078084
-0.0469378
0.075286
-0.0547388
0.0716486
-0.0618516
0.0670798
-0.0678152
0.0614518
-0.0722997
0.0545842
-0.0751356
0.0463372
-0.0763628
0.0369686
-0.076148
0.0273186
-0.0745933
0.0187374
-0.0714446
0.0131229
-0.0651763
0.011923
-0.0546707
0.0160352
-0.0379934
0.0251298
-0.0147513
0.0378059
0.0140194
0.0521453
0.0452804
0.0663572
0.0767122
0.0792721
0.106285
0.0907616
0.132356
0.101694
0.152337
0.113055
0.161566
0.124681
0.154491
0.135183
0.126987
0.143457
0.0772193
0.149379
0.00843906
0.152815
-0.0652726
0.153435
-0.127091
0.151593
-0.166529
0.147789
-0.184616
0.142746
-0.189555
0.137804
-0.186805
0.132233
-0.178476
0.12345
-0.172546
0.112444
-0.173368
0.105224
-0.164089
0.106976
-0.120769
0.117307
-0.0414311
0.131756
0.0477679
0.144922
0.12721
0.15251
0.196694
0.153143
0.267099
0.148747
0.321779
0.143161
0.317589
0.13935
0.227818
0.13861
0.0680196
0.141385
-0.0854043
0.144203
-0.195049
0.142532
-0.23433
0.136128
-0.275888
0.130389
-0.279964
0.129102
-0.248908
0.130161
-0.14607
0.131654
0.0262607
0.128693
0.130079
0.121599
0.32824
0.231293
0.111319
-0.0164024
0.110708
-0.0229414
0.10951
-0.0299481
0.107555
-0.0370143
0.104858
-0.0442412
0.101427
-0.0513074
0.0972484
-0.0576733
0.092336
-0.0629028
0.0866856
-0.0666492
0.080204
-0.068654
0.0726858
-0.0688445
0.0639447
-0.067407
0.0540855
-0.0647341
0.0437826
-0.0611417
0.0346546
-0.0560482
0.0284794
-0.0484955
0.027009
-0.0365229
0.0310027
-0.018745
0.0398834
0.00513867
0.0520743
0.0330895
0.0657862
0.0630003
0.0796308
0.0924408
0.0930906
0.118897
0.106457
0.138971
0.119994
0.148029
0.132902
0.141582
0.143601
0.116288
0.151226
0.0695938
0.155893
0.00377192
0.15754
-0.0669192
0.156083
-0.125634
0.152337
-0.162783
0.147262
-0.179541
0.141376
-0.183669
0.135848
-0.181276
0.130564
-0.173192
0.122825
-0.164807
0.112346
-0.162889
0.104481
-0.156224
0.105194
-0.121482
0.115111
-0.0513488
0.129909
0.0329708
0.143936
0.113182
0.152696
0.187934
0.154681
0.265114
0.151503
0.324957
0.146547
0.322546
0.142527
0.231838
0.14084
0.0697065
0.142448
-0.0870121
0.144704
-0.197305
0.143033
-0.232659
0.136564
-0.269419
0.130697
-0.274097
0.129638
-0.247848
0.130826
-0.147258
0.132128
0.024959
0.128926
0.133281
0.121485
0.335681
0.233584
0.138035
-0.0153254
0.13662
-0.021527
0.134493
-0.027821
0.131576
-0.0340967
0.127956
-0.0406215
0.123655
-0.0470062
0.118705
-0.0527235
0.113207
-0.0574047
0.107276
-0.060718
0.100979
-0.0623571
0.0942692
-0.0621348
0.0869395
-0.0600773
0.07869
-0.0564845
0.0693991
-0.0518508
0.059711
-0.0463602
0.0509863
-0.0397709
0.0452302
-0.0307668
0.0441313
-0.0176461
0.0483315
0.000938457
0.057121
0.0243
0.0690875
0.0510338
0.0827068
0.0788216
0.0970262
0.104577
0.111734
0.124263
0.126451
0.133312
0.139902
0.128132
0.15046
0.105731
0.157501
0.0625524
0.161035
0.000237727
0.161128
-0.0670119
0.157809
-0.122315
0.15234
-0.157314
0.146152
-0.173354
0.13966
-0.177176
0.133651
-0.175268
0.128561
-0.168102
0.121966
-0.158211
0.112382
-0.153306
0.104127
-0.147969
0.103698
-0.121053
0.112888
-0.0605379
0.12775
0.0181082
0.142525
0.0984069
0.152508
0.177951
0.155963
0.26166
0.154085
0.326836
0.149785
0.326845
0.145598
0.236025
0.143074
0.0722308
0.143523
-0.0874608
0.145161
-0.198943
0.143514
-0.231012
0.137022
-0.262928
0.130971
-0.268045
0.130043
-0.24692
0.131416
-0.148631
0.132614
0.023761
0.129255
0.13664
0.121579
0.343357
0.235875
0.159921
-0.0133137
0.157461
-0.0190669
0.154188
-0.0245474
0.150181
-0.0300896
0.145564
-0.0360043
0.140344
-0.0417865
0.134595
-0.0469746
0.128476
-0.0512862
0.122168
-0.0544097
0.115836
-0.0560253
0.109591
-0.0558896
0.103412
-0.0538987
0.097077
-0.0501492
0.0901811
-0.0449549
0.0825146
-0.0386937
0.0744191
-0.0316753
0.0671921
-0.0235398
0.0627036
-0.0131577
0.0625179
0.00112409
0.0672246
0.0195934
0.0763152
0.0419431
0.088469
0.0666678
0.10242
0.0906266
0.117306
0.109376
0.132202
0.118416
0.145514
0.11482
0.155682
0.0955622
0.162185
0.0560498
0.164849
-0.00242672
0.163473
-0.0656355
0.158478
-0.11732
0.151502
-0.150338
0.144361
-0.166212
0.137481
-0.170296
0.13115
-0.168937
0.126148
-0.1631
0.120683
-0.152747
0.112322
-0.144945
0.103989
-0.139636
0.102373
-0.119436
0.110534
-0.0686991
0.125181
0.00346063
0.140582
0.0830061
0.151838
0.166695
0.156896
0.256602
0.156388
0.327343
0.152741
0.330492
0.148464
0.240301
0.145224
0.0754708
0.14457
-0.086806
0.145536
-0.199909
0.143927
-0.229404
0.137475
-0.256475
0.13121
-0.26178
0.130303
-0.246013
0.131903
-0.150231
0.133093
0.0225715
0.129667
0.140065
0.12188
0.351144
0.238112
0.174056
-0.0106352
0.170682
-0.0156931
0.16643
-0.0202953
0.161579
-0.0252384
0.156209
-0.0306347
0.150314
-0.0358911
0.144012
-0.0406734
0.137493
-0.0447671
0.130959
-0.047875
0.124615
-0.0496817
0.118653
-0.0499272
0.113207
-0.0484532
0.108279
-0.0452208
0.103602
-0.040278
0.0987621
-0.0338538
0.0934142
-0.0263275
0.0877346
-0.0178601
0.0827476
-0.00817069
0.0800395
0.00383227
0.0812289
0.0184039
0.0869116
0.0362604
0.0965455
0.0570339
0.108965
0.0782075
0.12295
0.0953907
0.137148
0.104219
0.149779
0.102189
0.15942
0.0859205
0.165486
0.049984
0.16735
-0.00429029
0.16453
-0.0628155
0.157995
-0.110785
0.149744
-0.142087
0.14181
-0.158279
0.134729
-0.163215
0.128276
-0.162484
0.123281
-0.158105
0.118825
-0.148292
0.111942
-0.138061
0.103904
-0.131598
0.101124
-0.116656
0.107964
-0.0755395
0.122111
-0.0106866
0.138013
0.0671042
0.150567
0.154141
0.157307
0.249862
0.158232
0.326417
0.155294
0.333431
0.150999
0.244596
0.147247
0.0792229
0.145555
-0.0851142
0.145804
-0.200158
0.144236
-0.227836
0.137901
-0.25014
0.131424
-0.255303
0.13042
-0.245009
0.132266
-0.152076
0.133548
0.0212888
0.130152
0.143461
0.122382
0.358914
0.24024
0.178746
-0.00790937
0.174958
-0.0119044
0.170314
-0.0156519
0.165189
-0.0201134
0.159559
-0.025004
0.153453
-0.0297856
0.147028
-0.0342482
0.140463
-0.0382022
0.133963
-0.0413752
0.127766
-0.0434843
0.122129
-0.0442906
0.117296
-0.04362
0.113353
-0.0412771
0.110204
-0.0371296
0.107566
-0.0312158
0.105013
-0.0237744
0.102241
-0.0150882
0.0995436
-0.00547326
0.0972313
0.00614454
0.0968364
0.0187988
0.099838
0.0332589
0.106608
0.050264
0.116616
0.0681995
0.128723
0.0832841
0.141412
0.0915288
0.152937
0.0906645
0.162042
0.0768156
0.167709
0.0443171
0.168786
-0.0053676
0.164538
-0.0585676
0.156627
-0.102874
0.14739
-0.13285
0.13885
-0.149738
0.131672
-0.156036
0.125262
-0.156075
0.120192
-0.153034
0.116472
-0.144572
0.111159
-0.132748
0.103799
-0.124238
0.0999663
-0.112824
0.105149
-0.0807225
0.118489
-0.0240268
0.134708
0.0508857
0.148643
0.140206
0.157232
0.241274
0.159646
0.324003
0.157364
0.335713
0.153194
0.248766
0.149105
0.083312
0.146508
-0.0825174
0.146004
-0.199655
0.14445
-0.226282
0.138303
-0.243993
0.131636
-0.248635
0.130425
-0.243798
0.132496
-0.154148
0.133967
0.0198174
0.130697
0.146731
0.123074
0.366537
0.242205
0.174886
-0.00549351
0.171189
-0.0082074
0.167008
-0.0114706
0.162326
-0.0154316
0.157085
-0.0197637
0.151441
-0.0241407
0.145545
-0.0283527
0.139555
-0.0322123
0.133674
-0.0354936
0.128127
-0.0379377
0.123126
-0.0392898
0.118838
-0.0393316
0.115418
-0.0378569
0.112993
-0.0347052
0.11156
-0.0297827
0.110887
-0.0231017
0.110584
-0.0147852
0.110163
-0.0050519
0.110103
0.0062041
0.110763
0.0181395
0.113055
0.0309668
0.117998
0.0453206
0.125701
0.0604972
0.135527
0.0734575
0.146248
0.0808076
0.156415
0.0804981
0.164772
0.0684581
0.169741
0.0393481
0.169272
-0.00489812
0.163412
-0.0527076
0.154433
-0.0938958
0.144722
-0.123139
0.135909
-0.140925
0.128719
-0.148846
0.12245
-0.149806
0.117242
-0.147826
0.113882
-0.141212
0.110013
-0.128879
0.103644
-0.117869
0.0989777
-0.108158
0.102388
-0.0841326
0.114437
-0.0360764
0.130643
0.0346801
0.145707
0.125142
0.15621
0.230771
0.160295
0.319919
0.158806
0.337202
0.154912
0.25266
0.150787
0.0874363
0.147385
-0.079115
0.146157
-0.198427
0.144582
-0.224707
0.138672
-0.238083
0.131838
-0.241801
0.130354
-0.242314
0.132616
-0.156409
0.134354
0.0180786
0.131305
0.14978
0.123957
0.373886
0.243954
0.20181
-0.0032171
-0.204086
0.200203
-0.0066012
0.198433
-0.0097
0.19622
-0.0132191
0.193501
-0.017044
0.190275
-0.0209149
0.186556
-0.0246337
0.182358
-0.0280148
0.177728
-0.0308633
0.172755
-0.0329645
0.167558
-0.0340928
0.162263
-0.0340371
0.157008
-0.0326017
0.151923
-0.0296208
0.14711
-0.0249693
0.142605
-0.0185966
0.138373
-0.0105537
0.134413
-0.00109157
0.130561
0.0100561
0.127027
0.021674
0.12439
0.0336038
0.123724
0.0459863
0.126134
0.0580873
0.132143
0.0674479
0.141375
0.0715759
0.153296
0.0685775
0.167215
0.0545388
0.180487
0.0260761
0.189509
-0.0139197
0.192443
-0.0556421
0.189895
-0.0913471
0.183562
-0.116806
0.175199
-0.132561
0.166449
-0.140097
0.157685
-0.141042
0.149033
-0.139174
0.141635
-0.133814
0.13456
-0.121804
0.125353
-0.108661
0.115737
-0.0985426
0.111238
-0.0796331
0.114019
-0.0388574
0.120369
0.0283296
0.125846
0.119665
0.128862
0.227755
0.130828
0.317952
0.134913
0.333117
0.142401
0.245173
0.149477
0.0803603
0.152992
-0.08263
0.152971
-0.198406
0.149783
-0.221519
0.142119
-0.230419
0.133097
-0.232779
0.127894
-0.237111
0.125383
-0.153899
0.123525
0.0199361
0.118592
0.154713
0.112382
0.380096
0.244735
0.211443
-0.00160141
-0.213058
0.209725
-0.00488306
0.208019
-0.00799468
0.205949
-0.0111489
0.203381
-0.0144753
0.200327
-0.0178616
0.196813
-0.0211193
0.192865
-0.0240669
0.188534
-0.0265327
0.183904
-0.0283346
0.179088
-0.0292763
0.174214
-0.0291636
0.169426
-0.0278135
0.164869
-0.0250633
0.160686
-0.0207868
0.157005
-0.0149155
0.153903
-0.00745155
0.151264
0.00154695
0.14929
0.0120307
0.147829
0.0231347
0.147146
0.0342867
0.147947
0.0451851
0.151138
0.0548969
0.157197
0.0613885
0.165967
0.0628065
0.177051
0.0574931
0.189265
0.0423247
0.199988
0.015353
0.206173
-0.0201044
0.206748
-0.0562171
0.202447
-0.087046
0.194919
-0.109279
0.185755
-0.123397
0.176482
-0.130823
0.16753
-0.13209
0.158644
-0.130288
0.150859
-0.126029
0.143974
-0.114919
0.135334
-0.100021
0.125401
-0.0886096
0.119549
-0.0737817
0.121094
-0.0404025
0.127314
0.02211
0.133374
0.113605
0.137313
0.223817
0.140336
0.314929
0.145736
0.327716
0.1545
0.236409
0.162395
0.0724656
0.165643
-0.0858784
0.164699
-0.197462
0.160634
-0.217454
0.152237
-0.222023
0.142417
-0.222959
0.136463
-0.231157
0.133616
-0.151053
0.131505
0.0220477
0.126274