/*--------------------------------*- C++ -*----------------------------------*\
| =========                 |                                                 |
| \\      /  F ield         | OpenFOAM: The Open Source CFD Toolbox           |
|  \\    /   O peration     | Version:  2512                                  |
|   \\  /    A nd           | Website:  www.openfoam.com                      |
|    \\/     M anipulation  |                                                 |
\*---------------------------------------------------------------------------*/
FoamFile
{
    version     2.0;
    format      ascii;
    arch        "LSB;label=32;scalar=64";
    class       volScalarField;
    location    "26";
    object      p;
}
// * * * * * * * * * * * * * * * * * * * * * * * * * * * * * * * * * * * * * //

dimensions      [0 2 -2 0 0 0 0];

internalField   nonuniform List<scalar> 
13248
(
-0.298933
-0.297383
-0.295328
-0.292928
-0.290367
-0.287822
-0.285415
-0.283206
-0.281204
-0.279378
-0.277661
-0.275962
-0.274177
-0.272197
-0.269925
-0.267277
-0.264196
-0.260653
-0.256642
-0.25221
-0.247318
-0.242203
-0.23628
-0.230526
-0.305985
-0.303806
-0.301118
-0.298093
-0.294915
-0.291778
-0.288799
-0.286023
-0.283432
-0.280964
-0.27852
-0.275986
-0.273246
-0.270199
-0.266765
-0.262896
-0.258576
-0.253818
-0.248658
-0.243145
-0.237315
-0.23124
-0.224794
-0.218632
-0.31441
-0.311423
-0.307991
-0.304277
-0.300441
-0.296671
-0.293068
-0.289638
-0.286323
-0.283023
-0.279614
-0.275979
-0.272016
-0.267661
-0.262885
-0.257697
-0.252136
-0.246261
-0.240138
-0.233838
-0.227391
-0.220884
-0.214221
-0.207849
-0.324385
-0.320404
-0.316119
-0.311656
-0.30711
-0.302641
-0.298305
-0.294054
-0.289782
-0.285362
-0.280673
-0.275628
-0.270184
-0.264343
-0.258146
-0.251663
-0.244976
-0.238169
-0.231312
-0.224457
-0.21763
-0.210889
-0.204146
-0.197862
-0.33601
-0.330858
-0.325625
-0.320352
-0.315023
-0.309734
-0.304477
-0.29914
-0.293587
-0.287697
-0.281401
-0.274688
-0.267601
-0.260224
-0.25266
-0.245016
-0.237383
-0.229834
-0.222415
-0.215153
-0.208057
-0.201148
-0.19437
-0.188047
-0.34929
-0.342824
-0.336566
-0.330419
-0.324191
-0.317885
-0.311413
-0.304622
-0.297388
-0.28966
-0.281472
-0.27292
-0.264142
-0.255284
-0.246478
-0.237827
-0.229403
-0.221246
-0.213372
-0.205781
-0.198464
-0.191417
-0.184596
-0.178232
-0.36411
-0.356233
-0.348898
-0.341792
-0.334482
-0.326852
-0.318757
-0.31006
-0.300725
-0.290838
-0.280569
-0.270128
-0.259715
-0.2495
-0.239601
-0.230089
-0.220998
-0.212331
-0.204076
-0.196209
-0.188705
-0.181539
-0.174685
-0.168265
-0.380192
-0.370872
-0.362423
-0.354229
-0.345556
-0.336178
-0.325963
-0.314884
-0.303081
-0.290821
-0.278412
-0.266138
-0.254219
-0.242798
-0.231952
-0.221703
-0.212043
-0.202942
-0.194361
-0.186261
-0.178603
-0.171349
-0.164479
-0.158016
-0.397067
-0.386341
-0.376741
-0.367259
-0.356834
-0.345195
-0.332338
-0.318465
-0.303955
-0.289256
-0.274775
-0.260812
-0.247554
-0.235087
-0.22343
-0.212555
-0.202414
-0.192949
-0.184103
-0.175819
-0.168046
-0.160742
-0.15388
-0.147402
-0.414038
-0.402007
-0.391199
-0.380139
-0.367485
-0.353049
-0.337107
-0.320179
-0.302899
-0.285851
-0.26947
-0.254015
-0.239602
-0.226248
-0.213908
-0.202511
-0.191977
-0.182224
-0.173176
-0.164765
-0.156928
-0.149618
-0.142787
-0.136328
-0.43019
-0.416995
-0.40487
-0.391858
-0.376463
-0.358758
-0.339438
-0.319383
-0.299436
-0.28024
-0.262189
-0.24546
-0.230081
-0.215994
-0.203102
-0.191295
-0.180465
-0.170511
-0.161343
-0.152878
-0.145047
-0.137792
-0.131032
-0.124655
-0.444466
-0.430292
-0.416717
-0.401336
-0.382693
-0.361331
-0.338463
-0.315324
-0.292893
-0.271793
-0.252322
-0.234547
-0.2184
-0.203756
-0.190467
-0.178389
-0.167391
-0.157354
-0.148173
-0.139758
-0.132032
-0.124925
-0.118327
-0.112171
-0.254522
-0.256573
-0.257899
-0.258815
-0.259603
-0.260338
-0.26105
-0.261764
-0.262488
-0.263223
-0.263962
-0.264698
-0.265422
-0.266124
-0.266795
-0.267426
-0.268011
-0.268545
-0.26903
-0.269472
-0.269886
-0.270285
-0.270737
-0.271383
-0.256058
-0.258001
-0.259267
-0.260155
-0.260934
-0.261672
-0.262402
-0.263143
-0.263903
-0.26468
-0.265467
-0.266254
-0.267028
-0.267776
-0.268485
-0.26914
-0.269728
-0.270237
-0.270657
-0.270989
-0.271226
-0.27136
-0.271449
-0.271798
-0.258365
-0.260096
-0.261237
-0.262054
-0.262785
-0.263495
-0.264212
-0.264953
-0.265725
-0.266523
-0.267337
-0.268154
-0.268958
-0.269733
-0.270459
-0.271116
-0.27168
-0.272129
-0.272441
-0.272603
-0.272601
-0.272385
-0.271969
-0.271914
-0.261292
-0.262732
-0.263694
-0.264394
-0.265035
-0.265676
-0.266341
-0.267046
-0.267794
-0.268578
-0.269385
-0.270199
-0.271003
-0.271774
-0.272487
-0.273116
-0.273629
-0.273991
-0.274165
-0.274124
-0.273843
-0.273246
-0.272238
-0.271482
-0.264657
-0.26576
-0.266497
-0.267037
-0.267541
-0.268062
-0.268625
-0.269244
-0.269919
-0.270641
-0.271395
-0.272163
-0.272923
-0.27365
-0.274314
-0.274882
-0.275315
-0.275569
-0.275594
-0.275344
-0.27478
-0.273825
-0.27227
-0.270601
-0.26828
-0.269032
-0.269515
-0.26985
-0.270164
-0.270507
-0.270908
-0.271379
-0.27192
-0.272521
-0.273166
-0.273834
-0.274499
-0.275134
-0.275705
-0.276175
-0.276498
-0.276624
-0.276494
-0.276046
-0.27522
-0.273933
-0.271965
-0.269253
-0.272019
-0.272437
-0.272645
-0.272731
-0.272798
-0.2729
-0.273069
-0.273323
-0.273662
-0.274077
-0.27455
-0.275058
-0.275575
-0.276067
-0.276498
-0.276825
-0.277
-0.276967
-0.27666
-0.276007
-0.274939
-0.273324
-0.271278
-0.267223
-0.275804
-0.275917
-0.275836
-0.275629
-0.275389
-0.275182
-0.275049
-0.275014
-0.275082
-0.275245
-0.275486
-0.275779
-0.276093
-0.276392
-0.276635
-0.276773
-0.276751
-0.27651
-0.27598
-0.275082
-0.273787
-0.271745
-0.269949
-0.264727
-0.279646
-0.279488
-0.2791
-0.278554
-0.277949
-0.277367
-0.276864
-0.276475
-0.276209
-0.276062
-0.276017
-0.276044
-0.276108
-0.276166
-0.276169
-0.27606
-0.275779
-0.275259
-0.274438
-0.273216
-0.271691
-0.269179
-0.267639
-0.261971
-0.283661
-0.283237
-0.282516
-0.281584
-0.280557
-0.27954
-0.27861
-0.277811
-0.277161
-0.276658
-0.27628
-0.275995
-0.275757
-0.275513
-0.275201
-0.274755
-0.274104
-0.273183
-0.271944
-0.27029
-0.268426
-0.265596
-0.263986
-0.258678
-0.288039
-0.287326
-0.286227
-0.284853
-0.283348
-0.281845
-0.280438
-0.279185
-0.278107
-0.277201
-0.276441
-0.275783
-0.275166
-0.27452
-0.273768
-0.272829
-0.271629
-0.270105
-0.268217
-0.265935
-0.263427
-0.260352
-0.258243
-0.253732
-0.293039
-0.291966
-0.290422
-0.288547
-0.286513
-0.28448
-0.28256
-0.280817
-0.279276
-0.277924
-0.276721
-0.275604
-0.274492
-0.273294
-0.271915
-0.270268
-0.268274
-0.265882
-0.263056
-0.259825
-0.256219
-0.252401
-0.248942
-0.245195
-0.272414
-0.273538
-0.274786
-0.276092
-0.2774
-0.278626
-0.279647
-0.280297
-0.28036
-0.27956
-0.277554
-0.273927
-0.268217
-0.259909
-0.24894
-0.235074
-0.217944
-0.197528
-0.17404
-0.148031
-0.120184
-0.0917989
-0.0638033
-0.037183
-0.013021
0.00754404
0.0242691
0.036958
0.0458232
0.0512286
0.0537648
0.0540614
0.052714
0.050255
0.0471063
0.0436001
0.0399688
0.0363834
0.0329349
0.0296846
0.0267125
0.0239295
0.0214022
0.0191003
0.0170073
0.0151049
0.013378
0.0118147
0.010402
0.00912975
0.00797475
0.00692213
0.00593989
0.00502881
0.00415614
0.00334991
0.00255828
0.00183428
0.00108175
0.000397168
-0.272854
-0.273508
-0.274225
-0.274944
-0.275611
-0.276152
-0.276461
-0.276397
-0.275773
-0.274353
-0.271845
-0.267904
-0.262156
-0.254201
-0.243205
-0.230338
-0.214368
-0.195336
-0.173364
-0.148918
-0.122397
-0.0956242
-0.068677
-0.0424477
-0.0185522
0.00261026
0.0201012
0.033621
0.0432707
0.0493896
0.0525294
0.0533104
0.0523315
0.0501396
0.0471734
0.0437822
0.040212
0.0366426
0.0331858
0.0298753
0.0269017
0.0240772
0.0215177
0.0191893
0.0170734
0.0151572
0.0134168
0.0118476
0.0104285
0.00915664
0.0079991
0.00694803
0.0059629
0.00505078
0.00417446
0.00336518
0.0025706
0.00184248
0.00108794
0.00039805
-0.273397
-0.273613
-0.273845
-0.274085
-0.274249
-0.274268
-0.274051
-0.27348
-0.272402
-0.270616
-0.267874
-0.263888
-0.25835
-0.251006
-0.241821
-0.229262
-0.214234
-0.196573
-0.176204
-0.153538
-0.129256
-0.102709
-0.0760071
-0.0497713
-0.0253729
-0.00357814
0.0147731
0.0292294
0.0397684
0.0466856
0.0505106
0.0518618
0.0513411
0.0495017
0.0468001
0.0435993
0.0401576
0.0366673
0.0332581
0.0300537
0.0269569
0.0241119
0.0215582
0.0192191
0.0170917
0.0151703
0.0134233
0.0118534
0.0104317
0.00916363
0.00800657
0.00696025
0.00597497
0.00506455
0.00418663
0.00337621
0.00257998
0.00184888
0.00109317
0.000398353
-0.273892
-0.27364
-0.273397
-0.273249
-0.273051
-0.272711
-0.272148
-0.271272
-0.26996
-0.268042
-0.265301
-0.261479
-0.256296
-0.249474
-0.240772
-0.229695
-0.216181
-0.200143
-0.180783
-0.159352
-0.135816
-0.110614
-0.0843801
-0.0581923
-0.0333109
-0.0107846
0.0084624
0.0238704
0.0353284
0.0430893
0.0476644
0.0496657
0.0496968
0.048301
0.0459499
0.0430182
0.0397769
0.0364305
0.0331179
0.0299508
0.0268996
0.024019
0.0215127
0.0191881
0.0170634
0.0151458
0.0133996
0.0118337
0.0104133
0.00915183
0.00799803
0.00695898
0.00597625
0.00507
0.00419264
0.00338293
0.00258639
0.00185348
0.0010974
0.000398122
-0.274012
-0.273584
-0.272797
-0.272313
-0.271782
-0.271202
-0.270412
-0.269375
-0.267982
-0.266087
-0.263506
-0.260007
-0.255324
-0.249173
-0.241267
-0.231252
-0.218906
-0.204061
-0.18645
-0.166277
-0.143706
-0.119097
-0.0932464
-0.0670956
-0.0418529
-0.0187038
0.00133602
0.0176212
0.0299703
0.0385924
0.0439704
0.0466998
0.0473748
0.0465189
0.0446073
0.0420257
0.039058
0.0359182
0.0327563
0.0296843
0.026708
0.0240397
0.0213776
0.0190896
0.0169884
0.0150843
0.0133473
0.0117901
0.0103753
0.00912257
0.00797458
0.00694461
0.00596695
0.00506696
0.00419232
0.00338509
0.00258964
0.00185615
0.00110053
0.000397379
-0.273583
-0.273425
-0.272031
-0.271092
-0.270378
-0.269601
-0.268646
-0.267497
-0.266075
-0.26425
-0.261858
-0.258692
-0.254507
-0.249028
-0.241955
-0.232969
-0.221765
-0.208093
-0.191733
-0.172719
-0.151148
-0.127325
-0.10196
-0.0759869
-0.0506014
-0.0270501
-0.00640721
0.0106222
0.0237974
0.0332759
0.0394946
0.0430192
0.0444176
0.0441917
0.0428035
0.0406472
0.0380197
0.0351448
0.0321837
0.0292548
0.026409
0.0237697
0.0212755
0.0189237
0.0168674
0.0149877
0.0132686
0.0117248
0.0103199
0.00907785
0.0079379
0.0069181
0.00594767
0.00505555
0.00418567
0.00338256
0.00258958
0.00185679
0.00110243
0.000396184
-0.272535
-0.272943
-0.271044
-0.269618
-0.268704
-0.267733
-0.266638
-0.265402
-0.263964
-0.262203
-0.259974
-0.257091
-0.253329
-0.248424
-0.242078
-0.233963
-0.223764
-0.211202
-0.196027
-0.178154
-0.157623
-0.134701
-0.110007
-0.0844521
-0.0592098
-0.0355361
-0.0145248
0.00308497
0.016997
0.0273066
0.0343845
0.038748
0.0409284
0.0414038
0.0406068
0.0389374
0.0367052
0.034144
0.0314268
0.028682
0.0259863
0.0234381
0.0209987
0.0186631
0.0166941
0.0148574
0.0131663
0.0116404
0.0102499
0.00902005
0.00788999
0.00688088
0.00591936
0.00503626
0.00417292
0.00337536
0.00258617
0.00185535
0.00110303
0.000394645
-0.270505
-0.271482
-0.269397
-0.267682
-0.266574
-0.265224
-0.264111
-0.262844
-0.261402
-0.259685
-0.257569
-0.254892
-0.251453
-0.247005
-0.241259
-0.233888
-0.224557
-0.212955
-0.198834
-0.182074
-0.162665
-0.140812
-0.117038
-0.0921918
-0.0674017
-0.0438976
-0.0227583
-0.0047387
0.00980848
0.0209041
0.028836
0.0340539
0.0370476
0.0382684
0.0381087
0.0369675
0.0351684
0.0329573
0.0305172
0.0279876
0.0254614
0.0230341
0.0207073
0.0186036
0.0164689
0.014693
0.0130429
0.011539
0.0101673
0.00895126
0.00783271
0.00683449
0.00588309
0.00500977
0.00415443
0.00336367
0.00257941
0.00185185
0.00110227
0.000392909
-0.26727
-0.268179
-0.26626
-0.264777
-0.263773
-0.262616
-0.260876
-0.259544
-0.258121
-0.256453
-0.254424
-0.251886
-0.248666
-0.244551
-0.239266
-0.232492
-0.223899
-0.213171
-0.200034
-0.184326
-0.166042
-0.145398
-0.122798
-0.0989622
-0.0749272
-0.0518659
-0.0308231
-0.012562
0.00250452
0.0143126
0.0230585
0.0291102
0.0329122
0.034894
0.0354052
0.0348186
0.0334731
0.0316319
0.0294893
0.0271952
0.0248555
0.0225663
0.0203561
0.0182741
0.0163244
0.0145022
0.0129009
0.0114228
0.0100739
0.00887311
0.00776746
0.00678037
0.00583993
0.00497695
0.00413069
0.00334782
0.00256945
0.00184639
0.00110013
0.000391171
-0.262454
-0.262535
-0.26124
-0.260358
-0.259439
-0.258299
-0.256958
-0.25508
-0.253559
-0.25197
-0.250084
-0.247707
-0.24469
-0.240862
-0.235964
-0.229699
-0.221757
-0.211829
-0.19964
-0.185009
-0.167903
-0.148509
-0.127252
-0.104694
-0.0817041
-0.0593487
-0.0386168
-0.0202794
-0.00481583
0.00761801
0.0171226
0.0239772
0.028566
0.0312992
0.0325183
0.0325304
0.0316675
0.0302143
0.0283827
0.0263358
0.0241919
0.0220514
0.0199557
0.0179639
0.0160594
0.0142507
0.0127302
0.0112911
0.00997167
0.00878737
0.00769557
0.00672003
0.00579112
0.00493887
0.00410241
0.00332832
0.00255652
0.00183917
0.00109668
0.000389716
-0.255241
-0.254964
-0.254814
-0.254448
-0.253682
-0.252937
-0.252112
-0.250853
-0.248777
-0.246928
-0.24506
-0.242776
-0.239918
-0.236332
-0.231769
-0.225956
-0.218616
-0.209465
-0.198236
-0.184738
-0.168913
-0.150897
-0.131056
-0.109943
-0.0882247
-0.0667919
-0.0465404
-0.0282374
-0.0124362
0.000602213
0.0108717
0.0185553
0.0239587
0.0274457
0.0293663
0.0300255
0.0297019
0.0286817
0.0271931
0.0254167
0.0234845
0.0215053
0.0195346
0.0176389
0.0158262
0.0141891
0.0125553
0.0111399
0.00986011
0.00869568
0.00761886
0.00665488
0.00573765
0.00489608
0.0040697
0.00330517
0.0025404
0.00183007
0.00109177
0.000388897
-0.245981
-0.24672
-0.246969
-0.246206
-0.245424
-0.244998
-0.244488
-0.243582
-0.242236
-0.240194
-0.238287
-0.236073
-0.233414
-0.230124
-0.225932
-0.220596
-0.213878
-0.205522
-0.19528
-0.182963
-0.168485
-0.151918
-0.133524
-0.113763
-0.0932633
-0.0728212
-0.0532219
-0.0351675
-0.0192487
-0.00581205
0.00504271
0.0134087
0.0195168
0.0236774
0.026204
0.0274059
0.0275799
0.0269873
0.0258541
0.024367
0.0226675
0.0208709
0.0190454
0.0172624
0.0155417
0.0139276
0.0123954
0.0109622
0.00972573
0.00858945
0.00753274
0.00658006
0.00567562
0.00484549
0.00403002
0.00327666
0.00251958
0.00181815
0.00108451
0.00038882
-0.235164
-0.24023
-0.240131
-0.238752
-0.237949
-0.237692
-0.237422
-0.23685
-0.235924
-0.234574
-0.23231
-0.229777
-0.227053
-0.223796
-0.219686
-0.214481
-0.207959
-0.199887
-0.19004
-0.178245
-0.16443
-0.148664
-0.131196
-0.112459
-0.093028
-0.0736014
-0.054903
-0.0375911
-0.0222022
-0.00907136
0.00168457
0.0101206
0.016423
0.0208575
0.0237168
0.0252712
0.0257805
0.0254896
0.0246203
0.0233572
0.0218448
0.0202011
0.018501
0.0168178
0.0151766
0.0136267
0.0121573
0.0108663
0.00958902
0.00845287
0.00742209
0.00648872
0.00560271
0.00478901
0.00398678
0.0032462
0.00249722
0.00180513
0.00107582
0.000388923
-0.223591
-0.231058
-0.231462
-0.229625
-0.228479
-0.228207
-0.228087
-0.227608
-0.226612
-0.225064
-0.223131
-0.220958
-0.218352
-0.215105
-0.211004
-0.205848
-0.199438
-0.191574
-0.182072
-0.170797
-0.157702
-0.142867
-0.12652
-0.109049
-0.0909586
-0.0728551
-0.0553752
-0.0390993
-0.0245027
-0.011902
-0.00143116
0.00692834
0.0133144
0.0179436
0.0210618
0.0229062
0.0237127
0.0237117
0.0231118
0.0220912
0.0207909
0.0193289
0.0177829
0.0162275
0.014693
0.0132304
0.0118374
0.0105635
0.00935621
0.00827783
0.00727645
0.0063693
0.00550491
0.00471034
0.00392535
0.0031996
0.00246362
0.0017825
0.00106241
0.000385159
-0.211477
-0.220138
-0.221255
-0.219444
-0.218134
-0.217866
-0.2179
-0.217589
-0.216734
-0.215396
-0.213691
-0.211597
-0.208981
-0.205701
-0.201601
-0.19651
-0.190254
-0.182663
-0.173589
-0.162928
-0.150651
-0.136835
-0.121681
-0.10552
-0.0887896
-0.0720101
-0.0557343
-0.0404761
-0.0266651
-0.0146045
-0.00444474
0.0038006
0.0102264
0.0150037
0.0183379
0.0204408
0.0215265
0.0218075
0.0214763
0.0207033
0.0196237
0.018355
0.0169752
0.0155607
0.0141452
0.0127815
0.011471
0.0102581
0.00911478
0.00807694
0.00710772
0.00622822
0.00538815
0.00461455
0.00384966
0.00314093
0.00242103
0.00175298
0.00104529
0.00037927
-0.199348
-0.208329
-0.210169
-0.20877
-0.207541
-0.207311
-0.207473
-0.207348
-0.206684
-0.205519
-0.203921
-0.201868
-0.199276
-0.196029
-0.191998
-0.187039
-0.181002
-0.173748
-0.165157
-0.155149
-0.143708
-0.130905
-0.116912
-0.102012
-0.0865834
-0.0710723
-0.0559568
-0.0416916
-0.0286641
-0.0171607
-0.00734098
0.000754907
0.0071843
0.0120772
0.0156034
0.0179484
0.0193022
0.0198574
0.0197911
0.0192645
0.0184068
0.0173339
0.016124
0.0148544
0.0135623
0.0123016
0.011078
0.00993484
0.00885063
0.00785612
0.00692384
0.00607439
0.00526089
0.00450997
0.00376674
0.00307647
0.00237399
0.00172032
0.00102649
0.000372531
-0.187026
-0.196115
-0.198634
-0.19779
-0.196785
-0.196626
-0.196889
-0.196926
-0.196436
-0.195409
-0.193901
-0.191924
-0.189409
-0.186256
-0.182352
-0.177576
-0.171807
-0.164928
-0.156845
-0.147499
-0.136882
-0.12506
-0.112181
-0.0984877
-0.0843029
-0.0700081
-0.0560146
-0.0427213
-0.0304757
-0.0195449
-0.0100932
-0.0021821
0.00421386
0.00918902
0.0128799
0.0154446
0.0170491
0.0178663
0.0180572
0.0177734
0.0171373
0.016262
0.015225
0.0141045
0.0129401
0.0117865
0.0106538
0.00958338
0.00856029
0.00761511
0.00672369
0.00590726
0.00512268
0.0043965
0.00367652
0.0030062
0.00232246
0.00168446
0.00100592
0.000364892
-0.17476
-0.183869
-0.18691
-0.186598
-0.18588
-0.185833
-0.186189
-0.186366
-0.186037
-0.185154
-0.183769
-0.181901
-0.179504
-0.176488
-0.172755
-0.168203
-0.162736
-0.15626
-0.148701
-0.140017
-0.130207
-0.119331
-0.107518
-0.0949735
-0.081971
-0.068835
-0.0559177
-0.0435671
-0.0320934
-0.021744
-0.0126837
-0.00499003
0.00133639
0.00635892
0.0101831
0.0129409
0.0147747
0.015838
0.0162761
0.0162293
0.0158128
0.0151359
0.0142746
0.013307
0.0122746
0.0112326
0.010195
0.00920182
0.00824422
0.00735273
0.00650542
0.00572503
0.00497186
0.00427262
0.00357769
0.002929
0.0022656
0.0016447
0.000983139
0.000356224
-0.162895
-0.171769
-0.175146
-0.175304
-0.174896
-0.174995
-0.175448
-0.175752
-0.175579
-0.174853
-0.173613
-0.171884
-0.169633
-0.166788
-0.163261
-0.158969
-0.153833
-0.147782
-0.140759
-0.132732
-0.123708
-0.11374
-0.102941
-0.091483
-0.0795966
-0.0675573
-0.0556659
-0.0442245
-0.0335088
-0.0237457
-0.0150969
-0.0076509
-0.00142912
0.00360519
0.00752987
0.0104519
0.0124918
0.0137834
0.0144561
0.0146385
0.0144378
0.0139583
0.0132741
0.0124623
0.0115656
0.0106395
0.0097009
0.00878988
0.00790182
0.00706766
0.0062678
0.00552657
0.00480745
0.00413747
0.00346956
0.00284428
0.00220296
0.0016007
0.000957959
0.000346572
-0.151415
-0.159892
-0.163478
-0.164041
-0.163934
-0.164192
-0.164748
-0.165168
-0.165143
-0.164579
-0.1635
-0.16193
-0.159849
-0.1572
-0.153909
-0.149905
-0.145126
-0.139515
-0.133032
-0.125654
-0.11739
-0.108291
-0.0984499
-0.0880144
-0.0771781
-0.0661737
-0.0552576
-0.0446907
-0.0347163
-0.025541
-0.0173202
-0.010149
-0.00406525
0.000945778
0.00493756
0.00799415
0.0102148
0.0117148
0.0126072
0.0130088
0.013018
0.0127336
0.0122264
0.011572
0.0108137
0.0100072
0.00917135
0.00834676
0.007532
0.00675879
0.00600986
0.00531102
0.00462873
0.00399046
0.00335165
0.00275165
0.00213426
0.00155226
0.000930258
0.000335988
-0.140306
-0.148355
-0.152052
-0.152938
-0.153098
-0.15351
-0.154163
-0.154689
-0.154801
-0.154396
-0.153484
-0.152087
-0.150196
-0.147763
-0.144729
-0.141035
-0.136629
-0.131469
-0.125524
-0.11878
-0.111249
-0.102974
-0.0940382
-0.0845637
-0.0747138
-0.0646845
-0.0546935
-0.044965
-0.0357126
-0.0271229
-0.0193428
-0.0124705
-0.00655578
-0.00160192
0.0024236
0.00558396
0.00795868
0.00964482
0.0107401
0.0113487
0.0115599
0.011466
0.0111342
0.0106379
0.0100199
0.00933582
0.008606
0.00787167
0.00713383
0.00642516
0.00573072
0.00507751
0.00443492
0.00383089
0.0032234
0.00265064
0.00205913
0.00149913
0.000899866
0.000324481
-0.129702
-0.137266
-0.140971
-0.142094
-0.142477
-0.143023
-0.143762
-0.144382
-0.144617
-0.144363
-0.143618
-0.142404
-0.140713
-0.138511
-0.135749
-0.132378
-0.128355
-0.123648
-0.118234
-0.112106
-0.105277
-0.0977847
-0.0897005
-0.0811277
-0.0722028
-0.0630905
-0.0539748
-0.0450478
-0.0364959
-0.0284863
-0.021156
-0.0146031
-0.0088858
-0.00402138
4.94342e-06
0.00323779
0.00573848
0.00758706
0.00886607
0.00966736
0.0100706
0.0101611
0.0100015
0.00966234
0.00918546
0.0086259
0.00800486
0.00736414
0.00670664
0.006066
0.00542956
0.00482518
0.00422525
0.00365804
0.0030842
0.00254073
0.00197718
0.00144103
0.000866577
0.000312028
-0.119655
-0.126666
-0.130293
-0.131583
-0.132142
-0.132799
-0.133609
-0.134306
-0.13465
-0.134535
-0.133955
-0.132923
-0.13144
-0.129477
-0.126994
-0.123951
-0.120314
-0.116055
-0.111161
-0.105627
-0.0994674
-0.0927157
-0.0854321
-0.0777038
-0.0696448
-0.0613931
-0.0531039
-0.044941
-0.0370662
-0.0296282
-0.0227531
-0.0165367
-0.011042
-0.00629726
-0.00230207
0.00097198
0.00356983
0.00555568
0.00699766
0.00797534
0.00855866
0.0088253
0.00883302
0.00864872
0.0083126
0.00787865
0.00736847
0.00682415
0.00625012
0.00568084
0.0051052
0.00455326
0.00399897
0.00347122
0.00293344
0.00242142
0.00188799
0.00137767
0.000830176
0.000298597
-0.110129
-0.116578
-0.120073
-0.121467
-0.12216
-0.122901
-0.123762
-0.12452
-0.124955
-0.124967
-0.124541
-0.12369
-0.122415
-0.120692
-0.118489
-0.115773
-0.112516
-0.108697
-0.104306
-0.0993418
-0.0938173
-0.0877631
-0.08123
-0.0742908
-0.0670409
-0.0595953
-0.0520847
-0.0446482
-0.0374254
-0.0305475
-0.0241296
-0.0182629
-0.013013
-0.00841554
-0.00448194
-0.00119741
0.00146845
0.00356541
0.00514806
0.00628402
0.00703349
0.00746629
0.00763464
0.00760132
0.00740429
0.00709599
0.00669792
0.00625214
0.00576427
0.00526928
0.00475806
0.00426119
0.00375544
0.00326978
0.00277058
0.00229222
0.00179116
0.00130881
0.000790456
0.000284144
-0.101135
-0.107034
-0.110357
-0.111802
-0.112585
-0.113383
-0.114277
-0.115076
-0.115586
-0.115709
-0.115425
-0.114744
-0.113671
-0.112184
-0.110257
-0.107861
-0.104974
-0.10158
-0.0976717
-0.093249
-0.0883246
-0.082925
-0.077093
-0.0708895
-0.0643938
-0.0577018
-0.0509229
-0.0441748
-0.0375774
-0.0312456
-0.0252832
-0.0197758
-0.0147891
-0.0103639
-0.00652033
-0.003255
-0.000550093
0.00163123
0.00333106
0.00460565
0.00550559
0.00609268
0.00641322
0.00652539
0.00646438
0.00628059
0.00599496
0.00564908
0.00524952
0.00483132
0.00438742
0.00394855
0.00349415
0.00305321
0.00259511
0.00215273
0.00168634
0.00123421
0.000747228
0.000268624
-0.0927
-0.0980534
-0.10117
-0.10262
-0.103459
-0.104289
-0.105197
-0.106021
-0.106587
-0.106804
-0.10665
-0.10613
-0.105243
-0.10398
-0.102318
-0.100232
-0.0977006
-0.0947128
-0.0912622
-0.0873507
-0.0829896
-0.0782015
-0.0730223
-0.0675027
-0.0617084
-0.055719
-0.0496258
-0.0435279
-0.037528
-0.0317257
-0.0262139
-0.0210717
-0.0163632
-0.0121318
-0.00840441
-0.00518644
-0.0024708
-0.00023197
0.0015608
0.0029531
0.00398625
0.00471403
0.00517662
0.00542717
0.00549766
0.00543593
0.00526202
0.00501655
0.00470671
0.00436744
0.00399333
0.00361505
0.00321476
0.0028211
0.00240662
0.00200259
0.0015732
0.00115365
0.000700332
0.000251989
-0.0848099
-0.0896308
-0.0925204
-0.0939434
-0.0948085
-0.0956504
-0.0965558
-0.0973882
-0.0979938
-0.0982871
-0.0982445
-0.0978685
-0.097159
-0.0961072
-0.094695
-0.0929011
-0.0907076
-0.0881032
-0.0850834
-0.0816507
-0.077815
-0.0735953
-0.0690214
-0.0641353
-0.0589912
-0.0536549
-0.0482023
-0.0427166
-0.0372849
-0.0319933
-0.0269242
-0.0221495
-0.0177303
-0.0137112
-0.0101232
-0.00697881
-0.00427958
-0.00200976
-0.000148643
0.00133957
0.00248738
0.00334072
0.00393357
0.00431379
0.0045098
0.00456639
0.00450229
0.0043568
0.00413734
0.00387847
0.00357618
0.0032608
0.00291713
0.00257324
0.00220483
0.00184156
0.0014515
0.00106699
0.000649648
0.000234197
-0.0774429
-0.0817605
-0.0844164
-0.0857876
-0.0866554
-0.0874915
-0.0883801
-0.0892066
-0.0898355
-0.0901881
-0.0902403
-0.0899923
-0.0894442
-0.0885884
-0.0874088
-0.085887
-0.0840076
-0.0817605
-0.079142
-0.0761539
-0.0728049
-0.0691106
-0.0650955
-0.060794
-0.0562505
-0.0515192
-0.0466631
-0.0417514
-0.0368579
-0.0320564
-0.027419
-0.0230106
-0.0188884
-0.0150963
-0.011668
-0.00862097
-0.00596369
-0.00368853
-0.00178354
-0.000221711
0.00102125
0.00198376
0.0026936
0.00319322
0.00350726
0.0036771
0.00371977
0.00367277
0.00354358
0.00336585
0.00313679
0.00288623
0.00260142
0.00230963
0.00198963
0.0016695
0.00132109
0.000974118
0.000595099
0.000215212
-0.0705887
-0.0744352
-0.0768561
-0.0781575
-0.0790095
-0.0798256
-0.0806861
-0.0814948
-0.082133
-0.0825294
-0.0826599
-0.0825233
-0.0821191
-0.081441
-0.0804741
-0.0792021
-0.0776118
-0.0756942
-0.0734454
-0.0708668
-0.0679652
-0.0647535
-0.0612516
-0.057487
-0.0534962
-0.0493234
-0.0450206
-0.040645
-0.0362588
-0.0319247
-0.0277056
-0.023659
-0.0198378
-0.016284
-0.0130324
-0.0101038
-0.007512
-0.00525587
-0.0033309
-0.00171784
-0.000399805
0.000654506
0.00146687
0.00207429
0.00249739
0.00277396
0.0029191
0.00296809
0.00292811
0.00283152
0.00267654
0.00249227
0.00226815
0.00203053
0.00176111
0.00148643
0.00118195
0.000874998
0.00053666
0.000195015
-0.064233
-0.0676399
-0.0698295
-0.0710495
-0.0718722
-0.0726581
-0.0734819
-0.0742634
-0.0748993
-0.0753255
-0.0755189
-0.0754766
-0.075198
-0.0746777
-0.073902
-0.0728565
-0.0715292
-0.0699121
-0.0680008
-0.065796
-0.0633028
-0.0605315
-0.0574981
-0.0542244
-0.0507399
-0.0470804
-0.0432885
-0.0394115
-0.0355012
-0.0316105
-0.0277938
-0.0241015
-0.0205818
-0.017274
-0.0142127
-0.0114207
-0.00891538
-0.00670092
-0.00477884
-0.00313652
-0.00176373
-0.000635665
0.000263796
0.0009663
0.00148839
0.00186392
0.00210582
0.00224701
0.00229415
0.00227795
0.00219731
0.0020803
0.00191823
0.00173652
0.0015196
0.00129256
0.00103417
0.000769683
0.000474364
0.000173601
-0.0583527
-0.0613546
-0.063322
-0.0644544
-0.0652388
-0.0659873
-0.0667686
-0.0675158
-0.0681401
-0.0685842
-0.0688262
-0.0688624
-0.0686912
-0.0683087
-0.0677017
-0.0668582
-0.0657674
-0.0644211
-0.0628148
-0.0609482
-0.058825
-0.056453
-0.0538447
-0.0510173
-0.0479943
-0.0448044
-0.0414823
-0.0380666
-0.0346004
-0.0311279
-0.0276956
-0.0243474
-0.0211263
-0.0180686
-0.0152079
-0.0125673
-0.0101669
-0.00801465
-0.00611686
-0.00446647
-0.00305897
-0.00187546
-0.000905079
-0.000121304
0.000488533
0.000954374
0.00128649
0.001515
0.00164589
0.00170824
0.00170137
0.00165196
0.00155285
0.00142848
0.00126572
0.0010883
0.000878035
0.000658335
0.00040831
0.000150992
-0.0529258
-0.0555586
-0.0573163
-0.058359
-0.0590992
-0.0598058
-0.0605408
-0.0612492
-0.0618544
-0.0623063
-0.0625847
-0.0626854
-0.0626061
-0.0623394
-0.0618791
-0.0612141
-0.0603333
-0.0592282
-0.0578945
-0.056331
-0.0545399
-0.0525271
-0.050302
-0.047878
-0.0452734
-0.0425109
-0.0396185
-0.0366275
-0.0335734
-0.0304928
-0.0274252
-0.0244082
-0.02148
-0.0186732
-0.0160196
-0.0135421
-0.0112622
-0.00919021
-0.00733624
-0.0056977
-0.0042749
-0.0030541
-0.00202916
-0.00117849
-0.000493317
5.25828e-05
0.00046721
0.000777791
0.000988615
0.00112662
0.00119179
0.0012095
0.00117373
0.00110767
0.00100037
0.000874288
0.000713988
0.000541238
0.000338667
0.000127232
-0.0479317
-0.0502302
-0.0517923
-0.0527461
-0.0534391
-0.0541014
-0.0547885
-0.0554549
-0.0560354
-0.0564863
-0.0567892
-0.0569394
-0.0569349
-0.0567702
-0.0564377
-0.0559275
-0.0552298
-0.054337
-0.0532446
-0.0519505
-0.0504555
-0.0487634
-0.0468814
-0.0448195
-0.0425919
-0.0402161
-0.0377146
-0.0351123
-0.0324384
-0.0297228
-0.0269987
-0.024298
-0.021654
-0.0190958
-0.0166527
-0.0143466
-0.0121995
-0.0102231
-0.00843029
-0.00682188
-0.00540213
-0.0041617
-0.0030986
-0.00219553
-0.00144746
-0.000832287
-0.000344618
4.04884e-05
0.000326289
0.000537296
0.000672725
0.000756192
0.000783218
0.000775844
0.000724875
0.000651485
0.000542715
0.000418836
0.000265697
0.000102387
-0.0433487
-0.0453462
-0.0467282
-0.0475961
-0.0482411
-0.0488586
-0.0494975
-0.0501206
-0.0506729
-0.0511163
-0.0514344
-0.0516224
-0.0516782
-0.0515986
-0.0513752
-0.0509975
-0.0504575
-0.0497498
-0.0488691
-0.0478122
-0.0465789
-0.045171
-0.043594
-0.0418551
-0.0399651
-0.0379372
-0.035789
-0.0335404
-0.0312149
-0.0288369
-0.0264339
-0.0240325
-0.0216617
-0.0193467
-0.0171143
-0.0149847
-0.0129795
-0.0111113
-0.0093946
-0.00783266
-0.00643288
-0.00518949
-0.0041042
-0.00316363
-0.00236585
-0.001692
-0.00113972
-0.000687827
-0.000334384
-5.60442e-05
0.0001467
0.000294823
0.000383925
0.000435098
0.000440873
0.000421145
0.000365151
0.000291771
0.000189802
7.66125e-05
-0.0391547
-0.0408833
-0.042101
-0.0428878
-0.0434856
-0.0440591
-0.044651
-0.0452309
-0.0457526
-0.0461839
-0.0465101
-0.046727
-0.0468317
-0.0468183
-0.046683
-0.046418
-0.0460159
-0.0454689
-0.0447719
-0.0439219
-0.0429175
-0.0417596
-0.0404515
-0.0389985
-0.0374086
-0.0356916
-0.0338608
-0.0319318
-0.0299235
-0.0278554
-0.0257502
-0.0236297
-0.0215188
-0.019439
-0.0174143
-0.0154631
-0.013606
-0.0118556
-0.0102271
-0.00872573
-0.00736106
-0.00613025
-0.00503784
-0.00407386
-0.00323982
-0.00252007
-0.00191364
-0.00140167
-0.000984975
-0.000643924
-0.000379148
-0.000170488
-2.12225e-05
8.77476e-05
0.000150087
0.000184531
0.000182196
0.000160624
0.000111313
4.99263e-05
-0.0353296
-0.0368195
-0.037889
-0.0386002
-0.0391528
-0.0396841
-0.040231
-0.0407688
-0.0412591
-0.0416746
-0.0420023
-0.0422381
-0.0423792
-0.0424216
-0.0423613
-0.0421916
-0.0419041
-0.0414923
-0.0409527
-0.0402814
-0.0394762
-0.0385365
-0.0374641
-0.0362624
-0.0349373
-0.0334962
-0.0319489
-0.0303068
-0.0285852
-0.0267994
-0.0249682
-0.023109
-0.0212429
-0.0193879
-0.0175654
-0.0157914
-0.0140853
-0.0124591
-0.0109283
-0.00949907
-0.00818256
-0.00697808
-0.00589265
-0.00491898
-0.00406077
-0.00330574
-0.00265663
-0.00209692
-0.00162605
-0.00122605
-0.000901277
-0.000634084
-0.000427181
-0.000261937
-0.000143839
-5.54718e-05
-3.99698e-06
2.68701e-05
3.11579e-05
2.29719e-05
-0.0318527
-0.0331319
-0.0340687
-0.0347107
-0.0352208
-0.0357126
-0.0362172
-0.0367149
-0.037174
-0.0375716
-0.0378967
-0.0381454
-0.0383152
-0.0384022
-0.0383999
-0.0383058
-0.038115
-0.0378203
-0.0374153
-0.0368965
-0.036262
-0.0355107
-0.0346428
-0.0336601
-0.0325669
-0.0313684
-0.0300719
-0.0286858
-0.0272216
-0.0256913
-0.0241099
-0.0224916
-0.0208538
-0.0192113
-0.0175829
-0.0159823
-0.0144273
-0.0129288
-0.0115022
-0.010154
-0.00889635
-0.00773003
-0.0066638
-0.00569271
-0.00482304
-0.00404425
-0.00335978
-0.00275691
-0.00224157
-0.00179669
-0.00141937
-0.00109758
-0.000833624