/*--------------------------------*- C++ -*----------------------------------*\
| =========                 |                                                 |
| \\      /  F ield         | OpenFOAM: The Open Source CFD Toolbox           |
|  \\    /   O peration     | Version:  2512                                  |
|   \\  /    A nd           | Website:  www.openfoam.com                      |
|    \\/     M anipulation  |                                                 |
\*---------------------------------------------------------------------------*/
FoamFile
{
    version     2.0;
    format      ascii;
    arch        "LSB;label=32;scalar=64";
    class       volVectorField;
    location    "26";
    object      U;
}
// * * * * * * * * * * * * * * * * * * * * * * * * * * * * * * * * * * * * * //

dimensions      [0 1 -1 0 0 0 0];

internalField   nonuniform List<vector> 
13248
(
(-0.0129324 0.0120186 6.34948e-20)
(-0.0248859 0.0258812 0)
(-0.0236879 0.0335404 -1.19984e-19)
(-0.0102285 0.0369457 1.13027e-19)
(0.0148747 0.0376911 1.0587e-19)
(0.0511778 0.0370545 0)
(0.0983013 0.0360198 0)
(0.155814 0.0353326 2.55724e-19)
(0.223095 0.035539 -1.08484e-21)
(0.299196 0.037004 -2.23721e-19)
(0.382753 0.0399184 2.07938e-19)
(0.471959 0.0443036 -1.30021e-19)
(0.564607 0.0500225 0)
(0.658212 0.0567983 -2.24583e-19)
(0.750169 0.064245 4.19827e-19)
(0.837941 0.0719062 -9.93839e-20)
(0.919236 0.0793036 -1.79944e-19)
(0.992163 0.0859603 1.68921e-19)
(1.05536 0.0915336 0)
(1.10799 0.0954856 0)
(1.15011 0.0982861 0)
(1.18118 0.0977658 0)
(1.20455 0.0990283 5.40694e-20)
(1.21626 0.0894503 2.00979e-19)
(-0.0127191 0.0105089 -1.91832e-19)
(-0.020894 0.0211336 1.30783e-19)
(-0.0127172 0.026292 -1.16254e-21)
(0.0105449 0.0280789 -1.72823e-19)
(0.0480476 0.0281905 -1.05756e-19)
(0.0991016 0.0279734 -1.00059e-19)
(0.162931 0.0284234 -1.83901e-19)
(0.238475 0.0302392 1.73889e-19)
(0.32421 0.0338511 0)
(0.418043 0.039429 6.97343e-22)
(0.51731 0.0468911 1.48594e-21)
(0.618903 0.0559258 1.30031e-19)
(0.71949 0.0660344 0)
(0.815785 0.0765925 0)
(0.904823 0.0869243 1.54295e-19)
(0.984195 0.0963789 -2.89792e-19)
(1.05222 0.104399 1.75426e-19)
(1.10802 0.110569 -1.6469e-19)
(1.15152 0.114652 -7.37293e-20)
(1.18346 0.116559 -1.36103e-19)
(1.20491 0.1165 -5.86091e-20)
(1.21798 0.114228 -1.10724e-19)
(1.22373 0.111852 1.59731e-19)
(1.22487 0.104624 4.70234e-20)
(-0.0116311 0.00867733 0)
(-0.013749 0.0157752 0)
(0.00416703 0.0186614 6.11393e-20)
(0.0403094 0.0194627 5.63099e-20)
(0.0934021 0.0199148 -1.37349e-21)
(0.162203 0.0213814 -1.03295e-19)
(0.245093 0.0247843 0)
(0.339832 0.0306366 -8.64804e-20)
(0.44343 0.0390664 8.13479e-20)
(0.552192 0.0498361 5.83554e-22)
(0.661955 0.0623886 -1.39414e-19)
(0.768455 0.0759309 -1.28346e-19)
(0.867741 0.0895469 1.82738e-21)
(0.956554 0.102321 -1.07711e-19)
(1.03259 0.113455 2.57178e-19)
(1.09467 0.122352 0)
(1.14268 0.128674 -1.70462e-19)
(1.1775 0.132336 8.22833e-20)
(1.20078 0.133509 7.36616e-20)
(1.21457 0.132463 0)
(1.22119 0.129819 6.17219e-20)
(1.22273 0.125507 -2.17075e-19)
(1.22087 0.121617 2.03776e-19)
(1.21844 0.114187 1.33298e-19)
(-0.009302 0.00651197 -6.79855e-20)
(-0.00251626 0.00995987 -7.03024e-20)
(0.0283053 0.0111149 6.34938e-20)
(0.0805903 0.0119471 0)
(0.152291 0.0141043 0)
(0.241113 0.0188355 -2.21738e-21)
(0.343978 0.0267992 0)
(0.456844 0.0380798 -2.64317e-19)
(0.574809 0.0522396 2.45772e-19)
(0.692492 0.0684079 -3.03801e-19)
(0.804602 0.0854275 6.97715e-20)
(0.906528 0.102042 0)
(0.994829 0.117087 1.17477e-19)
(1.06751 0.129648 -2.18171e-19)
(1.12406 0.139156 5.17819e-20)
(1.16534 0.145417 1.35603e-19)
(1.19318 0.148571 -4.61008e-21)
(1.21007 0.149014 -1.52426e-19)
(1.21869 0.147287 0)
(1.22157 0.143956 0)
(1.2208 0.13963 -5.65105e-20)
(1.21795 0.134455 5.13488e-20)
(1.21416 0.129894 1.8818e-19)
(1.21023 0.122721 -1.76639e-19)
(-0.00533107 0.00407141 -7.17935e-20)
(0.0137396 0.00401752 -7.14297e-20)
(0.0608757 0.00435098 2.00882e-19)
(0.13243 0.00662189 -1.2173e-19)
(0.225074 0.012173 1.14583e-19)
(0.334792 0.0218934 2.08095e-19)
(0.456367 0.0358734 -1.47136e-19)
(0.583506 0.0534471 -1.79422e-19)
(0.709408 0.0733585 3.22428e-21)
(0.827587 0.0940046 2.29932e-19)
(0.932701 0.113727 0)
(1.02115 0.131088 6.40151e-20)
(1.09135 0.145077 0)
(1.14357 0.155194 -1.05819e-19)
(1.17962 0.16144 1.4885e-19)
(1.20226 0.164201 1.25839e-21)
(1.21463 0.164107 -3.98651e-20)
(1.21977 0.16187 7.50587e-20)
(1.22026 0.158162 6.56213e-20)
(1.21802 0.153531 -5.95087e-20)
(1.21437 0.148413 5.64975e-20)
(1.21011 0.142933 -5.13366e-20)
(1.20558 0.137952 0)
(1.20149 0.131068 -4.01826e-20)
(0.000679292 0.00150929 7.17832e-20)
(0.0358439 -0.001495 7.54171e-20)
(0.102701 -0.000651141 -6.73222e-20)
(0.196107 0.00482099 1.2538e-19)
(0.310783 0.0156223 -1.18013e-19)
(0.440269 0.0319059 1.06734e-19)
(0.576725 0.0528031 -5.12683e-20)
(0.711675 0.0766027 1.34713e-19)
(0.837169 0.101147 -8.48476e-20)
(0.946925 0.124278 1.51291e-19)
(1.03709 0.144227 -3.50049e-19)
(1.10642 0.159871 1.29095e-19)
(1.15601 0.170797 -1.14091e-19)
(1.18855 0.177218 1.07163e-19)
(1.20763 0.179777 9.38428e-20)
(1.21692 0.179323 8.3364e-20)
(1.21971 0.176718 -2.32453e-19)
(1.21856 0.172701 1.44613e-19)
(1.21526 0.167834 -6.56239e-20)
(1.21094 0.162499 1.73859e-19)
(1.20625 0.156945 -5.59621e-20)
(1.2015 0.15126 -1.40204e-19)
(1.19685 0.145911 1.30011e-19)
(1.19257 0.139257 4.0169e-20)
(0.00908332 -0.000917702 0)
(0.0643869 -0.00579219 6.74296e-22)
(0.154045 -0.00267156 1.41075e-19)
(0.27088 0.00800172 -1.32277e-19)
(0.406939 0.0258145 -1.19211e-19)
(0.552765 0.0497105 2.21634e-19)
(0.697953 0.0775029 -1.02961e-19)
(0.83269 0.106345 1.37648e-19)
(0.949363 0.133417 -2.70645e-21)
(1.04356 0.156497 -7.83509e-20)
(1.11425 0.174279 1.72227e-19)
(1.16318 0.186414 -2.54938e-19)
(1.19392 0.193327 0)
(1.21081 0.19592 -5.07747e-20)
(1.21805 0.195265 -1.36719e-19)
(1.21914 0.192372 4.293e-20)
(1.21671 0.188057 1.40107e-21)
(1.21247 0.182907 -9.74304e-20)
(1.20748 0.177306 4.85998e-21)
(1.2023 0.171487 1.13265e-19)
(1.19722 0.165584 -5.14017e-20)
(1.19233 0.159676 -2.03579e-20)
(1.18763 0.153952 6.11917e-20)
(1.18326 0.14745 0)
(0.0201455 -0.00285594 0)
(0.0995936 -0.00790389 3.82916e-20)
(0.214426 -0.000362857 -1.84471e-19)
(0.354845 0.0175403 6.70178e-20)
(0.509629 0.0437003 -6.30753e-20)
(0.666286 0.0753966 -5.77605e-20)
(0.812686 0.108984 -1.02219e-19)
(0.939282 0.140751 5.08988e-20)
(1.04058 0.167791 4.43468e-20)
(1.11538 0.188462 0)
(1.16594 0.202402 1.02584e-19)
(1.19663 0.210228 -1.53562e-19)
(1.21257 0.213113 1.14384e-19)
(1.21854 0.212378 5.08005e-20)
(1.21839 0.209216 -4.22788e-20)
(1.21487 0.204551 -3.59012e-20)
(1.20976 0.199027 -3.38057e-20)
(1.20409 0.19305 9.99772e-20)
(1.19838 0.186862 0)
(1.19288 0.180597 5.16509e-20)
(1.18768 0.174335 4.45247e-20)
(1.18276 0.16813 -1.09318e-19)
(1.17808 0.16201 -7.6749e-20)
(1.17365 0.155588 7.08359e-20)
(0.0339904 -0.00387559 -4.16079e-20)
(0.141207 -0.00676181 -1.68027e-21)
(0.282505 0.00758029 3.75868e-20)
(0.444972 0.0344932 1.05157e-19)
(0.613945 0.0695992 3.06565e-20)
(0.774615 0.108263 -5.92518e-20)
(0.914753 0.14563 5.40561e-20)
(1.02698 0.177758 -4.74906e-20)
(1.10932 0.202382 8.55665e-20)
(1.16424 0.218968 3.66793e-20)
(1.19685 0.228279 -1.04165e-19)
(1.21312 0.231778 3.08296e-20)
(1.21857 0.231091 5.30892e-20)
(1.21754 0.227654 -2.60504e-20)
(1.21309 0.222557 0)
(1.20712 0.216539 3.95595e-20)
(1.2007 0.210053 6.76792e-20)
(1.19438 0.203361 1.21239e-20)
(1.18838 0.196607 -5.69024e-20)
(1.18277 0.189869 2.41148e-20)
(1.17754 0.183196 0)
(1.17264 0.176612 -1.93658e-20)
(1.16798 0.170086 -1.86473e-20)
(1.16352 0.163636 0)
(0.0505501 -0.00350348 0)
(0.188404 -0.00131403 2.18342e-20)
(0.356089 0.0222354 4.03679e-20)
(0.537375 0.0594034 -1.07468e-19)
(0.714672 0.10313 3.47877e-20)
(0.872372 0.147006 0)
(1.00015 0.185628 5.24813e-20)
(1.09435 0.215652 -7.33446e-20)
(1.15709 0.236072 -4.28104e-20)
(1.19408 0.247683 1.93669e-20)
(1.21223 0.252255 -3.13741e-20)
(1.21801 0.251799 7.59787e-20)
(1.21652 0.248087 3.83752e-20)
(1.21129 0.242454 -2.65037e-20)
(1.20447 0.235786 -2.30691e-21)
(1.19726 0.22862 -7.39922e-20)
(1.19024 0.221254 3.3802e-20)
(1.18364 0.213848 -9.02175e-22)
(1.17755 0.206485 0)
(1.17194 0.199214 -2.41401e-20)
(1.16676 0.192065 0)
(1.16191 0.185031 5.59345e-20)
(1.15732 0.178097 -6.70562e-20)
(1.15287 0.171505 3.07452e-20)
(0.0695214 -0.00126366 -1.14675e-20)
(0.239769 0.00935792 -5.51023e-20)
(0.432258 0.0442989 6.27699e-20)
(0.627756 0.0922063 3.68513e-20)
(0.807036 0.143302 -1.75576e-20)
(0.955714 0.19002 2.96613e-20)
(1.06716 0.227338 -1.43643e-20)
(1.14226 0.253275 2.40184e-20)
(1.1869 0.268404 0)
(1.20905 0.274775 5.48264e-20)
(1.21637 0.274874 -2.17206e-21)
(1.215 0.270941 -4.44295e-20)
(1.20919 0.264666 1.91136e-20)
(1.20156 0.257171 -2.17038e-20)
(1.1935 0.249119 -8.36371e-21)
(1.18571 0.240874 9.57905e-21)
(1.17845 0.232623 -7.45651e-21)
(1.1718 0.224458 -4.09344e-20)
(1.16574 0.21643 2.51015e-20)
(1.16022 0.208569 5.19206e-21)
(1.15514 0.200883 4.61512e-21)
(1.15042 0.193351 4.10782e-21)
(1.14593 0.18602 0)
(1.14152 0.179154 0)
(0.0904165 0.00328863 1.14754e-20)
(0.293481 0.0259476 -1.14552e-20)
(0.507781 0.0739858 -2.0933e-20)
(0.712056 0.132241 0)
(0.887351 0.188714 -8.73796e-21)
(1.02255 0.235692 -7.91115e-21)
(1.11587 0.26949 -1.35522e-20)
(1.1727 0.289982 0)
(1.20186 0.299338 0)
(1.21249 0.300595 0)
(1.21214 0.296625 0)
(1.20615 0.289643 0)
(1.19781 0.281125 -1.20133e-20)
(1.18891 0.271947 5.47448e-21)
(1.1803 0.262575 9.58037e-21)
(1.17232 0.253242 4.49625e-21)
(1.16506 0.244057 1.11827e-20)
(1.1585 0.235072 0)
(1.1526 0.226317 -2.72681e-21)
(1.14726 0.217806 -2.64026e-21)
(1.1424 0.20953 -4.62248e-21)
(1.13788 0.20147 -4.1144e-21)
(1.13358 0.193748 0)
(1.12934 0.186477 3.02863e-21)
(-0.00135242 0.00332019 6.6992e-21)
(-0.00641462 0.00718921 -6.95926e-21)
(-0.0154814 0.00913157 -1.31865e-20)
(-0.0266099 0.00976264 0)
(-0.038729 0.00952474 -1.76568e-20)
(-0.0512952 0.00873019 5.53585e-21)
(-0.0639351 0.0075902 -1.04887e-20)
(-0.0763941 0.00623554 0)
(-0.0885171 0.00473681 0)
(-0.100216 0.00312448 0)
(-0.111447 0.00140561 0)
(-0.122189 -0.0004236 0)
(-0.132439 -0.00236943 -1.27049e-23)
(-0.142198 -0.00443543 -6.90435e-21)
(-0.151473 -0.00661949 1.30613e-20)
(-0.160273 -0.00891198 1.84305e-20)
(-0.168609 -0.0112944 5.81052e-21)
(-0.176503 -0.0137383 0)
(-0.183989 -0.0162048 5.10733e-21)
(-0.191128 -0.0186448 -1.44192e-20)
(-0.198003 -0.0210002 -9.04573e-21)
(-0.204711 -0.0232049 -8.49952e-21)
(-0.211455 -0.0251728 0)
(-0.21868 -0.0268159 0)
(-0.00185741 0.00701162 -2.01736e-20)
(-0.00740337 0.0159307 3.4798e-20)
(-0.0164794 0.0212398 -1.31778e-20)
(-0.0273293 0.0240514 -2.5011e-20)
(-0.0389818 0.0251421 3.53167e-20)
(-0.0509443 0.0250656 -2.22968e-20)
(-0.0628739 0.0242176 3.14578e-20)
(-0.0745331 0.0228665 1.98864e-20)
(-0.0857744 0.0211828 0)
(-0.0965113 0.0192669 -1.76121e-20)
(-0.106697 0.0171724 -9.84743e-23)
(-0.116307 0.0149244 1.55533e-20)
(-0.125332 0.0125333 2.21594e-20)
(-0.133766 0.0100045 2.7829e-20)
(-0.141608 0.00734555 -1.29788e-20)
(-0.148854 0.0045718 -3.68892e-20)
(-0.155502 0.00171171 1.16519e-20)
(-0.161553 -0.00118789 -4.36789e-20)
(-0.167022 -0.00405696 0)
(-0.171943 -0.00679867 9.61173e-21)
(-0.176366 -0.00928974 9.03354e-21)
(-0.180321 -0.0113808 8.48789e-21)
(-0.183936 -0.0128673 0)
(-0.187957 -0.0135378 0)
(-0.00272163 0.0102965 0)
(-0.00910116 0.0238104 7.03833e-20)
(-0.018158 0.0322612 -2.65394e-20)
(-0.0284586 0.0371525 2.50937e-20)
(-0.0392035 0.0395373 -7.12451e-20)
(-0.0499876 0.0401783 0)
(-0.0605221 0.0396363 -4.23317e-20)
(-0.0706011 0.038307 1.99483e-20)
(-0.0800918 0.0364556 -3.77506e-20)
(-0.0889113 0.0342506 1.79265e-20)
(-0.0970093 0.0317917 1.00507e-19)
(-0.104355 0.0291332 -4.7216e-20)
(-0.110926 0.0263018 -7.42503e-20)
(-0.116708 0.02331 -2.8229e-20)
(-0.121682 0.0201665 -1.34816e-22)
(-0.12583 0.0168852 9.91634e-20)
(-0.129126 0.0134934 -4.66089e-20)
(-0.131543 0.0100415 -1.51337e-22)
(-0.133054 0.00661481 0)
(-0.133649 0.0033454 -3.88469e-20)
(-0.13333 0.000421871 0)
(-0.13201 -0.00189544 -3.40006e-20)
(-0.129569 -0.00323388 1.27894e-19)
(-0.127099 -0.0031785 1.32044e-22)
(-0.00385246 0.0129674 0)
(-0.0113483 0.0303597 3.05755e-22)
(-0.0203836 0.0415708 2.69764e-20)
(-0.0299286 0.0483476 -2.55191e-20)
(-0.0394033 0.0519377 2.37083e-20)
(-0.0485173 0.0532661 1.35647e-19)
(-0.0570559 0.0530288 -4.25316e-20)
(-0.0648594 0.0517313 -4.03269e-20)
(-0.0718185 0.0497243 7.57435e-20)
(-0.0778591 0.0472397 -1.0708e-19)
(-0.0829294 0.0444227 3.36814e-20)
(-0.0869909 0.0413576 3.18359e-20)
(-0.0900118 0.0380885 0)
(-0.0919628 0.0346354 2.80494e-20)
(-0.0928129 0.0310069 0)
(-0.0925279 0.0272097 5.00693e-20)
(-0.091067 0.0232589 -9.39597e-20)
(-0.0883806 0.0191886 2.19068e-20)
(-0.0844098 0.0150673 8.28975e-20)
(-0.0791032 0.0110187 3.88077e-20)
(-0.0724291 0.00725457 0)
(-0.0642284 0.0041386 -1.02353e-19)
(-0.053969 0.00230457 3.20782e-20)
(-0.0424299 0.00261146 0)
(-0.00513717 0.0149047 0)
(-0.0139442 0.0352742 -8.59558e-20)
(-0.0229814 0.0487229 -2.73497e-20)
(-0.0316388 0.0570856 -5.12267e-20)
(-0.0395723 0.0617169 4.82361e-20)
(-0.0466214 0.0636506 -4.53305e-20)
(-0.0526603 0.063683 8.59582e-20)
(-0.0575875 0.0624063 4.05009e-20)
(-0.0613266 0.060243 -1.14203e-19)
(-0.0638178 0.057482 7.20145e-20)
(-0.0650109 0.0543115 -1.01551e-19)
(-0.0648606 0.0508465 2.23917e-19)
(-0.0633234 0.0471514 -1.20157e-19)
(-0.0603551 0.0432581 5.68154e-20)
(-0.0559102 0.0391789 1.60273e-19)
(-0.0499399 0.0349169 -4.98502e-20)
(-0.0423916 0.0304749 -4.71866e-20)
(-0.033206 0.0258646 -4.42311e-20)
(-0.0223144 0.0211178 0)
(-0.00964589 0.0163041 -7.80348e-20)
(0.00483515 0.0115683 -7.28442e-20)
(0.0212397 0.00724754 1.02894e-19)
(0.0403786 0.00420439 1.27368e-19)
(0.0629094 0.00408459 -1.19988e-19)
(-0.00646666 0.0160859 0)
(-0.0166807 0.0384365 -1.16531e-19)
(-0.0257517 0.0534838 -4.23668e-22)
(-0.0334442 0.0630218 1.03349e-19)
(-0.0396377 0.0684364 0)
(-0.0443034 0.0708202 0)
(-0.047411 0.0710339 0)
(-0.0489246 0.0697314 -4.07138e-20)
(-0.0488059 0.0673906 -1.61186e-22)
(-0.0470128 0.0643476 7.2309e-20)
(-0.0434966 0.0608287 -1.02169e-19)
(-0.0382024 0.0569794 -1.07847e-22)
(-0.0310694 0.0528873 0)
(-0.0220322 0.0486013 -5.67894e-20)
(-0.0110223 0.0441458 5.38122e-20)
(0.0020304 0.0395312 -1.51187e-19)
(0.0171951 0.0347621 1.89486e-19)
(0.0345388 0.0298439 4.45666e-20)
(0.054124 0.0247876 -1.72404e-22)
(0.0760054 0.0196174 -1.56654e-19)
(0.10019 0.0143825 -7.32006e-20)
(0.126686 0.00924287 2.38895e-19)
(0.155898 0.00496895 -1.59747e-19)
(0.192558 0.00400768 0)
(-0.00775613 0.0165766 5.73843e-20)
(-0.0193711 0.0399075 5.84233e-20)
(-0.0284791 0.0558337 -5.57803e-20)
(-0.0351333 0.0660339 -1.04528e-19)
(-0.0394019 0.0718746 9.84225e-20)
(-0.0413783 0.0744699 -9.27082e-20)
(-0.0411241 0.0747135 1.31006e-19)
(-0.0386671 0.0732971 -4.0718e-20)
(-0.0340057 0.0707364 7.72746e-20)
(-0.0271107 0.0674029 0)
(-0.0179288 0.0635549 6.88233e-20)
(-0.00638701 0.0593659 -1.29115e-19)
(0.00760212 0.0549481 1.21523e-19)
(0.024135 0.0503718 -1.14139e-19)
(0.0433101 0.045681 0)
(0.0652215 0.0409039 1.00951e-19)
(0.0899506 0.0360618 1.89812e-19)
(0.117557 0.0311745 -1.78171e-19)
(0.14807 0.0262653 -8.34241e-20)
(0.181487 0.0213643 -7.80508e-20)
(0.217676 0.0164968 2.1971e-19)
(0.256901 0.0117494 6.76535e-20)
(0.296671 0.00717256 -6.39626e-20)
(0.35238 0.0063826 5.85408e-20)
(-0.00895639 0.016505 -5.73922e-20)
(-0.0218619 0.0398849 1.79025e-19)
(-0.0309251 0.0559357 -5.64558e-20)
(-0.0363888 0.0662101 1.05599e-19)
(-0.0384656 0.0720391 -9.94294e-20)
(-0.03735 0.074536 3.93127e-22)
(-0.0331818 0.0746064 4.41268e-20)
(-0.0260392 0.0729603 1.65801e-19)
(-0.0159436 0.070136 6.46629e-23)
(-0.00286592 0.0665294 -7.29552e-20)
(0.0132644 0.0624245 0)
(0.0325487 0.0580198 -6.48304e-20)
(0.0551047 0.0534534 1.21572e-19)
(0.0810544 0.0488206 1.14421e-19)
(0.110508 0.0441894 -5.37456e-20)
(0.143546 0.0396115 -6.9823e-23)
(0.180207 0.0351313 -4.74214e-20)
(0.220465 0.0307918 8.87142e-20)
(0.264214 0.0266377 8.34043e-20)
(0.311326 0.0227392 -7.80635e-20)
(0.361074 0.0190434 7.25198e-20)
(0.415261 0.0161092 -6.74915e-20)
(0.464282 0.0123068 0)
(0.541866 0.0137657 -5.8458e-20)
(-0.0100521 0.0160255 5.86098e-20)
(-0.0240212 0.0386407 -5.9959e-20)
(-0.0327979 0.0540785 5.71463e-20)
(-0.0367313 0.0638144 0)
(-0.0361363 0.0691571 0)
(-0.0312811 0.0712171 9.48993e-20)
(-0.0223576 0.070902 -8.85848e-20)
(-0.00947015 0.0689285 8.32594e-20)
(0.0073584 0.065847 -3.90532e-19)
(0.0281734 0.0620711 6.9301e-23)
(0.0530686 0.0579061 6.89441e-20)
(0.0821634 0.0535759 0)
(0.115576 0.0492438 -1.21683e-19)
(0.153394 0.0450301 2.28575e-19)
(0.195648 0.0410251 -1.61034e-19)
(0.24228 0.0373001 -2.51788e-19)
(0.293129 0.0339136 2.72603e-22)
(0.347906 0.0309175 1.76658e-19)
(0.406148 0.0283422 0)
(0.467533 0.0263392 0)
(0.530077 0.0244885 -7.2511e-20)
(0.59822 0.0244326 6.74818e-20)
(0.653244 0.0220325 -2.48074e-19)
(0.7476 0.027105 2.32728e-19)
(-0.0110437 0.0152766 0)
(-0.0257018 0.0364497 0)
(-0.0336985 0.0506065 -1.72042e-19)
(-0.0354518 0.0592303 5.47006e-20)
(-0.0313431 0.0636472 3.69137e-22)
(-0.0216857 0.0649777 9.59691e-20)
(-0.00669254 0.0641326 0)
(0.0135322 0.0618329 -8.37681e-20)
(0.0389789 0.0586385 7.8244e-20)
(0.0697032 0.0549789 -1.47124e-19)
(0.105787 0.0511796 1.09133e-22)
(0.147292 0.0474852 1.2947e-19)
(0.194216 0.0440773 -1.06068e-22)
(0.246445 0.0410888 1.1388e-19)
(0.303717 0.038613 -1.6073e-19)
(0.365598 0.0367093 0)
(0.431465 0.0354079 1.87515e-19)
(0.500519 0.0347188 -2.64207e-19)
(0.571723 0.0345848 8.15264e-20)
(0.644374 0.0351887 0)
(0.715482 0.0356921 7.07074e-20)
(0.79048 0.0384757 2.64317e-19)
(0.847187 0.0376172 -2.48053e-19)
(0.942804 0.0456926 -2.85301e-19)
(-0.0119122 0.014351 1.80608e-19)
(-0.0266786 0.033528 -2.48383e-19)
(-0.0330595 0.0458511 5.02631e-22)
(-0.0315529 0.0529105 5.5262e-20)
(-0.0225926 0.0560935 -1.02994e-19)
(-0.00651246 0.0565526 -9.54911e-20)
(0.0164731 0.0552129 1.79116e-19)
(0.0462631 0.0528054 -1.15555e-21)
(0.0828313 0.0499017 -1.57706e-19)
(0.126167 0.0469435 2.94727e-19)
(0.176202 0.0442656 -4.1026e-22)
(0.232745 0.0421142 -1.29653e-19)
(0.295416 0.0406584 0)
(0.363601 0.0399977 0)
(0.436434 0.0401669 -5.33721e-20)
(0.512799 0.0411405 -9.91438e-20)
(0.591372 0.0428394 -1.85687e-19)
(0.670672 0.0451369 1.74299e-19)
(0.749107 0.047857 -8.15568e-20)
(0.82532 0.050926 1.50049e-19)
(0.896853 0.0536906 -7.22192e-20)
(0.966485 0.0576124 1.28181e-19)
(1.01915 0.0579895 -3.02458e-19)
(1.09608 0.0658223 5.64314e-20)
(-0.0125877 0.0132738 6.0993e-20)
(-0.0265855 0.029993 0)
(-0.0300802 0.0400938 1.1809e-19)
(-0.0237119 0.0453407 -1.11245e-19)
(-0.00797706 0.0472175 1.03089e-19)
(0.0167693 0.0469304 0)
(0.0502908 0.0454312 0)
(0.0924238 0.0434635 -8.43878e-20)
(0.142993 0.0416019 8.20612e-22)
(0.20171 0.0402785 7.44404e-20)
(0.268072 0.0397998 -6.897e-20)
(0.341288 0.0403552 1.29772e-19)
(0.420229 0.0420232 0)
(0.503433 0.0447767 2.25971e-19)
(0.589153 0.0484912 -4.23173e-19)
(0.675441 0.0529577 2.97302e-19)
(0.760263 0.0579057 1.83216e-19)
(0.841608 0.0630007 -1.71985e-19)
(0.917672 0.0679679 0)
(0.986793 0.0723082 0)
(1.04796 0.0761195 0)
(1.10063 0.0785188 0)
(1.14175 0.0797586 5.94794e-20)
(1.18687 0.0820903 -2.17084e-19)
(-0.228109 -0.028475 -5.33049e-21)
(-0.240743 -0.0311298 5.35388e-21)
(-0.253184 -0.0334483 -1.6365e-22)
(-0.265857 -0.035234 0)
(-0.278581 -0.0363636 -5.01599e-21)
(-0.291178 -0.0366808 9.7747e-21)
(-0.303408 -0.036034 1.42987e-23)
(-0.314969 -0.0342833 -4.64333e-21)
(-0.325493 -0.0313073 0)
(-0.334533 -0.0270131 0)
(-0.341561 -0.021358 -2.6158e-22)
(-0.345961 -0.0143888 -2.50755e-22)
(-0.347029 -0.00627039 -4.04047e-21)
(-0.344221 0.00262499 3.69513e-21)
(-0.336994 0.012046 0)
(-0.32471 0.0216422 0)
(-0.306797 0.0305885 2.66955e-21)
(-0.282697 0.0381695 -2.73646e-22)
(-0.25195 0.0436825 -2.12339e-21)
(-0.214408 0.0463213 -1.09349e-22)
(-0.170117 0.0458728 0)
(-0.11938 0.04206 0)
(-0.0628652 0.0349126 0)
(-0.00128158 0.0251168 0)
(0.0639448 0.0133995 0)
(0.130994 0.00128716 0)
(0.198297 -0.00990676 -1.20363e-22)
(0.264196 -0.0191449 1.84252e-22)
(0.327276 -0.0258843 0)
(0.386444 -0.0297102 0)
(0.441171 -0.0309621 2.31723e-22)
(0.491328 -0.0297265 -2.252e-22)
(0.537114 -0.0267667 -1.06616e-22)
(0.578921 -0.0221488 0)
(0.617171 -0.0168197 0)
(0.652365 -0.0106646 -1.5586e-22)
(0.684766 -0.00473978 1.51501e-22)
(0.71472 0.0013791 0)
(0.742228 0.00653347 -1.07289e-22)
(0.767589 0.0115643 1.53868e-22)
(0.790644 0.0149878 -4.33776e-23)
(0.811761 0.0183288 0)
(0.830757 0.019819 6.20099e-23)
(0.848138 0.0216131 -6.02975e-23)
(0.863749 0.0215195 0)
(0.878169 0.0223282 0)
(0.891193 0.0212832 1.72495e-23)
(0.903471 0.0217858 -4.8266e-23)
(0.914769 0.0203212 0)
(0.925887 0.0211032 0)
(0.936316 0.0197308 9.13431e-24)
(0.946753 0.0211644 -2.8846e-26)
(0.95612 0.0200559 1.09857e-24)
(0.965165 0.0220775 -5.17896e-24)
(0.972406 0.0210831 0)
(0.979269 0.0236612 0)
(0.983836 0.0228634 0)
(0.98869 0.0261189 0)
(0.990831 0.0256865 0)
(0.994692 0.0296605 0)
(-0.194587 -0.0137323 -5.17127e-22)
(-0.206629 -0.016376 -2.15483e-20)
(-0.218075 -0.0189128 1.09199e-22)
(-0.22982 -0.0209837 2.01174e-20)
(-0.241805 -0.022571 3.10921e-22)
(-0.253845 -0.0235688 0)
(-0.265716 -0.0238685 -1.86215e-20)
(-0.277119 -0.0233716 3.67581e-20)
(-0.287677 -0.0219928 -1.81333e-20)
(-0.296922 -0.0196686 1.71712e-20)
(-0.304296 -0.0163749 -1.64288e-20)
(-0.309167 -0.0121479 1.55035e-20)
(-0.310839 -0.00712517 -1.50646e-20)
(-0.308602 -0.00162695 -4.42926e-22)
(-0.30163 0.00407636 -1.29169e-20)
(-0.289349 0.00942438 1.25529e-20)
(-0.27119 0.0141245 -1.05572e-20)
(-0.246384 0.0175519 9.95255e-21)
(-0.214466 0.0190773 -7.97724e-21)
(-0.175186 0.0180664 1.41527e-20)
(-0.128697 0.0139814 -6.23803e-21)
(-0.0753975 0.00599349 -2.76557e-22)
(-0.0162348 -0.00353319 -2.41724e-21)
(0.0476842 -0.01474 3.64105e-21)
(0.114746 -0.0267941 -1.25568e-21)
(0.183066 -0.0380799 1.22714e-24)
(0.25062 -0.0473681 -1.06091e-21)
(0.315451 -0.0537839 -4.77516e-22)
(0.376214 -0.0571576 3.08912e-21)
(0.431853 -0.057448 -3.4473e-21)
(0.482151 -0.0552734 1.75515e-21)
(0.527107 -0.0509368 -2.20106e-22)
(0.56734 -0.0452917 1.06829e-22)
(0.603346 -0.0384168 -1.96962e-22)
(0.635978 -0.031214 0)
(0.665793 -0.0235069 0)
(0.693442 -0.0162793 5.58341e-22)
(0.719261 -0.00902951 -4.13386e-22)
(0.74352 -0.00289014 -3.18966e-22)
(0.766291 0.00308766 -7.70794e-24)
(0.787609 0.00749381 4.11791e-22)
(0.807562 0.0116835 -7.59263e-23)
(0.826056 0.0139258 0)
(0.843253 0.0163957 0)
(0.859066 0.0168934 0)
(0.873792 0.0182168 0)
(0.887288 0.0176056 -7.35229e-23)
(0.90001 0.0184631 3.15198e-23)
(0.9118 0.017264 0)
(0.923357 0.0182549 0)
(0.934241 0.017064 0)
(0.945105 0.0187099 1.42891e-23)
(0.95488 0.0178541 -2.29188e-24)
(0.964308 0.020187 1.13812e-23)
(0.971859 0.0195105 0)
(0.979004 0.0224192 0)
(0.983752 0.0218892 -4.60434e-24)
(0.988787 0.025404 -1.04779e-23)
(0.991003 0.025116 0)
(0.994996 0.0292824 0)
(-0.128425 -0.00188663 5.04358e-22)
(-0.138286 -0.00422529 -4.3337e-20)
(-0.147033 -0.00685022 4.28795e-20)
(-0.15587 -0.0090505 -4.00975e-20)
(-0.165058 -0.0108882 -3.13029e-22)
(-0.174401 -0.0123292 0)
(-0.18369 -0.0133169 -3.80149e-20)
(-0.19265 -0.013799 3.72393e-20)
(-0.200924 -0.0137347 2.78805e-22)
(-0.208056 -0.0131036 5.32611e-22)
(-0.213496 -0.0119162 5.12423e-22)
(-0.216602 -0.010228 4.96749e-22)
(-0.216681 -0.00815976 -2.96017e-20)
(-0.213045 -0.0059206 2.92138e-20)
(-0.205065 -0.00381244 0)
(-0.191768 -0.00240426 7.64807e-22)
(-0.172361 -0.00194693 -2.13003e-20)
(-0.146416 -0.0030667 2.10056e-20)
(-0.113492 -0.00625923 0)
(-0.0736356 -0.0116442 0)
(-0.0276089 -0.0196811 -1.11143e-20)
(0.025764 -0.0302818 1.90418e-20)
(0.0853826 -0.042248 -1.331e-20)
(0.148544 -0.0548492 2.28897e-21)
(0.214004 -0.0667078 4.23706e-21)
(0.279629 -0.0765163 -7.35286e-22)
(0.343398 -0.0833241 -2.069e-21)
(0.403393 -0.0864973 -8.20512e-22)
(0.458456 -0.086182 2.52482e-21)
(0.507699 -0.0826808 0)
(0.551193 -0.0768953 0)
(0.589055 -0.0693473 -1.30175e-21)
(0.622179 -0.0610096 1.68731e-21)
(0.651078 -0.0519644 3.65778e-24)
(0.676847 -0.0430548 -1.39635e-21)
(0.700028 -0.0340332 1.357e-21)
(0.72157 -0.0257737 0)
(0.741752 -0.0176807 -1.29858e-22)
(0.761159 -0.010876 -9.87041e-22)
(0.779771 -0.00433079 1.8128e-21)
(0.797765 0.000584178 -7.42419e-22)
(0.814967 0.00550385 -7.60033e-23)
(0.831489 0.00834638 6.34186e-22)
(0.847157 0.0113592 -4.87816e-22)
(0.861961 0.0123554 -9.92234e-23)
(0.875908 0.0141351 -8.56267e-23)
(0.888921 0.0139261 7.37097e-23)
(0.901231 0.0151226 0)
(0.912752 0.014183 0)
(0.924048 0.0153782 1.79312e-22)
(0.934749 0.0143648 -8.44255e-23)
(0.945457 0.0162188 6.65018e-23)
(0.95513 0.0156138 -8.32809e-23)
(0.964511 0.0182585 -8.76993e-23)
(0.972034 0.0179035 2.05495e-23)
(0.979206 0.0211482 -2.89768e-23)
(0.983959 0.0208909 2.16685e-23)
(0.989056 0.0246711 -9.03961e-24)
(0.99128 0.0245303 0)
(0.995349 0.0288939 0)
(-0.0376562 0.00509501 -8.99419e-20)
(-0.0444288 0.00356482 7.64091e-22)
(-0.0498001 0.0010635 8.45576e-20)
(-0.0547244 -0.00115461 -6.47808e-22)
(-0.0599416 -0.00304007 0)
(-0.065331 -0.00471066 0)
(-0.0706955 -0.00614272 -7.62586e-20)
(-0.0757937 -0.00733921 -2.80851e-22)
(-0.0803137 -0.00830645 1.07162e-19)
(-0.0838531 -0.00908259 -8.35307e-22)
(-0.085914 -0.00973713 -3.36655e-20)
(-0.0859156 -0.010369 -3.02924e-20)
(-0.0832219 -0.0111065 3.03946e-20)
(-0.0771472 -0.0121248 0)
(-0.0670352 -0.0136459 -2.6083e-20)
(-0.0521716 -0.0159172 2.37957e-20)
(-0.0319302 -0.0195541 0)
(-0.00577711 -0.0248922 0)
(0.027169 -0.0322383 1.68145e-20)
(0.066737 -0.0418732 -2.15606e-21)
(0.112064 -0.0533914 -1.33892e-20)
(0.16327 -0.0654043 -9.14992e-21)
(0.219447 -0.0790034 9.084e-21)
(0.278658 -0.0921935 -4.07066e-21)
(0.339115 -0.103575 2.04581e-21)
(0.398675 -0.111765 1.79201e-21)
(0.455448 -0.115938 -8.06965e-23)
(0.507755 -0.115779 -2.76506e-23)
(0.554768 -0.111785 0)
(0.595902 -0.104594 -3.25754e-21)
(0.631493 -0.0953529 3.36456e-21)
(0.661764 -0.0847398 -2.15121e-22)
(0.687719 -0.0738466 0)
(0.709809 -0.0627752 1.95618e-22)
(0.729133 -0.0523114 -2.7678e-21)
(0.746111 -0.0421467 4.87097e-21)
(0.761793 -0.0330626 9.59227e-23)
(0.776394 -0.0243833 -1.89955e-22)
(0.790695 -0.0171029 -1.70078e-21)
(0.804595 -0.0101849 -2.02009e-22)
(0.818599 -0.00503198 1.33377e-21)
(0.832286 0.000149198 -1.14314e-21)
(0.845863 0.00344697 -5.59582e-25)
(0.85904 0.00685526 -4.35803e-22)
(0.871887 0.00822032 5.23243e-22)
(0.884163 0.0103612 5.81682e-22)
(0.895858 0.0104879 -1.67617e-22)
(0.906998 0.0119781 -2.38729e-22)
(0.917547 0.0112678 4.36168e-22)
(0.927933 0.012643 -2.91199e-22)
(0.93784 0.011785 6.88148e-23)
(0.947832 0.0138229 -8.6025e-23)
(0.956901 0.0134449 -6.49462e-23)
(0.965809 0.0163791 1.33782e-22)
(0.972962 0.016327 -3.94663e-24)
(0.979902 0.0198935 2.89831e-23)
(0.984478 0.0198991 0)
(0.989509 0.0239387 8.99986e-24)
(0.99167 0.0239414 -1.14883e-23)
(0.995755 0.0285006 0)
(0.0726158 0.00704868 9.12105e-20)
(0.0690454 0.0066148 -1.77898e-19)
(0.0661713 0.00443679 8.57323e-20)
(0.0646959 0.00219035 8.36664e-20)
(0.0632641 0.000286063 -1.63161e-19)
(0.0617557 -0.00145055 8.12717e-22)
(0.0603929 -0.00315794 7.71258e-20)
(0.0593542 -0.00486232 7.38018e-20)
(0.0588912 -0.00659489 -7.22915e-20)
(0.0593125 -0.00844243 0)
(0.0610145 -0.0105186 -6.60047e-20)
(0.0644794 -0.0129468 1.27272e-19)
(0.0702693 -0.0158678 -6.13504e-20)
(0.079004 -0.0194657 0)
(0.0912997 -0.0239817 0)
(0.10776 -0.0296459 7.86274e-22)
(0.128931 -0.0367811 -4.48804e-20)
(0.15521 -0.0453975 4.35983e-20)
(0.187174 -0.0556505 0)
(0.224769 -0.0681329 3.11963e-20)
(0.267418 -0.0822386 -5.41507e-20)
(0.314793 -0.0969682 4.36465e-20)
(0.365839 -0.111798 -3.37627e-20)
(0.418773 -0.125269 4.44771e-21)
(0.471752 -0.135888 1.45482e-20)
(0.522768 -0.142302 -5.08779e-21)
(0.570212 -0.143865 2.41544e-23)
(0.612831 -0.140566 1.72523e-21)
(0.650246 -0.133228 7.86224e-22)
(0.682289 -0.122774 -2.48525e-21)
(0.709559 -0.110539 -2.01968e-22)
(0.73239 -0.0972843 3.22275e-21)
(0.751764 -0.0841624 -6.25528e-21)
(0.768035 -0.0713139 3.4018e-21)
(0.782127 -0.0594778 0)
(0.794251 -0.0483038 2.7983e-21)
(0.80535 -0.038507 -2.69515e-21)
(0.815512 -0.0293516 1.72186e-21)
(0.82557 -0.021762 -2.15102e-21)
(0.835376 -0.014611 2.0003e-22)
(0.845572 -0.00920068 0)
(0.855766 -0.0040299 1.53123e-22)
(0.866253 -0.000607032 -3.98881e-22)
(0.876577 0.00309678 0)
(0.886989 0.00470799 -9.5305e-22)
(0.897099 0.00710461 3.88637e-22)
(0.906945 0.00748362 -1.48298e-22)
(0.916413 0.00920556 -1.26679e-22)
(0.925488 0.00867908 0)
(0.93449 0.0101967 0)
(0.943136 0.00945846 2.2659e-22)
(0.95197 0.0116415 -3.34248e-22)
(0.960025 0.0114491 1.76307e-22)
(0.968101 0.014631 -5.37077e-23)
(0.974586 0.0148438 -8.1779e-23)
(0.981064 0.0187004 -2.90106e-23)
(0.985298 0.0189445 4.31604e-23)
(0.990145 0.0232262 0)
(0.992176 0.0233621 1.87953e-23)
(0.996216 0.0281084 4.57905e-24)
(0.203996 0.0067149 9.27746e-20)
(0.202446 0.0066553 -9.20998e-20)
(0.200021 0.00453557 6.86152e-22)
(0.199928 0.00213638 -6.62075e-22)
(0.20073 9.14571e-05 6.45384e-22)
(0.201691 -0.00182009 -6.25787e-22)
(0.202962 -0.00383181 1.20407e-21)
(0.204818 -0.00596648 0)
(0.207424 -0.00828502 -1.12608e-21)
(0.210981 -0.0109099 1.08684e-21)
(0.215775 -0.0139911 1.04676e-21)
(0.222163 -0.0176866 -1.01093e-21)
(0.230578 -0.0221621 0)
(0.241522 -0.0276099 0)
(0.255521 -0.0342688 8.64886e-22)
(0.273056 -0.0423664 0)
(0.294533 -0.0521087 -7.51103e-22)
(0.320275 -0.063523 0)
(0.350681 -0.076644 -3.58853e-20)
(0.385644 -0.0914999 6.70411e-20)
(0.424619 -0.107549 -5.69501e-20)
(0.466989 -0.123856 2.59875e-20)
(0.511595 -0.139447 1.61402e-20)
(0.556708 -0.152826 -1.56727e-20)
(0.600541 -0.162453 -6.90343e-21)
(0.641334 -0.167057 6.58234e-21)
(0.677912 -0.166208 0)
(0.709603 -0.16019 -3.32745e-23)
(0.736569 -0.150097 0)
(0.759106 -0.137052 0)
(0.778044 -0.122504 -5.56751e-21)
(0.793811 -0.107239 5.72639e-21)
(0.807278 -0.0923879 -3.59536e-22)
(0.818695 -0.0781318 -3.71114e-22)
(0.828738 -0.0651748 3.31329e-22)
(0.837392 -0.0531407 2.42912e-21)
(0.845347 -0.0427102 -2.35862e-21)
(0.85253 -0.0331198 2.21885e-21)
(0.859662 -0.0252429 -1.90351e-21)
(0.866546 -0.0179253 -4.00767e-22)