/*--------------------------------*- C++ -*----------------------------------*\
| =========                 |                                                 |
| \\      /  F ield         | OpenFOAM: The Open Source CFD Toolbox           |
|  \\    /   O peration     | Version:  2512                                  |
|   \\  /    A nd           | Website:  www.openfoam.com                      |
|    \\/     M anipulation  |                                                 |
\*---------------------------------------------------------------------------*/
FoamFile
{
    version     2.0;
    format      ascii;
    arch        "LSB;label=32;scalar=64";
    class       volVectorField;
    location    "44";
    object      U;
}
// * * * * * * * * * * * * * * * * * * * * * * * * * * * * * * * * * * * * * //

dimensions      [0 1 -1 0 0 0 0];

internalField   nonuniform List<vector> 
13248
(
(-0.0126289 0.0116489 6.13041e-20)
(-0.0247511 0.0254358 0)
(-0.0242915 0.0334449 -1.15791e-19)
(-0.0119686 0.037504 1.09078e-19)
(0.011687 0.039093 1.02055e-19)
(0.0462727 0.0393939 0)
(0.0914352 0.0393192 0)
(0.146778 0.0395656 2.46064e-19)
(0.211739 0.0406446 -9.93262e-22)
(0.285468 0.0428994 -2.15375e-19)
(0.366735 0.0465058 2.00642e-19)
(0.453893 0.0514747 -1.25495e-19)
(0.544906 0.0576609 0)
(0.637441 0.064781 -2.18967e-19)
(0.729005 0.0724425 4.10305e-19)
(0.817111 0.0801818 -9.71605e-20)
(0.899449 0.0875128 -1.78193e-19)
(0.974038 0.0939484 1.67276e-19)
(1.03937 0.0991436 0)
(1.09437 0.102529 0)
(1.13893 0.104655 0)
(1.17217 0.103073 0)
(1.19745 0.103657 5.46817e-20)
(1.21011 0.0916753 2.04202e-19)
(-0.012545 0.010271 -1.85182e-19)
(-0.0210939 0.0208769 1.26227e-19)
(-0.013915 0.0262879 -1.16657e-21)
(0.00787352 0.0285506 -1.66729e-19)
(0.043514 0.0292913 -1.01947e-19)
(0.0923782 0.0297863 -9.64012e-20)
(0.153756 0.0309756 -1.77018e-19)
(0.226681 0.0335185 1.67418e-19)
(0.309762 0.037819 0)
(0.401075 0.0440329 5.89991e-22)
(0.498152 0.0520727 1.24204e-21)
(0.598078 0.0616264 1.25561e-19)
(0.697683 0.0721962 0)
(0.793779 0.0831564 0)
(0.883424 0.0938247 1.51173e-19)
(0.964146 0.103537 -2.83974e-19)
(1.03412 0.111717 1.73337e-19)
(1.09227 0.117928 -1.62729e-19)
(1.13828 0.121912 -7.32307e-20)
(1.17265 0.123565 -1.36198e-19)
(1.19624 0.123091 -5.90069e-20)
(1.21098 0.120256 -1.11696e-19)
(1.21787 0.117273 1.60459e-19)
(1.21943 0.109158 4.72784e-20)
(-0.0116226 0.00858131 0)
(-0.0143866 0.0157808 0)
(0.0022334 0.0189063 5.8971e-20)
(0.0365515 0.020084 5.42642e-20)
(0.0873837 0.021013 -1.38143e-21)
(0.153581 0.0230098 -9.96109e-20)
(0.23365 0.0269592 0)
(0.325523 0.0333517 -8.32584e-20)
(0.426421 0.042307 7.84034e-20)
(0.532886 0.0535903 6.34435e-22)
(0.640975 0.0666542 -1.3461e-19)
(0.74659 0.0807144 -1.24336e-19)
(0.845863 0.0948561 1.43182e-21)
(0.935514 0.108154 -1.05375e-19)
(1.01313 0.119785 2.50817e-19)
(1.07731 0.129121 0)
(1.12773 0.135783 -1.68082e-19)
(1.16499 0.139652 8.10676e-20)
(1.1905 0.140875 7.31625e-20)
(1.20615 0.139709 0)
(1.21417 0.136803 6.17231e-20)
(1.2166 0.132075 -2.17158e-19)
(1.21515 0.127781 2.03854e-19)
(1.21279 0.119715 1.33502e-19)
(-0.00948209 0.00654335 -6.56367e-20)
(-0.00367986 0.0102313 -6.78893e-20)
(0.0254958 0.0116523 6.12829e-20)
(0.075579 0.012803 0)
(0.144635 0.0153192 0)
(0.230519 0.0204254 -2.20014e-21)
(0.330358 0.0287676 0)
(0.44037 0.040434 -2.54853e-19)
(0.555934 0.0550044 2.37073e-19)
(0.67192 0.0716311 -2.93155e-19)
(0.783209 0.0891748 6.74006e-20)
(0.885251 0.106382 0)
(0.974539 0.122072 1.14207e-19)
(1.0489 0.13529 -2.12404e-19)
(1.10759 0.145419 5.04146e-20)
(1.15117 0.152209 1.3313e-19)
(1.18123 0.155755 -4.0174e-21)
(1.20007 0.156424 -1.49856e-19)
(1.21024 0.154748 0)
(1.21422 0.151311 0)
(1.21416 0.146754 -5.60451e-20)
(1.21167 0.141261 5.10147e-20)
(1.208 0.136385 1.8764e-19)
(1.20397 0.128808 -1.76131e-19)
(-0.00571903 0.00420479 -6.93684e-20)
(0.0119672 0.00451064 -6.89941e-20)
(0.0570506 0.00513542 1.94022e-19)
(0.126002 0.00767315 -1.17501e-19)
(0.215655 0.0134747 1.10604e-19)
(0.322226 0.023432 2.00737e-19)
(0.440799 0.0376562 -1.41973e-19)
(0.565411 0.0555185 -1.73257e-19)
(0.689551 0.075805 2.99231e-21)
(0.806917 0.0969429 2.22076e-19)
(0.912207 0.117279 0)
(1.00171 0.13535 6.20936e-20)
(1.07361 0.150092 0)
(1.1279 0.160939 -1.03185e-19)
(1.16608 0.167822 1.45212e-19)
(1.1907 0.171078 1.26198e-21)
(1.20473 0.171309 -3.91031e-20)
(1.21115 0.169225 7.39193e-20)
(1.21255 0.165521 6.46495e-20)
(1.21091 0.160779 -5.87426e-20)
(1.20761 0.155479 5.60321e-20)
(1.20353 0.149777 -5.10025e-20)
(1.19905 0.144592 0)
(1.19491 0.137475 -3.98892e-20)
(5.84549e-05 0.00171608 6.93585e-20)
(0.0333783 -0.000848976 7.29066e-20)
(0.097733 0.000282742 -6.50303e-20)
(0.188141 0.00595111 1.21096e-19)
(0.29957 0.0168925 -1.13981e-19)
(0.425891 0.0332997 1.03061e-19)
(0.559647 0.0543636 -4.9525e-20)
(0.692701 0.0784395 1.30079e-19)
(0.817309 0.103418 -8.19835e-20)
(0.927219 0.12715 1.4648e-19)
(1.01842 0.147836 -3.39201e-19)
(1.08942 0.164283 1.25233e-19)
(1.14095 0.175997 -1.11032e-19)
(1.17546 0.183114 1.04289e-19)
(1.19629 0.186223 9.17038e-20)
(1.20702 0.186153 8.17328e-20)
(1.21089 0.183768 -2.27898e-19)
(1.21051 0.179836 1.41904e-19)
(1.20774 0.174953 -6.46519e-20)
(1.20377 0.169537 1.71575e-19)
(1.1993 0.163867 -5.52277e-20)
(1.19467 0.158054 -1.38664e-19)
(1.19008 0.152593 1.28635e-19)
(1.18579 0.145829 3.98753e-20)
(0.00819706 -0.000664868 0)
(0.0611446 -0.00507308 6.66067e-22)
(0.147838 -0.00171274 1.36389e-19)
(0.261338 0.00906098 -1.27869e-19)
(0.394047 0.02691 -1.15204e-19)
(0.536933 0.0508618 2.14195e-19)
(0.679993 0.0788236 -9.95094e-20)
(0.813666 0.108021 1.33117e-19)
(0.930375 0.135657 -2.54708e-21)
(1.02553 0.159471 -7.58619e-20)
(1.09779 0.178077 1.67087e-19)
(1.14856 0.191031 -2.47527e-19)
(1.18111 0.198673 0)
(1.19959 0.20185 -4.94779e-20)
(1.20809 0.201617 -1.33511e-19)
(1.21014 0.198994 4.18859e-20)
(1.20839 0.194825 1.31792e-21)
(1.20464 0.189731 -9.57235e-20)
(1.19999 0.184127 4.58438e-21)
(1.19506 0.178271 1.11375e-19)
(1.19015 0.172315 -5.07108e-20)
(1.18537 0.16635 -2.01038e-20)
(1.18076 0.160588 6.03355e-20)
(1.17642 0.154054 0)
(0.0189582 -0.0025855 0)
(0.0955084 -0.00719867 3.70289e-20)
(0.206942 0.000488427 -1.78466e-19)
(0.343805 0.0183806 6.48206e-20)
(0.495339 0.0444997 -6.10077e-20)
(0.649521 0.0762511 -5.5901e-20)
(0.794547 0.110095 -9.89369e-20)
(0.920944 0.142361 4.92454e-20)
(1.02304 0.170111 4.29106e-20)
(1.09928 0.191611 0)
(1.15157 0.206389 9.96188e-20)
(1.18396 0.21497 -1.49332e-19)
(1.20138 0.218469 1.11251e-19)
(1.20851 0.218189 4.95028e-20)
(1.20924 0.215336 -4.131e-20)
(1.20635 0.210865 -3.51837e-20)
(1.2017 0.205452 -3.31956e-20)
(1.19636 0.19953 9.79415e-20)
(1.19091 0.193363 0)
(1.18561 0.187103 5.07817e-20)
(1.18056 0.180839 4.38867e-20)
(1.17577 0.174634 -1.07642e-19)
(1.17119 0.168529 -7.57447e-20)
(1.16684 0.162129 6.98752e-20)
(0.0324699 -0.00361943 -4.03088e-20)
(0.136244 -0.00616269 -1.66059e-21)
(0.273786 0.00819564 3.63775e-20)
(0.432636 0.0349904 1.01814e-19)
(0.598669 0.0700271 2.97019e-20)
(0.757502 0.10882 -5.74073e-20)
(0.897063 0.14659 5.23537e-20)
(1.00982 0.179378 -4.60068e-20)
(1.09344 0.204824 8.30018e-20)
(1.14998 0.222266 3.56241e-20)
(1.18421 0.232362 -1.01198e-19)
(1.20189 0.236509 2.99762e-20)
(1.20845 0.236313 5.17121e-20)
(1.20826 0.233223 -2.53619e-20)
(1.20441 0.22836 0)
(1.19888 0.222494 3.86484e-20)
(1.1928 0.216108 6.62177e-20)
(1.18673 0.209483 1.19343e-20)
(1.18095 0.202777 -5.57387e-20)
(1.17552 0.196078 2.36496e-20)
(1.17045 0.189443 0)
(1.16569 0.1829 -1.90314e-20)
(1.16115 0.176427 -1.83718e-20)
(1.1568 0.170034 0)
(0.048675 -0.003298 0)
(0.182573 -0.00091564 2.1162e-20)
(0.346258 0.0224997 3.91233e-20)
(0.524046 0.0594691 -1.04118e-19)
(0.698885 0.10316 3.37234e-20)
(0.855453 0.147299 0)
(0.983352 0.186495 5.09147e-20)
(1.07858 0.217314 -7.11751e-20)
(1.14282 0.238608 -4.155e-20)
(1.18137 0.251043 1.87953e-20)
(1.2009 0.256309 -3.05415e-20)
(1.20779 0.256389 7.39143e-20)
(1.20712 0.253066 3.73883e-20)
(1.20248 0.247704 -2.57927e-20)
(1.1961 0.241225 -2.2148e-21)
(1.18922 0.234195 -7.22363e-20)
(1.18246 0.226932 3.30154e-20)
(1.17609 0.219608 -8.94599e-22)
(1.1702 0.212317 0)
(1.16477 0.205113 -2.36744e-20)
(1.15974 0.19803 0)
(1.15505 0.191066 5.49576e-20)
(1.1506 0.184208 -6.59075e-20)
(1.14627 0.177695 3.02308e-20)
(0.0672873 -0.00114874 -1.11362e-20)
(0.233132 0.00946399 -5.34392e-20)
(0.421516 0.0441191 6.08997e-20)
(0.613797 0.0917927 3.5747e-20)
(0.791196 0.142946 -1.70198e-20)
(0.939407 0.190095 2.87938e-20)
(1.05151 0.228144 -1.39331e-20)
(1.1279 0.254961 2.33214e-20)
(1.17404 0.270961 0)
(1.19757 0.278088 5.33193e-20)
(1.20602 0.278783 -2.09751e-21)
(1.20549 0.275289 -4.32397e-20)
(1.20029 0.269329 1.86153e-20)
(1.19309 0.262058 -2.11577e-20)
(1.18537 0.254174 -8.16745e-21)
(1.17785 0.246062 9.34325e-21)
(1.17082 0.237922 -7.27941e-21)
(1.16437 0.229855 -4.00231e-20)
(1.1585 0.221917 2.45424e-20)
(1.15316 0.214143 5.08e-21)
(1.14825 0.206543 4.51905e-21)
(1.14368 0.1991 4.0255e-21)
(1.13934 0.191858 0)
(1.13507 0.185086 0)
(0.0878382 0.00327225 1.11439e-20)
(0.286149 0.0256805 -1.11194e-20)
(0.496384 0.0732988 -2.03146e-20)
(0.697844 0.131338 0)
(0.87185 0.188007 -8.47567e-21)
(1.00713 0.235585 -7.68544e-21)
(1.10144 0.270233 -1.31667e-20)
(1.15965 0.291639 0)
(1.19019 0.301826 0)
(1.20198 0.303758 0)
(1.20252 0.300296 0)
(1.19717 0.293681 0)
(1.18929 0.28543 -1.17024e-20)
(1.18073 0.276452 5.33339e-21)
(1.1724 0.267242 9.34102e-21)
(1.16465 0.258045 4.38655e-21)
(1.1576 0.248981 1.09147e-20)
(1.15124 0.240107 0)
(1.14551 0.231456 -2.66533e-21)
(1.14035 0.223046 -2.58572e-21)
(1.13565 0.21487 -4.52625e-21)
(1.1313 0.206908 -4.03194e-21)
(1.12715 0.199282 0)
(1.12305 0.192115 2.97086e-21)
(-0.00135795 0.00957114 6.50633e-21)
(-0.00600572 0.0231477 -6.75118e-21)
(-0.0140554 0.0326764 -1.2783e-20)
(-0.0238628 0.0390943 0)
(-0.0344999 0.0431631 -1.70923e-20)
(-0.0454777 0.0455211 5.35382e-21)
(-0.0564502 0.0466863 -1.01501e-20)
(-0.0671738 0.0470533 0)
(-0.0774917 0.0468978 0)
(-0.0873082 0.04639 0)
(-0.0965663 0.0456136 0)
(-0.105233 0.0445872 0)
(-0.113288 0.043284 -3.45584e-23)
(-0.120717 0.0416503 -6.64918e-21)
(-0.127507 0.0396185 1.26152e-20)
(-0.133648 0.0371174 1.77684e-20)
(-0.139127 0.0340801 5.6411e-21)
(-0.143939 0.0304495 0)
(-0.148091 0.0261833 4.88842e-21)
(-0.15161 0.0212588 -1.38821e-20)
(-0.154554 0.0156743 -8.73196e-21)
(-0.157028 0.00943656 -8.20174e-21)
(-0.159225 0.00255008 0)
(-0.161403 -0.00497191 0)
(-0.00213619 0.012559 -1.96059e-20)
(-0.00756883 0.0303397 3.37802e-20)
(-0.0156481 0.0427505 -1.28191e-20)
(-0.0250405 0.051076 -2.42577e-20)
(-0.0349918 0.0563194 3.42361e-20)
(-0.0451075 0.0593008 -2.16072e-20)
(-0.0551036 0.0606838 3.04702e-20)
(-0.0647759 0.0609769 1.92813e-20)
(-0.0739906 0.0605426 0)
(-0.0826632 0.0596149 -1.70329e-20)
(-0.0907418 0.058322 -9.79012e-23)
(-0.0981953 0.0567109 1.50322e-20)
(-0.105004 0.0547715 2.14805e-20)
(-0.111154 0.0524574 2.69783e-20)
(-0.116632 0.0497034 -1.2518e-20)
(-0.121424 0.0464389 -3.57322e-20)
(-0.125514 0.0425996 1.13937e-20)
(-0.128884 0.0381382 -4.25905e-20)
(-0.131522 0.0330353 0)
(-0.13343 0.0273097 9.28057e-21)
(-0.134636 0.0210236 8.7202e-21)
(-0.135199 0.014285 8.19056e-21)
(-0.135244 0.00726776 0)
(-0.135108 0.000215992 0)
(-0.00318328 0.0149682 0)
(-0.00969821 0.0362798 6.85108e-20)
(-0.0178411 0.0512309 -2.58242e-20)
(-0.0266643 0.0613197 2.43617e-20)
(-0.0356298 0.0677111 -6.92252e-20)
(-0.044462 0.071357 0)
(-0.0529574 0.0730338 -4.10856e-20)
(-0.0609652 0.0733447 1.93805e-20)
(-0.0683825 0.0727293 -3.66636e-20)
(-0.0751414 0.0714823 1.74541e-20)
(-0.0811967 0.0697777 9.7688e-20)
(-0.0865181 0.067695 -4.59037e-20)
(-0.0910839 0.0652448 -7.22715e-20)
(-0.0948765 0.0623914 -2.76641e-20)
(-0.0978788 0.0590724 -2.37224e-22)
(-0.10007 0.055214 9.70559e-20)
(-0.101426 0.0507458 -4.56741e-20)
(-0.101914 0.0456151 -3.89138e-22)
(-0.101498 0.0398035 0)
(-0.100144 0.0333481 -3.87917e-20)
(-0.0978396 0.0263623 0)
(-0.0945466 0.019064 -3.38045e-20)
(-0.0901779 0.0118437 1.28368e-19)
(-0.085236 0.00531685 2.61271e-22)
(-0.0043925 0.0166802 0)
(-0.0121961 0.0406748 3.19955e-22)
(-0.0204429 0.0576954 2.62691e-20)
(-0.028591 0.0693077 -2.48242e-20)
(-0.0363329 0.0767507 2.30636e-20)
(-0.0435231 0.0810537 1.31831e-19)
(-0.0500501 0.0830685 -4.13272e-20)
(-0.0558258 0.0834684 -3.91851e-20)
(-0.0607858 0.0827563 7.35938e-20)
(-0.064882 0.0812812 -1.04133e-19)
(-0.0680764 0.0792621 3.27856e-20)
(-0.0703373 0.0768136 3.10541e-20)
(-0.0716363 0.0739717 0)
(-0.0719465 0.0707168 2.73984e-20)
(-0.0712397 0.066993 0)
(-0.0694846 0.0627246 4.94515e-20)
(-0.066644 0.0578305 -9.31907e-20)
(-0.0626727 0.0522394 2.12213e-20)
(-0.0575136 0.0459069 8.26425e-20)
(-0.0511069 0.0388457 3.87533e-20)
(-0.0434106 0.031163 0)
(-0.0343259 0.0231372 -1.04213e-19)
(-0.0234068 0.015409 3.24175e-20)
(-0.0105374 0.00920569 0)
(-0.00565295 0.0176573 0)
(-0.0148515 0.0433856 -8.37784e-20)
(-0.0232473 0.0618914 -2.65904e-20)
(-0.0306649 0.0746776 -4.98328e-20)
(-0.0370133 0.0829801 4.69227e-20)
(-0.0422751 0.0878535 -4.40561e-20)
(-0.0464337 0.0901876 8.35325e-20)
(-0.049469 0.0906993 3.93745e-20)
(-0.0513596 0.0899365 -1.11007e-19)
(-0.0520797 0.0882924 7.0119e-20)
(-0.0515981 0.0860261 -9.89624e-20)
(-0.0498781 0.0832875 2.18697e-19)
(-0.0468786 0.0801415 -1.17432e-19)
(-0.042554 0.0765904 5.58037e-20)
(-0.0368554 0.0725933 1.58223e-19)
(-0.0297298 0.0680814 -4.87359e-20)
(-0.0211196 0.0629714 -4.65015e-20)
(-0.0109656 0.0571766 -4.39237e-20)
(0.000800826 0.0506236 0)
(0.0142516 0.043273 -7.96389e-20)
(0.0294246 0.0351563 -7.56044e-20)
(0.0463955 0.0264914 1.05586e-19)
(0.0658701 0.0180628 1.32952e-19)
(0.0887406 0.0116224 -1.25621e-19)
(-0.00687137 0.0179436 0)
(-0.0174748 0.0444361 -1.13524e-19)
(-0.0260556 0.0637547 -3.24503e-22)
(-0.0327193 0.0772528 1.00572e-19)
(-0.037554 0.0861087 0)
(-0.0406566 0.0913626 0)
(-0.042101 0.0939095 0)
(-0.0419348 0.0944839 -3.95884e-20)
(-0.04018 0.093659 -2.12353e-22)
(-0.0368337 0.0918577 7.03007e-20)
(-0.0318694 0.0893705 -9.97167e-20)
(-0.0252412 0.0863781 -2.09069e-22)
(-0.0168877 0.0829742 0)
(-0.00673568 0.0791872 -5.57787e-20)
(0.00529613 0.0749979 5.34486e-20)
(0.0192934 0.0703564 -1.4979e-19)
(0.0353427 0.0651925 1.89527e-19)
(0.0535276 0.0594267 4.59631e-20)
(0.0739247 0.0529832 1.25079e-21)
(0.0965989 0.0457976 -1.5955e-19)
(0.121561 0.0378338 -7.57133e-20)
(0.148804 0.0291562 2.49827e-19)
(0.178527 0.0203995 -1.67901e-19)
(0.215906 0.0139791 0)
(-0.0079897 0.0176546 5.59171e-20)
(-0.0199225 0.0439989 5.69178e-20)
(-0.028688 0.0634088 -5.42179e-20)
(-0.0345618 0.0770593 -1.01538e-19)
(-0.0377608 0.0860496 9.56056e-20)
(-0.0384757 0.0913842 -8.99501e-20)
(-0.036859 0.0939408 1.27066e-19)
(-0.0330185 0.0944498 -3.96119e-20)
(-0.0270146 0.0934908 7.49816e-20)
(-0.0188617 0.0915008 0)
(-0.00853275 0.0887903 6.70928e-20)
(0.0040342 0.0855635 -1.25706e-19)
(0.0189278 0.0819393 1.19141e-19)
(0.0362552 0.0779718 -1.11901e-19)
(0.0561357 0.0736669 0)
(0.0786882 0.0690013 1.00197e-19)
(0.104024 0.0639309 1.90467e-19)
(0.132236 0.0584029 -1.78789e-19)
(0.163384 0.0523657 -8.47412e-20)
(0.197493 0.0457787 -8.08581e-20)
(0.234439 0.0386083 2.26718e-19)
(0.274539 0.0309101 7.16562e-20)
(0.315006 0.0226249 -6.70561e-20)
(0.371611 0.0174 6.24984e-20)
(-0.00899348 0.0169514 -5.59248e-20)
(-0.0221045 0.0423579 1.7397e-19)
(-0.0309681 0.0611341 -5.48597e-20)
(-0.0359296 0.0743145 1.0244e-19)
(-0.0372815 0.0829353 -9.64535e-20)
(-0.0352823 0.0879646 3.24633e-22)
(-0.0301454 0.0902524 4.27243e-20)
(-0.0220225 0.0905112 1.60459e-19)
(-0.0109979 0.0893126 1.64851e-22)
(0.00290994 0.0870953 -7.0758e-20)
(0.0197407 0.0841795 0)
(0.0395807 0.0807855 -6.32642e-20)
(0.0625492 0.0770534 1.18558e-19)
(0.0887809 0.073061 1.12504e-19)
(0.118414 0.0688445 -5.2769e-20)
(0.151573 0.0644077 -1.55403e-22)
(0.18834 0.0597356 -4.73835e-20)
(0.228741 0.0548077 8.92043e-20)
(0.27272 0.0496047 8.47237e-20)
(0.320198 0.0441432 -8.00471e-20)
(0.370458 0.0383235 7.49688e-20)
(0.425366 0.032716 -7.04611e-20)
(0.475191 0.0256253 0)
(0.553274 0.0232023 -6.24177e-20)
(-0.0099011 0.0160074 5.6955e-20)
(-0.0239611 0.0398419 -5.82531e-20)
(-0.0326868 0.0573055 5.53821e-20)
(-0.036421 0.0693902 0)
(-0.0354948 0.0771142 0)
(-0.030209 0.0814252 9.16306e-20)
(-0.0208117 0.0831495 -8.56717e-20)
(-0.00747296 0.0829781 8.04241e-20)
(0.00972343 0.0814685 -3.7756e-19)
(0.0307737 0.0790548 3.8269e-24)
(0.0557399 0.0760615 6.67447e-20)
(0.0847287 0.0727215 0)
(0.117867 0.0691936 -1.18825e-19)
(0.155274 0.06558 2.23722e-19)
(0.197026 0.0619389 -1.58175e-19)
(0.243131 0.0582949 -2.49905e-19)
(0.293504 0.0546569 -1.13025e-21)
(0.347935 0.0510255 1.76507e-19)
(0.406032 0.0473828 0)
(0.467529 0.0438459 0)
(0.530476 0.0399688 -7.49627e-20)
(0.59923 0.0374148 7.04539e-20)
(0.655315 0.0320242 -2.61985e-19)
(0.74993 0.0336125 2.4577e-19)
(-0.0107458 0.0149655 0)
(-0.0254124 0.0367485 0)
(-0.0335236 0.0523213 -1.66601e-19)
(-0.0354014 0.0627575 5.29834e-20)
(-0.0313952 0.0691191 4.43739e-22)
(-0.0218249 0.0723645 9.25961e-20)
(-0.0069437 0.0733114 0)
(0.0130889 0.0726369 -8.07618e-20)
(0.038211 0.0708868 7.55776e-20)
(0.0684372 0.0684929 -1.42034e-19)
(0.103829 0.0657835 -7.809e-24)
(0.144457 0.063001 1.2568e-19)
(0.190353 0.060316 3.24484e-22)
(0.241466 0.0578394 1.11966e-19)
(0.297624 0.0556322 -1.57228e-19)
(0.35849 0.0537179 0)
(0.423548 0.052088 1.87095e-19)
(0.492098 0.0507162 -2.64086e-19)
(0.563177 0.0495174 8.21891e-20)
(0.636114 0.0486587 0)
(0.707947 0.0472959 7.24514e-20)
(0.783932 0.0478667 2.74958e-19)
(0.842079 0.0443368 -2.58041e-19)
(0.938577 0.0496063 -3.00077e-19)
(-0.0115357 0.0139045 1.74865e-19)
(-0.0262868 0.0332834 -2.40344e-19)
(-0.0329679 0.0465315 5.64926e-22)
(-0.0319226 0.0549225 5.34082e-20)
(-0.0235202 0.0596243 -9.93862e-20)
(-0.00808249 0.0616421 -9.21683e-20)
(0.0141532 0.0618079 1.726e-19)
(0.0430464 0.0607987 -1.04762e-21)
(0.0785378 0.0591617 -1.51936e-19)
(0.120604 0.0573255 2.84244e-19)
(0.169191 0.055615 -6.46308e-23)
(0.224155 0.0542653 -1.25295e-19)
(0.285198 0.0534298 0)
(0.351816 0.0531871 0)
(0.42327 0.0535471 -5.23207e-20)
(0.498573 0.054458 -9.75775e-20)
(0.576512 0.0558163 -1.84769e-19)
(0.655686 0.057475 1.73437e-19)
(0.734543 0.059247 -8.2222e-20)
(0.811705 0.0610558 1.52718e-19)
(0.884645 0.0622525 -7.29473e-20)
(0.956032 0.064374 1.33231e-19)
(1.01053 0.0625176 -3.12128e-19)
(1.08938 0.0683552 5.90548e-20)
(-0.0122107 0.0128205 5.90047e-20)
(-0.0262449 0.0295233 0)
(-0.0302463 0.0401923 1.14039e-19)
(-0.024678 0.0463773 -1.07429e-19)
(-0.00995492 0.0493957 9.94781e-20)
(0.0135941 0.0503303 0)
(0.0457302 0.0500486 0)
(0.0862814 0.0492416 -8.11812e-20)
(0.135075 0.0484512 7.45634e-22)
(0.191853 0.0480856 7.161e-20)
(0.256187 0.0484368 -6.66178e-20)
(0.327387 0.0496802 1.2528e-19)
(0.404461 0.0518791 0)
(0.486097 0.0549908 2.20446e-19)
(0.570689 0.0588754 -4.13891e-19)
(0.656408 0.0633089 2.91892e-19)
(0.741291 0.0680088 1.81845e-19)
(0.823343 0.0726303 -1.70698e-19)
(0.900714 0.0768985 0)
(0.971627 0.080298 0)
(1.03492 0.0829809 0)
(1.08986 0.0839673 0)
(1.13309 0.0836833 6.13079e-20)
(1.18051 0.0844051 -2.23736e-19)
(-0.16414 -0.0144541 -4.99721e-21)
(-0.168832 -0.0278389 5.02599e-21)
(-0.17304 -0.0430617 -1.54911e-22)
(-0.176968 -0.0598649 0)
(-0.180603 -0.0780213 -4.51186e-21)
(-0.18389 -0.0971698 8.72999e-21)
(-0.18679 -0.116813 -4.95841e-23)
(-0.189266 -0.136304 -4.057e-21)
(-0.191281 -0.154839 0)
(-0.192788 -0.17146 0)
(-0.193734 -0.185038 -2.21417e-22)
(-0.194045 -0.194318 -2.10905e-22)
(-0.193582 -0.197973 -3.47503e-21)
(-0.192106 -0.194633 3.18188e-21)
(-0.189251 -0.182991 0)
(-0.184641 -0.16203 0)
(-0.177888 -0.130927 2.93467e-21)
(-0.168613 -0.0894742 3.98108e-24)
(-0.156597 -0.0381984 -2.61359e-21)
(-0.142041 0.0216804 -1.54949e-22)
(-0.125614 0.0868735 0)
(-0.108487 0.15372 0)
(-0.0922036 0.218069 0)
(-0.0784198 0.275494 0)
(-0.0680269 0.322144 0)
(-0.0598706 0.353865 0)
(-0.0494687 0.365909 4.68987e-22)
(-0.0293364 0.35193 -7.73318e-22)
(0.00728708 0.307396 0)
(0.062366 0.231164 0)
(0.133177 0.131625 -5.2353e-22)
(0.213214 0.0223469 5.08772e-22)
(0.294265 -0.0810784 2.26577e-22)
(0.36855 -0.163613 0)
(0.430163 -0.218005 0)
(0.474671 -0.244327 1.05742e-22)
(0.499483 -0.248803 -1.02785e-22)
(0.502326 -0.239351 0)
(0.486972 -0.221388 -2.74722e-23)
(0.467512 -0.193303 4.82596e-23)
(0.462925 -0.151796 -2.57052e-23)
(0.484131 -0.0978824 0)
(0.526356 -0.0404313 4.33005e-23)
(0.578359 0.0110208 -4.21038e-23)
(0.627402 0.0493132 0)
(0.668411 0.0733858 0)
(0.696569 0.0845786 2.26745e-23)
(0.715943 0.0860126 -6.6265e-23)
(0.726161 0.0798785 0)
(0.737264 0.067991 0)
(0.746773 0.0518404 1.48836e-23)
(0.764716 0.0334383 -9.40267e-25)
(0.78014 0.0154159 1.74783e-24)
(0.802829 2.71493e-05 -8.03552e-24)
(0.816442 -0.0115374 0)
(0.836818 -0.0174891 0)
(0.844089 -0.0208588 0)
(0.863989 -0.0162032 0)
(0.866878 -0.0151774 0)
(0.891356 -0.001996 0)
(-0.135444 -0.00815769 -5.07266e-22)
(-0.140311 -0.0218924 -2.08911e-20)
(-0.144514 -0.0375375 2.49195e-22)
(-0.148582 -0.0547949 1.93576e-20)
(-0.152597 -0.0734479 3.009e-22)
(-0.15653 -0.093127 0)
(-0.160393 -0.113326 -1.69741e-20)
(-0.16421 -0.133383 3.32082e-20)
(-0.168006 -0.152491 -1.62286e-20)
(-0.171787 -0.169687 1.47867e-20)
(-0.175558 -0.183834 -1.41511e-20)
(-0.179334 -0.193694 1.30097e-20)
(-0.183068 -0.198014 -1.264e-20)
(-0.186584 -0.195511 -3.63635e-22)
(-0.189557 -0.184979 -1.13004e-20)
(-0.191519 -0.165383 1.09822e-20)
(-0.191877 -0.135919 -1.03833e-20)
(-0.189927 -0.0962748 9.7989e-21)
(-0.184992 -0.0468266 -9.7204e-21)
(-0.176875 0.0111773 1.85424e-20)
(-0.165806 0.0753258 -8.8417e-21)
(-0.152176 0.141907 -4.70982e-22)
(-0.136726 0.206951 -7.30762e-21)
(-0.120022 0.265519 1.37473e-20)
(-0.101753 0.313004 -6.45839e-21)
(-0.0799065 0.343766 3.51893e-22)
(-0.0504601 0.352126 5.56311e-21)
(-0.00813451 0.332064 2.48143e-22)
(0.049865 0.280218 -1.05279e-20)
(0.121602 0.198194 1.04574e-20)
(0.203048 0.095122 -5.11642e-21)
(0.288095 -0.0152055 6.2091e-22)
(0.370383 -0.116668 -2.27018e-22)
(0.443117 -0.194277 3.91469e-22)
(0.501118 -0.241653 0)
(0.541788 -0.259949 0)
(0.565061 -0.25588 -1.74174e-22)
(0.569329 -0.238069 1.56637e-22)
(0.554228 -0.214441 -1.25596e-22)
(0.526731 -0.186441 -9.23413e-23)
(0.503586 -0.150869 2.41122e-22)
(0.500725 -0.104929 -6.7186e-23)
(0.521477 -0.0532284 0)
(0.558631 -0.00359146 0)
(0.599675 0.0361249 0)
(0.637738 0.0632305 0)
(0.666425 0.0775634 -9.64272e-23)
(0.689132 0.0814266 4.42559e-23)
(0.705011 0.0763476 0)
(0.723786 0.0644531 0)
(0.741371 0.0475932 0)
(0.766789 0.0286598 2.05823e-23)
(0.787478 0.0105094 -5.11468e-24)
(0.813423 -0.00437344 1.81588e-23)
(0.827931 -0.0152422 0)
(0.847672 -0.0203474 0)
(0.853091 -0.0233365 -8.74775e-24)
(0.869984 -0.0182839 -2.14661e-23)
(0.870601 -0.0174064 0)
(0.89108 -0.00418935 0)
(-0.0819538 -0.00120332 5.02249e-22)
(-0.0864533 -0.0152055 -4.36728e-20)
(-0.0898544 -0.0309379 4.29152e-20)
(-0.0933373 -0.0484027 -4.01167e-20)
(-0.0970532 -0.0673253 -3.02952e-22)
(-0.100995 -0.0873441 0)
(-0.105219 -0.107953 -3.60077e-20)
(-0.109811 -0.128475 3.52775e-20)
(-0.114849 -0.148088 2.50871e-22)
(-0.120349 -0.165811 4.77388e-22)
(-0.126331 -0.180474 4.43205e-22)
(-0.132885 -0.190822 4.17001e-22)
(-0.140029 -0.195715 -2.39443e-20)
(-0.147648 -0.193954 2.36363e-20)
(-0.155471 -0.184424 0)
(-0.163029 -0.166152 5.81809e-22)
(-0.169635 -0.138387 -1.81425e-20)
(-0.174375 -0.100775 1.79231e-20)
(-0.176154 -0.0536006 0)
(-0.174144 0.00197135 0)
(-0.168027 0.0641797 -1.49381e-20)
(-0.15734 0.129225 2.86344e-20)
(-0.141917 0.193495 -2.60857e-20)
(-0.121381 0.251252 7.40865e-22)
(-0.0947453 0.297571 2.29041e-20)
(-0.0599646 0.325543 -2.28324e-20)
(-0.0141521 0.329627 2.16444e-20)
(0.0450246 0.304564 -8.57374e-23)
(0.11715 0.24796 -1.13688e-20)
(0.198424 0.16306 0)
(0.284752 0.0589767 0)
(0.371173 -0.0511819 3.57413e-21)
(0.452052 -0.14962 -4.7473e-21)
(0.520668 -0.221967 3.65593e-23)
(0.572731 -0.262582 1.8218e-21)
(0.607133 -0.273888 -1.77043e-21)
(0.626114 -0.263043 0)
(0.630469 -0.238245 1.27175e-23)
(0.618876 -0.208211 -4.02324e-22)
(0.591754 -0.177263 1.0199e-21)
(0.559507 -0.14435 -5.18519e-22)
(0.538084 -0.105105 -9.12557e-23)
(0.537586 -0.0601722 6.96496e-22)
(0.556999 -0.0143673 -5.30267e-22)
(0.58666 0.0248773 -1.24056e-22)
(0.619207 0.0536041 -1.11986e-22)
(0.647294 0.0700447 9.66737e-23)
(0.673266 0.0755666 0)
(0.6953 0.0710147 0)
(0.721857 0.0589339 2.56234e-22)
(0.747031 0.0415521 -1.2175e-22)
(0.778564 0.0225446 8.98872e-23)
(0.803033 0.0048137 -1.15302e-22)
(0.830602 -0.00906477 -1.26709e-22)
(0.845019 -0.0188678 3.18235e-23)
(0.863253 -0.0228868 -4.77952e-23)
(0.8667 -0.0252936 3.88059e-23)
(0.880148 -0.0198262 -1.68998e-23)
(0.878667 -0.019013 0)
(0.89447 -0.00597571 0)
(-0.00332701 0.00363307 -9.33068e-20)
(-0.00731278 -0.00876045 9.17214e-22)
(-0.00899144 -0.0240681 8.76467e-20)
(-0.0112111 -0.041401 -6.57279e-22)
(-0.0139504 -0.060208 0)
(-0.0172829 -0.0802148 0)
(-0.0213011 -0.100946 -7.46304e-20)
(-0.0261573 -0.121709 1.66549e-21)
(-0.0319997 -0.141646 1.00939e-19)
(-0.0388329 -0.159729 -1.94493e-21)
(-0.04663 -0.174771 -2.98299e-20)
(-0.0555833 -0.185476 -2.45835e-20)
(-0.0657306 -0.190849 2.46799e-20)
(-0.0768795 -0.189816 0)
(-0.0887412 -0.181266 -1.89536e-20)
(-0.100844 -0.164326 1.73018e-20)
(-0.112474 -0.138336 0)
(-0.122642 -0.102958 0)
(-0.130068 -0.0583986 1.35606e-20)
(-0.133257 -0.00570478 -4.32844e-22)
(-0.131374 0.0534454 -1.19577e-20)
(-0.123129 0.115681 -1.18948e-20)
(-0.107679 0.177823 1.18037e-20)
(-0.0838418 0.233123 -1.12702e-20)
(-0.0503945 0.276333 -1.37323e-24)
(-0.0058019 0.301088 1.06363e-20)
(0.0516086 0.301463 1.41879e-21)
(0.121399 0.272843 -3.43723e-23)
(0.201201 0.214068 0)
(0.286752 0.128587 1.31252e-20)
(0.374318 0.0250772 -1.35735e-20)
(0.45975 -0.0839441 6.93041e-22)
(0.537197 -0.179077 0)
(0.599633 -0.246031 -4.32904e-22)
(0.643872 -0.280186 3.9564e-21)
(0.670406 -0.285339 -5.63243e-21)
(0.683034 -0.269307 1.12129e-21)
(0.684858 -0.239571 9.47676e-22)
(0.676196 -0.204119 -9.3879e-23)
(0.65411 -0.16876 -1.24934e-22)
(0.621827 -0.135303 1.34377e-21)
(0.59065 -0.100113 -1.14639e-21)
(0.573513 -0.0614013 1.83326e-23)
(0.575519 -0.020585 -5.67509e-22)
(0.592045 0.0162901 6.76201e-22)
(0.617081 0.0449692 7.99571e-22)
(0.643272 0.0622062 -2.24142e-22)
(0.67172 0.0684688 -3.36942e-22)
(0.699257 0.0639538 6.12065e-22)
(0.732356 0.0516553 -4.08043e-22)
(0.763407 0.0340921 9.29785e-23)
(0.798811 0.0155327 -1.17354e-22)
(0.825093 -0.00125218 -8.17076e-23)
(0.852496 -0.013752 1.84945e-22)
(0.865856 -0.0222259 -2.3409e-24)
(0.881884 -0.0250267 4.63187e-23)
(0.883421 -0.0267098 0)
(0.893349 -0.0208372 1.78116e-23)
(0.890148 -0.0199927 -2.43052e-23)
(0.901113 -0.00731622 0)
(0.100228 0.00656412 9.65758e-20)
(0.098805 -0.00352135 -1.88637e-19)
(0.0975322 -0.0180787 9.10246e-20)
(0.0969836 -0.0348429 8.83355e-20)
(0.0958021 -0.0530565 -1.71403e-19)
(0.0935984 -0.0725259 2.18187e-21)
(0.090282 -0.0928599 7.92878e-20)
(0.0856525 -0.113368 7.19253e-20)
(0.0794721 -0.133142 -7.04381e-20)
(0.0716756 -0.151112 0)
(0.0623668 -0.166165 -5.58844e-20)
(0.0512401 -0.177262 1.04646e-19)
(0.0380689 -0.18326 -4.8926e-20)
(0.0233445 -0.183024 0)
(0.00756576 -0.175557 0)
(-0.00872729 -0.160075 5.35119e-22)
(-0.0247137 -0.135992 -2.75338e-20)
(-0.0393325 -0.103027 2.67492e-20)
(-0.0512478 -0.061358 0)
(-0.058741 -0.0118657 2.14724e-20)
(-0.0604914 0.0432158 -4.00569e-20)
(-0.0542415 0.101771 3.84073e-20)
(-0.0392305 0.159506 -3.84875e-20)
(-0.0141425 0.211186 -1.12738e-21)
(0.0234956 0.250833 4.0677e-20)
(0.0741964 0.272639 -2.09215e-20)
(0.137957 0.270078 -7.22096e-22)
(0.212834 0.239595 -1.25745e-20)
(0.295407 0.1807 -1.10498e-21)
(0.381759 0.0962386 1.3667e-20)
(0.468389 -0.00630317 8.32539e-22)
(0.551291 -0.113059 -1.15144e-20)
(0.6237 -0.20431 2.03121e-20)
(0.678138 -0.265767 -9.85597e-21)
(0.712974 -0.293929 0)
(0.730615 -0.293827 -2.74848e-21)
(0.735983 -0.273914 2.48011e-21)
(0.733359 -0.241168 1.60076e-22)
(0.725231 -0.202219 -1.78986e-22)
(0.7087 -0.162736 1.31351e-22)
(0.682097 -0.126723 0)
(0.650101 -0.0926539 1.86247e-22)
(0.623982 -0.0583184 -5.37833e-22)
(0.612464 -0.0225475 0)
(0.616542 0.0106819 -1.39128e-21)
(0.633203 0.0377293 5.64088e-22)
(0.656258 0.0543936 -2.10311e-22)
(0.685734 0.0604683 -1.79132e-22)
(0.717061 0.0555921 0)
(0.754375 0.0431573 0)
(0.78876 0.0258165 2.82069e-22)
(0.825379 0.00817678 -4.03946e-22)
(0.8514 -0.00723972 2.12407e-22)
(0.876974 -0.0181348 -6.43853e-23)
(0.888462 -0.0251554 -1.10195e-22)
(0.901814 -0.0267214 -4.63623e-23)
(0.901637 -0.0276124 7.45704e-23)
(0.908283 -0.0213724 0)
(0.903866 -0.0204028 3.93911e-23)
(0.910316 -0.00821945 1.25092e-23)
(0.229036 0.00961746 9.95732e-20)
(0.229833 4.58319e-05 -9.88715e-20)
(0.228914 -0.0136425 7.35067e-22)
(0.229521 -0.0294869 -7.17422e-22)
(0.229934 -0.0466912 6.85527e-22)
(0.229096 -0.0651769 -6.56276e-22)
(0.226788 -0.0846011 1.25798e-21)
(0.222808 -0.104254 0)
(0.216834 -0.123236 -1.10152e-21)
(0.208605 -0.140529 1.01273e-21)
(0.197984 -0.155133 9.18589e-22)
(0.184791 -0.166212 -8.2813e-22)
(0.168895 -0.172534 0)
(0.150643 -0.172955 0)
(0.13065 -0.166666 5.39716e-22)
(0.109764 -0.152931 0)
(0.0890921 -0.131203 -3.87737e-22)
(0.0699359 -0.101219 0)
(0.0537604 -0.0631405 -1.82559e-20)
(0.0421304 -0.0177936 3.48709e-20)
(0.0369153 0.0327638 -3.25604e-20)
(0.0405744 0.0868203 1.58501e-20)
(0.0542315 0.139404 1.67466e-20)
(0.0794206 0.187193 -1.62625e-20)
(0.1183 0.223634 -2.0603e-20)
(0.171066 0.242439 2.00794e-20)
(0.236735 0.237767 0)
(0.312486 0.206845 8.2297e-22)
(0.394441 0.14925 0)
(0.479252 0.0668508 0)
(0.56402 -0.034125 2.62517e-20)
(0.643556 -0.137778 -2.72702e-20)
(0.709304 -0.224653 1.37829e-21)
(0.754237 -0.280611 1.00172e-21)
(0.778545 -0.303457 -7.18561e-22)
(0.7867 -0.299195 -2.5982e-21)
(0.784625 -0.276586 2.52284e-21)
(0.776869 -0.242299 -3.43524e-23)
(0.767111 -0.201781 -1.17399e-23)
(0.754164 -0.159591 -2.57535e-22)
(0.734793 -0.120588 1.47476e-21)
(0.708149 -0.0854633 3.0029e-22)
(0.681031 -0.0531791 -1.12662e-21)
(0.662295 -0.0214044 0)
(0.657106 0.00781352 6.12724e-22)
(0.666081 0.032101 -7.22233e-22)