/*--------------------------------*- C++ -*----------------------------------*\
| =========                 |                                                 |
| \\      /  F ield         | OpenFOAM: The Open Source CFD Toolbox           |
|  \\    /   O peration     | Version:  2512                                  |
|   \\  /    A nd           | Website:  www.openfoam.com                      |
|    \\/     M anipulation  |                                                 |
\*---------------------------------------------------------------------------*/
FoamFile
{
    version     2.0;
    format      ascii;
    arch        "LSB;label=32;scalar=64";
    class       volScalarField;
    location    "90.25";
    object      p;
}
// * * * * * * * * * * * * * * * * * * * * * * * * * * * * * * * * * * * * * //

dimensions      [0 2 -2 0 0 0 0];

internalField   nonuniform List<scalar> 
13248
(
-0.369621
-0.368008
-0.366278
-0.364473
-0.362563
-0.360482
-0.358078
-0.355133
-0.351396
-0.346616
-0.340569
-0.333091
-0.324102
-0.31362
-0.301764
-0.288743
-0.274828
-0.260326
-0.245542
-0.230777
-0.216232
-0.202197
-0.188419
-0.175354
-0.378061
-0.375537
-0.372906
-0.370204
-0.367388
-0.364406
-0.361102
-0.357238
-0.352544
-0.346758
-0.33967
-0.331155
-0.321195
-0.309885
-0.297411
-0.284032
-0.270039
-0.25573
-0.241375
-0.22721
-0.213404
-0.20012
-0.187277
-0.17521
-0.387334
-0.383823
-0.38023
-0.376576
-0.372791
-0.368824
-0.364503
-0.359561
-0.353709
-0.346693
-0.338341
-0.328599
-0.317535
-0.305324
-0.292216
-0.278498
-0.264459
-0.250362
-0.236429
-0.222832
-0.209685
-0.197101
-0.184999
-0.173527
-0.397753
-0.393147
-0.388536
-0.383895
-0.379085
-0.374029
-0.36852
-0.362261
-0.354963
-0.346413
-0.336523
-0.325345
-0.313048
-0.299885
-0.286148
-0.272123
-0.258068
-0.244191
-0.230648
-0.217552
-0.20497
-0.192974
-0.181478
-0.17068
-0.409542
-0.403715
-0.398033
-0.392366
-0.38645
-0.380146
-0.3732
-0.365306
-0.356215
-0.345816
-0.334151
-0.321399
-0.30783
-0.293746
-0.279443
-0.265173
-0.251132
-0.237462
-0.224258
-0.211579
-0.199458
-0.187921
-0.17691
-0.166571
-0.422775
-0.415611
-0.408808
-0.402057
-0.394896
-0.387095
-0.378369
-0.368449
-0.357198
-0.344668
-0.331063
-0.316689
-0.301881
-0.28695
-0.272151
-0.257674
-0.243645
-0.230141
-0.217206
-0.204857
-0.193101
-0.181935
-0.171315
-0.161353
-0.437335
-0.428755
-0.420786
-0.412849
-0.404217
-0.394565
-0.383628
-0.371259
-0.357519
-0.342664
-0.327065
-0.311114
-0.295161
-0.279477
-0.26425
-0.249592
-0.235563
-0.222186
-0.209462
-0.19738
-0.185923
-0.175068
-0.164789
-0.15513
-0.452893
-0.442878
-0.433697
-0.424408
-0.413973
-0.402018
-0.388396
-0.37319
-0.356727
-0.339479
-0.321939
-0.304528
-0.287556
-0.271218
-0.255619
-0.240798
-0.226758
-0.213476
-0.200924
-0.189066
-0.17787
-0.1673
-0.157334
-0.147947
-0.468897
-0.457496
-0.447045
-0.436156
-0.423492
-0.408729
-0.391979
-0.373659
-0.354387
-0.334812
-0.315482
-0.296779
-0.27893
-0.262038
-0.246126
-0.231168
-0.21712
-0.203926
-0.191532
-0.179884
-0.168935
-0.158644
-0.14898
-0.139858
-0.484559
-0.471884
-0.460076
-0.447257
-0.431879
-0.413832
-0.393636
-0.372102
-0.350107
-0.328398
-0.307497
-0.287698
-0.269122
-0.251778
-0.235618
-0.220563
-0.206531
-0.193439
-0.181212
-0.169781
-0.159087
-0.14908
-0.139709
-0.130859
-0.498883
-0.485078
-0.471777
-0.456631
-0.438059
-0.416363
-0.392581
-0.367914
-0.343415
-0.31984
-0.297619
-0.276927
-0.257776
-0.240093
-0.223765
-0.208675
-0.194708
-0.181761
-0.169741
-0.158564
-0.148159
-0.138466
-0.129402
-0.120859
-0.510755
-0.496006
-0.481054
-0.463162
-0.440952
-0.415338
-0.387946
-0.360312
-0.333577
-0.308419
-0.285132
-0.263759
-0.244205
-0.226322
-0.209946
-0.194922
-0.181113
-0.168393
-0.156656
-0.145807
-0.135768
-0.126465
-0.117786
-0.109677
-0.330624
-0.33271
-0.333948
-0.334748
-0.335507
-0.336373
-0.337412
-0.338654
-0.340102
-0.341745
-0.343571
-0.345566
-0.347713
-0.349993
-0.35238
-0.354834
-0.357301
-0.359708
-0.361964
-0.363958
-0.365534
-0.36648
-0.366658
-0.366202
-0.326655
-0.329313
-0.330872
-0.331834
-0.332655
-0.333468
-0.334319
-0.335216
-0.336141
-0.337057
-0.337921
-0.338687
-0.339305
-0.339721
-0.339878
-0.339712
-0.339154
-0.338131
-0.336571
-0.334409
-0.331538
-0.327778
-0.323204
-0.318842
-0.323892
-0.326961
-0.328758
-0.329842
-0.3307
-0.331447
-0.332105
-0.332662
-0.333073
-0.333275
-0.333195
-0.332754
-0.331869
-0.330452
-0.328419
-0.325681
-0.322156
-0.317768
-0.312461
-0.306208
-0.298953
-0.290539
-0.281142
-0.272566
-0.322662
-0.325954
-0.32789
-0.329052
-0.329926
-0.330606
-0.331088
-0.331336
-0.331281
-0.330834
-0.329893
-0.328349
-0.326088
-0.322996
-0.318963
-0.313886
-0.307674
-0.300252
-0.291581
-0.281669
-0.270534
-0.258074
-0.244406
-0.23176
-0.323136
-0.326449
-0.328418
-0.329609
-0.33048
-0.331096
-0.331427
-0.331412
-0.33096
-0.329957
-0.328275
-0.325778
-0.322328
-0.317789
-0.312035
-0.304955
-0.296458
-0.286484
-0.275012
-0.262083
-0.247802
-0.232189
-0.215183
-0.198576
-0.325326
-0.328462
-0.330353
-0.331517
-0.332358
-0.332907
-0.333109
-0.332881
-0.332106
-0.33065
-0.32836
-0.325082
-0.320657
-0.314934
-0.30778
-0.299085
-0.288773
-0.276809
-0.26321
-0.248052
-0.231499
-0.213719
-0.194636
-0.17465
-0.329097
-0.331871
-0.33357
-0.334637
-0.335404
-0.33587
-0.335953
-0.335544
-0.334508
-0.332689
-0.329916
-0.326016
-0.320818
-0.314165
-0.305925
-0.296
-0.284341
-0.270954
-0.255909
-0.239341
-0.221464
-0.202512
-0.182724
-0.161585
-0.334184
-0.336436
-0.337831
-0.33872
-0.339351
-0.339687
-0.339627
-0.33904
-0.337767
-0.335635
-0.332456
-0.328046
-0.322226
-0.314839
-0.305767
-0.294938
-0.282342
-0.268041
-0.252169
-0.234934
-0.21663
-0.197426
-0.178422
-0.156881
-0.340266
-0.341871
-0.342848
-0.343452
-0.343849
-0.343976
-0.343709
-0.342895
-0.341356
-0.3389
-0.335328
-0.330444
-0.324072
-0.316066
-0.306333
-0.29484
-0.281633
-0.266838
-0.250663
-0.233369
-0.215382
-0.196632
-0.179068
-0.158626
-0.347022
-0.34789
-0.348338
-0.348534
-0.348568
-0.348362
-0.347776
-0.346635
-0.344743
-0.341893
-0.337873
-0.332486
-0.325564
-0.316986
-0.306696
-0.294717
-0.281159
-0.266218
-0.250169
-0.233317
-0.21616
-0.19857
-0.182495
-0.164413
-0.354209
-0.354285
-0.354092
-0.353739
-0.353256
-0.352561
-0.351503
-0.349893
-0.34752
-0.344158
-0.339592
-0.333628
-0.326117
-0.316974
-0.306194
-0.293861
-0.280149
-0.265314
-0.249672
-0.233574
-0.217461
-0.201465
-0.18691
-0.171839
-0.361725
-0.360968
-0.360036
-0.358993
-0.357837
-0.35649
-0.354803
-0.352574
-0.349575
-0.345568
-0.340334
-0.333688
-0.325511
-0.315762
-0.304494
-0.291854
-0.27807
-0.263433
-0.248263
-0.23291
-0.217679
-0.202917
-0.189192
-0.176167
-0.364479
-0.363054
-0.3575
-0.347645
-0.333258
-0.314342
-0.292491
-0.269022
-0.246244
-0.226295
-0.212369
-0.206447
-0.209539
-0.220704
-0.236614
-0.251902
-0.260215
-0.2561
-0.23687
-0.205184
-0.168393
-0.134488
-0.108482
-0.0919102
-0.0840094
-0.0833499
-0.0898566
-0.104745
-0.125879
-0.144604
-0.150083
-0.139532
-0.118098
-0.0952209
-0.0778788
-0.0681116
-0.0646188
-0.0674212
-0.0787537
-0.0958569
-0.107786
-0.105421
-0.0905977
-0.0731207
-0.0593845
-0.0503252
-0.0471321
-0.0498734
-0.0539143
-0.0538857
-0.0485107
-0.0430885
-0.0378819
-0.0337491
-0.0325539
-0.0318164
-0.0286509
-0.0279204
-0.020713
-0.00440827
-0.314451
-0.309294
-0.302352
-0.293024
-0.281035
-0.266546
-0.250592
-0.234474
-0.220535
-0.210321
-0.206017
-0.209737
-0.2215
-0.239446
-0.25973
-0.276983
-0.285072
-0.279212
-0.256763
-0.220879
-0.179654
-0.141655
-0.111999
-0.0920232
-0.0808457
-0.0769928
-0.0799613
-0.0907068
-0.107959
-0.124596
-0.131071
-0.123551
-0.10634
-0.0875108
-0.0737618
-0.0670189
-0.0661037
-0.0715654
-0.0857532
-0.105341
-0.118382
-0.115219
-0.0980954
-0.0776456
-0.0610496
-0.0496821
-0.0443913
-0.0448613
-0.0474259
-0.0469157
-0.043129
-0.0395302
-0.0363434
-0.0344248
-0.0349083
-0.0358666
-0.0324659
-0.0314726
-0.0232944
-0.00496424
-0.265144
-0.256361
-0.247858
-0.238672
-0.228704
-0.21787
-0.207497
-0.197972
-0.193385
-0.1919
-0.196903
-0.209265
-0.228226
-0.251325
-0.274655
-0.29325
-0.301442
-0.294308
-0.2698
-0.231219
-0.187074
-0.146243
-0.113907
-0.0912282
-0.0772051
-0.0703485
-0.0699083
-0.0765553
-0.0898146
-0.104154
-0.11125
-0.106577
-0.0935013
-0.0787258
-0.0686323
-0.0649756
-0.0667073
-0.074839
-0.0917341
-0.113611
-0.127734
-0.123966
-0.104814
-0.0816396
-0.0623541
-0.0488427
-0.0416846
-0.0401202
-0.0413402
-0.0402814
-0.0378498
-0.0358524
-0.034671
-0.0350518
-0.0373116
-0.0399617
-0.0362102
-0.0348781
-0.0257759
-0.00551155
-0.222304
-0.210235
-0.199688
-0.190191
-0.182165
-0.174156
-0.168116
-0.165352
-0.167064
-0.173608
-0.186301
-0.205288
-0.229362
-0.255878
-0.281135
-0.300804
-0.308782
-0.301264
-0.275905
-0.236154
-0.19068
-0.148395
-0.114421
-0.0897982
-0.0734803
-0.0639988
-0.0604368
-0.0632072
-0.0724624
-0.0842057
-0.091385
-0.0891534
-0.0800058
-0.0691324
-0.0626077
-0.0619519
-0.0662526
-0.0769123
-0.0962917
-0.120331
-0.135575
-0.131438
-0.110603
-0.0850379
-0.0633077
-0.0478463
-0.0390689
-0.0357383
-0.035761
-0.0340806
-0.0327479
-0.0321065
-0.0328836
-0.0356219
-0.0397443
-0.0440786
-0.0398471
-0.0381013
-0.0281279
-0.00604366
-0.188998
-0.175115
-0.161036
-0.150967
-0.144998
-0.139519
-0.136984
-0.138418
-0.14505
-0.157134
-0.17501
-0.198268
-0.225384
-0.253679
-0.279793
-0.300903
-0.307952
-0.300588
-0.27549
-0.236093
-0.190913
-0.148579
-0.11395
-0.0880588
-0.0699749
-0.058301
-0.0520587
-0.0513177
-0.0566533
-0.0655597
-0.0722512
-0.0717962
-0.0662697
-0.0589771
-0.0557674
-0.0578912
-0.0645654
-0.0775263
-0.0991591
-0.125239
-0.141636
-0.137414
-0.115342
-0.0878061
-0.0639425
-0.0467424
-0.036585
-0.0317557
-0.0307473
-0.0283966
-0.0278941
-0.0283457
-0.0309977
-0.0361213
-0.0421825
-0.0481841
-0.0433352
-0.0411051
-0.0303223
-0.00655413
-0.165664
-0.149272
-0.134572
-0.124896
-0.118276
-0.114363
-0.114156
-0.11852
-0.128129
-0.14325
-0.163822
-0.189094
-0.217381
-0.24599
-0.271408
-0.289123
-0.299698
-0.293347
-0.269389
-0.231671
-0.188294
-0.1472
-0.112843
-0.0863056
-0.0669208
-0.0534713
-0.0449844
-0.0412859
-0.0429785
-0.0488867
-0.0545887
-0.0550286
-0.0527303
-0.048522
-0.0482158
-0.0527998
-0.0615899
-0.0765681
-0.100173
-0.128119
-0.145715
-0.141774
-0.118952
-0.0899133
-0.0642817
-0.0455677
-0.0342526
-0.0281792
-0.0263204
-0.0232881
-0.0233453
-0.0246231
-0.0290263
-0.0365289
-0.0445914
-0.0522391
-0.0466556
-0.0438571
-0.0323319
-0.00703551
-0.152544
-0.136234
-0.122316
-0.109709
-0.102488
-0.0990552
-0.0998536
-0.105385
-0.11613
-0.132241
-0.153439
-0.178844
-0.206792
-0.234737
-0.259474
-0.277872
-0.286943
-0.281061
-0.258825
-0.223866
-0.183504
-0.144699
-0.111402
-0.0847698
-0.0644894
-0.049633
-0.0392979
-0.0331533
-0.0316753
-0.0346045
-0.0390798
-0.0423919
-0.0398981
-0.0380812
-0.0401541
-0.0468021
-0.0573715
-0.0739938
-0.0992355
-0.12885
-0.147713
-0.144473
-0.12138
-0.0913282
-0.0643345
-0.0443455
-0.0320765
-0.0249858
-0.0224585
-0.0187832
-0.019144
-0.0209932
-0.0269774
-0.0368167
-0.0469279
-0.0562006
-0.0504364
-0.0463317
-0.0341335
-0.00747997
-0.148367
-0.132696
-0.116016
-0.103213
-0.0956283
-0.0921724
-0.0928151
-0.0981413
-0.108549
-0.124061
-0.144306
-0.168408
-0.194807
-0.221192
-0.245042
-0.262458
-0.270394
-0.264963
-0.244956
-0.213599
-0.177127
-0.141361
-0.109733
-0.0834888
-0.0626871
-0.0467648
-0.0349587
-0.0268483
-0.0227297
-0.0228479
-0.025614
-0.0282861
-0.0278239
-0.0279763
-0.0318483
-0.0400795
-0.0520261
-0.0698798
-0.0963402
-0.127428
-0.147633
-0.145464
-0.122593
-0.0920333
-0.0641125
-0.0430941
-0.0300592
-0.0221493
-0.0191155
-0.0148751
-0.0153138
-0.0175092
-0.0248559
-0.036952
-0.0491438
-0.0599929
-0.0534293
-0.0484856
-0.0357106
-0.00788169
-0.150514
-0.135856
-0.117622
-0.105093
-0.0966168
-0.0923631
-0.0918635
-0.095869
-0.104735
-0.118411
-0.136519
-0.158236
-0.182077
-0.206062
-0.228471
-0.244087
-0.250955
-0.246222
-0.228952
-0.201794
-0.169738
-0.137457
-0.107922
-0.0824813
-0.0615206
-0.0448495
-0.031919
-0.0222692
-0.0160329
-0.0136241
-0.0144663
-0.0163186
-0.016981
-0.0185202
-0.0235823
-0.0328719
-0.0456946
-0.0642594
-0.0915981
-0.123994
-0.145552
-0.144757
-0.122626
-0.0921007
-0.0637156
-0.0418974
-0.0282374
-0.0196627
-0.0162684
-0.0115496
-0.0118504
-0.014223
-0.0226558
-0.0368989
-0.0511889
-0.0635611
-0.056107
-0.0502972
-0.0370496
-0.00823872
-0.156312
-0.143637
-0.128363
-0.113763
-0.103802
-0.0979105
-0.0955598
-0.0973927
-0.103812
-0.114729
-0.129839
-0.14838
-0.169012
-0.189857
-0.208389
-0.223308
-0.229832
-0.226389
-0.212344
-0.189751
-0.162354
-0.133789
-0.106633
-0.0823261
-0.061513
-0.0443257
-0.0304945
-0.0195966
-0.0116369
-0.00700697
-0.00581947
-0.0066048
-0.00761326
-0.00993294
-0.0155788
-0.0253963
-0.0386563
-0.057543
-0.0852295
-0.118583
-0.141535
-0.142483
-0.1216
-0.0916928
-0.0633229
-0.0409219
-0.0266942
-0.0175113
-0.0138851
-0.0088472
-0.00874794
-0.0111692
-0.0203806
-0.0366265
-0.0529986
-0.0668419
-0.0584953
-0.051753
-0.0381282
-0.00854562
-0.164181
-0.15164
-0.137107
-0.123793
-0.113232
-0.105941
-0.101956
-0.101235
-0.104591
-0.112123
-0.123689
-0.138688
-0.155903
-0.173823
-0.189934
-0.201791
-0.208092
-0.206357
-0.195939
-0.178158
-0.155569
-0.130876
-0.106292
-0.0833266
-0.0628662
-0.0453141
-0.030702
-0.018763
-0.00940062
-0.00283479
0.000424499
0.000903335
9.04759e-05
-0.0024564
-0.0081199
-0.0178763
-0.0308944
-0.0495034
-0.0774751
-0.11195
-0.135779
-0.138714
-0.119281
-0.0905741
-0.0626658
-0.0400159
-0.0253299
-0.0155593
-0.0117572
-0.00668827
-0.00614555
-0.00845918
-0.0179618
-0.0360877
-0.0545444
-0.0697729
-0.0605362
-0.0528389
-0.038909
-0.00877361
-0.168131
-0.158162
-0.146679
-0.134502
-0.123551
-0.115126
-0.109586
-0.107024
-0.107503
-0.111422
-0.118856
-0.129347
-0.142174
-0.156566
-0.169733
-0.179824
-0.185033
-0.184508
-0.177241
-0.16372
-0.145474
-0.124448
-0.102536
-0.0812582
-0.0616779
-0.0443622
-0.0295304
-0.0171423
-0.0070928
0.000735649
0.00576818
0.00751419
0.00677874
0.00410928
-0.00148086
-0.0108897
-0.0234272
-0.0413322
-0.0686996
-0.103263
-0.127913
-0.131722
-0.114752
-0.0875561
-0.0604046
-0.038102
-0.0234715
-0.0134495
-0.00953941
-0.00449404
-0.00450905
-0.00612171
-0.015544
-0.0352769
-0.0556804
-0.0723073
-0.0621164
-0.0535213
-0.0393784
-0.00887209
-0.16226
-0.157631
-0.147408
-0.135968
-0.125989
-0.118242
-0.112788
-0.109653
-0.10916
-0.111757
-0.117519
-0.126097
-0.136821
-0.148608
-0.15912
-0.167251
-0.171251
-0.169891
-0.162582
-0.149859
-0.133046
-0.11379
-0.0936987
-0.0740592
-0.0557966
-0.0394167
-0.0251319
-0.0129548
-0.00285451
0.00534475
0.0112415
0.0141925
0.0142584
0.0122024
0.00685095
-0.00151896
-0.0129606
-0.0303733
-0.0587964
-0.0964633
-0.124251
-0.13035
-0.110887
-0.0834234
-0.0567216
-0.0350025
-0.0209317
-0.0112082
-0.00740274
-0.00194262
-0.00138271
-0.00291149
-0.0123618
-0.0338992
-0.0565243
-0.0748607
-0.0635716
-0.0538132
-0.0396068
-0.00886988
-0.156803
-0.154042
-0.144833
-0.134352
-0.125485
-0.118724
-0.113865
-0.110918
-0.110184
-0.111972
-0.11631
-0.122874
-0.13101
-0.139464
-0.147394
-0.15312
-0.155242
-0.152884
-0.145742
-0.134246
-0.119397
-0.102446
-0.0846402
-0.0670106
-0.050356
-0.0351421
-0.0216131
-0.00988477
2.75471e-05
0.00838802
0.014831
0.0184805
0.0188892
0.0168309
0.0125832
0.00549499
-0.00471041
-0.0213821
-0.0502744
-0.0895704
-0.118231
-0.122958
-0.104065
-0.0775703
-0.0523866
-0.0319275
-0.0185587
-0.00911608
-0.00543766
5.08419e-05
0.000396084
-0.000597803
-0.00999684
-0.0327414
-0.0571692
-0.0767159
-0.064468
-0.0535219
-0.0394468
-0.0088684
-0.149677
-0.148211
-0.140607
-0.131437
-0.123658
-0.117838
-0.113696
-0.111105
-0.110213
-0.111217
-0.114121
-0.118658
-0.124312
-0.130239
-0.13559
-0.139109
-0.139796
-0.137009
-0.130478
-0.120417
-0.107491
-0.0926181
-0.0767869
-0.0608647
-0.0455703
-0.0313667
-0.0185207
-0.0071782
0.00254942
0.010893
0.0175962
0.0218249
0.0228698
0.0213032
0.0176782
0.0114503
0.0018711
-0.0146482
-0.0434262
-0.0818218
-0.109599
-0.113885
-0.0960905
-0.0712035
-0.0478266
-0.0287325
-0.0161389
-0.00705336
-0.00351493
0.00191156
0.00220058
0.00128335
-0.00829856
-0.0318852
-0.0575383
-0.0778988
-0.0649336
-0.0527779
-0.0389591
-0.00887028
-0.140685
-0.141148
-0.135433
-0.127658
-0.120894
-0.115886
-0.112342
-0.109998
-0.10888
-0.109127
-0.110769
-0.113631
-0.117306
-0.121166
-0.124457
-0.126342
-0.126053
-0.123024
-0.116979
-0.10802
-0.0966164
-0.0834663
-0.0693558
-0.0549982
-0.04101
-0.0278199
-0.0157011
-0.0048043
0.00468044
0.0128988
0.0197085
0.0244487
0.0262531
0.0254606
0.0227491
0.0174702
0.00837917
-0.0080412
-0.035932
-0.0725978
-0.0995369
-0.103621
-0.0871205
-0.0641928
-0.0428626
-0.02536
-0.0136826
-0.00502477
-0.0016225
0.003709
0.00398053
0.00298658
-0.00673091
-0.0308088
-0.057309
-0.0783952
-0.0649447
-0.0516095
-0.0380956
-0.00884677
-0.131373
-0.133424
-0.129374
-0.122931
-0.117115
-0.1128
-0.109736
-0.107595
-0.106317
-0.106001
-0.106688
-0.108251
-0.110373
-0.112581
-0.114316
-0.114941
-0.113846
-0.110567
-0.104875
-0.0968191
-0.0867231
-0.0750909
-0.0625227
-0.0495906
-0.0368177
-0.024595
-0.0132065
-0.00279935
0.00640197
0.0144452
0.0212325
0.0263005
0.0288037
0.028996
0.0275095
0.0235183
0.0153317
-0.000553787
-0.0273287
-0.0624293
-0.088221
-0.0920398
-0.0772025
-0.0566749
-0.0376223
-0.0218655
-0.0112128
-0.00303883
0.000237516
0.00542918
0.00566101
0.00457738
-0.00500969
-0.0291949
-0.0563167
-0.0780131
-0.0643643
-0.0499674
-0.0368202
-0.00877533
-0.122133
-0.125104
-0.122449
-0.117272
-0.112367
-0.108679
-0.106043
-0.104119
-0.102786
-0.10209
-0.102068
-0.102632
-0.103562
-0.104509
-0.105039
-0.104663
-0.102923
-0.0994647
-0.0940939
-0.0868127
-0.0778268
-0.0674932
-0.0562691
-0.0446138
-0.0329691
-0.0216785
-0.0110245
-0.00115296
0.00771131
0.0155434
0.0222208
0.027458
0.0305307
0.0316699
0.031526
0.0291518
0.0223706
0.00726164
-0.0185106
-0.0517645
-0.0757729
-0.0793742
-0.0666192
-0.0488488
-0.0322137
-0.0182877
-0.00874489
-0.00110507
0.00205552
0.00706899
0.00726471
0.00606179
-0.0031026
-0.0269831
-0.0544002
-0.076484
-0.0630464
-0.047825
-0.0351142
-0.00863136
-0.112698
-0.116333
-0.114879
-0.110859
-0.10681
-0.103708
-0.101471
-0.099774
-0.0984532
-0.0975128
-0.0969844
-0.0968221
-0.096867
-0.0968629
-0.0964806
-0.0953604
-0.0931601
-0.0896019
-0.0845193
-0.0778861
-0.0698328
-0.060613
-0.0505722
-0.0400709
-0.0294765
-0.0190824
-0.00915815
0.000146471
0.00861726
0.0161984
0.0227248
0.028025
0.031506
0.0334068
0.0344475
0.0337153
0.0285452
0.014337
-0.0101964
-0.0409067
-0.0625379
-0.066038
-0.0557094
-0.0409361
-0.0267734
-0.0146829
-0.00629635
0.000768797
0.00382662
0.008637
0.00881849
0.00744327
-0.00106197
-0.0241337
-0.0513644
-0.0735806
-0.0608666
-0.0451834
-0.0329786
-0.00839142
-0.103284
-0.107417
-0.106925
-0.103899
-0.100625
-0.0980623
-0.0961928
-0.0947196
-0.0934597
-0.0923878
-0.0915285
-0.0908601
-0.0902744
-0.089586
-0.088554
-0.0869116
-0.0844002
-0.0808034
-0.075985
-0.0699096
-0.0626586
-0.0544079
-0.0454139
-0.0359549
-0.0263339
-0.0167987
-0.0075966
0.00112199
0.0091519
0.0164308
0.0227772
0.0280611
0.0318084
0.034231
0.036097
0.0366255
0.032885
0.0198957
-0.00270113
-0.0300618
-0.0489284
-0.0525601
-0.044881
-0.0331805
-0.0214454
-0.0111149
-0.00388284
0.00258026
0.00555073
0.010146
0.0103488
0.00875032
0.00110996
-0.0205607
-0.047071
-0.0691555
-0.0577311
-0.0420677
-0.0304398
-0.00803594
-0.0941967
-0.0985464
-0.0987631
-0.0965683
-0.0939782
-0.091903
-0.0903698
-0.0891167
-0.0879566
-0.0868434
-0.085792
-0.0847968
-0.0837893
-0.0826388
-0.0811687
-0.0791808
-0.0764817
-0.072908
-0.0683517
-0.0627754
-0.0562265
-0.0488249
-0.0407602
-0.0322451
-0.0235265
-0.0148122
-0.00632183
0.00179953
0.00935452
0.0162817
0.0224057
0.0275982
0.0314929
0.0342311
0.036503
0.0376808
0.0349769
0.0236728
0.00390062
-0.0194631
-0.0355548
-0.0396079
-0.0345815
-0.0258173
-0.0163646
-0.00765362
-0.00152258
0.00432968
0.00723056
0.0116133
0.0118934
0.0100618
0.00347842
-0.0162168
-0.0415022
-0.0631764
-0.0535994
-0.0385309
-0.0275539
-0.00755278
-0.0854462
-0.0898115
-0.0905458
-0.0890341
-0.0870339
-0.0853898
-0.0841614
-0.0831213
-0.0820863
-0.0809971
-0.0798615
-0.0786824
-0.0774193
-0.0759815
-0.0742412
-0.0720532
-0.0692754
-0.0657851
-0.0614981
-0.0563786
-0.0504538
-0.0438048
-0.0365714
-0.028915
-0.0210339
-0.0131012
-0.00530835
0.00220955
0.00926753
0.0158013
0.0216468
0.0266756
0.0306132
0.0335084
0.0358835
0.0371999
0.0351642
0.0258665
0.00950948
-0.0096896
-0.0233043
-0.0278873
-0.0252202
-0.019041
-0.0116395
-0.00436803
0.000759717
0.00601421
0.00886822
0.0130634
0.0135052
0.0115054
0.00611975
-0.011161
-0.034788
-0.055769
-0.0485121
-0.0346548
-0.0244072
-0.00694033
-0.077038
-0.0813203
-0.0824183
-0.0814497
-0.0799431
-0.0786715
-0.0777139
-0.0768739
-0.0759777
-0.0749593
-0.0738195
-0.0725652
-0.0711744
-0.0695865
-0.0677109
-0.0654421
-0.0626758
-0.0593209
-0.0553129
-0.0506215
-0.0452617
-0.0392888
-0.0328052
-0.0259328
-0.0188296
-0.0116384
-0.00452497
0.00238872
0.00893438
0.015041
0.0205586
0.0253609
0.0292413
0.0321715
0.0344836
0.0356836
0.0340934
0.0267758
0.0138224
-0.00152896
-0.0129842
-0.0179086
-0.017066
-0.0129793
-0.00734277
-0.00131846
0.00293344
0.00762045
0.0104552
0.0145203
0.0152421
0.01323
0.00908722
-0.00557604
-0.0272286
-0.0472452
-0.0426033
-0.030545
-0.0211118
-0.00620977
-0.0690536
-0.073162
-0.0744884
-0.0739387
-0.0728369
-0.0718808
-0.071159
-0.0705027
-0.0697499
-0.068832
-0.0677441
-0.0664947
-0.0650735
-0.0634415
-0.0615352
-0.0592784
-0.0565951
-0.0534185
-0.0497009
-0.0454179
-0.0405782
-0.0352193
-0.0294168
-0.0232628
-0.0168826
-0.010393
-0.00393637
0.00237913
0.00840213
0.0140571
0.0192098
0.0237371
0.0274732
0.0303401
0.0325051
0.0335174
0.0322456
0.0265987
0.0166008
0.00456189
-0.00494374
-0.00982855
-0.0102062
-0.00768975
-0.00351219
0.0014476
0.00496721
0.00912682
0.0119625
0.0159704
0.0171267
0.0153689
0.0123981
0.000234298
-0.0192976
-0.0380919
-0.0360954
-0.0263191
-0.0177951
-0.00538653
-0.061521
-0.0653841
-0.0668347
-0.0666027
-0.0658279
-0.065134
-0.0646133
-0.0641214
-0.0635097
-0.0627085
-0.0617094
-0.0605211
-0.0591402
-0.0575422
-0.0556831
-0.0535084
-0.0509632
-0.0479993
-0.0445818
-0.0406925
-0.0363367
-0.0315408
-0.0263612
-0.0208675
-0.0151592
-0.00933152
-0.00350516
0.00222451
0.0077233
0.012913
0.017671
0.021888
0.0254144
0.0281421
0.0301206
0.0309578
0.0299267
0.0255885
0.0179953
0.00871518
0.00101176
-0.00352112
-0.00459319
-0.00317696
-0.000158926
0.00389765
0.00682961
0.010511
0.0133493
0.0173341
0.0190817
0.0179479
0.0159628
0.0058418
-0.0115824
-0.0288871
-0.0292823
-0.0220966
-0.0145841
-0.00450904
-0.0544448
-0.0580247
-0.0595223
-0.0595241
-0.0590085
-0.0585284
-0.0581757
-0.057827
-0.0573471
-0.056669
-0.0557817
-0.0546918
-0.0533996
-0.0518904
-0.0501343
-0.0480926
-0.0457257
-0.042999
-0.0398878
-0.0363792
-0.0324774
-0.0282015
-0.0235942
-0.0187089
-0.0136246
-0.00841866
-0.00319314
0.00196885
0.00694967
0.0116715
0.0160213
0.0198969
0.0231676
0.025711
0.0274991
0.0282078
0.0273843
0.0240741
0.0183857
0.0113501
0.00525467
0.00127024
-0.000106637
0.000587774
0.00272215
0.00601687
0.00848976
0.0117452
0.0145761
0.0185014
0.0209038
0.0206773
0.0194105
0.0107061
-0.00466089
-0.0201736
-0.0224826
-0.0179896
-0.0115897
-0.00362366
-0.0478359
-0.0511102
-0.0525952
-0.0527627
-0.0524491
-0.0521407
-0.0519257
-0.0516991
-0.0513395
-0.0507831
-0.0500173
-0.0490477
-0.0478754
-0.0464915
-0.0448761
-0.0430017
-0.0408399
-0.0383658
-0.0355627
-0.0324218
-0.0289472
-0.0251536
-0.0210739
-0.0167498
-0.0122441
-0.00761966
-0.00296267
0.00165482
0.00613049
0.0103905
0.0143303
0.0178531
0.0208432
0.0231814
0.0247962
0.0254312
0.0248118
0.0223292
0.0181259
0.0128763
0.00819701
0.00482638
0.0034
0.00365404
0.00514565
0.00780387
0.00992261
0.0127971
0.0155926
0.019374
0.0222906
0.0229299
0.0220875
0.0143332
0.00104916
-0.0123881
-0.0160202
-0.0141006
-0.00890187
-0.00277795
-0.0416882
-0.0446493
-0.046081
-0.0463616
-0.0462033
-0.0460307
-0.0459265
-0.0458022
-0.0455498
-0.0451079
-0.0444639
-0.0436245
-0.04259
-0.0413533
-0.039901
-0.0382143
-0.0362726
-0.0340584
-0.0315601
-0.0287726
-0.0257
-0.0223545
-0.0187618
-0.0149549
-0.0109844
-0.00690145
-0.00277855
0.00132236
0.00531223
0.0091234
0.0126596
0.0158362
0.0185426
0.0206722
0.0221386
0.0227481
0.0223342
0.0205275
0.0174739
0.0136252
0.0101463
0.00737921
0.00606856
0.00608516
0.00713287
0.00926404
0.0111104
0.0136364
0.0163344
0.0198647
0.0228764
0.024134
0.0234513
0.0165281
0.00535803
-0.00586546
-0.0102251
-0.0105242
-0.00658275
-0.00201494
-0.0359911
-0.0386451
-0.0399972
-0.0403505
-0.0403093
-0.0402422
-0.0402255
-0.0401842
-0.0400235
-0.039687
-0.0391619
-0.0384547
-0.0375639
-0.0364836
-0.035205
-0.033715
-0.0319988
-0.030044
-0.0278427
-0.0253922
-0.0226969
-0.019767
-0.0166234
-0.0132925
-0.00981525
-0.00623384
-0.00260871
0.00100704
0.00453652
0.00791942
0.0110673
0.0139093
0.0163414
0.0182744
0.0196191
0.0202368
0.0200227
0.0187685
0.0166058
0.0138256
0.0111359
0.00910874
0.00803127
0.00795248
0.00870953
0.0104108
0.0120385
0.0142386
0.0167588
0.0199343
0.0227293
0.0241151
0.0234614
0.0174593
0.00827667
-0.000814469
-0.00537145
-0.0073384
-0.00464959
-0.00136816
-0.0307363
-0.0330943
-0.0343495
-0.0347444
-0.0347898
-0.0348035
-0.0348546
-0.0348801
-0.0347976
-0.0345556
-0.0341393
-0.0335599
-0.0328113
-0.0318889
-0.0307855
-0.0294924
-0.0279994
-0.0262972
-0.0243806
-0.0222485
-0.0199052
-0.0173597
-0.014629
-0.0117348
-0.00871021
-0.0055902
-0.0024252
0.000739803
0.00383806
0.00681782
0.00960011
0.0121261
0.0143005
0.0160531
0.0172985
0.0179427
0.0179157
0.0171128
0.0156394
0.0136951
0.0117561
0.0102485
0.00942105
0.00932979
0.00990656
0.0112639
0.0126992
0.0145955
0.0168604
0.0195966
0.0219688
0.0231727
0.0224849
0.0174659
0.0100009
0.00277531
-0.0015943
-0.00459101
-0.00307221
-0.000855913
-0.0259061
-0.0279843
-0.0291338
-0.029548
-0.0296566
-0.0297316
-0.0298347
-0.0299134
-0.029897
-0.0297407
-0.0294312
-0.0289617
-0.028345
-0.0275739
-0.0266405
-0.0255382
-0.0242597
-0.0227984
-0.0211505
-0.0193159
-0.0172987
-0.0151067
-0.012754
-0.0102584
-0.00764714
-0.00494883
-0.00220567
0.000544335
0.003244
0.0058505
0.00829367
0.0105254
0.0124615
0.0140513
0.0152129
0.0158891
0.0160302
0.0155892
0.0146467
0.0133481
0.0120209
0.0109405
0.0103492
0.0102907
0.010761
0.011846
0.0131
0.0147145
0.0166646
0.0189243
0.0208063
0.0217054
0.0209506
0.0168797
0.0108351
0.00511699
0.00113541
-0.00231373
-0.00179178
-0.000470182
-0.0214795
-0.0232992
-0.0243412
-0.0247591
-0.0249126
-0.0250328
-0.0251743
-0.0252935
-0.0253297
-0.0252436
-0.0250193
-0.0246577
-0.024166
-0.0235387
-0.022767
-0.0218451
-0.0207684
-0.0195324
-0.0181344
-0.0165746
-0.0148568
-0.0129877
-0.010979
-0.00884531
-0.00660902
-0.00429363
-0.00193423
0.000437921
0.00277447
0.00503875
0.00716992
0.00913086
0.0108512
0.0122923
0.0133807
0.014084
0.0143632
0.014207
0.013673
0.0128662
0.0120115
0.0112883
0.0109079
0.0109034
0.0113125
0.0121834
0.0132627
0.0146135
0.0162244
0.0180179
0.0194299
0.0200137
0.019189
0.0159566
0.0110605
0.00650175
0.00297162
-0.000508845
-0.000758008
-0.000181801
-0.0174379
-0.0190217
-0.0199582
-0.020369
-0.0205534
-0.0207065
-0.0208758
-0.0210254
-0.0211036
-0.0210765
-0.0209306
-0.0206659
-0.0202832
-0.0197847
-0.0191615
-0.0184067
-0.0175162
-0.0164874
-0.0153184
-0.0140095
-0.012564
-0.0109874
-0.0092895
-0.00748226
-0.00558396
-0.00361363
-0.00160031
0.000430369
0.00243825
0.00439288
0.00624125
0.00795538
0.00948219
0.0107839
0.0118035
0.012522
0.0129074
0.0129686
0.0127429
0.0123056
0.011811
0.0113763
0.0111748
0.0112295
0.011602
0.0123049
0.0132181
0.0143232
0.0156052
0.0169723
0.017971
0.0182844
0.0174089
0.0148649
0.0108978
0.0072063
0.00411667
0.00085151
6.58396e-05
3.99391e-05
-0.0137612
-0.0151318
-0.0159676
-0.0163643
-0.0165692
-0.0167456
-0.0169345
-0.0171065
-0.0172181
-0.0172403
-0.0171614
-0.0169783
-0.0166924
-0.0163088
-0.0158197
-0.015217
-0.0144959
-0.0136546
-0.0126924
-0.0116098
-0.0104092
-0.00909527
-0.00767592
-0.00616083
-0.00456477
-0.00290326
-0.0011998
0.000524764
0.00223664
0.0039127
0.00550939
0.00700128
0.00834314
0.00951522
0.0104694
0.0111905
0.0116522
0.011871
0.0118704
0.0117068
0.011481
0.0112712
0.011214
0.0113234
0.0116711
0.0122422
0.0129989
0.013881
0.0148658
0.0158638
0.0165179
0.0166219
0.0157251
0.0137137
0.0104978
0.00745182
0.00476272
0.00182671
0.000705647
0.000214742
-0.0104276
-0.011608
-0.0123502
-0.0127287
-0.0129466
-0.0131392
-0.0133413
-0.0135293
-0.0136669
-0.0137296
-0.0137071
-0.0135975
-0.013401
-0.0131137
-0.0127391
-0.01227
-0.0117001
-0.0110265
-0.0102488
-0.0093677
-0.00838513
-0.00730469
-0.00613274
-0.00487698
-0.00354932
-0.00216198
-0.000734105
0.000717714
0.00216661
0.00359323
0.00496269
0.00625606
0.00743103
0.00847989
0.00936098
0.010071
0.0105804
0.0109064
0.0110648
0.0110986
0.0110663
0.0110257
0.0110796
0.0112339
0.0115602
0.0120272
0.0126403
0.0133265
0.0140535
0.0147478
0.015127
0.0150779
0.014191
0.0125694
0.00996021
0.00740135
0.00504244
0.00249038
0.00118134
0.000350863
-0.00741665
-0.00842903
-0.00908561
-0.00944408
-0.0096693
-0.00987257
-0.0100831
-0.0102818
-0.010439
-0.0105341
-0.0105581
-0.010509
-0.0103864
-0.0101887
-0.00991327
-0.0095594
-0.00912175
-0.00859617
-0.00798137
-0.00727783
-0.00648723
-0.00561234
-0.00465814
-0.00363068
-0.0025394
-0.00139381
-0.000209061
0.0010019
0.00221736
0.0034222
0.00458834
0.00570132
0.00672794
0.00765824
0.00846308
0.0091428
0.00967365
0.0100665
0.01033
0.0104895
0.0105994
0.0106823
0.0108173
0.0110045
0.0113081
0.0116916
0.0121778
0.0126967
0.0132127
0.0136641
0.0138315
0.0136709
0.0128208
0.0114755
0.00935299
0.0071805
0.00513801
0.00291297
0.00151329
0.000453162
-0.00470848
-0.00557366
-0.00615314
-0.00649093
-0.00671957
-0.00692943
-0.00714472
-0.00735022
-0.00752184
-0.00764255
-0.0077047
-0.00770619
-0.00764633
-0.00752366
-0.00733589
-0.00708035
-0.0067556
-0.00635801
-0.00588518
-0.00533657
-0.00471332
-0.00401766
-0.0032534
-0.00242513
-0.00154024
-0.000606042
0.000365699
0.00136492
0.00237454
0.0033829
0.00436784
0.00531805
0.0062082
0.00703038
0.00775932
0.00839384
0.00891944
0.00934487
0.00967106
0.00991597
0.0101131