/*--------------------------------*- C++ -*----------------------------------*\
| =========                 |                                                 |
| \\      /  F ield         | OpenFOAM: The Open Source CFD Toolbox           |
|  \\    /   O peration     | Version:  2512                                  |
|   \\  /    A nd           | Website:  www.openfoam.com                      |
|    \\/     M anipulation  |                                                 |
\*---------------------------------------------------------------------------*/
FoamFile
{
    version     2.0;
    format      ascii;
    arch        "LSB;label=32;scalar=64";
    class       surfaceScalarField;
    location    "198.5";
    object      phi;
}
// * * * * * * * * * * * * * * * * * * * * * * * * * * * * * * * * * * * * * //

dimensions      [0 3 -1 0 0 0 0];

oriented        oriented;

internalField   nonuniform List<scalar> 
26232
(
0.000154272
0.000839167
-0.000993439
0.000687507
0.00125142
-0.00178465
0.00171139
0.000565533
-0.00158942
0.00336018
-0.0011361
-0.000512689
0.00578148
-0.00379776
0.00137645
0.00912379
-0.007379
0.00403669
0.0135201
-0.0118402
0.00744392
0.0190685
-0.0171254
0.0115769
0.0258126
-0.0231456
0.0164016
0.0337253
-0.0297706
0.0218579
0.0427014
-0.0368281
0.0278521
0.0525594
-0.0441141
0.0342561
0.0630562
-0.0514099
0.0409131
0.07391
-0.0585031
0.0476494
0.0848288
-0.0652071
0.0542883
0.0955402
-0.0713777
0.0606663
0.105817
-0.0769231
0.0666461
0.115497
-0.0818067
0.072127
0.124491
-0.086043
0.0770491
0.132785
-0.089694
0.0813996
0.140424
-0.0928345
0.0851952
0.147515
-0.0956089
0.0885184
0.15407
-0.0979996
0.0914446
-0.10037
0.0943396
0.1601
0.000201771
0.000637396
0.000926027
0.000527163
0.00231684
-0.000825276
0.00452971
-0.00334897
0.0077226
-0.00699065
0.0120374
-0.0116938
0.017575
-0.0173779
0.0243697
-0.02392
0.0323679
-0.0311438
0.0414192
-0.038822
0.0512837
-0.0466926
0.0616541
-0.0544845
0.0721909
-0.0619467
0.0825616
-0.0688738
0.0924783
-0.0751239
0.101727
-0.0806267
0.110185
-0.0853812
0.117824
-0.0894452
0.1247
-0.0929189
0.130933
-0.0959275
0.136696
-0.0985968
0.142159
-0.101072
0.147539
-0.10338
-0.105873
0.153043
0.000258825
0.000378571
0.00119984
-0.000413856
0.00299968
-0.00262511
0.00583111
-0.0061804
0.0098486
-0.0110081
0.0151598
-0.017005
0.0217929
-0.024011
0.0296701
-0.0317972
0.0385971
-0.0400709
0.0482761
-0.048501
0.0583393
-0.0567558
0.0683974
-0.0645426
0.0780913
-0.0716406
0.0871358
-0.0779183
0.0953491
-0.0833372
0.102663
-0.0879408
0.109116
-0.0918336
0.114827
-0.0951565
0.11997
-0.0980618
0.124737
-0.100695
0.129315
-0.103175
0.133855
-0.105612
0.138501
-0.108026
-0.110645
0.143272
0.000334888
4.3683e-05
0.00153432
-0.00161329
0.00379785
-0.00488864
0.00729992
-0.00968247
0.0121634
-0.0158716
0.0184204
-0.023262
0.0259784
-0.0315691
0.0346075
-0.0404262
0.0439578
-0.0494212
0.0536068
-0.05815
0.0631226
-0.0662715
0.0721279
-0.073548
0.0803494
-0.0798621
0.0876431
-0.085212
0.0939944
-0.0896885
0.0994957
-0.0934421
0.104311
-0.0966489
0.108637
-0.0994819
0.112666
-0.102091
0.116566
-0.104595
0.120468
-0.107077
0.124459
-0.109602
0.128609
-0.112176
-0.114958
0.132922
0.000434025
-0.000390342
0.00193747
-0.00311674
0.00471309
-0.00766425
0.00890868
-0.0138781
0.0145749
-0.0215378
0.0216211
-0.0303082
0.029796
-0.0397439
0.0387075
-0.0493378
0.0478829
-0.0585967
0.0568495
-0.0671166
0.0652119
-0.0746338
0.0727057
-0.0810419
0.0792186
-0.086375
0.0847775
-0.0907708
0.0895129
-0.0944239
0.0936133
-0.0975424
0.0972806
-0.100316
0.100698
-0.1029
0.104013
-0.105406
0.107331
-0.107913
0.110723
-0.110469
0.114228
-0.113107
0.117881
-0.115828
-0.118734
0.121656
0.000555021
-0.000945363
0.00239943
-0.00496114
0.00571003
-0.0109749
0.0105691
-0.0187371
0.0169087
-0.0278774
0.0244771
-0.0378766
0.0328545
-0.0481214
0.0415232
-0.0580064
0.0499661
-0.0670396
0.0577613
-0.0749118
0.0646424
-0.0815149
0.0705144
-0.0869139
0.075431
-0.0912916
0.0795463
-0.0948861
0.0830609
-0.0979385
0.086176
-0.100658
0.0890642
-0.103204
0.0918568
-0.105692
0.0946452
-0.108194
0.0974878
-0.110755
0.10042
-0.113401
0.10346
-0.116147
0.106625
-0.118993
-0.121997
0.109888
0.000692614
-0.00163798
0.002896
-0.00716453
0.00672464
-0.0148035
0.012151
-0.0241635
0.0189486
-0.034675
0.026691
-0.045619
0.0348228
-0.0562532
0.0427772
-0.0659608
0.0500905
-0.0743529
0.0564751
-0.0812964
0.0618354
-0.0868752
0.0662356
-0.0913142
0.069842
-0.0948979
0.0728613
-0.0979055
0.0754934
-0.100571
0.0779035
-0.103068
0.0802134
-0.105514
0.0825051
-0.107984
0.0848304
-0.11052
0.0872197
-0.113145
0.0896903
-0.115872
0.0922498
-0.118707
0.0949054
-0.121649
-0.124724
0.0976322
0.000838962
-0.00247694
0.00339394
-0.0097195
0.00767683
-0.0190864
0.0135095
-0.0299961
0.0204863
-0.0416518
0.0280293
-0.053162
0.0355168
-0.0637408
0.0424247
-0.0728687
0.0484198
-0.080348
0.0533832
-0.0862597
0.0573732
-0.0908652
0.0605589
-0.0944999
0.063151
-0.09749
0.0653501
-0.100105
0.0673192
-0.10254
0.0691758
-0.104924
0.0709972
-0.107336
0.0728312
-0.109818
0.0747055
-0.112394
0.0766361
-0.115075
0.0786314
-0.117867
0.0806949
-0.12077
0.0828294
-0.123784
-0.126911
0.0850168
0.000984639
-0.00346158
0.00385551
-0.0125904
0.00848331
-0.0237142
0.0145117
-0.0360245
0.0213652
-0.0485053
0.0283709
-0.0601677
0.0349256
-0.0702955
0.0406222
-0.0785652
0.0452908
-0.0850166
0.048965
-0.0899339
0.0518069
-0.0937072
0.0540294
-0.0967224
0.0558374
-0.0992979
0.0573963
-0.101664
0.0588243
-0.103968
0.0601976
-0.106297
0.0615622
-0.1087
0.0629448
-0.111201
0.0643605
-0.11381
0.0658177
-0.116533
0.0673211
-0.119371
0.0688724
-0.122321
0.0704718
-0.125383
-0.128547
0.0721079
0.00111913
-0.00458071
0.00424256
-0.0157138
0.00906912
-0.0285407
0.0150585
-0.0420139
0.0215048
-0.0549516
0.0277154
-0.0663782
0.0331787
-0.0757589
0.0376415
-0.083028
0.0410873
-0.0884624
0.0436582
-0.0925048
0.0455657
-0.0956147
0.0470213
-0.098178
0.0481982
-0.100475
0.0492197
-0.102685
0.0501647
-0.104913
0.0510799
-0.107213
0.0519919
-0.109612
0.0529155
-0.112124
0.0538597
-0.114754
0.0548293
-0.117502
0.0558268
-0.120368
0.0568531
-0.123348
0.0579072
-0.126437
-0.129624
0.0589836
0.00123217
-0.00581288
0.00452172
-0.0190034
0.00937854
-0.0333976
0.0150977
-0.047733
0.0209041
-0.060758
0.026158
-0.0716321
0.0304846
-0.0800855
0.0337841
-0.0863276
0.0361579
-0.0908362
0.0378078
-0.0941547
0.0389525
-0.0967593
0.0397768
-0.0990023
0.0404143
-0.101112
0.0409508
-0.103221
0.0414362
-0.105398
0.0418982
-0.107675
0.0423523
-0.110066
0.0428072
-0.112579
0.0432686
-0.115215
0.0437395
-0.117973
0.0442215
-0.12085
0.0447143
-0.123841
0.0452158
-0.126939
-0.130132
0.0457244
0.0013175
-0.00713039
0.00467131
-0.0223572
0.00938307
-0.0381093
0.0146267
-0.0529766
0.0196279
-0.0657592
0.023854
-0.0758582
0.0270795
-0.0833109
0.0293327
-0.0885808
0.0307892
-0.0922927
0.0316703
-0.0950358
0.0321754
-0.0972644
0.0324536
-0.0992806
0.0326018
-0.101261
0.0326766
-0.103296
0.0327085
-0.10543
0.032714
-0.10768
0.0327022
-0.110055
0.0326789
-0.112556
0.032648
-0.115184
0.032612
-0.117937
0.0325719
-0.12081
0.0325274
-0.123796
0.0324755
-0.126887
0.0324173
-0.130074
-0.000256611
-0.00144264
0.00169925
-0.000905247
-0.00402453
0.00467316
-0.0018794
-0.00634078
0.00731493
-0.00312737
-0.00835498
0.00960296
-0.00460251
-0.0100781
0.0115532
-0.00626066
-0.0115656
0.0132237
-0.00806051
-0.0128961
0.0146959
-0.00996467
-0.0141495
0.0160537
-0.0119402
-0.0153909
0.0173664
-0.0139583
-0.0166615
0.0186796
-0.0159925
-0.0179776
0.0200118
-0.0180165
-0.0193326
0.0213566
-0.0200016
-0.0207013
0.0226864
-0.0219144
-0.0220437
0.0239565
-0.0237153
-0.0233065
0.0251074
-0.0253571
-0.0244248
0.0260666
-0.0267847
-0.025322
0.0267496
-0.0279363
-0.02591
0.0270615
-0.0287447
-0.0260904
0.0268988
-0.0291405
-0.025758
0.0261537
-0.0290552
-0.0248068
0.0247215
-0.0284287
-0.0231314
0.022505
-0.0272338
-0.0206151
0.0194202
-0.0171754
-0.0255103
0.0154519
-0.000343693
-0.00109895
-0.00118636
-0.00318186
-0.00241998
-0.00510716
-0.00396495
-0.00681002
-0.00575749
-0.00828555
-0.00774553
-0.00957751
-0.00988694
-0.0107546
-0.0121483
-0.0118882
-0.0145031
-0.013036
-0.01693
-0.0142346
-0.0194097
-0.0154978
-0.0219227
-0.0168196
-0.0244465
-0.0181776
-0.0269534
-0.0195367
-0.0294096
-0.0208503
-0.0317732
-0.0220613
-0.0339937
-0.0231014
-0.0360127
-0.023891
-0.0377651
-0.024338
-0.0391833
-0.0243398
-0.0402027
-0.0237874
-0.0407658
-0.0225683
-0.0408316
-0.0205493
-0.0175999
-0.040407
-0.000403144
-0.000695806
-0.0013758
-0.0022092
-0.00277773
-0.00370523
-0.00450685
-0.0050809
-0.0064852
-0.0063072
-0.00865361
-0.0074091
-0.010968
-0.00844023
-0.0133962
-0.00946004
-0.0159143
-0.010518
-0.0185033
-0.0116456
-0.0211459
-0.0128552
-0.0238239
-0.0141416
-0.0265158
-0.0154858
-0.0291952
-0.0168573
-0.0318297
-0.0182158
-0.0343798
-0.0195112
-0.0367978
-0.0206834
-0.0390275
-0.0216613
-0.0410046
-0.0223609
-0.0426611
-0.0226833
-0.0439334
-0.0225151
-0.0447646
-0.0217371
-0.0450924
-0.0202216
-0.0177916
-0.0449007
-0.00042784
-0.000267967
-0.00145377
-0.00118327
-0.00291906
-0.00223994
-0.00470654
-0.00329342
-0.0067275
-0.00428624
-0.00891604
-0.00522056
-0.0112243
-0.00613192
-0.0136179
-0.00706645
-0.016071
-0.00806495
-0.018562
-0.0091546
-0.0210704
-0.0103467
-0.023574
-0.011638
-0.026047
-0.0130127
-0.0284594
-0.014445
-0.0307756
-0.0158996
-0.0329541
-0.0173327
-0.0349459
-0.0186916
-0.0366929
-0.0199143
-0.0381261
-0.0209277
-0.0391659
-0.0216435
-0.0397307
-0.0219503
-0.0397483
-0.0217196
-0.039129
-0.0208409
-0.0190898
-0.0378307
-0.000415625
0.000147658
-0.00141407
-0.000184828
-0.0028335
-0.000820508
-0.00454986
-0.00157706
-0.00646705
-0.00236905
-0.00851233
-0.00317528
-0.0106317
-0.00401255
-0.0127846
-0.00491359
-0.0149385
-0.00591099
-0.0170648
-0.0070283
-0.0191348
-0.00827671
-0.0211177
-0.00965507
-0.0229794
-0.011151
-0.0246821
-0.0127423
-0.026184
-0.0143977
-0.0274395
-0.0160772
-0.028398
-0.0177331
-0.0290022
-0.0193102
-0.0291841
-0.0207458
-0.0288594
-0.0219682
-0.0279242
-0.0228855
-0.0262812
-0.0233626
-0.0238705
-0.0232516
-0.0227073
-0.0202531
-0.000369332
0.00051699
-0.00126408
0.00070992
-0.00253365
0.000449058
-0.00405454
-5.61587e-05
-0.00572592
-0.000697675
-0.00746767
-0.00143354
-0.00921669
-0.00226352
-0.010922
-0.00320824
-0.0125399
-0.00429313
-0.0140292
-0.00553896
-0.0153486
-0.00695736
-0.0164543
-0.00854935
-0.0173
-0.0103053
-0.017837
-0.0122054
-0.0180149
-0.0142198
-0.0177826
-0.0163094
-0.0170888
-0.0184269
-0.0158809
-0.020518
-0.0141031
-0.0225236
-0.011691
-0.0243802
-0.00855363
-0.0260228
-0.00452911
-0.0273871
0.000566105
-0.0283468
-0.0283796
0.00623841
-0.000295612
0.000812603
-0.00102336
0.00143767
-0.00205385
0.00147955
-0.00326912
0.00115911
-0.00456516
0.000598355
-0.00585401
-0.000144687
-0.00706056
-0.00105697
-0.00811932
-0.00214948
-0.00897045
-0.00344199
-0.00955611
-0.0049533
-0.00981802
-0.00669545
-0.00969657
-0.0086708
-0.00913114
-0.0108707
-0.00806149
-0.013275
-0.00642949
-0.0158518
-0.0041809
-0.018558
-0.00126669
-0.0213411
0.00235631
-0.024141
0.00672579
-0.0268931
0.0118789
-0.0295333
0.0178566
-0.0320006
0.0247229
-0.0342534
0.0324528
-0.0360767
-0.037929
0.0420022
-0.000205398
0.001018
-0.000722385
0.00195465
-0.00144637
0.00220354
-0.00226779
0.00198053
-0.00308137
0.00141194
-0.0037888
0.000562746
-0.00430122
-0.000544549
-0.00453597
-0.00191473
-0.00441435
-0.00356362
-0.00385963
-0.00550802
-0.002796
-0.00775907
-0.00114932
-0.0103175
0.00115114
-0.0131712
0.00417004
-0.0162939
0.00796317
-0.0196449
0.0125751
-0.02317
0.0180378
-0.0268039
0.0243707
-0.0304739
0.0315823
-0.0341047
0.039673
-0.037624
0.0486296
-0.0409572
0.0584813
-0.0441051
0.0691444
-0.0467397
-0.0500077
0.0812231
-0.000110903
0.0011289
-0.000396449
0.0022402
-0.000774239
0.00258133
-0.00114251
0.0023488
-0.00139342
0.00166285
-0.00141966
0.000588987
-0.00111682
-0.000847387
-0.000384503
-0.00264704
0.00087426
-0.00482238
0.00275274
-0.00738651
0.00533856
-0.0103449
0.00871105
-0.01369
0.0129372
-0.0173974
0.0180677
-0.0214244
0.0241331
-0.0257103
0.0311424
-0.0301792
0.0390826
-0.034744
0.0479212
-0.0393126
0.0576103
-0.0437938
0.0680924
-0.0481061
0.0793052
-0.0521699
0.0912056
-0.0560055
0.103688
-0.0592223
-0.0632785
0.116959
-2.32796e-05
0.00115218
-7.85921e-05
0.00229551
-9.72796e-05
0.00260002
1.85033e-05
0.00223301
0.000380492
0.00130086
0.00110617
-0.000136691
0.00231405
-0.00205527
0.00412008
-0.00445307
0.0066346
-0.0073369
0.00995832
-0.0107102
0.0141772
-0.0145638
0.0193565
-0.0188692
0.0255344
-0.0235753
0.032718
-0.0286079
0.0408806
-0.033873
0.0499633
-0.0392619
0.0598785
-0.0446593
0.0705176
-0.0499517
0.0817601
-0.0550363
0.0934804
-0.0598264
0.105567
-0.0642564
0.117893
-0.0683315
0.130455
-0.071784
-0.0758416
0.143018
5.01985e-05
0.00110198
0.000208589
0.00213712
0.000542854
0.00226575
0.00115311
0.00162276
0.00215777
0.000296205
0.00368498
-0.0016639
0.0058649
-0.0042352
0.00882277
-0.00741093
0.012671
-0.0111851
0.0175002
-0.0155395
0.0233703
-0.0204339
0.0303017
-0.0258006
0.0382696
-0.0315432
0.0472024
-0.0375407
0.0569849
-0.0436555
0.0674666
-0.0497436
0.0784736
-0.0556663
0.0898233
-0.0613014
0.101338
-0.0665514
0.112862
-0.0713504
0.124271
-0.0756654
0.13544
-0.0795005
0.146422
-0.082766
-0.0860055
0.156586
0.000108546
0.000461012
0.00113735
0.00224742
0.00392008
0.00629286
0.00950159
0.0136676
0.0188841
0.0252025
0.0326206
0.0410761
0.050446
0.0605546
0.0711874
0.0821101
0.0930899
0.103916
0.114413
0.124463
0.133992
0.14301
0.151689
0.160023
-0.020813
-0.0180166
0.0133193
-0.0152982
-0.00737242
0.00185758
-0.00912913
0.00557161
-0.0117407
-0.00233144
0.0208702
-0.0276678
0.00491305
0.0379232
-0.0451677
0.0123571
0.0559823
-0.0634264
0.0195383
0.0743
-0.0814811
0.0259076
0.0918274
-0.0981966
0.0312217
0.10733
-0.112644
0.035094
0.120608
-0.124481
0.0376843
0.131292
-0.133882
0.0399735
0.138582
-0.140871
0.0436322
0.140671
-0.14433
0.0502923
0.134738
-0.141398
0.0605513
0.118105
-0.128364
0.0735608
0.0897752
-0.102785
0.0878055
0.0507362
-0.0649809
0.102125
0.00321499
-0.0175341
0.115527
-0.0479134
0.0345111
0.127176
-0.0961439
0.0844945
0.136092
-0.133764
0.124848
0.141657
-0.157248
0.151684
0.144026
-0.168398
0.166029
0.144063
-0.171347
0.17131
0.142271
-0.170063
0.171856
0.138031
-0.169508
0.173748
0.130921
-0.174734
0.181844
0.122776
-0.182518
0.190662
0.117397
-0.177458
0.182838
0.117661
-0.141485
0.14122
0.123655
-0.072617
0.0666237
0.132926
0.0123074
-0.0215785
0.142526
0.0911391
-0.100739
0.150425
0.148572
-0.156472
0.155827
0.182136
-0.187538
0.15796
0.198108
-0.20024
0.155674
0.21408
-0.211795
0.149194
0.233257
-0.226777
0.141424
0.24434
-0.236569
0.136237
0.214405
-0.209217
0.135995
0.136958
-0.136717
0.140243
0.0265969
-0.0308446
0.146826
-0.0818128
0.07523
0.152916
-0.156758
0.150668
0.155009
-0.207917
0.205824
0.151188
-0.228751
0.232571
0.143697
-0.258985
0.266476
0.13746
-0.240053
0.24629
0.136928
-0.187732
0.188263
0.141724
-0.0788997
0.0741041
0.147355
0.0492898
-0.0549202
0.148949
0.132372
-0.133966
0.146103
0.256914
-0.254068
0.142679
0.264385
-0.26096
0.142157
0.292346
-0.291825
0.14352
0.188357
-0.189719
0.144364
0.0257056
-0.0265499
0.143626
-0.0509148
0.0516528
0.141582
-0.314205
0.316249
-0.234613
0.236403
-0.0365589
-0.0218647
-0.0314937
-0.0124376
-0.0254121
-0.000510043
-0.0183799
0.013838
-0.0106047
0.030148
-0.0023793
0.0477569
0.00631689
0.0656038
0.014411
0.0837333
0.0219582
0.0997826
0.0287603
0.113806
0.0352413
0.124811
0.0423313
0.131492
0.0511612
0.131841
0.0624141
0.123485
0.0757707
0.104748
0.0900053
0.0755406
0.103863
0.0368789
0.116425
-0.00934697
0.127491
-0.05898
0.136296
-0.104949
0.142229
-0.139698
0.145067
-0.160086
0.14516
-0.16849
0.143398
-0.169586
0.140396
-0.167061
0.135495
-0.164606
0.127785
-0.167024
0.118605
-0.173339
0.111953
-0.170806
0.111504
-0.141036
0.117727
-0.0788399
0.12813
0.00190456
0.13932
0.0799492
0.14903
0.138862
0.156114
0.175051
0.159547
0.194674
0.158281
0.215346
0.152777
0.23876
0.145864
0.251254
0.140978
0.21929
0.140222
0.137714
0.143211
0.0236076
0.148255
-0.0868562
0.153074
-0.161578
0.154488
-0.209331
0.150341
-0.224604
0.142631
-0.251275
0.136385
-0.233806
0.136056
-0.187403
0.141256
-0.0840995
0.147077
0.0434685
0.148893
0.130556
0.146223
0.259583
0.142838
0.267771
0.142451
0.292733
0.144015
0.186792
0.145145
0.0245763
0.144457
-0.0502274
0.142346
-0.312093
-0.232819
-0.0423595
-0.024406
-0.0384075
-0.0163895
-0.0330305
-0.00588702
-0.026405
0.00721248
-0.0186483
0.0223913
-0.0099502
0.0390587
-0.000856172
0.0565098
0.00930483
0.0735723
0.019417
0.0896705
0.0295434
0.10368
0.0399823
0.114372
0.0513141
0.12016
0.0640554
0.1191
0.0781962
0.109344
0.0929462
0.089998
0.107081
0.0614056
0.119609
0.0243516
0.130157
-0.0198951
0.13864
-0.0674629
0.144562
-0.110871
0.147574
-0.14271
0.147837
-0.160349
0.145908
-0.166561
0.142617
-0.166294
0.138617
-0.163061
0.13334
-0.15933
0.125465
-0.159149
0.115614
-0.163488
0.107694
-0.162885
0.106175
-0.139517
0.112193
-0.084858
0.12336
-0.0092627
0.13593
0.0673794
0.147376
0.127416
0.156141
0.166286
0.16098
0.189835
0.160952
0.215374
0.156646
0.243066
0.150663
0.257236
0.146011
0.223942
0.144628
0.139098
0.146282
0.0219531
0.14971
-0.0902845
0.153213
-0.16508
0.153988
-0.210106
0.149642
-0.220258
0.141805
-0.243438
0.135547
-0.227547
0.135335
-0.187191
0.140867
-0.0896309
0.146874
0.037461
0.148961
0.128469
0.146468
0.262076
0.143083
0.271156
0.14283
0.292985
0.14464
0.184983
0.14608
0.023136
0.14545
-0.0495972
0.143258
-0.309902
-0.231024
-0.0366128
-0.0256239
-0.0340164
-0.0189858
-0.0299307
-0.00997278
-0.0241025
0.00138431
-0.0168901
0.0151789
-0.0084108
0.0305795
0.0013892
0.0467098
0.0127616
0.0621999
0.0248577
0.0775744
0.0375699
0.0909676
0.0509588
0.100983
0.0651698
0.105949
0.0801817
0.104088
0.0955418
0.0939842
0.110315
0.0752246
0.123405
0.0483159
0.134216
0.0135408
0.142641
-0.0283205
0.14865
-0.0734723
0.151842
-0.114062
0.152102
-0.14297
0.149971
-0.158218
0.146259
-0.162849
0.14169
-0.161726
0.136851
-0.158221
0.131372
-0.153851
0.123749
-0.151526
0.113755
-0.153493
0.104746
-0.153876
0.101809
-0.136581
0.107114
-0.0901625
0.118564
-0.0207124
0.132307
0.0536364
0.145379
0.114344
0.155808
0.155858
0.162159
0.183483
0.16358
0.213954
0.160658
0.245987
0.155671
0.262224
0.15119
0.228423
0.14909
0.141198
0.149375
0.0216682
0.151166
-0.0920762
0.15332
-0.167234
0.153476
-0.210262
0.149034
-0.215816
0.141154
-0.235558
0.134876
-0.221269
0.134703
-0.187019
0.140503
-0.0954308
0.146722
0.031242
0.149141
0.126051
0.146844
0.264373
0.143433
0.274567
0.143309
0.293109
0.145393
0.182898
0.147164
0.0213654
0.146599
-0.0490326
0.144311
-0.307614
-0.229228
-0.020303
-0.025574
-0.0191194
-0.0201694
-0.0164262
-0.0126659
-0.0117211
-0.00332075
-0.00557022
0.00902798
0.00266942
0.0223398
0.0130331
0.0363461
0.0245593
0.0506736
0.0374279
0.0647058
0.0513624
0.077033
0.0661734
0.0861724
0.0816308
0.0904918
0.0973248
0.0883941
0.112567
0.078742
0.126433
0.0613582
0.138084
0.0366652
0.147151
0.0044739
0.153643
-0.0348128
0.157342
-0.077171
0.157928
-0.114648
0.155607
-0.140649
0.151315
-0.153926
0.146083
-0.157618
0.140526
-0.156168
0.135045
-0.15274
0.129473
-0.14828
0.122389
-0.144442
0.112803
-0.143908
0.10311
-0.144183
0.0985863
-0.132057
0.102611
-0.0941873
0.11383
-0.031931
0.128422
0.0390445
0.142939
0.0998269
0.154978
0.143819
0.162934
0.175527
0.165994
0.210894
0.164636
0.247345
0.160706
0.266154
0.156345
0.232784
0.153478
0.144065
0.152413
0.0227339
0.152584
-0.0922476
0.15337
-0.16802
0.152918
-0.20981
0.148467
-0.211364
0.140617
-0.227708
0.134306
-0.214959
0.134093
-0.186805
0.140111
-0.101449
0.146586
0.0247664
0.149414
0.123222
0.147351
0.266436
0.143904
0.278014
0.143897
0.293117
0.146272
0.180523
0.148391
0.0192464
0.147899
-0.048541
0.145498
-0.305213
-0.227432
0.00489541
-0.024231
0.00442445
-0.0196985
0.00585657
-0.0140981
0.00913837
-0.00660256
0.014798
0.00336831
0.0221374
0.0150004
0.0312716
0.027212
0.042157
0.0397882
0.0546658
0.052197
0.0685081
0.0631907
0.0833179
0.0713626
0.0986078
0.0752018
0.113736
0.0732656
0.127923
0.0645555
0.140348
0.0489332
0.15042
0.0265934
0.157992
-0.00309822
0.162795
-0.0396165
0.16439
-0.0787652
0.162559
-0.112817
0.15793
-0.136021
0.151786
-0.147781
0.145311
-0.151143
0.13903
-0.149887
0.133102
-0.146813
0.127492
-0.142669
0.121093
-0.138043
0.112408
-0.135223
0.102619
-0.134394
0.09661
-0.126048
0.0988702
-0.0964475
0.10927
-0.0423304
0.124263
0.0240516
0.139947
0.0841422
0.153492
0.130274
0.163116
0.165902
0.16798
0.20603
0.168349
0.246976
0.165556
0.268947
0.161313
0.237027
0.157678
0.147701
0.155285
0.0251262
0.153911
-0.0908735
0.153327
-0.167436
0.15227
-0.208753
0.147886
-0.20698
0.140132
-0.219954
0.133771
-0.208598
0.133436
-0.186469
0.139629
-0.107642
0.146422
0.0179735
0.149755
0.119889
0.147989
0.268202
0.144511
0.281491
0.144603
0.293025
0.147276
0.177851
0.149746
0.0167757
0.14934
-0.0481343
0.146806
-0.302679
-0.225638
0.0387206
-0.0209494
0.0365647
-0.0175426
0.0358046
-0.0133379
0.0368277
-0.00762561
0.0403931
-0.000197136
0.0456696
0.00972395
0.0530861
0.0197954
0.0625085
0.0303659
0.0737669
0.0409386
0.0865249
0.0504328
0.100306
0.0575818
0.114481
0.0610269
0.1283
0.0594465
0.140983
0.051872
0.15186
0.0380566
0.160464
0.017989
0.166701
-0.00933467
0.169952
-0.0428681
0.16957
-0.078383
0.165547
-0.108794
0.158942
-0.129415
0.151305
-0.140144
0.143877
-0.143715
0.13711
-0.14312
0.130939
-0.140641
0.125319
-0.13705
0.119586
-0.132309
0.112134
-0.127771
0.102923
-0.125183
0.0958443
-0.118969
0.0960838
-0.096687
0.105047
-0.0512933
0.119867
0.0092314
0.136329
0.0676798
0.151204
0.115399
0.162507
0.154599
0.169307
0.19923
0.171565
0.244718
0.170013
0.2705
0.165925
0.241115
0.161549
0.152077
0.157904
0.0287711
0.155091
-0.0880605
0.153154
-0.165499
0.151487
-0.207086
0.147236
-0.202729
0.139641
-0.21236
0.133213
-0.20217
0.13267
-0.185926
0.138995
-0.113968
0.146176
0.0107928
0.150127
0.115939
0.148746
0.269583
0.145264
0.284973
0.145432
0.292858
0.14839
0.174892
0.151228
0.0139384
0.150908
-0.0478145
0.148224
-0.299995
-0.223847
0.0763513
-0.0160777
0.0724657
-0.013657
0.0697585
-0.0106307
0.0685556
-0.00642271
0.0693329
-0.000974497
0.0720907
0.00696619
0.0770397
0.0148463
0.0841747
0.0232309
0.0933407
0.0317726
0.104187
0.0395865
0.116186
0.0455823
0.128651
0.0485621
0.140794
0.0473033
0.15185
0.0408161
0.16123
0.0286772
0.168523
0.0106963
0.173432
-0.0142443
0.175072
-0.0445082
0.172743
-0.0760537
0.166762
-0.102813
0.158564
-0.121218
0.149837
-0.131417
0.141754
-0.135632
0.134699
-0.136065
0.12846
-0.134403
0.122885
-0.131474
0.11769
-0.127115
0.111555
-0.121636
0.103518
-0.117146
0.0960596
-0.111511
0.094353
-0.0949804
0.101317
-0.0582577
0.115316
-0.00476719
0.132055
0.0509404
0.148006
0.0994484
0.160935
0.14167
0.169734
0.190431
0.173993
0.240459
0.173819
0.270673
0.170009
0.244925
0.164954
0.157132
0.160164
0.0335606
0.156055
-0.0839509
0.152805
-0.16225
0.150518
-0.204798
0.146458
-0.198669
0.139092
-0.204994
0.132583
-0.195661
0.131744
-0.185087
0.13815
-0.120374
0.145792
0.00315116
0.150483
0.111248
0.149605
0.27046
0.146166
0.288413
0.146387
0.292637
0.149612
0.171667
0.152818
0.0107318
0.152589
-0.0475856
0.149736
-0.297141
-0.222065
0.111644
-0.0107625
0.107109
-0.00912176
0.103495
-0.00701731
0.101001
-0.0039283
0.0996987
0.000327554
0.100258
0.00640694
0.102683
0.0124211
0.10717
0.0187445
0.113672
0.0252705
0.121942
0.0313165
0.131526
0.0359983
0.141775
0.0383127
0.151921
0.0371572
0.161198
0.031539
0.169001
0.0208742
0.174842
0.00485502
0.178179
-0.0175808
0.177989
-0.0443181
0.17373
-0.0717947
0.166086
-0.0951693
0.156725
-0.111857
0.147316
-0.122007
0.138866
-0.127182
0.13168
-0.128879
0.125511
-0.128233
0.120064
-0.126028
0.115268
-0.122319
0.110318
-0.116685
0.103827
-0.110655
0.096766
-0.10445
0.093559
-0.0917734
0.0982946
-0.0629933
0.110694
-0.0171662
0.127169
0.0344647
0.143838
0.0827794
0.158246
0.127262
0.169073
0.179604
0.175482
0.23405
0.176833
0.269322
0.173399
0.248359
0.167774
0.162757
0.161977
0.0393571
0.156725
-0.078698
0.152224
-0.157749
0.149298
-0.201872
0.145483
-0.194854
0.138436
-0.197947
0.131846
-0.18907
0.130614
-0.183855
0.137036
-0.126797
0.145207
-0.00501907
0.150769
0.105685
0.15054
0.27069
0.147212
0.29174
0.147464
0.292385
0.150933
0.168199
0.154503
0.00716119
0.154367
-0.0474499
0.151326
-0.2941
-0.220301
0.138342
-0.00608655
0.134274
-0.00505445
0.130813
-0.00355619
0.128247
-0.00136231
0.126324
0.00225051
0.125986
0.00674539
0.127
0.0114068
0.129554
0.0161904
0.133752
0.0210728
0.139489
0.0255792
0.146467
0.0290203
0.1542
0.0305806
0.162023
0.0293335
0.169208
0.0243548
0.175128
0.014954
0.17929
0.00069258
0.18064
-0.0189309
0.178416
-0.0420943
0.172357
-0.0657348
0.163439
-0.086252
0.15337
-0.101788
0.143649
-0.112286
0.135082
-0.118616
0.127892
-0.121689
0.121881
-0.122222
0.116671
-0.120818
0.1122
-0.117848
0.10818
-0.112666
0.103318
-0.105793
0.0973421
-0.0984738
0.093365
-0.0877963
0.0959197
-0.065548
0.106236
-0.0274826
0.12178
0.0189206
0.138711
0.0658482
0.154354
0.11162
0.1671
0.166858
0.175664
0.225486
0.178705
0.266282
0.175867
0.251196
0.169861
0.168764
0.163272
0.0459456
0.157045
-0.0724706
0.151382
-0.152086
0.147787
-0.198278
0.144252
-0.191319
0.137641
-0.191336
0.130993
-0.182423
0.129263
-0.182125
0.135604
-0.133138
0.144362
-0.0137766
0.150924
0.0991229
0.151509
0.270105
0.148389
0.294861
0.148658
0.292115
0.152342
0.164515
0.156265
0.00323791
0.156223
-0.0474079
0.152983
-0.290861
-0.218571
0.152958
-0.00245807
0.149823
-0.00191946
0.147256
-0.000989297
0.145187
0.000706187
0.143967
0.00347051
0.143842
0.00687105
0.144633
0.0106158
0.146448
0.0143749
0.149502
0.0180191
0.153685
0.0213964
0.158772
0.0239326
0.164396
0.0249566
0.170065
0.0236645
0.175153
0.0192673
0.178934
0.0111725
0.180949
-0.00132179
0.180387
-0.0183695
0.176314
-0.0380205
0.168896
-0.0583176
0.159272
-0.0766279
0.149003
-0.0915182
0.139327
-0.10261
0.13086
-0.110149
0.123756
-0.114585
0.117908
-0.116374
0.112964
-0.115874
0.108756
-0.113639
0.105336
-0.109246
0.101871
-0.102329
0.097362
-0.0939646
0.0933841
-0.0838184
0.0941069
-0.0662708
0.102088
-0.0354633
0.11604
0.00496821
0.132668
0.04922
0.149244
0.0950439
0.163915
0.152187
0.174812
0.214589
0.179649
0.261445
0.177424
0.253421
0.171257
0.174931
0.164086
0.0531159
0.157092
-0.0654764
0.150383
-0.145376
0.146083
-0.193978
0.142795
-0.188031
0.136726
-0.185267
0.130057
-0.175753
0.127734
-0.179803
0.133852
-0.139256
0.143192
-0.0231168
0.150875
0.09144
0.152477
0.268503
0.149672
0.297665
0.149955
0.291833
0.153835
0.160635
0.158081
-0.00100783
0.158134
-0.0474613
0.154697
-0.287423
-0.216891
0.157753
-0.000187962
0.155397
0.000436092
0.153146
0.00126192
0.15148
0.00237206
0.150782
0.00416837
0.151076
0.0065776
0.15231
0.00938146
0.154377
0.0123079
0.157158
0.0152385
0.160647
0.017907
0.164697
0.0198832
0.169013
0.0206401
0.173164
0.0195132
0.176641
0.0157903
0.178969
0.00884501
0.179338
-0.00169124
0.176888
-0.0159191
0.171513
-0.0326459
0.163523
-0.0503273
0.154011
-0.0671157
0.14421
-0.0817171
0.135034
-0.0934352
0.126943
-0.102058
0.120051
-0.107692
0.114346
-0.110669
0.109609
-0.111137
0.105583
-0.109614
0.10243
-0.106092
0.0998999
-0.0997986
0.0968504
-0.0909151
0.09347
-0.080438
0.0929565
-0.0657573
0.0985353
-0.0410421
0.110322
-0.00681875
0.125959
0.0335836
0.142661
0.0783413
0.158613
0.136236
0.171739
0.201463
0.178751
0.254433
0.177685
0.254487
0.171712
0.180904
0.164419
0.0604092
0.156786
-0.0578437
0.14925
-0.13784
0.144299
-0.189027
0.141182
-0.184915
0.135722
-0.179807
0.129058
-0.169089
0.12612
-0.176865
0.13191
-0.145045
0.141744
-0.0329509
0.150562
0.0826213
0.153362
0.265703
0.151026
0.300001
0.151348
0.29151
0.155384
0.156599
0.159942
-0.00556571
0.160088
-0.0476073
0.156466
-0.283801
-0.215254
0.183839
0.00259043
-0.186617
0.181579
0.00269593
0.179527
0.00331413
0.177607
0.00429172
0.176048
0.00572765
0.175013
0.00761269
0.174584
0.00981053
0.174774
0.0121171
0.175684
0.014329
0.177425
0.0161657
0.180055
0.0172529
0.183575
0.0171205
0.187862
0.0152258
0.19262
0.0110324
0.197274
0.00419086
0.201308
-0.00572515
0.203778
-0.0183885
0.204066
-0.0329347
0.201924
-0.0481848
0.197634
-0.0628257
0.191737
-0.0758205
0.184801
-0.0864988
0.177325
-0.0945821
0.169665
-0.100032
0.162101
-0.103105
0.154787
-0.103823
0.147622
-0.102449
0.140692
-0.0991614
0.134183
-0.09329
0.127407
-0.0841388
0.119536
-0.072567
0.112109
-0.0583305
0.108543
-0.0374758
0.110931
-0.00920698
0.117346
0.0271688
0.125061
0.070626
0.13201
0.129286
0.138141
0.195332
0.144116
0.248458
0.151282
0.247322
0.160179
0.172007
0.16749
0.053098
0.17029
-0.060644
0.167579
-0.135129
0.162327
-0.183774
0.156466
-0.179054
0.148594
-0.171934
0.139711
-0.160206
0.133285
-0.170439
0.132427
-0.144187
0.134983
-0.0355067
0.136904
0.0807
0.136541
0.266067
0.135248
0.301295
0.138302
0.288456
0.14535
0.149551
0.150441
-0.0106567
0.150575
-0.0477416
0.145412
-0.278639
-0.211292
0.195347
0.00427555
-0.197032
0.193807
0.00423556
0.192442
0.00467966
0.191264
0.00546953
0.190415
0.00657675
0.190032
0.0079954
0.1902
0.00964307
0.190968
0.0113488
0.192393
0.012904
0.194505
0.0140534
0.197293
0.014465
0.200675
0.0137388
0.204458
0.011443
0.208312
0.00717783
0.211834
0.000668495
0.214445
-0.00833562
0.215527
-0.019471
0.214694
-0.0321011
0.211841
-0.0453316
0.207177
-0.0581622
0.201107
-0.0697504
0.194098
-0.0794896
0.186612
-0.0870966
0.17899
-0.0924095
0.171456
-0.0955714
0.16418
-0.0965474
0.157102
-0.0953718
0.150164
-0.0922225
0.143644
-0.0867701
0.137339
-0.0778343
0.130258
-0.0654853
0.122909
-0.050982
0.118234
-0.032801
0.118912
-0.00988463
0.124495
0.0215858
0.13223
0.0628913
0.139974
0.121542
0.147327
0.187979
0.154826
0.240958
0.163583
0.238565
0.173439
0.162151
0.181238
0.0452994
0.183646
-0.0630526
0.180018
-0.131501
0.173624
-0.17738
0.166993
-0.172423
0.158785
-0.163727
0.149454
-0.150875
0.142282
-0.163267
0.14097
-0.142875
0.14351
-0.0380467
0.146048
0.0781622
0.146386
0.265729
0.145514
0.302166
0.14897
0.285001
0.156399
0.142122
0.161794
-0.0160521
0.16164
-0.047587
0.155645
-0.272643
-0.206876
0.206785
0.00553134
-0.208041
0.205564