/*--------------------------------*- C++ -*----------------------------------*\
| =========                 |                                                 |
| \\      /  F ield         | OpenFOAM: The Open Source CFD Toolbox           |
|  \\    /   O peration     | Version:  2512                                  |
|   \\  /    A nd           | Website:  www.openfoam.com                      |
|    \\/     M anipulation  |                                                 |
\*---------------------------------------------------------------------------*/
FoamFile
{
    version     2.0;
    format      ascii;
    arch        "LSB;label=32;scalar=64";
    class       volVectorField;
    location    "131.5";
    object      U;
}
// * * * * * * * * * * * * * * * * * * * * * * * * * * * * * * * * * * * * * //

dimensions      [0 1 -1 0 0 0 0];

internalField   nonuniform List<vector> 
13248
(
(-0.0142422 0.0128061 8.93383e-20)
(-0.0257202 0.0269117 0)
(-0.0200185 0.0344498 -1.68513e-19)
(0.00253204 0.0375447 1.58736e-19)
(0.0416951 0.0377166 1.48268e-19)
(0.0971844 0.0360812 0)
(0.168474 0.0334585 0)
(0.254585 0.0304527 3.57651e-19)
(0.353856 0.0274801 -6.90729e-22)
(0.463767 0.0247643 -3.1429e-19)
(0.5809 0.0223318 2.95036e-19)
(0.701069 0.0200259 -1.8471e-19)
(0.819621 0.0175456 0)
(0.931846 0.0145081 -3.25607e-19)
(1.03343 0.0105254 6.09789e-19)
(1.12091 0.00528162 -1.45919e-19)
(1.19195 -0.00140429 -2.61314e-19)
(1.2456 -0.00955592 2.45339e-19)
(1.28228 -0.0189818 0)
(1.30356 -0.0296096 0)
(1.31205 -0.0403688 0)
(1.30983 -0.0537992 0)
(1.30085 -0.0613196 7.0813e-20)
(1.28351 -0.0884317 2.49178e-19)
(-0.0140346 0.0113242 -2.69701e-19)
(-0.0198119 0.0210364 1.83738e-19)
(-0.00394588 0.0244199 -1.77207e-21)
(0.0324574 0.0241215 -2.4258e-19)
(0.0886692 0.0220245 -1.48107e-19)
(0.163819 0.0194877 -1.40301e-19)
(0.256441 0.0174276 -2.57585e-19)
(0.36414 0.0164004 2.43956e-19)
(0.483392 0.0166355 0)
(0.609574 0.0180449 5.23647e-22)
(0.737264 0.0202558 1.17431e-21)
(0.860756 0.0226813 1.84339e-19)
(0.974678 0.0246292 0)
(1.07458 0.0254269 0)
(1.15739 0.0245386 2.20859e-19)
(1.22165 0.0216503 -4.15276e-19)
(1.26756 0.016706 2.48262e-19)
(1.2967 0.00989422 -2.33102e-19)
(1.31169 0.00158008 -1.01802e-19)
(1.31563 -0.00774592 -1.8586e-19)
(1.31151 -0.0175778 -7.53483e-20)
(1.30203 -0.0275715 -1.41561e-19)
(1.28893 -0.0356474 2.0936e-19)
(1.27382 -0.0479256 5.87022e-20)
(-0.0125353 0.00933115 0)
(-0.00959633 0.0146085 0)
(0.0200507 0.014721 8.5848e-20)
(0.0742346 0.0124589 7.90315e-20)
(0.15128 0.0098717 -1.91311e-21)
(0.249072 0.00842803 -1.45422e-19)
(0.364367 0.00897917 0)
(0.492507 0.0118206 -1.21398e-19)
(0.627512 0.0167451 1.14612e-19)
(0.762572 0.0231169 8.23424e-22)
(0.89084 0.0300028 -1.96844e-19)
(1.00629 0.0363554 -1.81466e-19)
(1.10445 0.0412085 2.70058e-21)
(1.18281 0.0438412 -1.51538e-19)
(1.24095 0.0438768 3.63131e-19)
(1.28023 0.0413003 0)
(1.30338 0.0364057 -2.36362e-19)
(1.31379 0.0296867 1.15395e-19)
(1.31493 0.0217496 1.01727e-19)
(1.30977 0.0131063 0)
(1.30073 0.00450681 8.27562e-20)
(1.28916 -0.00440002 -2.79761e-19)
(1.27634 -0.0108541 2.6263e-19)
(1.26238 -0.0223855 1.61224e-19)
(-0.00922606 0.00674886 -9.53412e-20)
(0.00606674 0.00754612 -9.86118e-20)
(0.0532846 0.00539101 8.91616e-20)
(0.128858 0.00281357 0)
(0.229544 0.00176039 0)
(0.351133 0.00355882 -3.40822e-21)
(0.487727 0.00869303 0)
(0.631816 0.0168646 -3.72584e-19)
(0.774996 0.0271435 3.46462e-19)
(0.909088 0.038195 -4.2806e-19)
(1.02731 0.0485712 9.84003e-20)
(1.12513 0.0569998 0)
(1.20066 0.0626008 1.64369e-19)
(1.25448 0.0649851 -3.04638e-19)
(1.28908 0.0642321 7.26766e-20)
(1.30811 0.0607746 1.86796e-19)
(1.31551 0.0552405 -8.17749e-21)
(1.3149 0.0483054 -2.06858e-19)
(1.30915 0.0405731 0)
(1.30033 0.0325531 0)
(1.28971 0.0246251 -7.37257e-20)
(1.27805 0.0168995 6.59241e-20)
(1.26587 0.0106921 2.35243e-19)
(1.25323 0.00109046 -2.20898e-19)
(-0.00366294 0.0037029 -1.00453e-19)
(0.0281247 0.000234847 -1.00249e-19)
(0.096679 -0.00291769 2.81869e-19)
(0.196585 -0.00389945 -1.71301e-19)
(0.322237 -0.0012277 1.61231e-19)
(0.466422 0.00589356 2.93294e-19)
(0.619949 0.0171566 -2.07454e-19)
(0.772526 0.0313129 -2.52733e-19)
(0.914298 0.0465494 4.9192e-21)
(1.03742 0.0609391 3.23523e-19)
(1.13711 0.072857 0)
(1.21194 0.0812575 8.90873e-20)
(1.26341 0.0857624 0)
(1.29503 0.0865764 -1.46011e-19)
(1.31124 0.0842955 2.0556e-19)
(1.31645 0.0796885 2.27208e-21)
(1.31443 0.0735165 -5.39155e-20)
(1.30801 0.0664229 1.01536e-19)
(1.29908 0.0589018 8.71617e-20)
(1.2888 0.0512983 -7.81611e-20)
(1.27782 0.0438809 7.37091e-20)
(1.26648 0.036703 -6.59082e-20)
(1.25502 0.0305235 0)
(1.24342 0.0220271 -4.95961e-20)
(0.00452675 0.00047458 1.00438e-19)
(0.0572598 -0.00653111 1.05473e-19)
(0.150614 -0.00899683 -9.44827e-20)
(0.276721 -0.00621117 1.76409e-19)
(0.426728 0.00235727 -1.6603e-19)
(0.589697 0.0164526 1.50439e-19)
(0.753164 0.0345294 -7.22355e-20)
(0.9051 0.0541938 1.89687e-19)
(1.03606 0.0728994 -1.19277e-19)
(1.14058 0.0885569 2.11261e-19)
(1.21741 0.0998975 -4.87515e-19)
(1.26882 0.106543 1.78964e-19)
(1.29922 0.10884 -1.57114e-19)
(1.31384 0.107575 1.47584e-19)
(1.31762 0.103681 1.2778e-19)
(1.31455 0.0980341 1.12455e-19)
(1.30752 0.0913359 -3.1256e-19)
(1.29837 0.0840991 1.94132e-19)
(1.2882 0.0766731 -8.71662e-20)
(1.27758 0.0692957 2.27072e-19)
(1.26681 0.0621216 -7.33336e-20)
(1.25599 0.0552531 -1.7802e-19)
(1.24521 0.049038 1.64276e-19)
(1.2344 0.041399 4.95821e-20)
(0.0156283 -0.00252649 0)
(0.0937974 -0.0116512 9.60334e-22)
(0.214736 -0.0112963 1.97809e-19)
(0.367411 -0.00244659 -1.85465e-19)
(0.53894 0.0138582 -1.67675e-19)
(0.714527 0.0357568 3.11693e-19)
(0.879422 0.0602015 -1.44782e-19)
(1.02181 0.0838168 1.9292e-19)
(1.13482 0.103834 -4.23066e-21)
(1.21692 0.118617 -1.0928e-19)
(1.27084 0.127725 2.38624e-19)
(1.30187 0.131644 -3.52121e-19)
(1.31608 0.13138 0)
(1.31904 0.128081 -6.92556e-20)
(1.31514 0.122778 -1.85387e-19)
(1.30744 0.116272 5.82288e-20)
(1.29786 0.109127 2.31354e-21)
(1.28748 0.10171 -1.2867e-19)
(1.27686 0.0942585 7.9338e-21)
(1.26623 0.0869234 1.48868e-19)
(1.25571 0.0798098 -6.64805e-20)
(1.24531 0.0730037 -2.51863e-20)
(1.23502 0.0665882 7.78899e-20)
(1.22479 0.0594828 0)
(0.0297969 -0.00482265 0)
(0.13758 -0.0138954 5.36052e-20)
(0.287804 -0.00821144 -2.57541e-19)
(0.465586 0.00887432 9.38986e-20)
(0.653687 0.0340761 -8.83704e-20)
(0.834227 0.0635395 -8.07484e-20)
(0.992104 0.0928375 -1.42814e-19)
(1.11802 0.118182 7.1254e-20)
(1.20933 0.137286 6.20419e-20)
(1.26888 0.149496 0)
(1.3027 0.155398 1.41355e-19)
(1.31782 0.156256 -2.10427e-19)
(1.32065 0.153494 1.56747e-19)
(1.31618 0.148371 6.92936e-20)
(1.30783 0.141844 -5.69307e-20)
(1.29769 0.134565 -4.78158e-20)
(1.28691 0.126945 -4.47279e-20)
(1.27605 0.119235 1.33436e-19)
(1.26536 0.111589 0)
(1.25491 0.10411 6.72728e-20)
(1.24471 0.0968739 5.66778e-20)
(1.23473 0.0899415 -1.4062e-19)
(1.22492 0.0832877 -9.62166e-20)
(1.21522 0.0765352 8.89827e-20)
(0.0470287 -0.00589036 -5.74955e-20)
(0.187893 -0.0120205 -2.07272e-21)
(0.367665 0.0016738 5.24025e-20)
(0.567211 0.0287285 1.4657e-19)
(0.765389 0.0630538 4.26539e-20)
(0.942984 0.0987964 -8.23647e-20)
(1.08695 0.13073 7.52955e-20)
(1.19238 0.15546 -6.60552e-20)
(1.26148 0.171814 1.18267e-19)
(1.30084 0.18037 5.04602e-20)
(1.31857 0.182669 -1.43102e-19)
(1.32217 0.180501 4.22628e-20)
(1.31751 0.175449 7.23231e-20)
(1.30856 0.168706 -3.55353e-20)
(1.29775 0.161067 0)
(1.28638 0.15302 5.33555e-20)
(1.27506 0.144849 9.05681e-20)
(1.26406 0.136718 1.56803e-20)
(1.25345 0.128729 -7.56538e-20)
(1.24321 0.120952 3.17919e-20)
(1.23333 0.113445 0)
(1.22372 0.106231 -2.50648e-20)
(1.21434 0.0992638 -2.36586e-20)
(1.20507 0.0926086 0)
(0.0670946 -0.00519354 0)
(0.243414 -0.00490295 3.0095e-20)
(0.451369 0.0193867 5.58114e-20)
(0.667747 0.057427 -1.49257e-19)
(0.868893 0.100104 4.81429e-20)
(1.03665 0.140064 0)
(1.16222 0.172183 7.24571e-20)
(1.24599 0.19425 -1.01131e-19)
(1.29464 0.20657 -5.90149e-20)
(1.31735 0.210932 2.67065e-20)
(1.32304 0.209586 -4.28093e-20)
(1.31877 0.204573 1.03914e-19)
(1.30941 0.197436 5.22525e-20)
(1.2979 0.189196 -3.62158e-20)
(1.2858 0.180465 -3.30327e-21)
(1.27387 0.171586 -1.00072e-19)
(1.26238 0.162747 4.56283e-20)
(1.25143 0.154054 -1.09222e-21)
(1.24101 0.145575 0)
(1.23106 0.137362 -3.18249e-20)
(1.22152 0.129448 0)
(1.21231 0.121832 7.23865e-20)
(1.20335 0.11452 -8.63111e-20)
(1.19452 0.107777 3.93759e-20)
(0.0895093 -0.0022277 -1.56143e-20)
(0.30224 0.00834397 -7.58704e-20)
(0.535423 0.0454396 8.62656e-20)
(0.762697 0.0946009 5.08231e-20)
(0.96008 0.143997 -2.42983e-20)
(1.11293 0.18572 4.0798e-20)
(1.21807 0.215741 -1.98305e-20)
(1.28118 0.233587 3.30274e-20)
(1.31236 0.241125 0)
(1.32215 0.241135 7.50379e-20)
(1.31929 0.236284 -2.99553e-21)
(1.3099 0.228633 -6.07368e-20)
(1.29775 0.219553 2.61098e-20)
(1.28486 0.209861 -2.95938e-20)
(1.27217 0.2 -1.13859e-20)
(1.26005 0.190197 1.30063e-20)
(1.24861 0.180573 -1.01519e-20)
(1.23784 0.171195 -5.51148e-20)
(1.22769 0.162108 3.38158e-20)
(1.21807 0.153346 6.98243e-21)
(1.20891 0.144921 6.16874e-21)
(1.20011 0.13682 5.45119e-21)
(1.19157 0.129125 0)
(1.18316 0.122076 0)
(0.113607 0.00344636 1.56251e-20)
(0.362155 0.0282939 -1.56774e-20)
(0.616288 0.0797828 -2.87436e-20)
(0.848216 0.1393 0)
(1.03619 0.193201 -1.20543e-20)
(1.17106 0.234229 -1.08299e-20)
(1.25573 0.260278 -1.85704e-20)
(1.30044 0.272875 0)
(1.31747 0.275298 0)
(1.3177 0.271021 0)
(1.30905 0.262859 0)
(1.29652 0.252729 0)
(1.28285 0.241776 -1.64557e-20)
(1.26933 0.230614 7.50698e-21)
(1.25648 0.219545 1.30939e-20)
(1.24445 0.208712 6.11761e-21)
(1.23323 0.198187 1.52538e-20)
(1.22277 0.18801 0)
(1.21299 0.178209 -3.70137e-21)
(1.20379 0.1688 -3.51846e-21)
(1.19509 0.159778 -6.17853e-21)
(1.18677 0.151138 -5.45987e-21)
(1.17873 0.143038 0)
(1.17082 0.135525 3.97036e-21)
(-0.00212364 0.048662 9.6274e-21)
(-0.00712044 0.118235 -9.94153e-21)
(-0.0148304 0.166984 -1.87664e-20)
(-0.0245516 0.199124 0)
(-0.035606 0.218599 -2.50035e-20)
(-0.0474351 0.229022 7.79915e-21)
(-0.0595181 0.233392 -1.49612e-20)
(-0.0714107 0.233916 0)
(-0.0827669 0.231993 0)
(-0.0933282 0.228312 0)
(-0.102901 0.223023 0)
(-0.111332 0.215913 0)
(-0.118493 0.206561 -1.37067e-22)
(-0.124263 0.194453 -1.0323e-20)
(-0.128525 0.179065 2.0355e-20)
(-0.131158 0.159907 2.90237e-20)
(-0.132044 0.136564 9.66629e-21)
(-0.131072 0.108725 0)
(-0.128146 0.0762177 8.22539e-21)
(-0.123197 0.039046 -2.38648e-20)
(-0.11625 -0.00255236 -1.52972e-20)
(-0.107064 -0.0481315 -1.44145e-20)
(-0.0955749 -0.096764 0)
(-0.0820526 -0.147122 0)
(-0.00474598 0.0495251 -2.91182e-20)
(-0.012184 0.121694 4.99208e-20)
(-0.0193464 0.173386 -1.91522e-20)
(-0.0267878 0.208283 -3.58043e-20)
(-0.034556 0.229987 5.04151e-20)
(-0.0424778 0.241948 -3.20185e-20)
(-0.0502602 0.247146 4.50701e-20)
(-0.0575694 0.247858 2.8964e-20)
(-0.0640835 0.245593 0)
(-0.0695179 0.241158 -2.60561e-20)
(-0.0736327 0.234798 -7.89514e-22)
(-0.0762318 0.226373 2.29477e-20)
(-0.0771576 0.215505 3.41098e-20)
(-0.0762782 0.201701 4.38736e-20)
(-0.0734851 0.184451 -1.94433e-20)
(-0.0686931 0.163269 -5.89692e-20)
(-0.0618367 0.137742 2.01024e-20)
(-0.0528703 0.107557 -7.39198e-20)
(-0.0417728 0.0725374 0)
(-0.028542 0.0326877 1.6116e-20)
(-0.0132237 -0.0117539 1.5271e-20)
(0.00424519 -0.060179 1.43896e-20)
(0.023926 -0.111646 0)
(0.0464879 -0.164211 0)
(-0.00722524 0.048316 0)
(-0.0171375 0.120579 1.02687e-19)
(-0.0238572 0.173897 -3.86493e-20)
(-0.0289888 0.211003 3.62069e-20)
(-0.0332148 0.23486 -1.03253e-19)
(-0.0367324 0.248532 0)
(-0.0395004 0.254815 -6.18274e-20)
(-0.0413351 0.255954 2.9218e-20)
(-0.0419803 0.253525 -5.60076e-20)
(-0.041161 0.248446 2.72122e-20)
(-0.0386169 0.241087 1.53512e-19)
(-0.0341252 0.231414 -7.22448e-20)
(-0.0275192 0.219138 -1.17276e-19)
(-0.0186661 0.203838 -4.73753e-20)
(-0.00746656 0.18505 -2.11278e-21)
(0.00612546 0.16233 1.65987e-19)
(0.0221213 0.135291 -7.88893e-20)
(0.040501 0.103641 -1.3841e-21)
(0.0612078 0.0672144 0)
(0.0841383 0.0260045 -7.14656e-20)
(0.109188 -0.0197785 0)
(0.13625 -0.0696462 -6.25453e-20)
(0.165296 -0.122629 2.37813e-19)
(0.19886 -0.176663 -1.1205e-21)
(-0.00929645 0.0452692 0)
(-0.0214979 0.115149 6.57321e-22)
(-0.0279701 0.168535 3.94941e-20)
(-0.031013 0.206975 -3.728e-20)
(-0.0317761 0.232601 3.44083e-20)
(-0.0307697 0.247924 1.9787e-19)
(-0.028204 0.25541 -6.21311e-20)
(-0.0240789 0.257162 -5.94135e-20)
(-0.0182522 0.254754 1.12506e-19)
(-0.0105093 0.24919 -1.61925e-19)
(-0.00061789 0.240964 5.09278e-20)
(0.0116362 0.230175 4.95256e-20)
(0.0264224 0.216654 0)
(0.0438624 0.200084 4.52123e-20)
(0.064033 0.180077 0)
(0.0869593 0.156245 8.52086e-20)
(0.112622 0.128244 -1.65651e-19)
(0.14097 0.0958012 3.50764e-20)
(0.171923 0.0587738 1.49542e-19)
(0.205365 0.0171651 7.13735e-20)
(0.241101 -0.0288204 0)
(0.279083 -0.0787561 -1.94778e-19)
(0.317815 -0.13175 6.11155e-20)
(0.365264 -0.185476 0)
(-0.0107896 0.0408338 0)
(-0.0249169 0.106128 -1.26456e-19)
(-0.0313948 0.157897 -3.97088e-20)
(-0.0327834 0.196475 -7.473e-20)
(-0.0304763 0.223122 7.03601e-20)
(-0.0252024 0.239716 -6.6098e-20)
(-0.0173955 0.248291 1.2618e-19)
(-0.00725461 0.250712 6.06036e-20)
(0.00520693 0.24847 -1.69236e-19)
(0.0200935 0.242601 1.09171e-19)
(0.0375654 0.2337 -1.55463e-19)
(0.0577924 0.221997 3.48828e-19)
(0.0809235 0.207454 -1.88693e-19)
(0.107072 0.189867 9.17464e-20)
(0.136315 0.168939 2.68021e-19)
(0.16869 0.144353 -8.05638e-20)
(0.204192 0.115806 -7.79076e-20)
(0.24281 0.0830807 -7.75841e-20)
(0.284491 0.0460485 0)
(0.329138 0.00472431 -1.46742e-19)
(0.376292 -0.0406904 -1.40519e-19)
(0.426683 -0.089522 1.96134e-19)
(0.474932 -0.141504 2.4425e-19)
(0.538806 -0.192811 -2.28583e-19)
(-0.0116662 0.035592 0)
(-0.0272546 0.0945986 -1.71044e-19)
(-0.0339903 0.143088 4.32607e-23)
(-0.0342657 0.18037 1.50836e-19)
(-0.0294867 0.206938 0)
(-0.0204875 0.224059 0)
(-0.00786932 0.233301 0)
(0.00798295 0.236225 -6.03784e-20)
(0.0268853 0.234166 -1.37827e-21)
(0.0488038 0.22813 1.07312e-19)
(0.0737999 0.218762 -1.57452e-19)
(0.101984 0.206389 -1.64016e-21)
(0.133486 0.191089 0)
(0.168424 0.172764 -9.16949e-20)
(0.206928 0.15119 9.02902e-20)
(0.249094 0.126143 -2.52139e-19)
(0.295007 0.0973903 3.29115e-19)
(0.344708 0.0647425 8.37787e-20)
(0.398081 0.0280936 5.83377e-21)
(0.455063 -0.0124174 -2.86011e-19)
(0.514443 -0.0566582 -1.35137e-19)
(0.578376 -0.103126 4.49323e-19)
(0.635426 -0.153117 -2.99153e-19)
(0.71522 -0.199759 0)
(-0.0120292 0.0301718 8.43798e-20)
(-0.0286051 0.0818368 8.57745e-20)
(-0.0357761 0.12558 -8.08993e-20)
(-0.0354286 0.160048 -1.51178e-19)
(-0.0287892 0.185187 1.42331e-19)
(-0.0166891 0.201767 -1.33725e-19)
(0.00017739 0.210929 1.88661e-19)
(0.0212875 0.213912 -6.04079e-20)
(0.0463133 0.211851 1.12343e-19)
(0.0750997 0.205658 0)
(0.107627 0.19597 1.0385e-19)
(0.143972 0.183163 -1.93018e-19)
(0.184287 0.16738 1.90223e-19)
(0.228719 0.148596 -1.78649e-19)
(0.27748 0.126726 0)
(0.330791 0.101594 1.67223e-19)
(0.388708 0.0730142 3.24188e-19)
(0.451179 0.0408738 -3.05806e-19)
(0.517825 0.00518393 -1.45799e-19)
(0.588333 -0.0336127 -1.44328e-19)
(0.660187 -0.0756426 4.00508e-19)
(0.736604 -0.11797 1.21854e-19)
(0.800507 -0.164447 -1.15126e-19)
(0.890299 -0.203434 1.02953e-19)
(-0.0120991 0.0251477 -8.43915e-20)
(-0.0292533 0.0691063 2.59418e-19)
(-0.0368683 0.106989 -8.17988e-20)
(-0.0361387 0.137234 1.51604e-19)
(-0.0279946 0.159534 -1.42731e-19)
(-0.0131799 0.174337 -1.81319e-23)
(0.00760284 0.18245 6.27292e-20)
(0.0337752 0.184824 2.36743e-19)
(0.064943 0.182381 1.75313e-21)
(0.100903 0.175903 -1.05768e-19)
(0.14162 0.165968 0)
(0.187187 0.152945 -9.78147e-20)
(0.237803 0.137024 1.83295e-19)
(0.293736 0.118269 1.79665e-19)
(0.355145 0.0966356 -8.42685e-20)
(0.422054 0.071995 -1.84938e-21)
(0.494297 0.0443041 -7.96131e-20)
(0.571332 0.0136406 1.48244e-19)
(0.652002 -0.0198467 1.4577e-19)
(0.735149 -0.0553386 -1.38461e-19)
(0.816982 -0.0932845 1.24925e-19)
(0.900109 -0.12933 -1.16021e-19)
(0.965976 -0.170274 0)
(1.05304 -0.198841 -1.0294e-19)
(-0.0121512 0.0209481 8.49761e-20)
(-0.0295451 0.0574458 -8.68056e-20)
(-0.0373166 0.0888064 8.16812e-20)
(-0.0359635 0.113739 0)
(-0.0260873 0.131979 0)
(-0.008287 0.143846 1.33243e-19)
(0.016817 0.149945 -1.25382e-19)
(0.0487009 0.151006 1.1775e-19)
(0.0870167 0.147766 -5.55234e-19)
(0.131609 0.140868 -9.03213e-22)
(0.182495 0.130815 9.9343e-20)
(0.239806 0.117954 0)
(0.303683 0.102486 -1.83796e-19)
(0.374168 0.0844933 3.48701e-19)
(0.451087 0.0639796 -2.49798e-19)
(0.533868 0.0409899 -4.04079e-19)
(0.621455 0.0156184 -5.13522e-21)
(0.712232 -0.0119034 2.8437e-19)
(0.80389 -0.0412874 0)
(0.893993 -0.0715567 0)
(0.97827 -0.103243 -1.24932e-19)
(1.05723 -0.131622 1.1603e-19)
(1.11645 -0.165264 -4.06136e-19)
(1.18478 -0.182955 3.80431e-19)
(-0.0124207 0.0177803 0)
(-0.0296908 0.047492 0)
(-0.0368702 0.07216 -2.44965e-19)
(-0.0339273 0.0911702 7.80247e-20)
(-0.021174 0.104557 1.10696e-21)
(0.000970869 0.112693 1.3435e-19)
(0.0320519 0.116109 0)
(0.0716993 0.115408 -1.17252e-19)
(0.119689 0.111192 1.10741e-19)
(0.17593 0.103996 -2.0875e-19)
(0.240391 0.0942427 -1.10055e-21)
(0.312979 0.0822357 1.8943e-19)
(0.393388 0.0681632 2.8541e-21)
(0.480934 0.0521453 1.75535e-19)
(0.574426 0.0342664 -2.43341e-19)
(0.672072 0.0146266 0)
(0.771483 -0.00661464 2.97935e-19)
(0.869737 -0.0292046 -4.22835e-19)
(0.963561 -0.0527826 1.28816e-19)
(1.04968 -0.0766624 0)
(1.12453 -0.10097 1.10796e-19)
(1.18716 -0.122289 4.15994e-19)
(1.23003 -0.148179 -3.90461e-19)
(1.26918 -0.157931 -4.19587e-19)
(-0.0129934 0.0155895 2.5722e-19)
(-0.0295623 0.0393784 -3.52711e-19)
(-0.034778 0.0576382 1.30081e-21)
(-0.0283737 0.0706886 7.80187e-20)
(-0.0104638 0.0790342 -1.44412e-19)
(0.0187149 0.0832389 -1.33929e-19)
(0.0588956 0.0838722 2.50056e-19)
(0.109853 0.0814996 -8.45297e-22)
(0.171387 0.0766474 -2.20465e-19)
(0.24323 0.0697652 4.16354e-19)
(0.324893 0.0612025 2.05482e-21)
(0.415496 0.0512035 -1.85405e-19)
(0.513619 0.0399154 0)
(0.617208 0.0274154 0)
(0.72357 0.013742 -8.0891e-20)
(0.829477 -0.00106952 -1.49299e-19)
(0.93137 -0.0169352 -2.86414e-19)
(1.02561 -0.0337423 2.68858e-19)
(1.10892 -0.051167 -1.28896e-19)
(1.1785 -0.0690666 2.30337e-19)
(1.23272 -0.0867888 -1.15881e-19)
(1.27122 -0.103569 1.86733e-19)
(1.2928 -0.122598 -4.4634e-19)
(1.30491 -0.129709 8.32725e-20)
(-0.0137235 0.0140766 8.65592e-20)
(-0.0285733 0.0327489 0)
(-0.029738 0.0452418 1.6619e-19)
(-0.0170724 0.0528596 -1.56551e-19)
(0.00936383 0.0566389 1.44549e-19)
(0.0494347 0.0574117 0)
(0.102937 0.0558616 0)
(0.169546 0.0525678 -1.17884e-19)
(0.24868 0.0480093 2.16941e-22)
(0.339324 0.0425542 1.03922e-19)
(0.439849 0.036442 -9.85278e-20)
(0.547902 0.0297822 1.84771e-19)
(0.66041 0.0225672 0)
(0.773703 0.0147008 3.32325e-19)
(0.883757 0.0060404 -6.25093e-19)
(0.986525 -0.00355588 4.43343e-19)
(1.07831 -0.0141693 2.74124e-19)
(1.1561 -0.0258328 -2.57344e-19)
(1.21797 -0.0383254 0)
(1.26305 -0.0518045 0)
(1.29219 -0.0650282 0)
(1.30659 -0.0799664 0)
(1.30957 -0.092751 8.50595e-20)
(1.30502 -0.104462 -2.86577e-19)
(-0.0656256 -0.205396 -8.14358e-21)
(-0.0510621 -0.27778 8.21032e-21)
(-0.0351634 -0.350787 -2.43301e-22)
(-0.0195378 -0.420173 0)
(-0.00546206 -0.482634 -5.76763e-21)
(0.00610426 -0.535353 1.068e-20)
(0.0151284 -0.57571 -4.737e-22)
(0.02348 -0.600825 -4.33369e-21)
(0.0347651 -0.606669 0)
(0.0540656 -0.587415 0)
(0.0865534 -0.536876 -1.95088e-22)
(0.134772 -0.451601 -1.9242e-22)
(0.197166 -0.333184 -3.66445e-21)
(0.268654 -0.188001 3.37216e-21)
(0.343801 -0.0253266 0)
(0.418952 0.142974 0)
(0.490857 0.299836 2.5994e-21)
(0.555174 0.425698 -3.98885e-22)
(0.607139 0.508371 -1.95769e-21)
(0.643616 0.54863 -8.7507e-23)
(0.665296 0.556028 0)
(0.674816 0.544891 0)
(0.670525 0.534589 0)
(0.64832 0.539353 0)
(0.613119 0.54751 0)
(0.584445 0.517185 0)
(0.583472 0.407973 6.00409e-22)
(0.615102 0.218884 -9.87577e-22)
(0.667615 -0.00504733 0)
(0.725908 -0.207099 0)
(0.775814 -0.348969 -5.41814e-22)
(0.809589 -0.426672 5.26571e-22)
(0.827701 -0.45271 1.82073e-22)
(0.834278 -0.450956 0)
(0.824585 -0.451693 0)
(0.790874 -0.465811 2.55024e-22)
(0.741568 -0.465788 -2.47906e-22)
(0.701666 -0.393638 0)
(0.690601 -0.241553 3.49911e-22)
(0.711135 -0.037017 -5.03542e-22)
(0.748117 0.142385 1.4567e-22)
(0.792198 0.27374 0)
(0.827274 0.343809 -1.87634e-22)
(0.834791 0.387575 1.82454e-22)
(0.808204 0.421905 0)
(0.763394 0.404109 0)
(0.73343 0.332148 -9.0016e-23)
(0.739888 0.148635 2.79317e-22)
(0.770648 -0.0103615 0)
(0.813754 -0.173452 0)
(0.830663 -0.266058 -5.44453e-23)
(0.811675 -0.329554 9.42227e-26)
(0.787055 -0.38162 -4.79014e-24)
(0.773842 -0.267128 3.20121e-23)
(0.789134 -0.205124 0)
(0.805538 0.0271105 0)
(0.807022 0.158148 0)
(0.795509 0.258631 0)
(0.796909 0.395271 0)
(0.783555 0.148811 0)
(0.0698382 -0.223305 -8.89068e-22)
(0.0862278 -0.295352 -3.44955e-20)
(0.102713 -0.367882 2.3636e-21)
(0.117295 -0.435449 3.00953e-20)
(0.127735 -0.49441 4.14282e-22)
(0.132333 -0.542562 0)
(0.129862 -0.578541 -1.79288e-20)
(0.120627 -0.601622 3.33807e-20)
(0.107486 -0.610238 -1.54355e-20)
(0.0964933 -0.599802 1.23513e-20)
(0.0957305 -0.563057 -1.18104e-20)
(0.111991 -0.492736 1.13679e-20)
(0.148178 -0.386307 -1.09765e-20)
(0.201592 -0.248106 -3.17724e-22)
(0.266714 -0.0883299 -1.11643e-20)
(0.338643 0.0798652 1.08494e-20)
(0.412627 0.240598 -8.94108e-21)
(0.483445 0.374645 8.45905e-21)
(0.545509 0.469386 -6.13569e-21)
(0.594444 0.522845 1.0904e-20)
(0.629353 0.542001 -4.82042e-21)
(0.650173 0.541576 -2.43449e-22)
(0.653574 0.542163 -4.10459e-21)
(0.637738 0.555556 8.45503e-21)
(0.612195 0.56466 -4.34025e-21)
(0.598295 0.525471 3.53028e-22)
(0.613019 0.402117 7.14765e-21)
(0.656411 0.20037 7.59259e-22)
(0.714741 -0.0309776 -1.39665e-20)
(0.772616 -0.233284 1.25151e-20)
(0.817094 -0.36926 -5.67117e-21)
(0.842548 -0.438592 4.98023e-22)
(0.850745 -0.457601 -1.82428e-22)
(0.848458 -0.449424 2.90248e-22)
(0.833454 -0.441955 0)
(0.796681 -0.448305 0)
(0.743127 -0.44703 -1.01655e-21)
(0.695599 -0.382578 7.38938e-22)
(0.677492 -0.242961 9.55952e-22)
(0.693553 -0.0486293 1.4193e-22)
(0.731784 0.125649 -1.29484e-21)
(0.779614 0.258323 2.16178e-22)
(0.81941 0.33559 0)
(0.829603 0.389794 0)
(0.805561 0.432197 0)
(0.765364 0.415131 0)
(0.739027 0.336576 3.97708e-22)
(0.749151 0.144615 -1.91956e-22)
(0.778628 -0.0200695 0)
(0.822487 -0.180885 0)
(0.838693 -0.266286 0)
(0.819391 -0.324011 -8.28483e-23)
(0.79392 -0.377246 2.07804e-23)
(0.777524 -0.267395 -7.07921e-23)
(0.791886 -0.208525 0)
(0.802616 0.0254761 0)
(0.803975 0.158714 4.28095e-23)
(0.791599 0.259654 9.62119e-23)
(0.793573 0.396203 0)
(0.783148 0.149889 0)
(0.225562 -0.236956 -1.5585e-21)
(0.244626 -0.308899 -7.71081e-20)
(0.261038 -0.38004 6.76392e-20)
(0.274799 -0.444862 -6.32606e-20)
(0.282904 -0.499445 -4.16999e-22)
(0.28332 -0.541427 0)
(0.274375 -0.569949 -3.67352e-20)
(0.254725 -0.586213 3.59164e-20)
(0.224783 -0.591996 2.18088e-22)
(0.188692 -0.586232 3.34734e-22)
(0.155412 -0.562871 2.84059e-22)
(0.135752 -0.512141 3.21617e-22)
(0.138108 -0.425698 -1.8146e-20)
(0.164879 -0.302726 1.79551e-20)
(0.212289 -0.15158 0)
(0.2752 0.0133705 4.60796e-22)
(0.346897 0.174853 -1.46087e-20)
(0.420457 0.315353 1.44262e-20)
(0.48979 0.421296 0)
(0.549328 0.488082 0)
(0.596073 0.520425 -8.13127e-21)
(0.627086 0.532797 1.58904e-20)
(0.63819 0.545371 -1.56945e-20)
(0.630223 0.56671 -9.781e-22)
(0.616303 0.575779 1.94341e-20)
(0.617816 0.528593 -2.38007e-20)
(0.647531 0.394375 2.65006e-20)
(0.701886 0.184143 1.6617e-22)
(0.765259 -0.0515663 -1.50942e-20)
(0.821783 -0.252941 0)
(0.859939 -0.383278 0)
(0.87673 -0.445204 2.58527e-21)
(0.875252 -0.458497 -3.49773e-21)
(0.864219 -0.445539 -3.69989e-24)
(0.844147 -0.431151 1.80845e-21)
(0.80521 -0.43006 -1.75757e-21)
(0.748643 -0.42744 0)
(0.694163 -0.371023 2.50233e-22)
(0.668925 -0.244781 2.43409e-21)
(0.679967 -0.0619516 -4.65523e-21)
(0.718856 0.106556 2.01116e-21)
(0.769659 0.240636 1.67649e-22)
(0.813542 0.325734 -1.69323e-21)
(0.82636 0.390737 1.31985e-21)
(0.805355 0.441434 3.1747e-22)
(0.770345 0.425468 3.61469e-22)
(0.747932 0.341206 -3.98731e-22)
(0.761532 0.141756 0)
(0.789297 -0.0285992 0)
(0.833124 -0.187549 -1.29546e-21)
(0.848387 -0.266136 5.84747e-22)
(0.828605 -0.317987 -4.03971e-22)
(0.801895 -0.372638 4.55136e-22)
(0.782119 -0.267515 4.60587e-22)
(0.795819 -0.211678 -1.30969e-22)
(0.801089 0.0239565 1.86356e-22)
(0.802259 0.159313 -1.58664e-22)
(0.788679 0.260493 4.9735e-23)
(0.791164 0.396869 0)
(0.783771 0.150845 0)
(0.391571 -0.24569 -1.63384e-19)
(0.412314 -0.318447 9.10811e-21)
(0.428933 -0.388397 1.46735e-19)
(0.441228 -0.45016 -9.89154e-22)
(0.446475 -0.50044 0)
(0.443107 -0.536471 0)
(0.429923 -0.556862 -7.22739e-20)
(0.40532 -0.563214 1.14241e-20)
(0.3679 -0.559749 7.96262e-20)
(0.31809 -0.550342 -4.10313e-21)
(0.261217 -0.533782 -1.84608e-20)
(0.208559 -0.501484 -1.35596e-20)
(0.173544 -0.440622 1.35568e-20)
(0.165962 -0.342441 0)
(0.187416 -0.209109 -1.29026e-20)
(0.233399 -0.0534486 1.1751e-20)
(0.296752 0.1051 0)
(0.368948 0.249721 0)
(0.441985 0.365306 8.25019e-21)
(0.509253 0.445028 -7.14983e-22)
(0.565378 0.491457 -6.85899e-21)
(0.604928 0.517894 -7.37902e-21)
(0.623636 0.542654 7.37956e-21)
(0.624814 0.570959 -9.38296e-21)
(0.623835 0.579616 -1.84448e-21)
(0.640902 0.526541 1.06981e-20)
(0.684859 0.385591 1.77994e-21)
(0.749176 0.170727 -1.79857e-23)
(0.817127 -0.0669318 0)
(0.872218 -0.266628 1.27782e-20)
(0.903763 -0.391912 -1.31159e-20)
(0.911784 -0.447342 5.17616e-22)
(0.901039 -0.455877 0)
(0.881461 -0.439626 -2.89954e-22)
(0.856329 -0.419876 3.40008e-21)
(0.815903 -0.411684 -5.97605e-21)
(0.757824 -0.406965 -4.73792e-22)
(0.697559 -0.358283 -4.16452e-22)
(0.665211 -0.2464 2.91315e-21)
(0.670616 -0.0763878 4.98418e-22)
(0.709429 0.0855228 -3.16581e-21)
(0.762242 0.220908 2.68993e-21)
(0.809551 0.314206 3.16413e-23)
(0.825 0.39013 1.26779e-21)
(0.807468 0.449304 -1.55118e-21)
(0.778103 0.43495 -2.77483e-21)
(0.759934 0.346193 6.93397e-22)
(0.776819 0.140271 1.86409e-21)
(0.802512 -0.0357343 -3.42549e-21)
(0.845531 -0.193413 2.26479e-21)
(0.859585 -0.265699 -4.11858e-22)
(0.839187 -0.311521 6.21082e-22)
(0.810845 -0.367665 3.89682e-22)
(0.787438 -0.267426 -6.37083e-22)
(0.800775 -0.214622 6.4667e-25)
(0.800883 0.0225067 -1.3096e-22)
(0.801837 0.159979 0)
(0.786728 0.261185 -7.08334e-23)
(0.789702 0.397263 9.8746e-23)
(0.785461 0.151673 0)
(0.562389 -0.251326 1.65028e-19)
(0.582668 -0.322918 -3.15366e-19)
(0.599337 -0.390119 1.4826e-19)
(0.609579 -0.447904 1.22094e-19)
(0.61045 -0.493929 -2.24056e-19)
(0.601465 -0.525396 1.54298e-20)
(0.582567 -0.540336 8.50662e-20)
(0.553326 -0.539326 5.52364e-20)
(0.512959 -0.526006 -5.40776e-20)
(0.460051 -0.506565 0)
(0.394511 -0.486134 -2.4928e-20)
(0.321951 -0.462636 4.42424e-20)
(0.255224 -0.424516 -1.95488e-20)
(0.210219 -0.356741 0)
(0.197352 -0.251683 0)
(0.217492 -0.11528 3.25532e-22)
(0.265235 0.0350371 -1.50316e-20)
(0.330618 0.179917 1.46033e-20)
(0.403106 0.302796 0)
(0.47435 0.394443 1.16005e-20)
(0.536625 0.455116 -2.24673e-20)
(0.582798 0.49605 2.37117e-20)
(0.608955 0.53264 -2.71405e-20)
(0.620303 0.567137 -3.37914e-21)
(0.633113 0.575823 3.92053e-20)
(0.665365 0.519734 -2.17708e-20)
(0.722337 0.376372 -9.05758e-22)
(0.795874 0.160222 -1.54841e-20)
(0.868714 -0.0770269 4.84992e-22)
(0.922736 -0.27411 1.50868e-20)
(0.947682 -0.394764 7.09957e-22)
(0.946962 -0.444819 -7.44527e-21)
(0.927553 -0.449722 1.26662e-20)
(0.899951 -0.431628 -5.83825e-21)
(0.869875 -0.408283 0)
(0.828441 -0.393803 -3.09103e-21)
(0.770279 -0.38632 2.98568e-21)
(0.705702 -0.344527 -2.55618e-21)
(0.666618 -0.247369 3.18764e-21)
(0.665699 -0.0912698 -3.47393e-22)
(0.703368 0.06298 0)
(0.757171 0.1993 -2.89178e-22)
(0.807236 0.300848 8.56637e-22)
(0.825362 0.387631 0)
(0.811663 0.455487 3.49086e-21)
(0.788311 0.443451 -1.24125e-21)
(0.77461 0.351548 9.22852e-22)
(0.794638 0.140345 1.06278e-21)
(0.818115 -0.0412756 0)
(0.859557 -0.198346 0)
(0.872107 -0.264942 -1.51168e-21)
(0.851015 -0.304564 2.04751e-21)
(0.820665 -0.362207 -9.52084e-22)
(0.793307 -0.267106 2.28619e-22)
(0.806581 -0.21742 3.34307e-22)
(0.801903 0.0210851 1.31085e-22)
(0.802655 0.160741 -1.77703e-22)
(0.785721 0.261763 0)
(0.789206 0.397373 -1.55454e-22)
(0.788244 0.152363 -4.70264e-23)
(0.733985 -0.255133 1.63104e-19)
(0.751309 -0.322652 -1.62455e-19)
(0.76623 -0.384372 1.13474e-21)
(0.772773 -0.436621 -9.76832e-22)
(0.767779 -0.477863 8.78583e-22)
(0.751863 -0.505208 -7.39638e-22)
(0.725819 -0.516629 1.17038e-21)
(0.6902 -0.512258 0)
(0.64588 -0.494076 -7.02245e-22)
(0.59287 -0.46649 5.11132e-22)
(0.529334 -0.436435 3.54339e-22)
(0.454111 -0.409274 -2.99874e-22)
(0.372198 -0.381644 0)
(0.297689 -0.339818 0)
(0.247871 -0.268171 7.39809e-23)
(0.233566 -0.1613 0)
(0.255829 -0.0285746 -7.3662e-23)
(0.30641 0.109803 0)
(0.37272 0.236003 -7.28848e-21)
(0.443483 0.337502 1.45708e-20)
(0.508594 0.41174 -1.58131e-20)
(0.559707 0.466838 8.33127e-21)
(0.593257 0.514579 1.2657e-20)
(0.615553 0.554742 -1.22912e-20)
(0.642505 0.564448 -2.11674e-20)
(0.689191 0.508528 2.07255e-20)
(0.757797 0.366859 0)
(0.840075 0.153058 9.89545e-22)
(0.918425 -0.0818486 0)
(0.972136 -0.275585 0)
(0.990882 -0.39207 1.8986e-20)
(0.981661 -0.438011 -1.98239e-20)
(0.954319 -0.440394 7.64164e-22)
(0.919406 -0.421676 5.66587e-22)
(0.884519 -0.396476 -4.03379e-22)
(0.842345 -0.376817 -2.43293e-21)
(0.785352 -0.365996 2.36243e-21)
(0.718214 -0.329859 -2.65696e-21)
(0.673084 -0.247147 2.28291e-21)
(0.665221 -0.106271 6.32551e-22)
(0.700504 0.0393326 -2.27984e-21)
(0.754193 0.175934 -1.18909e-22)
(0.80634 0.285478 1.52285e-21)
(0.827207 0.382902 0)
(0.81761 0.459692 -1.2568e-21)
(0.800502 0.450828 2.83977e-21)
(0.791464 0.357198 -3.51825e-21)
(0.81456 0.142093 -1.06955e-21)
(0.83582 -0.0450295 0)
(0.874992 -0.202207 5.69027e-22)
(0.885739 -0.263857 -1.33908e-21)
(0.863936 -0.297108 -2.63079e-24)
(0.831272 -0.356127 -2.47687e-22)
(0.799579 -0.266511 2.46345e-22)
(0.813049 -0.220141 -2.82225e-22)
(0.804029 0.0196343 0)
(0.804649 0.161615 1.77786e-22)
(0.78563 0.262255 0)
(0.789687 0.397177 0)
(0.792143 0.152899 5.875e-23)
(0.901077 -0.254767 -1.58389e-19)
(0.9116 -0.315982 1.5673e-19)
(0.921381 -0.370063 -1.05208e-21)