/*--------------------------------*- C++ -*----------------------------------*\
| =========                 |                                                 |
| \\      /  F ield         | OpenFOAM: The Open Source CFD Toolbox           |
|  \\    /   O peration     | Version:  2512                                  |
|   \\  /    A nd           | Website:  www.openfoam.com                      |
|    \\/     M anipulation  |                                                 |
\*---------------------------------------------------------------------------*/
FoamFile
{
    version     2.0;
    format      ascii;
    arch        "LSB;label=32;scalar=64";
    class       surfaceScalarField;
    location    "165";
    object      phi;
}
// * * * * * * * * * * * * * * * * * * * * * * * * * * * * * * * * * * * * * //

dimensions      [0 3 -1 0 0 0 0];

oriented        oriented;

internalField   nonuniform List<scalar> 
26232
(
0.000177586
0.000939855
-0.00111744
0.000888921
0.00152359
-0.00223492
0.0022859
0.000918033
-0.00231502
0.00450967
-0.000848468
-0.0013753
0.00770216
-0.00375578
0.000563294
0.0120014
-0.00778241
0.00348313
0.0175242
-0.012892
0.00736929
0.0243422
-0.019016
0.012198
0.0324538
-0.0260377
0.0179261
0.0417616
-0.0337834
0.0244756
0.0520629
-0.0420245
0.0317232
0.0630574
-0.0504917
0.0394972
0.0743737
-0.0588996
0.0475833
0.0856089
-0.0669746
0.0557394
0.096376
-0.0744835
0.0637164
0.106349
-0.0812553
0.0712819
0.115301
-0.0871942
0.0782423
0.123121
-0.0922816
0.0844615
0.129819
-0.0965655
0.0898678
0.135501
-0.100148
0.094466
0.140338
-0.103134
0.098297
0.144498
-0.105701
0.101542
0.147936
-0.107689
0.104251
-0.10979
0.107041
0.150685
0.000205023
0.000734832
0.00105092
0.000677689
0.00273676
-0.0007678
0.00544181
-0.00355353
0.00933002
-0.00764398
0.0145338
-0.0129862
0.0211255
-0.0194838
0.0290862
-0.0269767
0.0382811
-0.0352326
0.0484535
-0.0439559
0.0592424
-0.0528133
0.0702212
-0.0614705
0.0809515
-0.0696299
0.0910397
-0.0770629
0.100186
-0.0836296
0.108215
-0.0892841
0.115086
-0.0940651
0.120879
-0.0980754
0.125768
-0.101455
0.129973
-0.104353
0.133742
-0.106904
0.137277
-0.109235
0.14094
-0.111353
-0.113684
0.144834
0.000265984
0.000468848
0.00132305
-0.000379374
0.00340386
-0.00284861
0.00670948
-0.00685915
0.0113987
-0.0123332
0.0175566
-0.0191441
0.0251574
-0.0270845
0.0340371
-0.0358564
0.0438912
-0.0450867
0.0543023
-0.054367
0.0647951
-0.0633061
0.0749047
-0.0715801
0.0842424
-0.0789675
0.0925441
-0.0853646
0.0996934
-0.0907789
0.105716
-0.0953068
0.110751
-0.0990999
0.115007
-0.102331
0.118717
-0.105165
0.122103
-0.107739
0.125354
-0.110154
0.128611
-0.112493
0.132
-0.114742
-0.117169
0.135486
0.000359476
0.000109372
0.00170005
-0.00171995
0.00426751
-0.00541608
0.00825651
-0.0108481
0.0137792
-0.0178559
0.0208206
-0.0261855
0.0292048
-0.0354687
0.0385922
-0.0452438
0.048518
-0.0550125
0.0584638
-0.0643127
0.0679416
-0.072784
0.0765689
-0.0802074
0.0841149
-0.0865135
0.0905122
-0.0917619
0.0958361
-0.0961028
0.10026
-0.0997311
0.104007
-0.102846
0.107299
-0.105623
0.110332
-0.108198
0.113261
-0.110668
0.116202
-0.113095
0.119233
-0.115524
0.122439
-0.117948
-0.120556
0.125826
0.000479652
-0.00037028
0.00215959
-0.00339989
0.00527172
-0.00852821
0.00996587
-0.0155423
0.0162574
-0.0241475
0.0239808
-0.0339088
0.03278
-0.0442679
0.0421529
-0.0546167
0.0515393
-0.064399
0.0604236
-0.0731971
0.0684199
-0.0807803
0.0753175
-0.087105
0.0810822
-0.0922781
0.0858207
-0.0965005
0.0897263
-0.100008
0.0930225
-0.103027
0.0959207
-0.105744
0.098595
-0.108297
0.101177
-0.11078
0.103758
-0.113249
0.106403
-0.11574
0.109151
-0.118273
0.112048
-0.120845
-0.123561
0.115053
0.000619215
-0.000989495
0.00267148
-0.00545215
0.00634178
-0.0121985
0.0116898
-0.0208903
0.0185846
-0.0310423
0.0266779
-0.0420021
0.0354436
-0.0530336
0.0442798
-0.063453
0.0526324
-0.0727515
0.0600952
-0.0806599
0.0664588
-0.0871439
0.071704
-0.0923502
0.0759547
-0.0965289
0.0794144
-0.0999601
0.082306
-0.1029
0.0848312
-0.105553
0.0871498
-0.108063
0.0893778
-0.110525
0.091594
-0.112996
0.0938509
-0.115506
0.096184
-0.118073
0.0986164
-0.120705
0.101175
-0.123403
-0.126222
0.103835
0.000770562
-0.00176006
0.00320228
-0.00788387
0.00739492
-0.0163912
0.0132716
-0.026767
0.0205196
-0.0382903
0.0286091
-0.0500916
0.0368991
-0.0613235
0.0447829
-0.0713368
0.0518115
-0.0797801
0.0577528
-0.0866012
0.0625829
-0.091974
0.0664301
-0.0961973
0.069502
-0.0996009
0.0720221
-0.10248
0.0741869
-0.105065
0.0761487
-0.107514
0.0780142
-0.109928
0.079854
-0.112365
0.0817136
-0.114855
0.0836223
-0.117415
0.0856
-0.120051
0.08766
-0.122765
0.0898165
-0.125559
-0.128454
0.0920483
0.000925705
-0.00268576
0.00371655
-0.0106747
0.00834648
-0.0210211
0.0145639
-0.0329844
0.0218643
-0.0455906
0.0295782
-0.0578056
0.0370348
-0.0687802
0.0437159
-0.0780179
0.0493381
-0.0854023
0.0538496
-0.0911127
0.0573695
-0.0954938
0.0601055
-0.0989333
0.0622831
-0.101779
0.0640999
-0.104297
0.0657061
-0.106671
0.0672052
-0.109013
0.0686635
-0.111387
0.0701225
-0.113824
0.0716082
-0.116341
0.0731383
-0.118945
0.0747252
-0.121638
0.0763785
-0.124419
0.0781073
-0.127288
-0.130247
0.0798997
0.00107568
-0.00376145
0.00417734
-0.0137764
0.00911588
-0.0259596
0.0154444
-0.0393129
0.0224906
-0.0526368
0.029517
-0.0648319
0.0359106
-0.0751738
0.0413032
-0.0834105
0.0455872
-0.0896862
0.0488547
-0.0943803
0.0513075
-0.0979466
0.0531747
-0.1008
0.0546594
-0.103263
0.055916
-0.105554
0.0570495
-0.107805
0.0581256
-0.110089
0.0591839
-0.112445
0.0602487
-0.114889
0.0613358
-0.117428
0.0624566
-0.120066
0.0636194
-0.1228
0.0648312
-0.125631
0.066097
-0.128554
-0.13156
0.0674108
0.00121036
-0.0049718
0.00454826
-0.0171143
0.00963468
-0.031046
0.0158319
-0.0455102
0.0223528
-0.0591577
0.0284729
-0.070952
0.0337027
-0.0804036
0.0378427
-0.0875506
0.0409343
-0.0927777
0.0431613
-0.0966073
0.044755
-0.0995404
0.0459286
-0.101974
0.046846
-0.104181
0.0476186
-0.106326
0.0483152
-0.108501
0.0489759
-0.11075
0.0496246
-0.113094
0.0502759
-0.11554
0.0509403
-0.118093
0.0516258
-0.120751
0.0523384
-0.123513
0.0530835
-0.126376
0.0538644
-0.129335
-0.132377
0.0546811
0.00131978
-0.00629158
0.00479843
-0.0205929
0.00985584
-0.0361034
0.0156938
-0.0513482
0.0214801
-0.0649441
0.0265732
-0.0760451
0.0306389
-0.0844693
0.0336318
-0.0905435
0.0356981
-0.094844
0.0370647
-0.0979739
0.037956
-0.100432
0.038551
-0.102569
0.0389728
-0.104602
0.0392972
-0.106651
0.0395675
-0.108771
0.0398082
-0.110991
0.0400336
-0.113319
0.0402537
-0.11576
0.0404759
-0.118315
0.040706
-0.120981
0.0409485
-0.123756
0.041207
-0.126634
0.0414825
-0.12961
-0.132672
0.0417775
0.0013983
-0.00768988
0.00490954
-0.0241042
0.00976061
-0.0409545
0.0150457
-0.0566333
0.0199595
-0.0698579
0.0239892
-0.0800748
0.026956
-0.087436
0.0289348
-0.0925222
0.0301317
-0.096041
0.0307798
-0.098622
0.0310766
-0.100729
0.0311626
-0.102655
0.0311255
-0.104565
0.0310149
-0.10654
0.0308578
-0.108614
0.0306689
-0.110802
0.0304577
-0.113108
0.0302311
-0.115534
0.0299947
-0.118079
0.0297534
-0.12074
0.0295112
-0.123513
0.0292708
-0.126394
0.0290323
-0.129372
0.0287998
-0.13244
-0.000308307
0.00194561
-0.00163731
-0.00106669
0.00415109
-0.0033927
-0.00217572
0.00521698
-0.00410795
-0.00356342
0.00547319
-0.0040855
-0.00517659
0.00517984
-0.00356667
-0.00697595
0.00452563
-0.00272627
-0.00893155
0.00362766
-0.00167206
-0.0110247
0.00253998
-0.000446852
-0.0132253
0.00127107
0.000929545
-0.0155192
-0.000203336
0.0024972
-0.0178847
-0.00192112
0.0042867
-0.0203013
-0.00391984
0.0063364
-0.0227421
-0.00623889
0.00867968
-0.0251761
-0.00890627
0.0113402
-0.0275664
-0.0119392
0.0143296
-0.0298697
-0.0153413
0.0176446
-0.0320358
-0.0190986
0.0212647
-0.0340078
-0.0231764
0.0251484
-0.0357235
-0.0275151
0.0292307
-0.0371175
-0.0320278
0.0334219
-0.0381248
-0.0366008
0.0376081
-0.0386834
-0.0410955
0.0416541
-0.0387477
-0.0453428
0.0454071
-0.0491425
-0.0383296
0.0487244
-0.000259915
0.00220553
-0.000925695
0.00481687
-0.00192518
0.00621646
-0.00319867
0.00674668
-0.0046958
0.00667697
-0.00637539
0.00620522
-0.00820469
0.00545696
-0.0101582
0.00449352
-0.0122144
0.0033272
-0.0143553
0.00193756
-0.0165575
0.000281091
-0.0188194
-0.00165796
-0.0211148
-0.0039434
-0.0234234
-0.00659767
-0.025721
-0.00964168
-0.0279797
-0.0130826
-0.0301681
-0.0169102
-0.0322516
-0.0210929
-0.0341925
-0.0255741
-0.0359523
-0.030268
-0.037495
-0.0350582
-0.0387894
-0.0398011
-0.0398066
-0.0443257
-0.0483913
-0.0405578
-0.000184207
0.00238973
-0.000693488
0.00532615
-0.00149128
0.00701426
-0.00253443
0.00778983
-0.00377711
0.00791966
-0.00517575
0.00760386
-0.00669191
0.00697312
-0.00829332
0.00609493
-0.00995347
0.00498735
-0.011651
0.00363506
-0.0133724
0.00200255
-0.0150867
5.62723e-05
-0.016789
-0.00224106
-0.0184573
-0.00492939
-0.0200723
-0.00802666
-0.0216147
-0.0115402
-0.0230658
-0.0154591
-0.024408
-0.0197507
-0.0256258
-0.0243564
-0.0267055
-0.0291884
-0.0276388
-0.0341248
-0.0284287
-0.0390112
-0.0290737
-0.0436807
-0.0479297
-0.0295353
-8.98417e-05
0.00247958
-0.000393967
0.00563027
-0.000915308
0.0075356
-0.00163026
0.00850478
-0.00249959
0.00878899
-0.00347789
0.00858216
-0.00452014
0.00801537
-0.0055854
0.00716019
-0.00663815
0.0060401
-0.00764812
0.00464504
-0.00859075
0.00294517
-0.00943578
0.000901305
-0.0101616
-0.00151524
-0.0107448
-0.00434622
-0.0111623
-0.00760914
-0.0113938
-0.0113086
-0.0114233
-0.0154296
-0.0112411
-0.0199328
-0.0108465
-0.024751
-0.0102473
-0.0297876
-0.00945778
-0.0349143
-0.00850304
-0.0399659
-0.00744195
-0.0447417
-0.0490923
-0.00627932
1.0472e-05
0.0024691
-6.38865e-05
0.00570463
-0.000263476
0.00773519
-0.000584394
0.00882569
-0.000995585
0.00920018
-0.00145134
0.00903792
-0.00190071
0.00846474
-0.00229323
0.0075527
-0.00258215
0.00632902
-0.00272509
0.00478799
-0.00268335
0.00290343
-0.00242022
0.00063817
-0.00189811
-0.00203735
-0.00108363
-0.0051607
5.5065e-05
-0.00874783
0.0015459
-0.0127995
0.00340907
-0.0172928
0.00565323
-0.022177
0.00827266
-0.0273704
0.0112448
-0.0327598
0.0145328
-0.0382022
0.0180968
-0.04353
0.0218683
-0.0485132
-0.0529652
0.0257412
0.00010321
0.00236589
0.000254467
0.00555338
0.000385955
0.0076037
0.000484674
0.00872697
0.000573291
0.00911156
0.000696229
0.00891498
0.000909154
0.00825181
0.00127097
0.00719089
0.00183996
0.00576003
0.00267191
0.00395603
0.00381983
0.00175551
0.00533276
-0.000874763
0.00726368
-0.00396826
0.0096562
-0.00755322
0.0125512
-0.0116429
0.0159812
-0.0162294
0.019966
-0.0212777
0.0245094
-0.0267203
0.0295943
-0.0324553
0.0351821
-0.0383476
0.041213
-0.0442331
0.047621
-0.049938
0.0543041
-0.0551963
-0.0600527
0.0613916
0.000176031
0.00218986
0.000522442
0.00520696
0.000958327
0.00716781
0.00146094
0.00822436
0.0020468
0.00852571
0.0027588
0.00820298
0.00365565
0.00735496
0.00480411
0.00604242
0.00627363
0.00429052
0.00813349
0.00209617
0.0104514
-0.000562422
0.0132928
-0.00371618
0.016719
-0.00739443
0.0207834
-0.0116176
0.0255279
-0.0163874
0.0309773
-0.0216788
0.0371339
-0.0274343
0.0439727
-0.033559
0.0514395
-0.0399221
0.0594525
-0.0463607
0.0679085
-0.0526891
0.0766921
-0.0587215
0.0857017
-0.064206
-0.0693551
0.0950041
0.000221145
0.00196872
0.000712661
0.00471545
0.00139851
0.00648196
0.00225609
0.00736678
0.00330085
0.00748095
0.00457636
0.00692747
0.00614551
0.00578581
0.00808312
0.00410482
0.0104703
0.00190335
0.0133904
-0.000823899
0.0169259
-0.00409799
0.0211533
-0.00794355
0.0261392
-0.0123803
0.031933
-0.0174114
0.0385593
-0.0230137
0.0460106
-0.0291301
0.0542409
-0.0356646
0.0631641
-0.0424822
0.0726565
-0.0494145
0.0825639
-0.0562681
0.092725
-0.0628502
0.10296
-0.068957
0.11316
-0.0744055
-0.0794049
0.12321
0.000236573
0.00173215
0.000816004
0.00413602
0.00168522
0.00561274
0.00283342
0.00621859
0.00428293
0.00603144
0.00608349
0.0051269
0.00830605
0.00356324
0.0110362
0.00137464
0.0143684
-0.00142887
0.0183992
-0.00485463
0.0232189
-0.00891775
0.0289051
-0.0136297
0.0355106
-0.0189859
0.0430536
-0.0249543
0.0515069
-0.0314671
0.0607922
-0.0384154
0.0707784
-0.0456508
0.0812877
-0.0529914
0.0921085
-0.0602353
0.103012
-0.067172
0.113785
-0.0736233
0.124221
-0.0793923
0.134251
-0.0844356
-0.0887544
0.1436
0.000227153
0.00150499
0.000845399
0.00351777
0.00184021
0.00461793
0.0032245
0.0048343
0.00503747
0.00421847
0.00734308
0.0028213
0.0102267
0.000679642
0.0137886
-0.00218728
0.0181341
-0.00577437
0.0233639
-0.0100844
0.0295606
-0.0151144
0.0367738
-0.0208429
0.0450057
-0.0272177
0.0541989
-0.0341475
0.0642304
-0.0414986
0.0749137
-0.0490986
0.086009
-0.0567462
0.0972447
-0.0642271
0.108342
-0.0713327
0.119048
-0.0778777
0.129152
-0.0837279
0.138516
-0.0887558
0.147116
-0.0930358
-0.0963763
0.154738
0.000204124
0.00130087
0.000835147
0.00288675
0.00192814
0.00352494
0.00353036
0.00323208
0.00570837
0.00204047
0.00854708
-1.7417e-05
0.0121542
-0.00292752
0.0166387
-0.00667174
0.0221061
-0.0112418
0.0286375
-0.0166158
0.0362704
-0.0227473
0.0449804
-0.029553
0.0546692
-0.0369065
0.0651596
-0.044638
0.0762038
-0.0525428
0.0875011
-0.0603959
0.0987262
-0.0679713
0.109564
-0.0750645
0.119741
-0.0815096
0.129066
-0.0872031
0.137432
-0.0920936
0.144882
-0.0962065
0.151458
-0.0996111
-0.102129
0.15721
0.000183427
0.000835252
0.00204517
0.00390195
0.00650571
0.00997141
0.0144132
0.0199395
0.0266238
0.0344836
0.0434595
0.0534037
0.0640805
0.075182
0.0863556
0.0972416
0.107513
0.11691
0.125268
0.132531
0.138734
0.144069
0.148709
0.153621
-0.0352608
-0.0729823
0.0699135
-0.0308041
-0.0771286
0.0726719
-0.0248396
-0.0786622
0.0726977
-0.0172934
-0.0769978
0.0694517
-0.00824102
-0.0714073
0.0623549
0.00219389
-0.0614132
0.0509783
0.0137097
-0.046745
0.0352292
0.025733
-0.0272322
0.015209
0.0379069
-0.00366817
-0.00850569
0.0499691
0.0233424
-0.0354046
0.0618884
0.0520143
-0.0639336
0.0733656
0.0803354
-0.0918127
0.0838118
0.105773
-0.116219
0.0925119
0.126053
-0.134753
0.0988556
0.140064
-0.146408
0.102273
0.148507
-0.151924
0.102215
0.154069
-0.15401
0.0989256
0.159798
-0.156509
0.0944102
0.165316
-0.160801
0.0920534
0.164248
-0.161891
0.0945393
0.146922
-0.149408
0.102094
0.107471
-0.115025
0.113065
0.0482551
-0.0592262
0.125212
-0.0203171
0.00817024
0.136568
-0.0850453
0.0736891
0.145469
-0.134339
0.125438
0.150979
-0.164579
0.159069
0.153361
-0.179245
0.176864
0.153499
-0.183502
0.183364
0.151349
-0.18332
0.18547
0.145975
-0.186518
0.191892
0.13779
-0.196741
0.204927
0.129874
-0.200919
0.208834
0.126049
-0.17727
0.181095
0.127891
-0.112248
0.110406
0.134288
-0.0209812
0.0145844
0.142498
0.0712273
-0.0794375
0.150382
0.140788
-0.148671
0.156008
0.183175
-0.188801
0.15735
0.210611
-0.211953
0.153331
0.233294
-0.229275
0.145693
0.256041
-0.248402
0.138588
0.243782
-0.236677
0.135978
0.189539
-0.186929
0.138619
0.0775895
-0.0802308
0.145023
-0.0371126
0.0307093
0.151142
-0.132925
0.126805
0.152783
-0.198116
0.196476
0.148634
-0.230758
0.234906
0.142272
-0.275445
0.281807
0.138774
-0.234026
0.237525
0.140807
-0.186566
0.184533
0.145083
-0.0464943
0.0422185
0.147067
0.0777899
-0.0797741
0.145618
0.174616
-0.173167
0.143206
0.318912
-0.316499
0.142299
0.250456
-0.249549
0.142268
0.272179
-0.272148
0.141226
0.0747987
-0.0737573
-0.140901
0.142831
-0.040493
-0.0730471
-0.0392724
-0.0783491
-0.0365368
-0.0813979
-0.031992
-0.0815425
-0.0254024
-0.0779969
-0.0167832
-0.0700325
-0.00639375
-0.0571345
0.00590282
-0.0395288
0.0194366
-0.017202
0.0333153
0.00946367
0.0472926
0.0380371
0.0610034
0.0666246
0.073818
0.0929581
0.0849284
0.114942
0.0935
0.131492
0.0987684
0.143238
0.100426
0.152411
0.0994006
0.160823
0.0981386
0.166578
0.0995291
0.162858
0.104999
0.141453
0.11381
0.0986591
0.124254
0.0378112
0.134665
-0.0307282
0.143606
-0.0939858
0.149948
-0.140681
0.153132
-0.167764
0.153528
-0.179641
0.152119
-0.182092
0.149013
-0.180215
0.143076
-0.180581
0.134246
-0.187912
0.125462
-0.192134
0.12103
-0.172838
0.123
-0.114219
0.130304
-0.0282849
0.139989
0.0615424
0.149502
0.131275
0.156551
0.176126
0.158922
0.20824
0.155744
0.236472
0.148881
0.262904
0.142258
0.250405
0.139433
0.192363
0.141078
0.075945
0.146251
-0.0422856
0.151446
-0.13812
0.152674
-0.199345
0.148272
-0.226355
0.141806
-0.268979
0.138374
-0.230595
0.140483
-0.188675
0.144808
-0.0508194
0.146743
0.0758542
0.145475
0.175884
0.143161
0.321226
0.142396
0.251221
0.14268
0.271895
0.141856
0.0756223
-0.139037
-0.0324001
-0.0701824
-0.0346983
-0.0760509
-0.0358588
-0.0802374
-0.035413
-0.0819884
-0.0328009
-0.0806091
-0.0276175
-0.0752159
-0.0196596
-0.0650924
-0.0093085
-0.0498799
0.00335987
-0.0298704
0.01837
-0.00554648
0.0337789
0.0226282
0.0493482
0.0510553
0.0642283
0.078078
0.0774494
0.101721
0.0880369
0.120905
0.0952653
0.13601
0.099204
0.148472
0.101224
0.158803
0.103704
0.164099
0.10871
0.157851
0.116534
0.133629
0.125836
0.0893567
0.135317
0.0283301
0.14369
-0.0391008
0.150092
-0.100389
0.153848
-0.144436
0.154795
-0.16871
0.153387
-0.178234
0.150603
-0.179309
0.146724
-0.176336
0.14053
-0.174387
0.131396
-0.178777
0.121881
-0.18262
0.116674
-0.167631
0.118495
-0.11604
0.126422
-0.0362115
0.1374
0.0505638
0.148447
0.120228
0.156923
0.16765
0.160456
0.204707
0.158335
0.238592
0.152409
0.26883
0.146302
0.256513
0.143216
0.195449
0.143743
0.0754183
0.147579
-0.0461216
0.151781
-0.142323
0.152625
-0.200189
0.148038
-0.221768
0.141466
-0.262407
0.138055
-0.227184
0.140213
-0.190833
0.144623
-0.0552295
0.146549
0.0739285
0.145447
0.176986
0.143201
0.323472
0.142589
0.251833
0.143244
0.271241
0.142675
0.0761914
-0.137247
-0.0112564
-0.0652053
-0.01646
-0.0708473
-0.0212333
-0.075464
-0.025159
-0.0780627
-0.0273943
-0.0783738
-0.0270894
-0.0755208
-0.0235959
-0.0685859
-0.0166575
-0.0568182
-0.00660567
-0.0399222
0.00664991
-0.0188021
0.0221891
0.00708904
0.0386372
0.0346072
0.0548954
0.0618198
0.0698096
0.0868068
0.0823187
0.108396
0.0918119
0.126517
0.0986354
0.141649
0.104236
0.153203
0.110564
0.15777
0.118754
0.149661
0.128243
0.12414
0.137556
0.0800441
0.145649
0.0202368
0.151974
-0.0454259
0.155899
-0.104314
0.157151
-0.145688
0.155973
-0.167533
0.152946
-0.175207
0.148951
-0.175313
0.14441
-0.171795
0.138186
-0.168163
0.129138
-0.169729
0.119161
-0.172643
0.113062
-0.161532
0.114378
-0.117356
0.122628
-0.0444614
0.134681
0.038511
0.147142
0.107766
0.157044
0.157748
0.161877
0.199874
0.161017
0.239452
0.156168
0.273679
0.150603
0.262078
0.147199
0.198854
0.146576
0.0760408
0.14898
-0.0485258
0.152129
-0.145472
0.152604
-0.200663
0.147893
-0.217056
0.141205
-0.255719
0.137763
-0.223742
0.139953
-0.193022
0.1445
-0.0597771
0.146471
0.0719577
0.14553
0.177927
0.143328
0.325674
0.142883
0.252278
0.143961
0.270162
0.143681
0.076471
-0.135542
0.0195322
-0.0589963
0.0125144
-0.0638295
0.00498179
-0.0679314
-0.0022471
-0.0708338
-0.00863955
-0.0719813
-0.0133277
-0.0708326
-0.0152728
-0.0666408
-0.0135899
-0.0585011
-0.00808609
-0.0454261
0.00094342
-0.0278316
0.0147748
-0.00674234
0.0304156
0.0189664
0.0468505
0.0453849
0.062745
0.0709124
0.076922
0.0942187
0.0888241
0.114614
0.0988061
0.131667
0.108067
0.143941
0.117936
0.147902
0.128724
0.138873
0.139316
0.113548
0.148307
0.0710531
0.154983
0.0135609
0.15932
-0.0497624
0.160877
-0.105871
0.159734
-0.144544
0.156573
-0.164372
0.152134
-0.170768
0.14713
-0.170309
0.142042
-0.166706
0.135947
-0.162069
0.127328
-0.16111
0.117248
-0.162563
0.110284
-0.154569
0.110775
-0.117847
0.118925
-0.052612
0.131782
0.025654
0.145492
0.0940567
0.156804
0.146436
0.163073
0.193605
0.163662
0.238862
0.160013
0.277328
0.155013
0.267077
0.151286
0.202581
0.149483
0.0778436
0.150423
-0.0494661
0.152461
-0.147509
0.152576
-0.200778
0.1478
-0.21228
0.140984
-0.248904
0.137454
-0.220212
0.139656
-0.195225
0.144408
-0.0645287
0.146495
0.0698706
0.145719
0.178703
0.143546
0.327846
0.143279
0.252546
0.144833
0.268608
0.144874
0.0764294
-0.133929
0.0550124
-0.0526171
0.048023
-0.05684
0.0402158
-0.0601242
0.0315174
-0.0621355
0.0223365
-0.0628004
0.0134734
-0.0619694
0.00605574
-0.0592232
0.00148465
-0.05393
0.00135027
-0.0452917
0.00616872
-0.03265
0.0149778
-0.0155514
0.0277008
0.00624333
0.0425568
0.030529
0.0581933
0.0552758
0.0733242
0.0790879
0.0872521
0.100687
0.100067
0.118852
0.112493
0.131515
0.125183
0.135211
0.137792
0.126264
0.148955
0.102385
0.157489
0.0625188
0.163039
0.0080115
0.165522
-0.0522452
0.164853
-0.105203
0.161495
-0.141187
0.156537
-0.159414
0.150894
-0.165125
0.145093
-0.164508
0.139559
-0.161173
0.133674
-0.156183
0.12576
-0.153196
0.115993
-0.152795
0.108342
-0.146918
0.107747
-0.117251
0.115401
-0.0602658
0.128669
0.012386
0.143398
0.0793279
0.156072
0.133762
0.163894
0.185783
0.166102
0.236655
0.163772
0.279658
0.159368
0.271482
0.155323
0.206626
0.152393
0.0807733
0.151861
-0.0489345
0.152741
-0.148389
0.1525
-0.200537
0.147719
-0.207499
0.14077
-0.241954
0.137086
-0.216528
0.139275
-0.197414
0.144306
-0.0695599
0.146598
0.0675787
0.146007
0.179294
0.143859
0.329994
0.143778
0.252627
0.145858
0.266529
0.14625
0.0760371
-0.13242
0.0887235
-0.0463365
0.0820438
-0.0501603
0.074736
-0.0528164
0.0666403
-0.0540398
0.0577969
-0.0539571
0.0484087
-0.0525812
0.0390837
-0.0498982
0.0309318
-0.0457781
0.0252901
-0.03965
0.0234253
-0.0307852
0.026031
-0.0181571
0.0337336
-0.00145932
0.0449061
0.0193565
0.0585863
0.0415956
0.0733607
0.0643135
0.0882561
0.0857911
0.102925
0.104183
0.117502
0.116938
0.131991
0.120723
0.145572
0.112684
0.156849
0.0911071
0.164895
0.0544732
0.169431
0.00347532
0.170324
-0.0531381
0.167659
-0.102537
0.162333
-0.135861
0.155805
-0.152887
0.149168
-0.158488
0.142784
-0.158124
0.136917
-0.155306
0.131248
-0.150514
0.124203
-0.14615
0.115154
-0.143746
0.107158
-0.138923
0.105382
-0.115475
0.112081
-0.0669651
0.125318
-0.000850951
0.140765
0.0638804
0.154712
0.119815
0.164175
0.176321
0.168159
0.232671
0.167261
0.280555
0.163496
0.275247
0.159178
0.210944
0.155198
0.0847533
0.153242
-0.0469789
0.152932
-0.148078
0.152333
-0.199938
0.14761
-0.202777
0.140535
-0.23488
0.136632
-0.212625
0.138762
-0.199544
0.144151
-0.0749485
0.146754
0.064976
0.146386
0.179662
0.14427
0.33211
0.144382
0.252515
0.147031
0.26388
0.147803
0.0752649
-0.131024
0.116839
-0.0399658
0.110238
-0.0435591
0.103296
-0.0458743
0.0960285
-0.0467726
0.0884579
-0.0463865
0.0804914
-0.0446147
0.0720906
-0.0414974
0.0635538
-0.0372412
0.0557325
-0.0318287
0.0498494
-0.0249021
0.0472901
-0.0155978
0.0491555
-0.00332471
0.0554013
0.0131108
0.0654886
0.0315083
0.0782683
0.0515338
0.0926098
0.0714495
0.107718
0.0890749
0.123124
0.101533
0.138256
0.105591
0.151985
0.0989536
0.162993
0.0800995
0.170535
0.0469313
0.174158
-0.000147569
0.173634
-0.0526143
0.169184
-0.0980874
0.162163
-0.12884
0.154329
-0.145053
0.146903
-0.151061
0.140137
-0.151358
0.134062
-0.149232
0.128577
-0.145029
0.122432
-0.140005
0.11443
-0.135745
0.106517
-0.131009
0.103637
-0.112595
0.109046
-0.0723737
0.121731
-0.0135359
0.137537
0.0480738
0.152609
0.104744
0.163748
0.165181
0.169626
0.226793
0.170267
0.279914
0.167225
0.278289
0.162695
0.215475
0.1578
0.0896482
0.154505
-0.0436841
0.152989
-0.146563
0.152026
-0.198975
0.147428
-0.198179
0.140257
-0.227709
0.136073
-0.208441
0.138081
-0.201551
0.143896
-0.0807636
0.146931
0.0619412
0.146847
0.179746
0.144779
0.334178
0.145092
0.252202
0.148351
0.260621
0.149529
0.0740868
-0.129752
0.137233
-0.0335985
0.130685
-0.0370108
0.123893
-0.039082
0.117091
-0.0399713
0.110464
-0.0397595
0.103997
-0.0381477
0.097561
-0.0350611
0.091023
-0.0307032
0.0844628
-0.0252685
0.0783421
-0.0187813
0.0736517
-0.0109075
0.0717154
-0.00138837
0.0732183
0.0116078
0.0788938
0.0258328
0.0882843
0.0421433
0.100501
0.059233
0.114521
0.0750546
0.129384
0.0866696
0.144045
0.0909304
0.157188
0.0858108
0.167598
0.0696888
0.174529
0.0400004
0.177305
-0.00292365
0.175386
-0.0506952
0.169315
-0.0920159
0.160875
-0.1204
0.152021
-0.136198
0.144007
-0.143048
0.137029
-0.14438
0.130887
-0.14309
0.125557
-0.139699
0.120241
-0.134688
0.113485
-0.128989
0.106105
-0.12363
0.1024
-0.108891
0.106331
-0.0763039
0.11794
-0.0251453
0.133695
0.0323186
0.149662
0.0887775
0.16246
0.152383
0.170356
0.218897
0.172656
0.277614
0.170402
0.280543
0.165757
0.22012
0.160093
0.0953121
0.155585
-0.0391761
0.152865
-0.143843
0.151522
-0.197632
0.147123
-0.193779
0.139915
-0.220501
0.135403
-0.203929
0.137198
-0.203346
0.143494
-0.0870604
0.147094
0.0583417
0.147376
0.179464
0.145387
0.336167
0.145907
0.251681
0.149809
0.256719
0.15142
0.0724756
-0.128611
0.148751
-0.027612
0.142496
-0.0307554
0.136003
-0.0325888
0.129681
-0.0336492
0.123778
-0.0338565
0.118387
-0.0327573
0.113534
-0.0302077
0.109103
-0.0262724
0.104924
-0.021089
0.100936
-0.0147939
0.0974004
-0.00737186
0.0945825
0.00142959
0.0941933
0.0119971
0.0966136
0.0234125
0.102458
0.0362987
0.111571
0.0501204
0.123221
0.0634042
0.136315
0.0735762
0.14954
0.0777055
0.161482
0.0738688
0.170986
0.0601844
0.177158
0.0338278
0.178913
-0.00467796
0.175533
-0.0473152
0.167969
-0.0844522
0.158383
-0.110814
0.148798
-0.126614
0.14039
-0.13464
0.133338
-0.137328
0.127273
-0.137025
0.122101
-0.134527
0.11748
-0.130067
0.112031
-0.12354
0.105572
-0.117171
0.101429
-0.104748
0.103862
-0.0787366
0.114053
-0.0353364
0.129274
0.017098
0.145831
0.0722198
0.160179
0.138035
0.170104
0.208972
0.174162
0.273557
0.172831
0.281874
0.16821
0.224742
0.162011
0.101511
0.156436
-0.0336016
0.152534
-0.139941
0.150778
-0.195876
0.14665
-0.189651
0.139498
-0.213349
0.134635
-0.199066
0.136094
-0.204805
0.142899
-0.0938657
0.147206
0.0540347
0.147957
0.178712
0.146092
0.338032
0.146828
0.250945
0.151401
0.252146
0.153467
0.0704099
-0.127612
0.151992
-0.022394
0.146243
-0.0250064
0.140243
-0.026589
0.134546
-0.0279516
0.129351
-0.0286612
0.124819
-0.0282261
0.1211
-0.0264887
0.118211
-0.0233831
0.116046
-0.0189237
0.11446
-0.0132083
0.113432
-0.00634338
0.112929
0.00193246
0.112882
0.0120441
0.114322
0.0219718
0.118155
0.0324665
0.124648
0.0436268
0.133561
0.0544912
0.144133
0.0630049
0.155165
0.0666729
0.165367
0.0636673
0.173622
0.0519288
0.178581
0.028869
0.17912
-0.00521676
0.174277
-0.0424726
0.165452
-0.0756273
0.155056
-0.100417
0.145048
-0.116606
0.136426
-0.126017
0.129368
-0.13027
0.123457
-0.131113
0.118431
-0.129502
0.114295
-0.12593
0.110035
-0.11928
0.10474
-0.111876
0.100554
-0.100562
0.101603
-0.0797858
0.110133
-0.0438662
0.124331
0.00290003
0.141082
0.0554682
0.156874
0.122243
0.168964
0.196883
0.1749
0.267621
0.174483
0.282291
0.170001
0.229223
0.163538
0.107975
0.157096
-0.0271599
0.152062
-0.134907
0.149832
-0.193646
0.146012
-0.185832
0.139027
-0.206363
0.133805
-0.193844
0.134798
-0.205798
0.142074
-0.101142
0.14722
0.0488885
0.14857
0.177362
0.146893
0.33971
0.147857
0.249981
0.153122
0.246881
0.155659
0.0678724
-0.126764
0.149707
-0.0184802
0.144708
-0.0200071
0.13973
-0.0216109
0.134948
-0.0231696
0.130478
-0.0241917
0.126557
-0.0243047
0.123409
-0.023341
0.121227
-0.0212015
0.120074
-0.0177698
0.119864
-0.012999
0.1204
-0.00687938
0.121599
0.000733827
0.123935
0.00970789
0.126936
0.0189707
0.13089
0.0285126
0.136361
0.038156
0.143536
0.047316
0.152011
0.0545296
0.160924
0.0577599
0.16924
0.0553512
0.175863
0.0453063
0.179406
0.0253264
0.177964
-0.00377572
0.171539
-0.0360467
0.161798
-0.0658867
0.151132
-0.0897516
0.141166
-0.10664
0.1326
-0.117451
0.125601
-0.123272
0.119854
-0.125366
0.114944
-0.124592
0.111042
-0.122028
0.107685
-0.115923
0.103617
-0.107808
0.0997233
-0.0966682
0.0996486
-0.0797111
0.106396
-0.050614
0.119167
-0.00987081
0.135528
0.0391073
0.152149
0.105622
0.166165
0.182867
0.174202
0.259583
0.175045
0.281448
0.170965
0.233303
0.16455
0.114391
0.157465
-0.0200753
0.151442
-0.128884
0.148743
-0.190948
0.145231
-0.182319
0.138513
-0.199645
0.132926
-0.188257
0.133407
-0.206278
0.14106
-0.108795
0.147133
0.0428151
0.149189
0.175306
0.147778
0.34112
0.148991
0.248768
0.154965
0.240908
0.157994
0.0648432
-0.126071
0.187942
-0.0140038
-0.192418
0.184261
-0.0163262
0.180473
-0.017823
0.17638
-0.0190762
0.172049
-0.0198609
0.167629
-0.0198851
0.163256
-0.0189676
0.159041
-0.0169867
0.155098
-0.0138269
0.151519
-0.00941989
0.148444
-0.00380452
0.145982
0.0031955
0.144368
0.0113224
0.143454
0.0198843
0.143496
0.0284708
0.144962
0.0366898
0.148423
0.0438555
0.154251
0.048702
0.162331
0.0496799
0.172249
0.0454326
0.1832
0.0343552
0.193104
0.0154227
0.199584
-0.0102554
0.201326
-0.0377893
0.198613
-0.0631738
0.19278
-0.0839179
0.185197
-0.099057
0.176884
-0.109138
0.168579
-0.114967
0.160625
-0.117411
0.152882
-0.116849
0.14556
-0.114706
0.138752
-0.109116
0.131338
-0.100394
0.122951
-0.088281
0.116106
-0.0728668
0.11438
-0.0488875
0.118502
-0.0139928
0.125578
0.0320314
0.132747
0.0984525
0.138518
0.177096
0.142964
0.255138
0.147969
0.276442
0.154905
0.226367
0.161495
0.107801
0.164404
-0.022984
0.163239
-0.127719
0.160096
-0.187805
0.154725
-0.176948
0.146325
-0.191245
0.13844
-0.180373
0.134419
-0.202257
0.135312
-0.109687
0.136024
0.0421027
0.134287
0.177043
0.133053
0.342355
0.135703
0.246118
0.142756
0.233854
0.146328
0.0612715
-0.124114
0.197559
-0.0106759
-0.200886
0.194109
-0.0128763
0.190669
-0.0143835
0.187012
-0.0154188
0.183165
-0.0160142
0.17927
-0.0159898
0.175461
-0.0151592
0.171861
-0.0133858
0.168605
-0.0105718
0.165852
-0.0066663
0.163715
-0.00166726
0.162382
0.004528
0.162029
0.0116759
0.162647
0.019266
0.164313
0.0268051
0.167237
0.0337649
0.17171
0.039383
0.177876
0.0425355
0.185561
0.041995
0.194291
0.0367027
0.203068
0.0255788
0.210266
0.00822393
0.213975
-0.0139637
0.213636
-0.0374502
0.20964
-0.0591781
0.203067
-0.0773453
0.195091
-0.0910806
0.186591
-0.100638
0.178166
-0.106543
0.170167
-0.109412
0.162414
-0.109096
0.154936
-0.107228
0.148082
-0.102261
0.141129
-0.0934411
0.133197
-0.0803486
0.125979
-0.0656491
0.123188
-0.0460966
0.126223
-0.0170274
0.133127
0.0251274
0.140799
0.0907809
0.147576
0.170319
0.153207
0.249507
0.159483
0.270165
0.167484
0.218366
0.174735
0.10055
0.177577
-0.0258255
0.175566
-0.125708
0.171453
-0.183692
0.165391
-0.170886
0.156492
-0.182346
0.14787
-0.171751
0.143108
-0.197495
0.143952
-0.110531
0.145008
0.0410469
0.143526
0.178525
0.142469
0.343412
0.145474
0.243113
0.153409
0.225919
0.157247
0.0574339
-0.121893
0.207356
-0.00800342
-0.210029
0.204259
-0.00977949
0.201054
-0.0111777
0.197748
-0.0121134
0.19433
-0.012596