/*--------------------------------*- C++ -*----------------------------------*\
| =========                 |                                                 |
| \\      /  F ield         | OpenFOAM: The Open Source CFD Toolbox           |
|  \\    /   O peration     | Version:  2512                                  |
|   \\  /    A nd           | Website:  www.openfoam.com                      |
|    \\/     M anipulation  |                                                 |
\*---------------------------------------------------------------------------*/
FoamFile
{
    version     2.0;
    format      ascii;
    arch        "LSB;label=32;scalar=64";
    class       volVectorField;
    location    "165";
    object      U;
}
// * * * * * * * * * * * * * * * * * * * * * * * * * * * * * * * * * * * * * //

dimensions      [0 1 -1 0 0 0 0];

internalField   nonuniform List<vector> 
13248
(
(-0.0127596 0.01262 1.00743e-19)
(-0.0195256 0.0260736 0)
(-0.00687545 0.032697 -1.90428e-19)
(0.0236624 0.0337438 1.79375e-19)
(0.0709375 0.0305811 1.68225e-19)
(0.133973 0.0245211 0)
(0.211651 0.0166484 0)
(0.302452 0.00784021 4.12898e-19)
(0.404218 -0.00122924 -3.47104e-22)
(0.513979 -0.0100847 -3.63544e-19)
(0.627952 -0.0184379 3.39426e-19)
(0.741761 -0.0261647 -2.12655e-19)
(0.850814 -0.0332693 0)
(0.950777 -0.0398375 -3.60745e-19)
(1.03804 -0.0459856 6.69099e-19)
(1.11007 -0.0518136 -1.60423e-19)
(1.16566 -0.0573706 -2.71214e-19)
(1.20489 -0.0626462 2.54642e-19)
(1.22902 -0.0675372 0)
(1.24011 -0.0720576 0)
(1.24087 -0.0756058 0)
(1.23319 -0.0799798 0)
(1.22111 -0.0796754 6.46087e-20)
(1.20103 -0.0920195 2.14681e-19)
(-0.0110466 0.00973282 -3.03907e-19)
(-0.0106905 0.0172729 2.06867e-19)
(0.0123857 0.0191546 -1.70595e-21)
(0.0563485 0.0169829 -2.73449e-19)
(0.119785 0.0122708 -1.68045e-19)
(0.201214 0.00636584 -1.5912e-19)
(0.298578 0.000296783 -2.94683e-19)
(0.408936 -0.00521328 2.77983e-19)
(0.528307 -0.00974042 0)
(0.651761 -0.013155 1.02379e-21)
(0.773787 -0.0155891 1.32811e-21)
(0.888866 -0.0173676 2.09904e-19)
(0.992112 -0.0189115 0)
(1.07981 -0.0206344 0)
(1.1498 -0.0228527 2.3832e-19)
(1.20153 -0.0257285 -4.47878e-19)
(1.23599 -0.0292536 2.58396e-19)
(1.2553 -0.0332683 -2.4262e-19)
(1.26228 -0.0375095 -1.03163e-19)
(1.25998 -0.041664 -1.8173e-19)
(1.25123 -0.0453535 -7.00803e-20)
(1.23838 -0.0485804 -1.29689e-19)
(1.22337 -0.0493076 1.98142e-19)
(1.2058 -0.0543705 5.41545e-20)
(-0.00829533 0.00686032 0)
(0.00201861 0.00884891 0)
(0.0390177 0.0068454 9.67633e-20)
(0.100162 0.00263185 8.94625e-20)
(0.183288 -0.00219902 -1.67565e-21)
(0.285748 -0.00631686 -1.63277e-19)
(0.403762 -0.00887319 0)
(0.532214 -0.00949886 -1.38538e-19)
(0.664847 -0.00827148 1.29656e-19)
(0.794841 -0.00564989 -3.38058e-22)
(0.915637 -0.00234874 -2.22469e-19)
(1.02178 0.000830365 -2.02727e-19)
(1.10956 0.00316989 4.95011e-21)
(1.17731 0.0041687 -1.63374e-19)
(1.22535 0.00360916 3.96287e-19)
(1.25559 0.00155423 0)
(1.27105 -0.00171065 -2.46829e-19)
(1.27514 -0.00576938 1.21176e-19)
(1.27118 -0.0101525 1.03082e-19)
(1.26198 -0.014463 0)
(1.24976 -0.0182085 8.07147e-20)
(1.23586 -0.0216045 -2.68738e-19)
(1.2215 -0.0228891 2.52276e-19)
(1.20617 -0.0282317 1.49774e-19)
(-0.00399178 0.0038598 -1.06438e-19)
(0.0197214 0.000750516 -1.09842e-19)
(0.0743788 -0.00394146 9.988e-20)
(0.156263 -0.00856956 0)
(0.261771 -0.0116568 0)
(0.386247 -0.0120876 -2.79931e-21)
(0.523374 -0.00946102 0)
(0.665406 -0.00406703 -4.19058e-19)
(0.803994 0.00325501 3.89222e-19)
(0.931345 0.0113337 -4.81106e-19)
(1.04133 0.0189363 1.10612e-19)
(1.1302 0.0250251 0)
(1.19682 0.0289337 1.80378e-19)
(1.24239 0.0304299 -3.32656e-19)
(1.26975 0.0296722 7.94778e-20)
(1.28265 0.0270945 1.97865e-19)
(1.28495 0.0232644 -1.17257e-20)
(1.28011 0.0187608 -2.17297e-19)
(1.27084 0.0140845 0)
(1.25911 0.00962787 0)
(1.24617 0.00568933 -7.40996e-20)
(1.23276 0.00224938 6.54514e-20)
(1.2195 0.00036794 2.27393e-19)
(1.20578 -0.00460128 -2.13549e-19)
(0.00236796 0.000728629 -1.11179e-19)
(0.0434101 -0.00680605 -1.11244e-19)
(0.119404 -0.0126485 3.13145e-19)
(0.224893 -0.0156992 -1.90959e-19)
(0.353994 -0.0149296 1.79734e-19)
(0.499167 -0.00979153 3.28124e-19)
(0.651042 -0.000713613 -2.31475e-19)
(0.799455 0.0110494 -2.80936e-19)
(0.935031 0.0237861 6.02716e-21)
(1.05066 0.0357509 3.60813e-19)
(1.14239 0.0455358 0)
(1.20952 0.0522966 9.78372e-20)
(1.25405 0.0558007 0)
(1.27969 0.0563228 -1.57975e-19)
(1.2909 0.0544583 2.22185e-19)
(1.29195 0.0509253 2.44764e-21)
(1.28642 0.0464099 -5.70109e-20)
(1.277 0.0414778 1.05894e-19)
(1.2655 0.0365473 9.04043e-20)
(1.25307 0.0318997 -8.02607e-20)
(1.24035 0.0277191 7.40805e-20)
(1.22771 0.0240185 -6.54336e-20)
(1.21539 0.0213297 0)
(1.20309 0.0165033 -4.89335e-20)
(0.0112116 -0.00236354 1.11163e-19)
(0.0737998 -0.0132493 1.1618e-19)
(0.174421 -0.0183338 -1.04817e-19)
(0.305219 -0.017563 1.95497e-19)
(0.457156 -0.0108373 -1.83996e-19)
(0.61919 0.00134014 1.66845e-19)
(0.77905 0.0173237 -7.98322e-20)
(0.925283 0.0347602 2.10899e-19)
(1.04929 0.051254 -1.32037e-19)
(1.14651 0.0649177 2.3264e-19)
(1.21642 0.0746716 -5.35479e-19)
(1.26174 0.0802679 1.95697e-19)
(1.28704 0.0821084 -1.7055e-19)
(1.29746 0.080969 1.60206e-19)
(1.29776 0.0777354 1.36855e-19)
(1.29175 0.0732175 1.19025e-19)
(1.28217 0.0680576 -3.30531e-19)
(1.27078 0.0627148 2.04652e-19)
(1.25866 0.0574924 -9.04066e-20)
(1.24638 0.0525799 2.33159e-19)
(1.23426 0.0480866 -7.53275e-20)
(1.22243 0.0440557 -1.80088e-19)
(1.21098 0.0407305 1.65728e-19)
(1.19969 0.0360576 4.89187e-20)
(0.0228477 -0.00509476 0)
(0.111206 -0.0176923 7.87678e-22)
(0.238994 -0.019745 2.17361e-19)
(0.395253 -0.0128371 -2.04066e-19)
(0.567096 0.00159573 -1.84663e-19)
(0.739974 0.021497 3.43214e-19)
(0.89979 0.0438028 -1.59396e-19)
(1.03569 0.0652652 2.12229e-19)
(1.14184 0.0833133 -4.89836e-21)
(1.21748 0.096497 -1.19796e-19)
(1.26582 0.104496 2.60717e-19)
(1.29228 0.107836 -3.83577e-19)
(1.30281 0.107501 0)
(1.30278 0.104581 -7.46285e-20)
(1.29637 0.100046 -1.9856e-19)
(1.28649 0.0946429 6.25099e-20)
(1.27498 0.0888906 2.77877e-21)
(1.26287 0.0831244 -1.34646e-19)
(1.25072 0.0775489 9.50225e-21)
(1.23881 0.0722847 1.55184e-19)
(1.22724 0.0673998 -6.82287e-20)
(1.21606 0.0629408 -2.55671e-20)
(1.20526 0.0589331 7.99898e-20)
(1.1947 0.054244 0)
(0.0374334 -0.00703141 0)
(0.155447 -0.0190455 5.87834e-20)
(0.311824 -0.0155127 -2.81485e-19)
(0.491898 -0.000336152 1.02686e-19)
(0.678732 0.0228737 -9.66416e-20)
(0.855144 0.0501781 -8.79578e-20)
(1.00711 0.077259 -1.5593e-19)
(1.1265 0.100537 7.76886e-20)
(1.21161 0.11793 6.79046e-20)
(1.26583 0.128907 0)
(1.29535 0.134091 1.5351e-19)
(1.30711 0.134708 -2.27486e-19)
(1.30727 0.132114 1.69543e-19)
(1.30061 0.127498 7.46682e-20)
(1.29037 0.121759 -6.07322e-20)
(1.27855 0.115509 -5.0515e-20)
(1.26624 0.109132 -4.69463e-20)
(1.25401 0.102857 1.41182e-19)
(1.24211 0.0968172 0)
(1.23064 0.0910907 7.00943e-20)
(1.21962 0.0857266 5.83127e-20)
(1.20902 0.0807554 -1.4542e-19)
(1.19881 0.0761156 -9.82148e-20)
(1.18887 0.0713556 9.10579e-20)
(0.0549392 -0.00767486 -6.2205e-20)
(0.205771 -0.0161656 -1.82261e-21)
(0.390748 -0.0043926 5.70619e-20)
(0.591213 0.0207108 1.5896e-19)
(0.786747 0.052858 4.61156e-20)
(0.959291 0.0862696 -8.90763e-20)
(1.09714 0.115951 8.17013e-20)
(1.19653 0.138756 -7.18391e-20)
(1.26038 0.153668 1.28111e-19)
(1.29554 0.161312 5.46659e-20)
(1.31004 0.163186 -1.54611e-19)
(1.31115 0.160996 4.56893e-20)
(1.3045 0.156242 7.77956e-20)
(1.29388 0.150049 -3.82912e-20)
(1.28159 0.143168 0)
(1.26888 0.136058 5.69619e-20)
(1.25634 0.128986 9.61833e-20)
(1.24424 0.122101 1.62868e-20)
(1.23267 0.115489 -8.00145e-20)
(1.22163 0.109203 3.34788e-20)
(1.21109 0.103276 0)
(1.20099 0.0977116 -2.61707e-20)
(1.19128 0.0924389 -2.43844e-20)
(1.18184 0.0874483 0)
(0.0751115 -0.00651188 0)
(0.260838 -0.00800981 3.24643e-20)
(0.472874 0.0145173 6.01163e-20)
(0.688852 0.0504864 -1.61113e-19)
(0.886316 0.0907765 5.1735e-20)
(1.04862 0.128279 0)
(1.16835 0.158187 7.8067e-20)
(1.24688 0.178515 -1.08861e-19)
(1.29127 0.189654 -6.374e-20)
(1.31075 0.193361 2.89503e-20)
(1.31401 0.191792 -4.5941e-20)
(1.30788 0.186885 1.11769e-19)
(1.297 0.180099 5.61043e-20)
(1.28416 0.172401 -3.89883e-20)
(1.27088 0.16437 -3.6581e-21)
(1.25785 0.156331 -1.06929e-19)
(1.24538 0.148458 4.86948e-20)
(1.23354 0.140847 -1.10314e-21)
(1.22235 0.133553 0)
(1.21175 0.126612 -3.35132e-20)
(1.20169 0.120041 0)
(1.19207 0.113822 7.56671e-20)
(1.18285 0.107937 -9.01053e-20)
(1.17388 0.102593 4.10267e-20)
(0.097449 -0.00306302 -1.66102e-20)
(0.318766 0.00623668 -8.13213e-20)
(0.554823 0.041637 9.21963e-20)
(0.780556 0.0885504 5.44166e-20)
(0.973617 0.135372 -2.60984e-20)
(1.12105 0.174588 4.36905e-20)
(1.22094 0.202508 -2.12889e-20)
(1.27968 0.218826 3.54837e-20)
(1.30751 0.225415 0)
(1.31484 0.224963 8.05317e-20)
(1.31015 0.220016 -3.20542e-21)
(1.29934 0.212533 -6.51788e-20)
(1.28598 0.203812 2.80117e-20)
(1.27202 0.194628 -3.17031e-20)
(1.25835 0.185398 -1.21621e-20)
(1.24535 0.176339 1.39192e-20)
(1.2331 0.167561 -1.08497e-20)
(1.22162 0.159122 -5.86637e-20)
(1.21085 0.151055 3.59977e-20)
(1.20071 0.143383 7.4232e-21)
(1.19113 0.136104 6.54339e-21)
(1.182 0.129189 5.76812e-21)
(1.17325 0.122702 0)
(1.16472 0.116844 0)
(0.121283 0.00308313 1.66217e-20)
(0.377384 0.0270817 -1.67069e-20)
(0.633202 0.0768506 -3.06607e-20)
(0.862703 0.133921 0)
(1.04609 0.185117 -1.2902e-20)
(1.17587 0.223669 -1.15237e-20)
(1.25603 0.247778 -1.98349e-20)
(1.2972 0.259059 0)
(1.31166 0.260725 0)
(1.31002 0.256124 0)
(1.29998 0.247941 0)
(1.28633 0.238 0)
(1.27169 0.227387 -1.76303e-20)
(1.25729 0.216684 8.04038e-21)
(1.24364 0.206177 1.40222e-20)
(1.23088 0.195999 6.54416e-21)
(1.21901 0.186213 1.63098e-20)
(1.20797 0.176851 0)
(1.19769 0.167931 -3.9479e-21)
(1.18808 0.15946 -3.72842e-21)
(1.17903 0.151419 -6.55373e-21)
(1.17045 0.14379 -5.77726e-21)
(1.16223 0.136714 0)
(1.15422 0.130218 4.19201e-21)
(-0.00273138 0.031064 9.39423e-21)
(-0.0104613 0.0632953 -9.75161e-21)
(-0.0230282 0.0755393 -1.84714e-20)
(-0.0380031 0.0745988 0)
(-0.0540881 0.0655321 -2.46403e-20)
(-0.070674 0.0518037 7.64366e-21)
(-0.0873316 0.0354925 -1.47828e-20)
(-0.103753 0.0175892 0)
(-0.119673 -0.00166634 0)
(-0.13488 -0.0224046 0)
(-0.149235 -0.044921 0)
(-0.162602 -0.0694733 0)
(-0.17485 -0.0962593 -3.14536e-22)
(-0.185834 -0.125316 -9.638e-21)
(-0.195406 -0.156531 1.87618e-20)
(-0.203407 -0.189631 2.60893e-20)
(-0.209667 -0.224176 8.52182e-21)
(-0.214012 -0.259544 0)
(-0.216277 -0.294928 6.85215e-21)
(-0.21633 -0.329354 -1.96675e-20)
(-0.214044 -0.361708 -1.221e-20)
(-0.209226 -0.39078 -1.12231e-20)
(-0.201792 -0.415289 0)
(-0.192509 -0.434044 0)
(-0.00492458 0.0358071 -2.85729e-20)
(-0.0145006 0.0746612 4.90749e-20)
(-0.0270304 0.0914506 -1.90292e-20)
(-0.040978 0.0935529 -3.56254e-20)
(-0.0555166 0.0864229 5.00524e-20)
(-0.0702635 0.0738182 -3.19343e-20)
(-0.0848995 0.0580372 4.48161e-20)
(-0.0991482 0.0402303 2.91799e-20)
(-0.112779 0.0207771 0)
(-0.125603 -0.000413823 -2.5224e-20)
(-0.137445 -0.0235949 -3.79542e-22)
(-0.14822 -0.0490499 2.21972e-20)
(-0.157863 -0.0769311 3.29669e-20)
(-0.166252 -0.107303 4.11879e-20)
(-0.173307 -0.140077 -1.86586e-20)
(-0.178956 -0.175003 -5.39942e-20)
(-0.183137 -0.211658 1.75459e-20)
(-0.185801 -0.24943 -6.48316e-20)
(-0.186928 -0.287512 0)
(-0.186551 -0.324905 1.32184e-20)
(-0.184707 -0.360443 1.21947e-20)
(-0.181259 -0.392824 1.12091e-20)
(-0.176073 -0.420654 0)
(-0.170672 -0.442564 0)
(-0.007415 0.0393205 0)
(-0.0190036 0.0837384 1.03207e-19)
(-0.0310821 0.104833 -3.88242e-20)
(-0.0432212 0.110111 3.63823e-20)
(-0.0551715 0.105181 -1.04999e-19)
(-0.0668225 0.0939809 0)
(-0.07799 0.0789974 -6.29922e-20)
(-0.088449 0.0615512 3.00988e-20)
(-0.0979828 0.0421502 -5.77191e-20)
(-0.106403 0.0208166 2.8659e-20)
(-0.113585 -0.00264912 1.54967e-19)
(-0.119374 -0.0284987 -7.28987e-20)
(-0.123688 -0.056872 -1.14812e-19)
(-0.126511 -0.0878322 -4.53344e-20)
(-0.127798 -0.121299 -3.56118e-22)
(-0.127554 -0.157033 1.54969e-19)
(-0.125823 -0.194622 -7.27841e-20)
(-0.122692 -0.233467 -1.98753e-21)
(-0.118305 -0.272774 0)
(-0.112883 -0.31155 -5.9398e-20)
(-0.10669 -0.348608 0)
(-0.0997646 -0.38259 -4.52951e-20)
(-0.0917306 -0.412047 1.72909e-19)
(-0.0843831 -0.435645 -3.69513e-21)
(-0.00995001 0.0412084 0)
(-0.0235579 0.0896088 1.41963e-21)
(-0.0348369 0.114455 4.0859e-20)
(-0.0445318 0.122868 -3.89213e-20)
(-0.0530183 0.120311 3.49489e-20)
(-0.0604875 0.110754 2.06357e-19)
(-0.066917 0.0968006 -6.46712e-20)
(-0.0721548 0.0799262 -6.28169e-20)
(-0.0760032 0.0607847 1.17494e-19)
(-0.0782705 0.0395209 -1.67633e-19)
(-0.0787962 0.0160265 5.37804e-20)
(-0.0774462 -0.00985983 5.17309e-20)
(-0.074117 -0.0383003 0)
(-0.0687793 -0.0693209 4.46756e-20)
(-0.0614444 -0.102823 0)
(-0.0521758 -0.138546 8.33202e-20)
(-0.0411106 -0.176055 -1.52742e-19)
(-0.0284669 -0.214726 3.62859e-20)
(-0.014554 -0.253747 1.33238e-19)
(0.000212008 -0.292126 5.93273e-20)
(0.01529 -0.328692 0)
(0.0302203 -0.362093 -1.45727e-19)
(0.045449 -0.39073 4.65211e-20)
(0.0616158 -0.412969 0)
(-0.0122523 0.0412867 0)
(-0.0277093 0.0917075 -1.31117e-19)
(-0.0379543 0.119429 -4.20827e-20)
(-0.0447943 0.130694 -7.86824e-20)
(-0.0492006 0.130534 7.40881e-20)
(-0.051671 0.122772 -6.9448e-20)
(-0.0523675 0.110037 1.34832e-19)
(-0.0512359 0.0939155 6.43773e-20)
(-0.0481127 0.075205 -1.80528e-19)
(-0.0428032 0.054185 1.1671e-19)
(-0.0351267 0.030857 -1.6496e-19)
(-0.0249367 0.0051218 3.71443e-19)
(-0.0121267 -0.0231163 -1.99072e-19)
(0.00334618 -0.0538534 9.63942e-20)
(0.0214432 -0.0869543 2.71631e-19)
(0.0420398 -0.122118 -8.30724e-20)
(0.0649031 -0.158855 -8.12501e-20)
(0.0896813 -0.196478 -7.39444e-20)
(0.11589 -0.234111 0)
(0.14291 -0.270723 -1.22816e-19)
(0.169943 -0.305161 -1.05613e-19)
(0.196166 -0.336133 1.56777e-19)
(0.221224 -0.361884 1.71342e-19)
(0.250513 -0.379602 -1.61382e-19)
(-0.0140807 0.0396213 0)
(-0.0310389 0.0899272 -1.8182e-19)
(-0.0401253 0.119344 -1.44925e-21)
(-0.0439408 0.132891 1.60808e-19)
(-0.0439396 0.134923 0)
(-0.0408996 0.128957 0)
(-0.035177 0.117536 0)
(-0.0268379 0.102294 -6.56663e-20)
(-0.0157758 0.0841412 -1.72807e-21)
(-0.00181053 0.0634858 1.1801e-19)
(0.0152472 0.0404414 -1.69945e-19)
(0.035552 0.014994 -1.02185e-21)
(0.0592137 -0.0128728 0)
(0.0862638 -0.0431034 -9.63309e-20)
(0.11661 -0.0755146 9.36864e-20)
(0.150038 -0.109749 -2.60879e-19)
(0.186175 -0.145248 3.23675e-19)
(0.224474 -0.181252 7.24529e-20)
(0.264212 -0.216809 -6.91717e-21)
(0.304516 -0.250822 -2.56948e-19)
(0.344281 -0.282144 -1.13313e-19)
(0.3829 -0.309468 3.46257e-19)
(0.417198 -0.331903 -2.26707e-19)
(0.461695 -0.343644 0)
(-0.0152803 0.0365131 9.10979e-20)
(-0.0332391 0.0846299 9.14461e-20)
(-0.0411061 0.114331 -8.80623e-20)
(-0.0419035 0.129274 -1.64988e-19)
(-0.0374007 0.133008 1.55344e-19)
(-0.0285959 0.128618 -1.48198e-19)
(-0.0160231 0.118455 2.09934e-19)
(0.000123185 0.104125 -6.6046e-20)
(0.0198736 0.086605 1.26051e-19)
(0.0433755 0.0664059 0)
(0.0708103 0.0437524 1.17711e-19)
(0.102332 0.0187335 -2.19189e-19)
(0.138021 -0.00857942 2.09601e-19)
(0.17784 -0.0380588 -1.96855e-19)
(0.221584 -0.0694438 0)
(0.268845 -0.102299 1.74893e-19)
(0.318985 -0.135993 3.25183e-19)
(0.371118 -0.169698 -3.05207e-19)
(0.424127 -0.202422 -1.37892e-19)
(0.4768 -0.23303 -1.21388e-19)
(0.52742 -0.260521 3.44238e-19)
(0.576345 -0.283148 9.18999e-20)
(0.615594 -0.302378 -9.27719e-20)
(0.671418 -0.308297 7.28595e-20)
(-0.0158222 0.03243 -9.11102e-20)
(-0.0341649 0.0765631 2.84187e-19)
(-0.0407206 0.105029 -8.99228e-20)
(-0.0385441 0.120216 1.67853e-19)
(-0.0295271 0.124867 -1.58037e-19)
(-0.0147999 0.121577 2.27989e-22)
(0.00496865 0.112429 7.08919e-20)
(0.0294727 0.0989294 2.72439e-19)
(0.0586677 0.0820639 3.07346e-21)
(0.0926554 0.0624191 -1.20309e-19)
(0.131584 0.0403216 0)
(0.175555 0.0159658 -1.11918e-19)
(0.224546 -0.0104759 2.08524e-19)
(0.27834 -0.0387669 1.98626e-19)
(0.336454 -0.0685433 -9.35459e-20)
(0.398095 -0.0992755 -6.80418e-22)
(0.462141 -0.130256 -8.15787e-20)
(0.527172 -0.160613 1.48346e-19)
(0.591508 -0.189375 1.37839e-19)
(0.653544 -0.215411 -1.24683e-19)
(0.710828 -0.238144 1.08312e-19)
(0.764791 -0.255127 -9.51483e-20)
(0.803994 -0.27057 0)
(0.861087 -0.270591 -7.27842e-20)
(-0.0157982 0.0279043 9.38231e-20)
(-0.0338267 0.0667049 -9.53623e-20)
(-0.0388159 0.0924678 9.10099e-20)
(-0.0335398 0.106605 0)
(-0.0198329 0.111175 0)
(0.00114436 0.108295 1.53193e-19)
(0.0286573 0.0997518 -1.4281e-19)
(0.0623298 0.0869039 1.37506e-19)
(0.102053 0.0707053 -6.44528e-19)
(0.147862 0.0517862 -1.05879e-21)
(0.199796 0.0305579 1.16061e-19)
(0.257781 0.00732369 0)
(0.321506 -0.0176219 -2.09387e-19)
(0.390328 -0.0439217 3.9373e-19)
(0.4632 -0.0711053 -2.7803e-19)
(0.538656 -0.0985666 -4.29912e-19)
(0.614852 -0.125569 5.76271e-21)
(0.689676 -0.151275 2.92961e-19)
(0.760876 -0.174842 0)
(0.826505 -0.195272 0)
(0.88395 -0.212452 -1.08305e-19)
(0.934794 -0.22368 9.51447e-20)
(0.968411 -0.234914 -3.10131e-19)
(1.01488 -0.229858 2.90842e-19)
(-0.0153761 0.0234218 0)
(-0.0323094 0.0560584 0)
(-0.0351548 0.0778739 -2.74181e-19)
(-0.026232 0.0897168 8.69278e-20)
(-0.00718798 0.0931599 -5.8385e-24)
(0.0208814 0.0899316 1.53648e-19)
(0.0572527 0.0815373 0)
(0.101516 0.0691845 -1.36383e-19)
(0.153478 0.0537707 1.28992e-19)
(0.213006 0.0359453 -2.45295e-19)
(0.279851 0.0161937 -8.18461e-22)
(0.353482 -0.0050768 2.19814e-19)
(0.432953 -0.0274658 6.13968e-22)
(0.516812 -0.0505279 1.93864e-19)
(0.603101 -0.0737438 -2.74719e-19)
(0.689432 -0.0965197 0)
(0.773156 -0.118206 3.07223e-19)
(0.85158 -0.138143 -4.32853e-19)
(0.922233 -0.155715 1.25791e-19)
(0.983178 -0.170285 0)
(1.03268 -0.18191 9.95437e-20)
(1.07183 -0.188534 3.45078e-19)
(1.09446 -0.195999 -3.23901e-19)
(1.12163 -0.188246 -3.20443e-19)
(-0.0147199 0.0193236 2.88966e-19)
(-0.0296299 0.045454 -3.96502e-19)
(-0.0292653 0.062452 9.04066e-22)
(-0.0154864 0.0710262 8.80061e-20)
(0.0103071 0.072498 -1.64332e-19)
(0.04714 0.0683264 -1.53255e-19)
(0.0943257 0.0598173 2.90029e-19)
(0.151395 0.0480352 8.26327e-22)
(0.217927 0.0338141 -2.57395e-19)
(0.293362 0.0178115 4.88293e-19)
(0.376786 0.000556389 1.89083e-21)
(0.466764 -0.017496 -2.16766e-19)
(0.561257 -0.035919 0)
(0.65765 -0.054287 0)
(0.752896 -0.0721655 -8.99376e-20)
(0.84376 -0.0891189 -1.61425e-19)
(0.927124 -0.104724 -2.96222e-19)
(1.00029 -0.118612 2.78082e-19)
(1.06129 -0.130433 -1.25865e-19)
(1.10897 -0.140026 2.13425e-19)
(1.14326 -0.147229 -1.1191e-19)
(1.16527 -0.15146 1.5253e-19)
(1.17407 -0.156157 -3.81131e-19)
(1.18125 -0.148999 6.54678e-20)
(-0.0138868 0.0157443 9.75087e-20)
(-0.025564 0.0354085 0)
(-0.0202895 0.0471939 1.87851e-19)
(0.000381386 0.0520002 -1.76951e-19)
(0.0352604 0.051102 1.64484e-19)
(0.0834823 0.0458358 0)
(0.144297 0.0373598 0)
(0.216943 0.0266224 -1.37358e-19)
(0.300435 0.0144072 -5.43333e-22)
(0.393307 0.00133227 1.20973e-19)
(0.493441 -0.0121176 -1.13849e-19)
(0.598016 -0.0255606 2.14783e-19)
(0.7036 -0.0386942 0)
(0.806403 -0.0512758 3.71139e-19)
(0.902614 -0.0631085 -6.90579e-19)
(0.988789 -0.0740301 4.82747e-19)
(1.06221 -0.0839006 2.84048e-19)
(1.12113 -0.0926209 -2.66673e-19)
(1.16495 -0.100047 0)
(1.19406 -0.106305 0)
(1.21013 -0.110877 0)
(1.21474 -0.114912 0)
(1.21108 -0.117135 7.23469e-20)
(1.20372 -0.115119 -2.35859e-19)
(-0.180839 -0.44884 -6.42287e-21)
(-0.163127 -0.45589 6.45452e-21)
(-0.137175 -0.446207 -1.8878e-22)
(-0.10379 -0.4181 0)
(-0.0620689 -0.369657 -6.05903e-21)
(-0.0131 -0.300553 1.18868e-20)
(0.0417062 -0.211884 6.48801e-23)
(0.100512 -0.105372 -5.72975e-21)
(0.161356 0.0141653 0)
(0.222773 0.141456 0)
(0.283698 0.268509 -2.70714e-22)
(0.343276 0.385477 -2.36855e-22)
(0.3991 0.481472 -3.36094e-21)
(0.447698 0.548304 3.07189e-21)
(0.486046 0.583886 0)
(0.511855 0.593615 0)
(0.521733 0.590406 1.61367e-21)
(0.512495 0.588633 -1.79642e-23)
(0.488415 0.589801 -1.40955e-21)
(0.465615 0.57288 -1.05304e-22)
(0.46514 0.504718 0)
(0.497019 0.366705 0)
(0.554519 0.171009 0)
(0.623314 -0.0461079 0)
(0.690277 -0.240932 0)
(0.745505 -0.380974 0)
(0.783476 -0.459603 4.01293e-22)
(0.803018 -0.49002 -6.68434e-22)
(0.809116 -0.489213 0)
(0.806075 -0.476498 0)
(0.788675 -0.473881 -3.08389e-22)
(0.750735 -0.487922 2.99733e-22)
(0.702387 -0.483056 1.60727e-22)
(0.667554 -0.409908 0)
(0.665203 -0.24703 0)
(0.691039 -0.0381052 4.47851e-22)
(0.733129 0.157542 -4.35328e-22)
(0.776116 0.293352 0)
(0.814509 0.365512 2.49153e-22)
(0.837143 0.402599 -3.50703e-22)
(0.831985 0.427455 9.67868e-23)
(0.795541 0.452166 0)
(0.752665 0.417602 -2.23859e-22)
(0.72506 0.317041 2.1768e-22)
(0.735426 0.128361 0)
(0.763643 -0.0547381 0)
(0.808396 -0.200736 -8.68827e-23)
(0.834777 -0.295291 2.40415e-22)
(0.828898 -0.337897 0)
(0.793222 -0.392145 0)
(0.764254 -0.321931 -5.06729e-23)
(0.758511 -0.245823 4.45408e-24)
(0.791338 -0.0572325 -2.27809e-24)
(0.809885 0.0978125 3.6225e-23)
(0.815832 0.209866 0)
(0.798801 0.372107 0)
(0.797367 0.283984 0)
(0.789741 0.299961 0)
(0.804761 0.0791979 0)
(0.788674 -0.147555 0)
(-0.168313 -0.460846 -6.28986e-22)
(-0.167928 -0.475423 -2.4626e-20)
(-0.159341 -0.473844 9.00785e-22)
(-0.144249 -0.454371 2.22691e-20)
(-0.120167 -0.414494 3.12131e-22)
(-0.0866388 -0.35305 0)
(-0.0432658 -0.270159 -1.98757e-20)
(0.00760361 -0.168204 3.9044e-20)
(0.063476 -0.050569 -1.91637e-20)
(0.123424 0.077153 1.70389e-20)
(0.185694 0.205519 -1.62898e-20)
(0.249309 0.32563 1.30322e-20)
(0.311841 0.427707 -1.2621e-20)
(0.369712 0.503911 -2.86502e-22)
(0.418931 0.551668 -7.81115e-21)
(0.455143 0.57591 7.59105e-21)
(0.473763 0.588224 -6.37346e-21)
(0.473941 0.598669 6.00474e-21)
(0.464522 0.602783 -6.85434e-21)
(0.463797 0.577003 1.42572e-20)
(0.488761 0.492929 -7.37087e-21)
(0.541867 0.340471 -5.80476e-22)
(0.612529 0.135954 -9.71743e-21)
(0.686936 -0.0837979 1.85105e-20)
(0.752567 -0.275344 -8.81166e-21)
(0.800508 -0.407201 4.36278e-22)
(0.828107 -0.475157 4.86257e-21)
(0.836646 -0.496055 -8.42153e-22)
(0.831997 -0.488838 -6.38103e-21)
(0.82042 -0.470349 5.26257e-21)
(0.798225 -0.459817 -2.39573e-21)
(0.757387 -0.466856 2.65789e-22)
(0.703562 -0.462639 -1.61043e-22)
(0.659869 -0.399948 3.27419e-22)
(0.648133 -0.251369 0)
(0.668372 -0.05354 0)
(0.709433 0.137594 -1.39026e-21)
(0.756422 0.274548 1.05834e-21)
(0.801186 0.352145 7.01029e-22)
(0.829275 0.398434 1.90705e-23)
(0.828152 0.433734 -8.99213e-22)
(0.795215 0.46497 1.98963e-22)
(0.758884 0.429342 0)
(0.736485 0.321182 0)
(0.750769 0.124151 0)
(0.777487 -0.0650382 0)
(0.819827 -0.210576 4.27076e-22)
(0.844216 -0.298369 -1.5606e-22)
(0.836832 -0.332431 0)
(0.80096 -0.383683 0)
(0.768588 -0.317665 0)
(0.762475 -0.249035 -7.93851e-23)
(0.790645 -0.0633147 1.54801e-23)
(0.807198 0.0947258 -8.05658e-23)
(0.811834 0.2108 0)
(0.794147 0.374127 0)
(0.795868 0.284243 4.47168e-23)
(0.788528 0.299151 1.3282e-22)
(0.808727 0.0795589 0)
(0.792758 -0.146134 0)
(-0.0884494 -0.455842 -3.13102e-21)
(-0.10513 -0.476854 -5.08216e-20)
(-0.115182 -0.483488 4.36883e-20)
(-0.121535 -0.4736 -4.09028e-20)
(-0.120425 -0.444712 -3.14274e-22)
(-0.109416 -0.394434 0)
(-0.0864473 -0.321874 -3.31785e-20)
(-0.0512075 -0.228683 3.24066e-20)
(-0.0051866 -0.11755 2.64898e-22)
(0.0476783 0.00767939 3.81813e-22)
(0.106291 0.135797 3.52488e-22)
(0.170282 0.25797 4.00744e-22)
(0.236306 0.36552 -1.8632e-20)
(0.300089 0.451069 1.8395e-20)
(0.356618 0.511857 0)
(0.400481 0.551734 3.68357e-22)
(0.427702 0.579227 -1.21446e-20)
(0.440303 0.59936 1.19916e-20)
(0.449822 0.603356 0)
(0.473587 0.568236 0)
(0.522905 0.471949 -1.87814e-20)
(0.594159 0.310967 3.90483e-20)
(0.675421 0.103542 -4.01039e-20)
(0.753764 -0.114764 1.48484e-21)
(0.816795 -0.300883 3.42338e-20)
(0.856512 -0.424484 -2.90052e-20)
(0.873161 -0.483253 2.14562e-20)
(0.870905 -0.49646 -2.61639e-21)
(0.856184 -0.484608 -7.11785e-21)
(0.836438 -0.462188 0)
(0.809919 -0.444938 0)
(0.767434 -0.444984 1.59457e-21)
(0.709677 -0.440973 -2.04168e-21)
(0.657837 -0.388937 -5.0495e-23)
(0.636293 -0.255862 2.8626e-21)
(0.65012 -0.0705566 -2.78213e-21)
(0.689421 0.114952 0)
(0.739751 0.252655 2.94247e-22)
(0.790115 0.336051 1.99734e-21)
(0.823188 0.392239 -3.70319e-21)
(0.82633 0.43833 1.55873e-21)
(0.797559 0.476302 2.09805e-22)
(0.768145 0.440203 -2.58821e-21)
(0.751153 0.325646 2.04382e-21)
(0.769209 0.121575 6.22263e-22)
(0.794218 -0.073231 5.63442e-22)
(0.833472 -0.218784 -4.28147e-22)
(0.85542 -0.300672 0)
(0.846455 -0.32648 0)
(0.81037 -0.374961 -7.73155e-22)
(0.774546 -0.313403 3.66654e-22)
(0.767952 -0.252239 -2.94599e-22)
(0.791505 -0.0694041 4.14563e-22)
(0.806138 0.0917063 5.06496e-22)
(0.809333 0.211504 -1.41425e-22)
(0.790554 0.375933 2.2026e-22)
(0.795318 0.284237 -1.95751e-22)
(0.788371 0.297846 1.04739e-22)
(0.813937 0.0796475 0)
(0.797966 -0.144693 0)
(0.0540591 -0.434082 -1.03492e-19)
(0.0249994 -0.457786 1.06043e-20)
(-0.00071815 -0.47037 8.78812e-20)
(-0.0272511 -0.468676 -6.04858e-22)
(-0.0507669 -0.451301 0)
(-0.0666813 -0.414791 0)
(-0.0710716 -0.356714 -5.11822e-20)
(-0.0613809 -0.27677 1.92323e-21)
(-0.0347957 -0.176972 6.78959e-20)
(0.00408575 -0.0614507 -1.25291e-21)
(0.0514234 0.0633581 -2.01756e-20)
(0.10919 0.185482 -1.61438e-20)
(0.173578 0.297497 1.61231e-20)
(0.238926 0.391996 0)
(0.299374 0.465645 -1.15124e-20)
(0.349364 0.520263 1.05147e-20)
(0.386318 0.560647 0)
(0.414336 0.587392 0)
(0.445383 0.589471 1.35849e-20)
(0.493645 0.546709 2.82522e-21)
(0.564521 0.443582 -1.5032e-20)
(0.650547 0.280534 -2.13375e-20)
(0.739972 0.0751516 2.14503e-20)
(0.820995 -0.139083 -2.03473e-20)
(0.881165 -0.318676 3.01065e-21)
(0.912573 -0.434298 1.62208e-20)
(0.918155 -0.485201 1.39246e-21)
(0.90542 -0.492179 3.49523e-25)
(0.881448 -0.476982 0)
(0.853958 -0.452391 4.5194e-21)
(0.823217 -0.430016 -4.63429e-21)
(0.780099 -0.423009 2.4111e-22)
(0.7204 -0.417817 0)
(0.661777 -0.375897 -2.80445e-22)
(0.630181 -0.259468 4.85002e-21)
(0.636694 -0.0882744 -8.94839e-21)
(0.673379 0.0901707 -1.47366e-22)
(0.726118 0.228049 5.01583e-22)
(0.781174 0.317372 3.16665e-21)
(0.818748 0.383828 3.94858e-22)
(0.826371 0.440811 -3.21984e-21)
(0.802269 0.485767 2.7174e-21)
(0.779957 0.450047 -1.94435e-23)
(0.76847 0.330605 2.52906e-21)
(0.790177 0.12094 -3.08294e-21)
(0.813541 -0.0790889 -3.90649e-21)
(0.84916 -0.225324 1.11662e-21)
(0.868234 -0.302323 1.22491e-21)
(0.857561 -0.320207 -2.1083e-21)
(0.821204 -0.365934 1.28936e-21)
(0.781845 -0.308972 -2.97874e-22)
(0.774642 -0.255335 3.52854e-22)
(0.793751 -0.0755265 2.46524e-22)
(0.806637 0.0887169 -6.84938e-22)
(0.808305 0.212008 -1.03033e-23)
(0.78805 0.377584 -2.07657e-22)
(0.795758 0.283981 0)
(0.789311 0.296024 -9.21041e-23)
(0.820403 0.0794827 3.00948e-22)
(0.804294 -0.143216 0)
(0.240092 -0.400902 1.02196e-19)
(0.206469 -0.422836 -1.87617e-19)
(0.171732 -0.436436 8.47453e-20)
(0.131969 -0.439738 6.16898e-20)
(0.0883071 -0.431156 -1.1215e-19)
(0.0471874 -0.40752 7.18721e-21)
(0.0138693 -0.365557 4.26139e-20)
(-0.00709438 -0.302876 3.22783e-20)
(-0.0108605 -0.218449 -3.16672e-20)
(0.00427578 -0.117609 0)
(0.0326167 -0.00444525 -2.46284e-20)
(0.0747806 0.113159 4.5807e-20)
(0.13011 0.226928 -2.14429e-20)
(0.191353 0.32833 0)
(0.252085 0.412739 0)
(0.306999 0.479514 3.03505e-22)
(0.354568 0.529877 -1.86599e-20)
(0.399423 0.560976 1.8127e-20)
(0.452089 0.561184 0)
(0.522469 0.514187 3.21332e-20)
(0.610779 0.410065 -6.76004e-20)
(0.707787 0.250721 7.77252e-20)
(0.803465 0.050755 -8.44653e-20)
(0.886866 -0.156769 1.64938e-21)
(0.944103 -0.328516 7.36411e-20)
(0.967272 -0.436156 -3.37486e-20)
(0.962004 -0.480617 -7.06534e-22)
(0.939327 -0.48323 -6.84916e-21)
(0.907206 -0.466091 1.6283e-21)
(0.872806 -0.440951 5.37445e-21)
(0.838004 -0.415399 2.45917e-22)
(0.79489 -0.401969 -3.22794e-21)
(0.735142 -0.394239 6.42286e-21)
(0.671639 -0.360954 -3.57207e-21)
(0.630329 -0.261612 0)
(0.628533 -0.106244 -4.57486e-21)
(0.661402 0.0636853 4.42361e-21)
(0.715418 0.201023 -2.8123e-21)
(0.774149 0.296099 3.49758e-21)
(0.815717 0.372872 -3.36744e-22)
(0.828003 0.440724 0)
(0.808952 0.493054 -4.17024e-22)
(0.793739 0.458815 1.5576e-21)
(0.787817 0.336065 0)
(0.813087 0.122284 6.6928e-21)
(0.835023 -0.0824994 -2.67052e-21)
(0.866636 -0.230027 9.68005e-22)
(0.88246 -0.303244 7.22997e-22)
(0.86996 -0.313619 0)
(0.833259 -0.356556 0)
(0.790229 -0.30429 -8.35418e-22)
(0.782243 -0.258278 1.19115e-21)
(0.797178 -0.081725 -6.10207e-22)
(0.808587 0.0857066 1.8018e-22)
(0.808713 0.212335 3.73328e-22)
(0.786668 0.37913 2.07857e-22)
(0.797225 0.283495 -3.94183e-22)
(0.79138 0.293659 0)
(0.828119 0.0790581 -4.33215e-22)
(0.811727 -0.141689 -1.5173e-22)
(0.447457 -0.363376 1.00794e-19)
(0.414476 -0.382148 -1.00071e-19)
(0.375955 -0.392586 6.13683e-22)
(0.33088 -0.394987 -4.68092e-22)
(0.278114 -0.388436 4.11811e-22)
(0.22124 -0.371795 -3.31961e-22)
(0.16552 -0.342669 3.94925e-22)
(0.117019 -0.297873 0)
(0.0815988 -0.234449 -1.8847e-22)
(0.0628982 -0.153908 1.3256e-22)
(0.0621139 -0.0589857 1.0558e-22)
(0.081792 0.0484901 -2.65286e-22)
(0.119523 0.158965 0)
(0.169405 0.262631 0)
(0.225454 0.35369 9.7463e-23)
(0.28262 0.429046 0)
(0.339417 0.486571 -1.56401e-22)
(0.399563 0.520802 0)
(0.470934 0.520444 -2.27481e-20)
(0.558891 0.473164 5.14413e-20)
(0.659618 0.373141 -6.38473e-20)
(0.763996 0.221858 3.49894e-20)
(0.864763 0.0307499 4.21928e-20)
(0.950358 -0.167989 -4.09624e-20)
(1.00434 -0.330828 -3.48366e-20)
(1.01942 -0.430661 3.3637e-20)
(1.0039 -0.470144 0)
(0.972061 -0.470264 5.14002e-22)
(0.932968 -0.452443 0)
(0.892675 -0.427972 0)
(0.853963 -0.401158 6.13374e-21)
(0.811126 -0.38246 -6.37106e-21)
(0.753015 -0.371052 3.00504e-22)
(0.686951 -0.344237 3.83608e-22)
(0.636856 -0.261543 -3.37862e-22)
(0.625985 -0.123501 -3.26793e-21)
(0.653745 0.0361913 3.17343e-21)
(0.707535 0.171929 -3.11373e-21)
(0.76878 0.272219 2.64756e-21)
(0.813815 0.359058 6.44017e-22)
(0.830882 0.43766 -3.119e-21)
(0.817113 0.497887 -1.22837e-21)
(0.808853 0.466459 2.68733e-21)
(0.808429 0.341954 0)
(0.837261 0.12545 -2.85804e-21)
(0.858258 -0.0833975 3.46703e-21)
(0.885616 -0.232752 -4.6054e-21)
(0.897862 -0.303399 -7.27568e-22)
(0.883437 -0.306768 0)
(0.846332 -0.346768 2.79181e-22)
(0.799484 -0.29924 -6.17715e-22)
(0.79046 -0.261009 -3.0594e-23)
(0.801541 -0.0880614 -1.01642e-22)
(0.811844 0.0825992 2.4996e-22)