/*--------------------------------*- C++ -*----------------------------------*\
| =========                 |                                                 |
| \\      /  F ield         | OpenFOAM: The Open Source CFD Toolbox           |
|  \\    /   O peration     | Version:  2512                                  |
|   \\  /    A nd           | Website:  www.openfoam.com                      |
|    \\/     M anipulation  |                                                 |
\*---------------------------------------------------------------------------*/
FoamFile
{
    version     2.0;
    format      ascii;
    arch        "LSB;label=32;scalar=64";
    class       volVectorField;
    location    "35.25";
    object      U;
}
// * * * * * * * * * * * * * * * * * * * * * * * * * * * * * * * * * * * * * //

dimensions      [0 1 -1 0 0 0 0];

internalField   nonuniform List<vector> 
13248
(
(-0.0124445 0.0114582 5.82366e-20)
(-0.0241397 0.0244199 0)
(-0.0236345 0.0312606 -1.10076e-19)
(-0.0117364 0.0340388 1.03695e-19)
(0.0110099 0.0343778 9.71342e-20)
(0.0442214 0.0335515 0)
(0.0875868 0.0325254 0)
(0.14075 0.0320219 2.33636e-19)
(0.203191 0.032571 -1.35331e-21)
(0.274108 0.0345309 -2.03736e-19)
(0.35233 0.0380969 1.88357e-19)
(0.43629 0.0433065 -1.17684e-19)
(0.524057 0.0500466 0)
(0.61343 0.0580683 -2.00948e-19)
(0.702071 0.0670106 3.74965e-19)
(0.787664 0.076433 -8.85424e-20)
(0.868069 0.0858583 -1.59462e-19)
(0.941458 0.0947942 1.49692e-19)
(1.00644 0.102857 0)
(1.06203 0.109477 0)
(1.10817 0.114992 0)
(1.14378 0.117445 0)
(1.17279 0.121062 4.8168e-20)
(1.18899 0.11581 1.8015e-19)
(-0.0123881 0.0101785 -1.76016e-19)
(-0.0206997 0.0204 1.2006e-19)
(-0.0136309 0.0252088 -1.06614e-21)
(0.00761067 0.0267515 -1.5867e-19)
(0.0422385 0.0267386 -9.703e-20)
(0.0896233 0.0265086 -9.17792e-20)
(0.149084 0.027043 -1.68344e-19)
(0.219707 0.0290388 1.59216e-19)
(0.300176 0.0329322 0)
(0.388663 0.0389123 8.24683e-22)
(0.482825 0.0469301 1.81374e-21)
(0.579892 0.0567164 1.17877e-19)
(0.676847 0.0678159 0)
(0.770662 0.0796399 0)
(0.858541 0.0915308 1.38021e-19)
(0.938128 0.102832 -2.59178e-19)
(1.00768 0.112951 1.56434e-19)
(1.06614 0.121416 -1.46858e-19)
(1.11318 0.127908 -6.58419e-20)
(1.14921 0.132242 -1.21189e-19)
(1.17495 0.134543 -5.25144e-20)
(1.19229 0.134455 -9.91511e-20)
(1.20197 0.133946 1.4284e-19)
(1.20629 0.128476 4.23353e-20)
(-0.0114581 0.0085085 0)
(-0.0141866 0.0155771 0)
(0.00206194 0.0184635 5.61342e-20)
(0.0355523 0.0192994 5.16674e-20)
(0.0850832 0.0198144 -1.32206e-21)
(0.149524 0.0213601 -9.48297e-20)
(0.227435 0.0248618 0)
(0.316845 0.030853 -7.91172e-20)
(0.41511 0.0395002 7.43237e-20)
(0.518934 0.050621 5.99701e-22)
(0.624547 0.0637229 -1.26754e-19)
(0.728022 0.0780738 -1.16245e-19)
(0.82563 0.0928005 1.92285e-21)
(0.914193 0.107001 -9.68525e-20)
(0.991344 0.119855 2.31657e-19)
(1.05568 0.130708 0)
(1.10681 0.139135 -1.52875e-19)
(1.14523 0.144949 7.36622e-20)
(1.17223 0.148217 6.57785e-20)
(1.18956 0.149123 0)
(1.19932 0.148191 5.51532e-20)
(1.20354 0.145399 -1.9511e-19)
(1.20377 0.142537 1.83155e-19)
(1.20329 0.136456 1.2077e-19)
(-0.00932239 0.00647026 -6.25431e-20)
(-0.00372385 0.0101641 -6.46939e-20)
(0.0247329 0.0115478 5.83571e-20)
(0.0735985 0.0125733 0)
(0.140966 0.0148741 0)
(0.224755 0.0196966 -2.07063e-21)
(0.322213 0.0277268 0)
(0.429724 0.0391061 -2.41865e-19)
(0.542863 0.0534767 2.24647e-19)
(0.6567 0.0700568 -2.77298e-19)
(0.766283 0.0877667 6.34807e-20)
(0.867176 0.105397 0)
(0.955918 0.121785 1.0645e-19)
(1.03031 0.135972 -1.97517e-19)
(1.08953 0.147304 4.68036e-20)
(1.134 0.155479 1.22213e-19)
(1.16518 0.160524 -4.30152e-21)
(1.18523 0.162739 -1.37638e-19)
(1.1966 0.162596 0)
(1.20173 0.160626 0)
(1.20277 0.157441 -5.09976e-20)
(1.20137 0.153207 4.63873e-20)
(1.19884 0.149342 1.70221e-19)
(1.19605 0.143074 -1.59774e-19)
(-0.00561039 0.00414315 -6.61733e-20)
(0.0115808 0.00453221 -6.57644e-20)
(0.0555457 0.00521195 1.84919e-19)
(0.122848 0.00772104 -1.11905e-19)
(0.210419 0.0134006 1.05337e-19)
(0.314622 0.0231637 1.90982e-19)
(0.430742 0.0371696 -1.35009e-19)
(0.553048 0.0548561 -1.64312e-19)
(0.675252 0.0750818 3.16122e-21)
(0.79122 0.0963384 2.10096e-19)
(0.895735 0.117015 0)
(0.98508 0.135664 5.83566e-20)
(1.05734 0.151201 0)
(1.11236 0.163021 -9.60106e-20)
(1.1515 0.170997 1.34946e-19)
(1.17713 0.175407 1.01514e-21)
(1.19214 0.176801 -3.61116e-20)
(1.19945 0.175852 6.77249e-20)
(1.20163 0.173231 5.93742e-20)
(1.20074 0.169512 -5.38407e-20)
(1.1982 0.165163 5.09855e-20)
(1.19495 0.160348 -4.63761e-20)
(1.19139 0.155911 0)
(1.18832 0.149707 -3.65045e-20)
(5.66439e-05 0.00168552 6.61639e-20)
(0.0325362 -0.000748313 6.95609e-20)
(0.0953547 0.000460778 -6.19811e-20)
(0.183703 0.00611862 1.15348e-19)
(0.292739 0.0169635 -1.08571e-19)
(0.416576 0.0332223 9.80121e-20)
(0.54803 0.0541498 -4.71197e-20)
(0.67922 0.0781775 1.23405e-19)
(0.802583 0.103264 -7.77542e-20)
(0.911928 0.1273 1.38323e-19)
(1.0032 0.148493 -3.19903e-19)
(1.07474 0.165622 1.17997e-19)
(1.12712 0.178145 -1.03911e-19)
(1.16258 0.186141 9.7599e-20)
(1.18433 0.190149 8.5256e-20)
(1.19588 0.190962 7.55893e-20)
(1.20045 0.189426 -2.10919e-19)
(1.20067 0.186303 1.31127e-19)
(1.19845 0.182191 -5.93762e-20)
(1.19506 0.177512 1.57444e-19)
(1.19121 0.17254 -5.06665e-20)
(1.18729 0.167378 -1.27199e-19)
(1.18349 0.162487 1.17988e-19)
(1.1801 0.156371 3.64915e-20)
(0.00802777 -0.000654114 0)
(0.0597467 -0.00490412 6.36559e-22)
(0.144498 -0.00148692 1.30048e-19)
(0.255602 0.00924667 -1.21925e-19)
(0.385748 0.0269888 -1.09681e-19)
(0.526234 0.0508254 2.03829e-19)
(0.66736 0.0787425 -9.46475e-20)
(0.799777 0.108038 1.26304e-19)
(0.915971 0.135955 -2.55513e-21)
(1.01127 0.160232 -7.18303e-20)
(1.08415 0.179448 1.57489e-19)
(1.1358 0.1931 -2.33133e-19)
(1.1693 0.201472 0)
(1.18865 0.20537 -4.63314e-20)
(1.19789 0.205824 -1.24492e-19)
(1.20054 0.203848 3.91356e-20)
(1.19929 0.200294 1.28349e-21)
(1.196 0.195791 -8.84192e-20)
(1.19181 0.190758 4.45568e-21)
(1.18738 0.185453 1.02773e-19)
(1.18302 0.180022 -4.66071e-20)
(1.17887 0.174544 -1.85339e-20)
(1.17495 0.16922 5.55727e-20)
(1.1714 0.163139 0)
(0.0185747 -0.00253699 0)
(0.0934812 -0.00699089 3.53255e-20)
(0.202608 0.000701713 -1.7035e-19)
(0.336845 0.0184987 6.1794e-20)
(0.485818 0.044492 -5.81594e-20)
(0.637874 0.0761721 -5.32329e-20)
(0.781482 0.110081 -9.40232e-20)
(0.90726 0.142594 4.69048e-20)
(1.00945 0.17077 4.07434e-20)
(1.0863 0.192828 0)
(1.13946 0.208234 9.39846e-20)
(1.17278 0.217451 -1.40633e-19)
(1.19104 0.221554 1.04664e-19)
(1.19887 0.221832 4.63544e-20)
(1.20015 0.219492 -3.85289e-20)
(1.19773 0.215501 -3.26115e-20)
(1.19349 0.210547 -3.06641e-20)
(1.18854 0.205072 9.08728e-20)
(1.18351 0.199342 0)
(1.17868 0.193505 4.68826e-20)
(1.17415 0.187642 4.04165e-20)
(1.16993 0.18181 -9.92294e-20)
(1.16597 0.176042 -6.9754e-20)
(1.16231 0.16996 6.43619e-20)
(0.0318392 -0.00354934 -3.85628e-20)
(0.133551 -0.00596698 -1.61936e-21)
(0.268484 0.00832116 3.47323e-20)
(0.424609 0.0349579 9.71489e-20)
(0.588245 0.0698621 2.82752e-20)
(0.745365 0.108649 -5.46965e-20)
(0.884059 0.146603 4.98412e-20)
(0.996737 0.179767 -4.37019e-20)
(1.08087 0.205728 7.87323e-20)
(1.13823 0.223753 3.36516e-20)
(1.17336 0.23443 -9.56799e-20)
(1.19187 0.239114 2.8244e-20)
(1.19912 0.239398 4.85527e-20)
(1.19948 0.236734 -2.38409e-20)
(1.19608 0.23226 0)
(1.19094 0.226762 3.60326e-20)
(1.18522 0.220732 6.15426e-20)
(1.17954 0.214457 1.09533e-20)
(1.17415 0.208095 -5.16892e-20)
(1.16917 0.201728 2.18644e-20)
(1.16458 0.195406 0)
(1.16034 0.189152 -1.75445e-20)
(1.15637 0.182938 -1.69264e-20)
(1.15262 0.176768 0)
(0.0477787 -0.00323133 0)
(0.179216 -0.000797346 2.02548e-20)
(0.340076 0.0224544 3.74138e-20)
(0.51517 0.0592098 -9.93962e-20)
(0.687901 0.102785 3.22185e-20)
(0.843221 0.147003 0)
(0.970748 0.186495 4.84364e-20)
(1.06629 0.217777 -6.76973e-20)
(1.13124 0.239619 -3.94208e-20)
(1.17065 0.252606 1.77945e-20)
(1.191 0.258377 -2.87936e-20)
(1.19859 0.258896 6.97432e-20)
(1.19849 0.25595 3.50963e-20)
(1.1943 0.250921 -2.42985e-20)
(1.1883 0.24475 -2.17152e-21)
(1.18178 0.238013 -6.73905e-20)
(1.17537 0.231038 3.07599e-20)
(1.16937 0.223999 -8.3772e-22)
(1.16387 0.216985 0)
(1.15886 0.210047 -2.18874e-20)
(1.15429 0.203213 0)
(1.15008 0.196476 5.06347e-20)
(1.14614 0.189818 -6.06792e-20)
(1.14235 0.183464 2.78187e-20)
(0.0661216 -0.00111525 -1.06782e-20)
(0.229151 0.00943472 -5.11379e-20)
(0.41459 0.043824 5.82854e-20)
(0.60432 0.0912453 3.41507e-20)
(0.779972 0.142325 -1.62626e-20)
(0.927376 0.189643 2.74449e-20)
(1.03948 0.228075 -1.32872e-20)
(1.11641 0.255397 2.21729e-20)
(1.16334 0.271933 0)
(1.18767 0.279555 5.04585e-20)
(1.19682 0.280676 -2.05635e-21)
(1.19687 0.27754 -4.07863e-20)
(1.19215 0.271884 1.74946e-20)
(1.18535 0.264885 -1.98039e-20)
(1.17799 0.257255 -7.57691e-21)
(1.17081 0.249389 8.73929e-21)
(1.16413 0.24149 -6.7597e-21)
(1.15804 0.233661 -3.70886e-20)
(1.15255 0.225953 2.27293e-20)
(1.14761 0.218396 4.68114e-21)
(1.14313 0.210999 4.15519e-21)
(1.139 0.203737 3.69432e-21)
(1.13513 0.19665 0)
(1.13134 0.189997 0)
(0.0864128 0.00324141 1.06856e-20)
(0.281618 0.0254372 -1.06513e-20)
(0.488881 0.0726879 -1.94414e-20)
(0.688015 0.130458 0)
(0.860646 0.187111 -8.09786e-21)
(0.995487 0.234939 -7.3388e-21)
(1.09006 0.270024 -1.25429e-20)
(1.14891 0.291942 0)
(1.18021 0.302626 0)
(1.19272 0.304993 0)
(1.19386 0.30189 0)
(1.18901 0.295573 0)
(1.18154 0.287578 -1.09817e-20)
(1.17335 0.278832 4.99984e-21)
(1.16537 0.269842 8.72374e-21)
(1.15796 0.26086 4.09342e-21)
(1.15125 0.252006 1.0137e-20)
(1.14524 0.243337 0)
(1.13989 0.234882 -2.4553e-21)
(1.13511 0.226655 -2.38343e-21)
(1.13081 0.218647 -4.16183e-21)
(1.12686 0.210835 -3.70024e-21)
(1.12314 0.203329 0)
(1.11947 0.196255 2.70975e-21)
(-0.00105585 -0.00303357 6.37177e-21)
(-0.00552742 -0.00696005 -6.61897e-21)
(-0.013841 -0.00937988 -1.25405e-20)
(-0.0241312 -0.0106403 0)
(-0.0353524 -0.0110621 -1.68025e-20)
(-0.0469597 -0.0109169 5.2808e-21)
(-0.058575 -0.01041 -9.95661e-21)
(-0.0699379 -0.00967965 0)
(-0.0808848 -0.0088041 0)
(-0.0913182 -0.00781319 0)
(-0.101182 -0.00670204 0)
(-0.110443 -0.0054444 0)
(-0.119082 -0.00400365 2.4844e-23)
(-0.127085 -0.00234054 -6.53017e-21)
(-0.13444 -0.000417901 1.22272e-20)
(-0.141136 0.00179729 1.72406e-20)
(-0.147159 0.00433394 5.35487e-21)
(-0.152516 0.00722135 0)
(-0.15723 0.0104746 4.75558e-21)
(-0.161334 0.0141137 -1.33247e-20)
(-0.164899 0.0181554 -8.29454e-21)
(-0.168019 0.0226176 -7.76194e-21)
(-0.170878 0.0275407 0)
(-0.173906 0.0329643 0)
(-0.00117975 0.000477068 -1.91376e-20)
(-0.00577313 0.00133443 3.30433e-20)
(-0.0140556 0.00205661 -1.24384e-20)
(-0.0242011 0.00277473 -2.36861e-20)
(-0.03518 0.00349431 3.34863e-20)
(-0.0464524 0.00417926 -2.10882e-20)
(-0.057644 0.00480231 2.9789e-20)
(-0.0684975 0.00535674 1.87003e-20)
(-0.0788521 0.00585755 0)
(-0.0886117 0.0063384 -1.66254e-20)
(-0.0977198 0.00684488 -2.6838e-23)
(-0.106143 0.00742732 1.46928e-20)
(-0.11386 0.00813502 2.06808e-20)
(-0.120852 0.00901309 2.59061e-20)
(-0.127103 0.0101019 -1.223e-20)
(-0.132594 0.011439 -3.42966e-20)
(-0.137308 0.0130621 1.06243e-20)
(-0.141232 0.0150096 -4.00293e-20)
(-0.144364 0.0173406 0)
(-0.146726 0.0201239 8.84861e-21)
(-0.148361 0.0234441 8.28347e-21)
(-0.149299 0.027406 7.75143e-21)
(-0.149649 0.0321614 0)
(-0.15012 0.0378623 0)
(-0.0016801 0.00377514 0)
(-0.00678571 0.00914799 6.61535e-20)
(-0.0150761 0.0128457 -2.49611e-20)
(-0.0248911 0.0154307 2.36644e-20)
(-0.0352867 0.0172133 -6.68979e-20)
(-0.0457655 0.0183818 0)
(-0.055982 0.01908 -3.96742e-20)
(-0.0656985 0.0194271 1.86333e-20)
(-0.0747662 0.0195275 -3.51443e-20)
(-0.0830957 0.0194753 1.64991e-20)
(-0.0906333 0.0193548 9.32452e-20)
(-0.0973455 0.0192388 -4.37922e-20)
(-0.103208 0.019188 -6.85964e-20)
(-0.1082 0.0192513 -2.56451e-20)
(-0.112297 0.0194689 7.94227e-23)
(-0.115474 0.0198765 9.05298e-20)
(-0.117699 0.0205117 -4.24555e-20)
(-0.118938 0.0214227 1.67638e-22)
(-0.119158 0.0226809 0)
(-0.118344 0.0243913 -3.45224e-20)
(-0.116496 0.026704 0)
(-0.113551 0.0298314 -3.02976e-20)
(-0.109414 0.0340853 1.13059e-19)
(-0.105071 0.0398184 -5.06663e-23)
(-0.00249865 0.00667879 0)
(-0.0084628 0.0160743 1.15377e-22)
(-0.0168164 0.0224523 2.51307e-20)
(-0.0261555 0.0267213 -2.37457e-20)
(-0.0356747 0.0294526 2.22444e-20)
(-0.0449504 0.0310348 1.26372e-19)
(-0.0536875 0.0317662 -3.96372e-20)
(-0.061683 0.0318821 -3.7363e-20)
(-0.0688091 0.0315694 7.02571e-20)
(-0.0749885 0.0309788 -9.90518e-20)
(-0.0801727 0.0302312 3.10072e-20)
(-0.0843293 0.0294213 2.91175e-20)
(-0.0874321 0.0286209 0)
(-0.0894554 0.0278828 2.56813e-20)
(-0.0903708 0.0272449 0)
(-0.0901448 0.0267362 4.48958e-20)
(-0.0887368 0.0263844 -8.40115e-20)
(-0.0860975 0.0262261 2.01095e-20)
(-0.0821688 0.026321 7.37099e-20)
(-0.076899 0.0267731 3.44896e-20)
(-0.0702555 0.0277598 0)
(-0.0621083 0.0295944 -8.94999e-20)
(-0.0520289 0.0328432 2.8194e-20)
(-0.0407575 0.0382987 0)
(-0.00355586 0.0090679 0)
(-0.0106566 0.0218248 -7.98988e-20)
(-0.0191366 0.0304722 -2.53655e-20)
(-0.0278931 0.0361647 -4.7561e-20)
(-0.0362915 0.0396799 4.47846e-20)
(-0.0440038 0.0415744 -4.21505e-20)
(-0.0508026 0.0422802 7.94764e-20)
(-0.0565311 0.0421338 3.73438e-20)
(-0.0610905 0.0413962 -1.05406e-19)
(-0.064419 0.0402694 6.60016e-20)
(-0.066475 0.0389086 -9.29779e-20)
(-0.0672257 0.0374302 2.03538e-19)
(-0.066641 0.0359192 -1.09208e-19)
(-0.0646887 0.0344343 5.10738e-20)
(-0.0613327 0.0330142 1.43347e-19)
(-0.0565316 0.0316831 -4.52299e-20)
(-0.050238 0.0304571 -4.21726e-20)
(-0.0423956 0.029352 -3.93943e-20)
(-0.0329357 0.0283956 0)
(-0.0217892 0.0276488 -6.7771e-20)
(-0.00891032 0.0272367 -6.26071e-20)
(0.00582745 0.0274719 8.91112e-20)
(0.0231479 0.0291649 1.09519e-19)
(0.0431693 0.0338493 -1.0289e-19)
(-0.00476745 0.0108908 0)
(-0.0131977 0.0262433 -1.07572e-19)
(-0.021855 0.036653 -2.79746e-22)
(-0.0299395 0.0434278 9.55325e-20)
(-0.036998 0.0474991 0)
(-0.0428107 0.0495585 0)
(-0.0472278 0.0501481 0)
(-0.0501467 0.0496896 -3.73754e-20)
(-0.051501 0.048507 7.59337e-23)
(-0.051245 0.0468475 6.6143e-20)
(-0.0493411 0.0448974 -9.28583e-20)
(-0.0457517 0.0427951 1.16615e-22)
(-0.0404358 0.0406405 0)
(-0.033347 0.0385032 -5.10526e-20)
(-0.0244335 0.0364291 4.74551e-20)
(-0.0136395 0.0344465 -1.33974e-19)
(-0.000906207 0.0325707 1.66428e-19)
(0.0138271 0.030809 3.80243e-20)
(0.0306305 0.0291674 -1.05962e-21)
(0.0495656 0.027651 -1.35589e-19)
(0.0706554 0.0262935 -6.26289e-20)
(0.093944 0.0252534 2.03704e-19)
(0.120101 0.0253197 -1.35772e-19)
(0.152053 0.028787 0)
(-0.00605872 0.0121587 5.26618e-20)
(-0.0159138 0.0292997 5.38731e-20)
(-0.0247523 0.0408932 -5.13053e-20)
(-0.0320471 0.0483357 -9.62402e-20)
(-0.0375205 0.0526713 9.06195e-20)
(-0.0410632 0.0546981 -8.51622e-20)
(-0.0426062 0.0550461 1.20261e-19)
(-0.042101 0.0542059 -3.7325e-20)
(-0.0395112 0.0525533 7.06503e-20)
(-0.0348012 0.0503735 0)
(-0.0279291 0.047881 6.19255e-20)
(-0.0188426 0.0452356 -1.16487e-19)
(-0.00747929 0.0425543 1.08671e-19)
(0.00623201 0.039922 -1.02068e-19)
(0.0223671 0.037399 0)
(0.0410018 0.0350273 8.89441e-20)
(0.0622065 0.0328354 1.65324e-19)
(0.0860397 0.0308413 -1.55342e-19)
(0.112539 0.0290526 -7.19381e-20)
(0.141732 0.0274701 -6.66712e-20)
(0.173572 0.0260875 1.88e-19)
(0.208149 0.0249168 5.70594e-20)
(0.244292 0.0242084 -5.41775e-20)
(0.293287 0.027186 4.93882e-20)
(-0.00737227 0.0129285 -5.26689e-20)
(-0.0186364 0.0310622 1.64323e-19)
(-0.0275623 0.0432214 -5.17549e-20)
(-0.0338522 0.0508635 9.69851e-20)
(-0.0373876 0.055123 -9.132e-20)
(-0.0381635 0.056883 3.76112e-22)
(-0.0361854 0.0568443 4.04306e-20)
(-0.0314497 0.0555516 1.51123e-19)
(-0.0239386 0.0534228 -4.08704e-22)
(-0.0136139 0.0507755 -6.64859e-20)
(-0.000416129 0.0478499 0)
(0.0157327 0.0448274 -5.79327e-20)
(0.0349234 0.041845 1.09053e-19)
(0.0572503 0.0390065 1.01457e-19)
(0.082802 0.0363913 -4.78191e-20)
(0.111649 0.0340606 -1.26268e-22)
(0.143831 0.0320615 -4.14272e-20)
(0.179347 0.0304306 7.691e-20)
(0.218141 0.0291942 7.19239e-20)
(0.260122 0.0283823 -6.69162e-20)
(0.304858 0.0279423 6.18389e-20)
(0.353477 0.0281612 -5.73245e-20)
(0.399115 0.0279055 0)
(0.469516 0.0324945 -4.93211e-20)
(-0.00866586 0.0132782 5.3632e-20)
(-0.0211899 0.0316544 -5.49929e-20)
(-0.0299468 0.0437567 5.23927e-20)
(-0.0348289 0.0511116 0)
(-0.0358591 0.0549401 0)
(-0.033123 0.0561988 8.67935e-20)
(-0.0266835 0.0556462 -8.10876e-20)
(-0.016565 0.0538722 7.57291e-20)
(-0.00274988 0.0513302 -3.5534e-19)
(0.0148167 0.048367 2.69701e-22)
(0.0362185 0.0452485 6.22657e-20)
(0.0615538 0.0421793 0)
(0.0909182 0.0393184 -1.08475e-19)
(0.124384 0.0367901 2.03167e-19)
(0.161981 0.0346918 -1.42576e-19)
(0.203675 0.0330992 -2.20524e-19)
(0.24935 0.0320701 1.26549e-21)
(0.298795 0.0316459 1.53784e-19)
(0.351679 0.0318448 0)
(0.407732 0.0327471 0)
(0.465496 0.0340219 -6.18327e-20)
(0.528518 0.0369014 5.73172e-20)
(0.580899 0.0378662 -2.10129e-19)
(0.670676 0.0458778 1.97202e-19)
(-0.00989979 0.0132798 0)
(-0.0233634 0.0312076 0)
(-0.0314545 0.0426612 -1.57702e-19)
(-0.0342399 0.0492735 5.01462e-20)
(-0.031863 0.0523539 3.88425e-22)
(-0.024486 0.0529308 8.79016e-20)
(-0.0122072 0.0518169 0)
(0.00494166 0.0496428 -7.64567e-20)
(0.0269875 0.046895 7.12016e-20)
(0.0539965 0.0439493 -1.33203e-19)
(0.0860464 0.0410976 3.3465e-22)
(0.123194 0.0385672 1.16121e-19)
(0.165441 0.0365346 -6.7252e-22)
(0.212699 0.0351336 1.00456e-19)
(0.264761 0.0344611 -1.42676e-19)
(0.321281 0.0345793 0)
(0.381765 0.0355173 1.63506e-19)
(0.445573 0.0372755 -2.30057e-19)
(0.511876 0.0397924 7.07345e-20)
(0.580107 0.0431885 0)
(0.647682 0.0466813 6.09335e-20)
(0.71987 0.0524336 2.26071e-19)
(0.775045 0.0548024 -2.12159e-19)
(0.871358 0.0659925 -2.44644e-19)
(-0.0110171 0.0129776 1.65267e-19)
(-0.0248728 0.0298221 -2.27458e-19)
(-0.0314783 0.0401092 4.17896e-22)
(-0.0310927 0.0456083 5.06443e-20)
(-0.0239726 0.0477287 -9.44074e-20)
(-0.010333 0.0475792 -8.74453e-20)
(0.0097018 0.0460255 1.63679e-19)
(0.0360911 0.0437378 -1.4426e-21)
(0.0688435 0.0412351 -1.43798e-19)
(0.107969 0.0389197 2.67282e-19)
(0.153424 0.0371013 -9.57906e-22)
(0.205055 0.0360136 -1.16989e-19)
(0.262548 0.0358224 0)
(0.325396 0.0366303 0)
(0.392876 0.0384788 -4.72675e-20)
(0.464061 0.0413491 -8.76285e-20)
(0.537835 0.0451664 -1.62603e-19)
(0.612948 0.0498052 1.52631e-19)
(0.688033 0.0550755 -7.07598e-20)
(0.761955 0.0609149 1.29996e-19)
(0.832307 0.0665592 -6.24861e-20)
(0.902467 0.0736539 1.10663e-19)
(0.955683 0.0771398 -2.61652e-19)
(1.03851 0.0884614 4.84216e-20)
(-0.0119158 0.0123759 5.58232e-20)
(-0.0253123 0.0275522 0)
(-0.0292163 0.0362619 1.08274e-19)
(-0.0241234 0.0404266 -1.01999e-19)
(-0.0104121 0.0415689 9.44934e-20)
(0.0116495 0.0408759 0)
(0.0418925 0.0392677 0)
(0.0802072 0.0374495 -7.69432e-20)
(0.126469 0.0359618 1.13695e-21)
(0.180449 0.0352122 6.78879e-20)
(0.241733 0.0354938 -6.22428e-20)
(0.309652 0.0369934 1.17271e-19)
(0.383248 0.0397962 0)
(0.461269 0.0438881 2.01496e-19)
(0.542208 0.0491606 -3.76492e-19)
(0.624368 0.0554199 2.63526e-19)
(0.705958 0.0624043 1.61332e-19)
(0.785182 0.0697857 -1.51442e-19)
(0.860392 0.0772629 0)
(0.930025 0.0843727 0)
(0.993024 0.0910219 0)
(1.04899 0.0967056 0)
(1.09368 0.100796 5.17282e-20)
(1.14621 0.106967 -1.91261e-19)
(-0.178193 0.0396974 -4.83207e-21)
(-0.183939 0.0475209 4.85488e-21)
(-0.189355 0.0556482 -1.46031e-22)
(-0.194684 0.0639173 0)
(-0.199947 0.0720526 -4.43641e-21)
(-0.205125 0.0797277 8.62638e-21)
(-0.210192 0.0865535 2.26279e-24)
(-0.215098 0.0920791 -4.07884e-21)
(-0.219762 0.0958056 0)
(-0.224072 0.0971938 0)
(-0.227877 0.0956888 -2.39669e-22)
(-0.230993 0.0907516 -2.3492e-22)
(-0.233202 0.0819046 -3.84146e-21)
(-0.234268 0.0687868 3.50986e-21)
(-0.233932 0.0512143 0)
(-0.231927 0.0292479 0)
(-0.228112 0.00329541 3.1437e-21)
(-0.222366 -0.0262554 -7.55773e-23)
(-0.214669 -0.0577143 -2.71149e-21)
(-0.205108 -0.0895229 -1.70085e-22)
(-0.193665 -0.119857 0)
(-0.180381 -0.146262 0)
(-0.165296 -0.166507 0)
(-0.147956 -0.178488 0)
(-0.127263 -0.180403 0)
(-0.101509 -0.171028 0)
(-0.0686567 -0.150291 2.55217e-22)
(-0.0271016 -0.119241 -4.06305e-22)
(0.0232374 -0.0810275 0)
(0.0812291 -0.0397069 0)
(0.144216 0.000368494 -9.40823e-24)
(0.208591 0.0348554 9.14322e-24)
(0.270646 0.0608637 -3.98349e-23)
(0.327884 0.0773794 0)
(0.378955 0.0844377 0)
(0.424344 0.08366 -1.40768e-22)
(0.465224 0.0762508 1.36829e-22)
(0.503487 0.0644394 0)
(0.540431 0.0492945 -1.25697e-22)
(0.576806 0.0332155 1.80493e-22)
(0.612328 0.0170033 -5.30853e-23)
(0.646311 0.00294734 0)
(0.677717 -0.00902703 8.37113e-23)
(0.706067 -0.0171695 -8.13988e-23)
(0.730882 -0.0226514 0)
(0.752881 -0.0241808 0)
(0.772118 -0.0237217 2.49868e-23)
(0.790273 -0.019951 -7.02126e-23)
(0.80693 -0.0153872 0)
(0.824112 -0.00856858 0)
(0.839812 -0.00245608 1.32235e-23)
(0.856601 0.00462066 1.22503e-25)
(0.870429 0.00961201 1.57821e-24)
(0.886128 0.0146662 -7.62612e-24)
(0.896657 0.0172846 0)
(0.911326 0.0197948 0)
(0.917711 0.0203495 0)
(0.932678 0.0209975 0)
(0.935307 0.0206704 0)
(0.952476 0.0207037 0)
(-0.152374 0.045259 -4.60423e-22)
(-0.15693 0.0528854 -1.91406e-20)
(-0.160733 0.0606987 1.46834e-22)
(-0.16422 0.0687139 1.78235e-20)
(-0.167445 0.0766105 2.74495e-22)
(-0.17034 0.084043 0)
(-0.172837 0.0906001 -1.66121e-20)
(-0.174842 0.0957975 3.29385e-20)
(-0.176238 0.0991197 -1.63256e-20)
(-0.17689 0.0999971 1.59435e-20)
(-0.176638 0.0978491 -1.52572e-20)
(-0.175312 0.0921155 1.5176e-20)
(-0.172741 0.0823071 -1.4763e-20)
(-0.168767 0.068069 -4.72406e-22)
(-0.163253 0.0492542 -1.44969e-20)
(-0.156061 0.0259735 1.40884e-20)
(-0.147353 -0.00141185 -1.34804e-20)
(-0.137057 -0.0321012 1.26838e-20)
(-0.125285 -0.0647143 -1.2067e-20)
(-0.112589 -0.0975334 2.25593e-20)
(-0.0991684 -0.128945 -1.05354e-20)
(-0.0854788 -0.15602 -5.68726e-22)
(-0.072269 -0.176886 -7.10813e-21)
(-0.0596437 -0.189701 1.27145e-20)
(-0.0469545 -0.193025 -5.64316e-21)
(-0.0327093 -0.185965 2.39135e-22)
(-0.0145165 -0.168417 2.52934e-21)
(0.0101538 -0.141226 -7.16991e-22)
(0.042991 -0.106689 -2.40427e-21)
(0.0846849 -0.067751 1.11957e-21)
(0.134191 -0.0288018 -2.69485e-22)
(0.188772 0.00630156 -6.24832e-23)
(0.245238 0.0340006 3.99167e-23)
(0.300753 0.0532339 -1.20117e-22)
(0.35384 0.0631396 0)
(0.404136 0.064777 0)
(0.452236 0.0591487 5.47884e-22)
(0.498671 0.0485663 -4.02898e-22)
(0.543921 0.0343496 -3.62566e-22)
(0.587416 0.0191954 -3.15057e-23)
(0.628524 0.004146 4.84228e-22)
(0.665943 -0.00848985 -9.26701e-23)
(0.699022 -0.0188646 0)
(0.727206 -0.0254141 0)
(0.750671 -0.0294768 0)
(0.770131 -0.0298489 0)
(0.786262 -0.0285664 -1.05592e-22)
(0.800724 -0.0242697 4.59549e-23)
(0.813723 -0.0194377 0)
(0.82733 -0.0124407 0)
(0.840067 -0.00622355 0)
(0.854504 0.00109907 2.10033e-23)
(0.866763 0.00628277 -3.22314e-24)
(0.881632 0.0117198 1.6581e-23)
(0.891802 0.0145417 0)
(0.906734 0.0174984 0)
(0.913288 0.0181513 -7.00613e-24)
(0.929058 0.019151 -1.6491e-23)
(0.931855 0.0187797 0)
(0.950083 0.0189887 0)
(-0.103736 0.0478814 3.37559e-22)
(-0.106688 0.0553356 -3.80166e-20)
(-0.108313 0.0627961 3.76038e-20)
(-0.109271 0.0705058 -3.51673e-20)
(-0.109781 0.0781065 -2.7637e-22)
(-0.109735 0.0852347 0)
(-0.109041 0.0914548 -3.43103e-20)
(-0.107566 0.0962398 3.36193e-20)
(-0.105176 0.0990968 2.55217e-22)
(-0.101739 0.0994331 5.09975e-22)
(-0.0971074 0.0966528 5.05887e-22)
(-0.0911386 0.090186 4.89541e-22)
(-0.0837054 0.0795391 -3.16901e-20)
(-0.0747052 0.064359 3.12728e-20)
(-0.0640831 0.0445139 0)
(-0.0519011 0.0201543 9.47817e-22)
(-0.0383783 -0.00830965 -2.85583e-20)
(-0.0234917 -0.0398288 2.81685e-20)
(-0.00750405 -0.0731807 0)
(0.00872408 -0.106611 0)
(0.0250979 -0.137924 -2.09011e-20)
(0.040954 -0.164856 3.82835e-20)
(0.0548335 -0.18539 -3.15439e-20)
(0.0662066 -0.197782 2.87691e-21)
(0.0750807 -0.200963 1.99886e-20)
(0.0823087 -0.194612 -1.54092e-20)
(0.0898236 -0.178976 1.03022e-20)
(0.100422 -0.154996 -1.85576e-21)
(0.117021 -0.12422 -2.47355e-21)
(0.141841 -0.088774 0)
(0.175784 -0.0523265 0)
(0.217479 -0.0183158 -5.95025e-22)
(0.265105 0.00955592 7.20091e-22)
(0.316006 0.029503 -6.72256e-24)
(0.368324 0.0408286 -1.10269e-21)
(0.420781 0.0439208 1.07158e-21)
(0.473166 0.0396109 0)
(0.524499 0.0302408 -1.30171e-22)
(0.574402 0.0172647 -1.0477e-21)
(0.621251 0.00367109 1.96387e-21)
(0.66427 -0.0095504 -8.26626e-22)
(0.701874 -0.0201771 -8.60268e-23)
(0.733913 -0.028503 8.02039e-22)
(0.759925 -0.0331288 -6.21249e-22)
(0.780636 -0.0355292 -1.3299e-22)
(0.796707 -0.034586 -1.18939e-22)
(0.809223 -0.0323895 1.05859e-22)
(0.819672 -0.02754 0)
(0.828695 -0.0224824 0)
(0.838295 -0.0154128 2.67402e-22)
(0.84751 -0.00924981 -1.25615e-22)
(0.858876 -0.00189699 9.9206e-23)
(0.868835 0.00331487 -1.23019e-22)
(0.882061 0.00898445 -1.30111e-22)
(0.891218 0.0118841 3.04072e-23)
(0.90568 0.0152147 -4.33541e-23)
(0.911978 0.0159108 3.27889e-23)
(0.927888 0.0172486 -1.38415e-23)
(0.930661 0.0168162 0)
(0.949244 0.0172048 0)
(-0.0350593 0.0468411 -7.78063e-20)
(-0.0364874 0.0543262 5.67712e-22)
(-0.0360411 0.0614078 7.32392e-20)
(-0.0343995 0.0686554 -5.66587e-22)
(-0.0321 0.0758542 0)
(-0.029045 0.0825982 0)
(-0.0251604 0.0884043 -6.93882e-20)
(-0.0202612 0.0927834 -1.70271e-21)
(-0.0141685 0.0952048 1.00496e-19)
(-0.00681439 0.0950693 2.1431e-22)
(0.00192492 0.0917825 -3.31191e-20)
(0.012159 0.0847757 -3.21457e-20)
(0.0239649 0.0735552 3.22418e-20)
(0.037385 0.0577613 0)
(0.0524176 0.0372374 -3.19716e-20)
(0.0689419 0.0121145 2.91218e-20)
(0.0867041 -0.0170155 0)
(0.105571 -0.0491513 0)
(0.125193 -0.0830122 2.63537e-20)
(0.144928 -0.116796 -1.6996e-21)
(0.164256 -0.147811 -2.25405e-20)
(0.182307 -0.174391 -1.86919e-20)
(0.19788 -0.194136 1.8608e-20)
(0.210066 -0.20534 -1.22583e-20)
(0.218417 -0.20723 2.91675e-21)
(0.223137 -0.200067 8.65869e-21)
(0.225449 -0.184682 6.27249e-22)
(0.227606 -0.16228 1.7284e-23)
(0.232734 -0.134325 0)
(0.243893 -0.102504 -4.0045e-22)
(0.263605 -0.0695503 4.47105e-22)
(0.292209 -0.0382635 -8.38771e-23)
(0.329149 -0.0116828 0)
(0.372624 0.00784381 1.28322e-22)
(0.420976 0.0190432 -2.18889e-21)
(0.471831 0.0226496 4.00188e-21)
(0.52425 0.0192108 2.0956e-22)
(0.575978 0.0110095 -7.16492e-23)
(0.625973 -0.00027788 -1.63217e-21)
(0.67193 -0.0118628 -2.14683e-22)
(0.713034 -0.0228687 1.49693e-21)
(0.747776 -0.0311892 -1.2747e-21)
(0.776461 -0.0372742 -5.18057e-24)
(0.798793 -0.0398764 -5.66099e-22)
(0.815866 -0.0405772 6.83798e-22)
(0.828257 -0.0383081 8.09876e-22)
(0.837216 -0.0351912 -2.32237e-22)
(0.84396 -0.0297889 -3.5187e-22)
(0.84933 -0.0245297 6.46762e-22)
(0.855147 -0.0174525 -4.34883e-22)
(0.860858 -0.0114515 1.0277e-22)
(0.868949 -0.00421657 -1.29167e-22)
(0.876259 0.000848109 -9.77804e-23)
(0.887293 0.00659954 1.99665e-22)
(0.89495 0.00944819 -6.14415e-24)
(0.908291 0.0130591 4.38754e-23)
(0.913955 0.0137359 0)
(0.929334 0.0153757 1.41268e-23)
(0.931895 0.0148654 -1.73192e-23)
(0.95009 0.0154212 0)
(0.0526714 0.0425558 7.80708e-20)
(0.0525415 0.0502458 -1.52472e-19)
(0.0538259 0.0569245 7.3579e-20)
(0.0571924 0.0635305 7.28376e-20)
(0.0616749 0.0701968 -1.42921e-19)
(0.0671079 0.0764865 -4.15097e-22)
(0.0736055 0.0818468 6.90909e-20)
(0.0813456 0.0858202 6.91952e-20)
(0.0904805 0.0878396 -6.7783e-20)
(0.101085 0.087324 0)
(0.113246 0.0836834 -6.84848e-20)
(0.127026 0.076348 1.34871e-19)
(0.142452 0.0648235 -6.63769e-20)
(0.159508 0.0487458 0)
(0.178129 0.0279548 0)
(0.198178 0.00250267 9.99519e-22)
(0.219383 -0.0269077 -6.22535e-20)
(0.24146 -0.0593529 6.04745e-20)
(0.263987 -0.0934613 0)
(0.286351 -0.127317 5.1288e-20)
(0.307857 -0.158453 -9.20207e-20)
(0.327569 -0.184627 7.99289e-20)
(0.34441 -0.203484 -6.81405e-20)
(0.357417 -0.2133 5.66888e-21)
(0.366059 -0.21353 4.22365e-20)
(0.370334 -0.204828 -1.80106e-20)
(0.371053 -0.188528 -3.10599e-22)
(0.369772 -0.166275 -1.81706e-21)
(0.36907 -0.139793 1.43052e-21)
(0.371858 -0.110679 4.94999e-22)
(0.381305 -0.0810611 -5.86778e-23)
(0.398986 -0.0531036 1.78567e-21)
(0.42576 -0.0292753 -3.76908e-21)
(0.460444 -0.0112455 2.23158e-21)
(0.501965 -0.000888724 0)
(0.54777 0.00263815 2.31617e-21)
(0.596075 -0.000204111 -2.24575e-21)
(0.643977 -0.00715686 1.58776e-21)
(0.689904 -0.0166299 -1.98112e-21)
(0.731256 -0.0261029 1.94183e-22)
(0.767406 -0.0347857 0)
(0.797058 -0.0407692 1.67311e-22)
(0.820839 -0.0446817 -4.68631e-22)
(0.838639 -0.045392 0)
(0.851724 -0.0445385 -1.26531e-21)
(0.860579 -0.0410653 5.08421e-22)
(0.866423 -0.0371039 -2.10905e-22)
(0.870169 -0.0311814 -1.8435e-22)
(0.872633 -0.0257323 0)
(0.875384 -0.0186691 0)
(0.878113 -0.0128826 3.41959e-22)
(0.883211 -0.00583022 -5.045e-22)
(0.887931 -0.00105821 2.65464e-22)
(0.896578 0.00464866 -8.1064e-23)
(0.902494 0.00733521 -1.2276e-22)
(0.914245 0.0111265 -4.3917e-23)
(0.919005 0.0117245 6.50279e-23)
(0.933263 0.0136132 0)
(0.935467 0.0130114 2.87057e-23)
(0.952581 0.0137073 8.63537e-24)
(0.163111 0.0373227 7.88633e-20)
(0.163133 0.0448255 -7.82717e-20)
(0.163254 0.0508261 5.88484e-22)
(0.166377 0.0565496 -5.70615e-22)
(0.171446 0.0624636 5.64215e-22)
(0.177795 0.0681362 -5.55449e-22)
(0.185481 0.0729417 1.09164e-21)
(0.194733 0.0763865 0)
(0.205689 0.0779635 -1.07891e-21)
(0.218393 0.0771065 1.07726e-21)
(0.232884 0.0732136 1.0774e-21)
(0.249179 0.0657121 -1.07613e-21)
(0.267256 0.054101 0)
(0.287046 0.0379899 0)
(0.308376 0.0171865 1.06367e-21)
(0.331129 -0.00821735 0)
(0.354993 -0.0375354 -1.01228e-21)
(0.379483 -0.0699434 0)
(0.404097 -0.103996 -5.47256e-20)
(0.428138 -0.137713 1.04537e-19)
(0.45076 -0.168641 -9.35121e-20)
(0.470952 -0.194282 4.39052e-20)
(0.487711 -0.21227 3.1736e-20)
(0.500194 -0.220888 -3.08179e-20)
(0.508054 -0.219696 -1.92761e-20)
(0.511492 -0.209571 1.85516e-20)
(0.511375 -0.192156 0)
(0.508922 -0.169423 1.88988e-22)
(0.506083 -0.143429 0)
(0.505073 -0.115927 0)
(0.508751 -0.088814 -2.49679e-21)
(0.519033 -0.0637755 2.53393e-21)
(0.537531 -0.042782 -2.24912e-22)
(0.563896 -0.0271327 -2.58572e-22)
(0.597531 -0.0178771 2.4406e-22)
(0.635983 -0.0147433 1.94393e-21)
(0.677286 -0.0171439 -1.88743e-21)
(0.718279 -0.0228831 1.9415e-21)
(0.757206 -0.0307128 -1.66561e-21)
(0.791599 -0.0381301 -3.81335e-22)
(0.82098 -0.0446061 1.39283e-21)
(0.844364 -0.0484713 9.50597e-23)
(0.862554 -0.0504857 -9.43642e-22)