/*--------------------------------*- C++ -*----------------------------------*\
| =========                 |                                                 |
| \\      /  F ield         | OpenFOAM: The Open Source CFD Toolbox           |
|  \\    /   O peration     | Version:  2512                                  |
|   \\  /    A nd           | Website:  www.openfoam.com                      |
|    \\/     M anipulation  |                                                 |
\*---------------------------------------------------------------------------*/
FoamFile
{
    version     2.0;
    format      ascii;
    arch        "LSB;label=32;scalar=64";
    class       volScalarField;
    location    "197";
    object      p;
}
// * * * * * * * * * * * * * * * * * * * * * * * * * * * * * * * * * * * * * //

dimensions      [0 2 -2 0 0 0 0];

internalField   nonuniform List<scalar> 
13248
(
-0.347291
-0.346312
-0.344924
-0.343174
-0.34102
-0.338349
-0.33499
-0.330751
-0.325443
-0.318913
-0.31107
-0.301899
-0.291476
-0.279963
-0.267599
-0.254668
-0.241476
-0.228317
-0.21545
-0.203096
-0.191378
-0.180485
-0.170215
-0.16094
-0.355616
-0.353584
-0.351258
-0.348648
-0.345675
-0.342233
-0.338151
-0.333217
-0.327229
-0.320029
-0.311536
-0.301765
-0.290828
-0.278926
-0.266322
-0.253307
-0.24017
-0.227168
-0.214516
-0.202374
-0.19084
-0.179994
-0.169731
-0.160256
-0.364823
-0.361676
-0.358331
-0.354772
-0.350882
-0.346562
-0.341628
-0.335846
-0.328995
-0.320922
-0.311569
-0.300996
-0.289367
-0.276925
-0.263957
-0.250754
-0.237581
-0.224661
-0.212164
-0.200207
-0.188847
-0.17814
-0.167977
-0.158469
-0.375137
-0.370794
-0.366373
-0.361811
-0.356931
-0.351619
-0.345663
-0.338802
-0.33081
-0.321559
-0.311051
-0.299419
-0.286895
-0.273766
-0.260337
-0.246884
-0.233642
-0.220784
-0.208431
-0.196655
-0.185484
-0.174948
-0.16494
-0.155634
-0.386771
-0.381139
-0.375596
-0.369993
-0.36404
-0.357578
-0.350357
-0.342101
-0.332611
-0.321838
-0.309886
-0.296985
-0.283437
-0.269563
-0.255659
-0.241965
-0.228662
-0.215867
-0.20365
-0.192044
-0.181056
-0.170686
-0.160857
-0.151706
-0.399827
-0.392813
-0.386115
-0.379423
-0.372271
-0.36442
-0.355594
-0.34554
-0.334156
-0.32153
-0.307901
-0.293603
-0.278987
-0.264374
-0.250017
-0.236099
-0.222735
-0.209987
-0.197884
-0.186425
-0.175598
-0.165386
-0.155729
-0.146733
-0.414231
-0.405773
-0.397891
-0.390026
-0.381463
-0.371879
-0.361011
-0.348715
-0.335064
-0.32033
-0.3049
-0.289181
-0.273532
-0.25823
-0.243461
-0.229338
-0.215912
-0.203199
-0.191188
-0.179859
-0.169182
-0.159125
-0.149649
-0.140794
-0.42969
-0.419777
-0.410679
-0.401493
-0.391206
-0.379441
-0.366043
-0.351084
-0.334882
-0.317914
-0.300676
-0.2836
-0.267
-0.251079
-0.235943
-0.221632
-0.208144
-0.195455
-0.183526
-0.172319
-0.161791
-0.151901
-0.142618
-0.133915
-0.445678
-0.434362
-0.424005
-0.413267
-0.400838
-0.386384
-0.369993
-0.352055
-0.33317
-0.313983
-0.295042
-0.276737
-0.259301
-0.242844
-0.227391
-0.212919
-0.199383
-0.186724
-0.174886
-0.16381
-0.153445
-0.143743
-0.13467
-0.126141
-0.461423
-0.448819
-0.437126
-0.424518
-0.409466
-0.391835
-0.372106
-0.351051
-0.329527
-0.308274
-0.287815
-0.268451
-0.250309
-0.233407
-0.217698
-0.203107
-0.189552
-0.176951
-0.165227
-0.154308
-0.144131
-0.134645
-0.125794
-0.117464
-0.475937
-0.462193
-0.449035
-0.434167
-0.416008
-0.394816
-0.371579
-0.347455
-0.323479
-0.300399
-0.278649
-0.258411
-0.239705
-0.222461
-0.206574
-0.191928
-0.17841
-0.165918
-0.154357
-0.143644
-0.133705
-0.124479
-0.115881
-0.107804
-0.488106
-0.473412
-0.458639
-0.441092
-0.419371
-0.39433
-0.367535
-0.340484
-0.314299
-0.289655
-0.266853
-0.245941
-0.226833
-0.209383
-0.193436
-0.178838
-0.165453
-0.153158
-0.141847
-0.131424
-0.121811
-0.112931
-0.104676
-0.096989
-0.3548
-0.356794
-0.357928
-0.358703
-0.359612
-0.360842
-0.362463
-0.364483
-0.366877
-0.369603
-0.372607
-0.375825
-0.379176
-0.382555
-0.385831
-0.388841
-0.391387
-0.393249
-0.394165
-0.39387
-0.391985
-0.388482
-0.383234
-0.37655
-0.344722
-0.347392
-0.348842
-0.349672
-0.350437
-0.351306
-0.352323
-0.353478
-0.354725
-0.356
-0.357228
-0.358323
-0.359189
-0.359719
-0.35979
-0.359267
-0.358003
-0.355845
-0.352633
-0.348192
-0.342527
-0.335464
-0.327214
-0.318942
-0.33576
-0.338939
-0.340621
-0.341473
-0.342078
-0.342583
-0.343005
-0.343314
-0.343444
-0.343307
-0.342809
-0.341847
-0.340313
-0.338097
-0.335091
-0.331187
-0.32629
-0.320314
-0.313215
-0.304919
-0.295591
-0.285145
-0.273856
-0.263633
-0.328413
-0.331915
-0.333742
-0.334588
-0.335038
-0.335207
-0.335087
-0.334627
-0.333741
-0.332326
-0.330269
-0.327457
-0.323778
-0.319127
-0.313414
-0.306564
-0.298529
-0.289287
-0.278859
-0.267447
-0.25515
-0.242082
-0.228435
-0.216128
-0.323024
-0.326662
-0.328545
-0.329359
-0.329661
-0.329534
-0.328942
-0.327814
-0.326049
-0.323531
-0.320137
-0.315752
-0.310265
-0.303588
-0.295654
-0.286433
-0.275933
-0.26421
-0.251382
-0.237647
-0.223271
-0.208615
-0.193885
-0.178406
-0.319783
-0.323376
-0.325224
-0.325973
-0.326131
-0.325744
-0.324752
-0.323065
-0.320568
-0.317137
-0.312647
-0.306982
-0.300045
-0.291768
-0.282118
-0.27111
-0.258814
-0.245357
-0.230935
-0.215811
-0.200329
-0.184856
-0.16959
-0.155313
-0.318729
-0.322103
-0.323823
-0.324466
-0.324476
-0.323861
-0.322537
-0.320398
-0.317319
-0.313168
-0.307823
-0.301174
-0.293141
-0.283681
-0.2728
-0.260563
-0.247097
-0.232599
-0.217334
-0.201628
-0.185867
-0.170457
-0.155899
-0.14144
-0.319766
-0.322752
-0.324245
-0.324734
-0.324581
-0.32376
-0.322165
-0.319674
-0.316153
-0.311468
-0.305499
-0.298147
-0.289352
-0.279101
-0.26744
-0.254484
-0.240417
-0.225497
-0.210042
-0.194424
-0.179071
-0.1642
-0.151114
-0.136658
-0.322686
-0.325126
-0.326284
-0.326551
-0.326199
-0.325172
-0.323343
-0.320575
-0.316724
-0.311655
-0.305251
-0.297428
-0.288146
-0.277427
-0.265359
-0.252105
-0.237902
-0.223055
-0.207922
-0.192873
-0.17842
-0.164412
-0.152979
-0.139592
-0.327191
-0.328937
-0.329646
-0.329603
-0.328988
-0.327714
-0.32564
-0.322615
-0.318486
-0.313113
-0.306385
-0.298232
-0.288642
-0.277669
-0.265446
-0.252182
-0.238157
-0.223708
-0.209209
-0.195004
-0.181616
-0.168772
-0.158533
-0.147059
-0.332962
-0.333889
-0.334019
-0.33354
-0.332546
-0.330932
-0.328543
-0.325212
-0.320777
-0.315095
-0.308063
-0.299626
-0.289802
-0.278683
-0.266442
-0.253325
-0.239641
-0.225731
-0.211951
-0.198627
-0.186142
-0.174473
-0.164831
-0.155168
-0.33972
-0.339727
-0.339145
-0.338084
-0.336563
-0.334471
-0.331643
-0.327902
-0.323074
-0.317015
-0.309626
-0.300874
-0.290804
-0.279545
-0.267305
-0.254354
-0.241004
-0.227581
-0.21439
-0.201718
-0.189778
-0.178779
-0.16911
-0.160428
-0.366957
-0.352502
-0.334646
-0.314173
-0.292667
-0.272248
-0.255248
-0.243931
-0.240102
-0.244306
-0.255379
-0.270138
-0.283699
-0.290461
-0.285502
-0.265989
-0.233455
-0.194197
-0.156325
-0.12579
-0.104967
-0.0935847
-0.0902164
-0.0938962
-0.105351
-0.124971
-0.147977
-0.16393
-0.163411
-0.146652
-0.121694
-0.097795
-0.08059
-0.0712845
-0.068437
-0.0722442
-0.0848107
-0.103407
-0.117741
-0.117058
-0.102297
-0.0831223
-0.0668283
-0.0562824
-0.0513426
-0.0536661
-0.0597122
-0.0621352
-0.0579266
-0.0516514
-0.0444
-0.040015
-0.0375253
-0.0368009
-0.0371782
-0.0358584
-0.0290051
-0.0221136
-0.0115107
-0.00222687
-0.309592
-0.297787
-0.284458
-0.270319
-0.256887
-0.246003
-0.239233
-0.238394
-0.244694
-0.25774
-0.275516
-0.294403
-0.309703
-0.316286
-0.309685
-0.287264
-0.250822
-0.207265
-0.165287
-0.131055
-0.106809
-0.0920829
-0.0854234
-0.085692
-0.0931601
-0.108384
-0.127841
-0.142589
-0.143924
-0.13109
-0.110475
-0.0904831
-0.0766362
-0.0701613
-0.0698151
-0.0762211
-0.0916711
-0.112828
-0.128524
-0.127278
-0.110497
-0.0884449
-0.0691548
-0.0561977
-0.0489556
-0.0490837
-0.0530187
-0.0545936
-0.0513851
-0.0468846
-0.0419591
-0.0394571
-0.039431
-0.0403446
-0.041484
-0.0401853
-0.0320469
-0.0242059
-0.0119191
-0.00184599
-0.254896
-0.24531
-0.236144
-0.227935
-0.22164
-0.220255
-0.222401
-0.230688
-0.245325
-0.265119
-0.287555
-0.309027
-0.325271
-0.331825
-0.324293
-0.300176
-0.261445
-0.215339
-0.170802
-0.134069
-0.107264
-0.0897647
-0.0800966
-0.0770571
-0.0805941
-0.0913395
-0.107026
-0.120364
-0.123521
-0.114267
-0.0979294
-0.0818904
-0.0714861
-0.0679146
-0.0701254
-0.0790911
-0.0972147
-0.120675
-0.13769
-0.136181
-0.11769
-0.0930628
-0.0709968
-0.0558003
-0.0464795
-0.044634
-0.0466412
-0.0473793
-0.044972
-0.0420298
-0.039327
-0.03874
-0.041319
-0.0439221
-0.0457056
-0.044347
-0.0349399
-0.0261852
-0.0123144
-0.00149211
-0.20899
-0.200918
-0.194447
-0.192303
-0.192231
-0.196698
-0.206277
-0.221487
-0.241907
-0.266029
-0.291253
-0.31414
-0.330847
-0.337329
-0.329512
-0.304823
-0.265372
-0.218485
-0.173028
-0.135087
-0.106635
-0.0870295
-0.0748217
-0.0687923
-0.068644
-0.0750298
-0.0867845
-0.0983038
-0.102725
-0.0967067
-0.0844849
-0.0722999
-0.0652646
-0.0645067
-0.0691653
-0.0804752
-0.10097
-0.126535
-0.144937
-0.143527
-0.123703
-0.0968806
-0.0723506
-0.0551359
-0.0439881
-0.0404276
-0.0407219
-0.0406236
-0.0387986
-0.037159
-0.0365374
-0.0378585
-0.0431601
-0.0474984
-0.0498027
-0.0482938
-0.0376475
-0.028028
-0.0126906
-0.00116454
-0.174938
-0.168103
-0.164384
-0.164413
-0.168579
-0.177609
-0.191829
-0.211132
-0.234767
-0.2611
-0.287609
-0.311023
-0.327425
-0.334014
-0.326289
-0.301952
-0.263259
-0.217337
-0.172589
-0.134646
-0.105361
-0.0842371
-0.0699795
-0.0614109
-0.0580226
-0.0603237
-0.0680765
-0.0773291
-0.0821767
-0.0789825
-0.0705724
-0.0619647
-0.0580537
-0.0598788
-0.0667585
-0.0801055
-0.10265
-0.130133
-0.149982
-0.14907
-0.128397
-0.099847
-0.0732419
-0.0542666
-0.0415449
-0.0365256
-0.0353431
-0.0344288
-0.0329672
-0.0323468
-0.0336209
-0.0368033
-0.0449178
-0.0510253
-0.0537203
-0.0519729
-0.040133
-0.0297118
-0.0130414
-0.000862594
-0.15173
-0.146147
-0.143663
-0.145406
-0.151801
-0.163134
-0.179418
-0.200317
-0.224951
-0.251721
-0.278355
-0.3021
-0.317589
-0.323633
-0.316102
-0.29282
-0.256122
-0.212689
-0.170057
-0.13319
-0.103819
-0.0817019
-0.0658341
-0.0551601
-0.0490734
-0.0478271
-0.0516825
-0.0582778
-0.0628772
-0.0617638
-0.0566429
-0.0511594
-0.0499816
-0.0540698
-0.0628815
-0.0779166
-0.102119
-0.131272
-0.152615
-0.152649
-0.131679
-0.10192
-0.0736888
-0.0532394
-0.0391901
-0.0329538
-0.0305422
-0.0288566
-0.0275572
-0.0276629
-0.0306062
-0.0355619
-0.046545
-0.0544366
-0.0574039
-0.055339
-0.0423627
-0.0312141
-0.0133579
-0.000584222
-0.139202
-0.134718
-0.132196
-0.134057
-0.140996
-0.152839
-0.169258
-0.189833
-0.213713
-0.239368
-0.264891
-0.290141
-0.302406
-0.307693
-0.300492
-0.27891
-0.245275
-0.205533
-0.166088
-0.13114
-0.102315
-0.0796693
-0.0625738
-0.0501863
-0.0418755
-0.0376771
-0.0380058
-0.0417606
-0.0455142
-0.0457053
-0.0431634
-0.0402329
-0.0412992
-0.0472609
-0.0576475
-0.0739362
-0.099332
-0.129876
-0.152753
-0.154209
-0.13349
-0.103065
-0.0736975
-0.0520851
-0.0369461
-0.0297073
-0.0263059
-0.0239272
-0.0226433
-0.0231733
-0.0275226
-0.0341194
-0.0479858
-0.0576596
-0.0608084
-0.0583507
-0.0443062
-0.0325158
-0.01363
-0.000325189
-0.135914
-0.132334
-0.1287
-0.129237
-0.13532
-0.146257
-0.161358
-0.180217
-0.202037
-0.225157
-0.24702
-0.263602
-0.28157
-0.287341
-0.280903
-0.261676
-0.231949
-0.19672
-0.161148
-0.128697
-0.10092
-0.0781693
-0.0602073
-0.046476
-0.0363878
-0.0298178
-0.0271327
-0.0280936
-0.0305874
-0.0321992
-0.0305649
-0.0295706
-0.0323372
-0.0396998
-0.051244
-0.0683318
-0.0944057
-0.125989
-0.150451
-0.153787
-0.133802
-0.103262
-0.0732752
-0.0508285
-0.034828
-0.0267775
-0.0225982
-0.0196204
-0.0182675
-0.0189364
-0.0244003
-0.0324618
-0.0491804
-0.060622
-0.0638861
-0.0609697
-0.0459384
-0.033606
-0.0138546
-7.94201e-05
-0.139839
-0.136411
-0.131109
-0.129797
-0.133988
-0.142741
-0.155355
-0.171501
-0.190383
-0.210548
-0.230332
-0.246646
-0.259874
-0.264561
-0.259004
-0.24261
-0.217326
-0.187015
-0.15563
-0.125999
-0.0996428
-0.0771793
-0.0587084
-0.0439811
-0.0325239
-0.0241106
-0.0189757
-0.0173342
-0.0181508
-0.0193371
-0.0190609
-0.0195435
-0.0234387
-0.0316929
-0.0439093
-0.0612536
-0.0875426
-0.119842
-0.145889
-0.151559
-0.13265
-0.102588
-0.0725242
-0.0495748
-0.0328998
-0.0241766
-0.0194081
-0.0159193
-0.0144475
-0.0149956
-0.0212687
-0.0305718
-0.0500754
-0.0632447
-0.0665866
-0.063165
-0.0472443
-0.0344796
-0.0140412
0.000157846
-0.146988
-0.142881
-0.136552
-0.133792
-0.13553
-0.141183
-0.150528
-0.163283
-0.178592
-0.195319
-0.212784
-0.226887
-0.237008
-0.24094
-0.236645
-0.223506
-0.202904
-0.17757
-0.150419
-0.123762
-0.0990999
-0.0772546
-0.0585816
-0.0431131
-0.0305654
-0.0206837
-0.0135668
-0.00957753
-0.00845949
-0.00872318
-0.0090453
-0.0104449
-0.0148819
-0.023523
-0.0359764
-0.0532295
-0.0792008
-0.111678
-0.139266
-0.147901
-0.130161
-0.101218
-0.0716444
-0.0485243
-0.0312958
-0.0219273
-0.0167032
-0.0128388
-0.0112331
-0.0113795
-0.0181539
-0.0284601
-0.050607
-0.0654362
-0.0688623
-0.0649097
-0.0482116
-0.0351238
-0.0141885
0.000390463
-0.15325
-0.148271
-0.142211
-0.138719
-0.138013
-0.140426
-0.146294
-0.155373
-0.166936
-0.180193
-0.193789
-0.205125
-0.213776
-0.217649
-0.215058
-0.20544
-0.189555
-0.169121
-0.146175
-0.122579
-0.0997757
-0.0787516
-0.0600778
-0.0440253
-0.030545
-0.0194612
-0.0107425
-0.0046811
-0.00153352
-0.000638263
-0.000817512
-0.00249473
-0.00697685
-0.0154759
-0.0275537
-0.0441145
-0.0695456
-0.102373
-0.130984
-0.144427
-0.126059
-0.0988874
-0.0703619
-0.0474772
-0.0298882
-0.0199141
-0.0142541
-0.0102185
-0.00866371
-0.00821803
-0.0150774
-0.0260575
-0.050753
-0.0671319
-0.070655
-0.0661434
-0.0487916
-0.035503
-0.014239
0.000639715
-0.156371
-0.151703
-0.146629
-0.142401
-0.140111
-0.140232
-0.143004
-0.148265
-0.15567
-0.16489
-0.174228
-0.184078
-0.190581
-0.193804
-0.192429
-0.185704
-0.1738
-0.157614
-0.138474
-0.11786
-0.097116
-0.0773175
-0.0591895
-0.0431461
-0.0293006
-0.0176504
-0.00807797
-0.000601384
0.00428781
0.00624719
0.00590615
0.00445046
-9.72063e-05
-0.00817361
-0.0196621
-0.0352843
-0.0594552
-0.0913699
-0.12028
-0.134361
-0.118873
-0.0943417
-0.0672396
-0.045128
-0.0277417
-0.0176529
-0.0116494
-0.00755162
-0.00619593
-0.00531211
-0.0121893
-0.0235383
-0.0503959
-0.0682162
-0.0719456
-0.0668449
-0.0488922
-0.0355786
-0.0140895
0.000955193
-0.153591
-0.151903
-0.147138
-0.142443
-0.13964
-0.139124
-0.140856
-0.144738
-0.150531
-0.157683
-0.16521
-0.172356
-0.177457
-0.179473
-0.177352
-0.170574
-0.15932
-0.144357
-0.126801
-0.107901
-0.0888005
-0.0704229
-0.053402
-0.0381166
-0.0246812
-0.0131427
-0.00342386
0.00453152
0.010377
0.0135535
0.0141745
0.0125371
0.0081747
0.00116035
-0.00904685
-0.0237336
-0.0481014
-0.0820824
-0.113856
-0.132882
-0.113518
-0.0891679
-0.0627126
-0.0414082
-0.0246397
-0.0150723
-0.0090687
-0.0048608
-0.00311468
-0.00138142
-0.00839027
-0.0201156
-0.0494366
-0.0694134
-0.0732332
-0.0674252
-0.0486252
-0.0354049
-0.0137724
0.001289
-0.149759
-0.149671
-0.145231
-0.140319
-0.137238
-0.136399
-0.137525
-0.140315
-0.144467
-0.149477
-0.154723
-0.159483
-0.162546
-0.162948
-0.159972
-0.153264
-0.142965
-0.129649
-0.114153
-0.0974322
-0.0803834
-0.0637652
-0.0481357
-0.0338521
-0.021069
-0.00991187
-0.000321707
0.00782515
0.0141864
0.0179474
0.0187404
0.0172703
0.0137707
0.00796238
-0.00092259
-0.0145096
-0.0386063
-0.0733633
-0.104819
-0.109122
-0.104311
-0.081854
-0.05721
-0.0375001
-0.0217735
-0.012659
-0.00670654
-0.00268276
-0.000811233
0.00110604
-0.00562389
-0.0173701
-0.0483518
-0.0701483
-0.0736646
-0.0671877
-0.0478673
-0.0348002
-0.0133531
0.00146606
-0.143423
-0.144811
-0.141279
-0.136622
-0.133478
-0.132395
-0.132968
-0.134732
-0.13738
-0.140606
-0.143913
-0.146632
-0.147977
-0.147257
-0.143924
-0.137673
-0.128531
-0.116857
-0.103244
-0.0884196
-0.0731133
-0.0579783
-0.043524
-0.0301126
-0.0179163
-0.00709055
0.00234008
0.0104711
0.0170588
0.021312
0.0226564
0.0215902
0.0185733
0.0135719
0.00543213
-0.00765948
-0.0311934
-0.0645175
-0.0940188
-0.101091
-0.0944798
-0.0740293
-0.0515107
-0.0334882
-0.0188617
-0.0102606
-0.00444303
-0.000598554
0.00132191
0.00318018
-0.00350963
-0.0153212
-0.0471985
-0.0701664
-0.0733286
-0.0662969
-0.0467158
-0.033869
-0.0128893
0.00156663
-0.135227
-0.138224
-0.135858
-0.131706
-0.128599
-0.127271
-0.127342
-0.128301
-0.129822
-0.131629
-0.133361
-0.134581
-0.134738
-0.133281
-0.12975
-0.123869
-0.115613
-0.105223
-0.0931396
-0.0799307
-0.0661821
-0.0524382
-0.0391379
-0.0266236
-0.0150733
-0.00465246
0.00454324
0.0125436
0.0192121
0.0239068
0.0258914
0.0254579
0.0232044
0.0190965
0.0116154
-0.00102808
-0.0233778
-0.0545125
-0.0825648
-0.0912901
-0.0839596
-0.0656211
-0.045422
-0.0292636
-0.0158983
-0.00789393
-0.00226887
0.00142564
0.00333795
0.00514912
-0.00157036
-0.0132985
-0.045459
-0.0693119
-0.0723016
-0.0647704
-0.0451683
-0.032596
-0.0123483
0.00161221
-0.126366
-0.130509
-0.129214
-0.125681
-0.12273
-0.121252
-0.120959
-0.121326
-0.121994
-0.122733
-0.123329
-0.123469
-0.122736
-0.1207
-0.116997
-0.111406
-0.10389
-0.0946086
-0.0838774
-0.0721188
-0.0597867
-0.0473275
-0.0351162
-0.0234736
-0.0125876
-0.00262406
0.00628559
0.0140967
0.0207137
0.0256666
0.0282346
0.0286359
0.027415
0.0244968
0.0180788
0.00632973
-0.0146391
-0.0439929
-0.0706178
-0.0798172
-0.0727791
-0.0567953
-0.0391154
-0.0249237
-0.012924
-0.00557453
-0.000190344
0.00338124
0.00521232
0.00698504
0.000365916
-0.0109367
-0.0428822
-0.0674442
-0.070423
-0.0625098
-0.0431815
-0.0309682
-0.0117161
0.00160543
-0.117129
-0.121951
-0.12158
-0.118722
-0.116046
-0.114531
-0.113989
-0.113926
-0.113989
-0.113989
-0.113771
-0.113113
-0.111715
-0.109262
-0.105478
-0.100186
-0.093334
-0.0850194
-0.0754584
-0.0649652
-0.0538926
-0.0426069
-0.0314266
-0.0206402
-0.0104379
-0.000984245
0.00757848
0.015154
0.0216351
0.0267084
0.0297523
0.0309542
0.0308415
0.0293686
0.0244591
0.0138378
-0.00598606
-0.0336222
-0.0582474
-0.067231
-0.0611876
-0.0478075
-0.0327423
-0.0205378
-0.00996605
-0.00331453
0.00177961
0.005256
0.00695361
0.00867033
0.00230775
-0.00825109
-0.039414
-0.0643456
-0.0675056
-0.0594536
-0.040742
-0.0289912
-0.0109758
0.00155385
-0.107631
-0.112868
-0.11326
-0.11106
-0.108724
-0.10726
-0.106576
-0.106236
-0.105904
-0.105402
-0.104616
-0.103402
-0.101559
-0.098857
-0.0950839
-0.0900928
-0.0838287
-0.0763476
-0.0678008
-0.0584228
-0.0484844
-0.0382807
-0.0280781
-0.018129
-0.00861868
0.000287892
0.00844741
0.0157451
0.0220474
0.0271486
0.0305315
0.032388
0.0332403
0.0331542
0.029845
0.0203728
0.00176572
-0.0236855
-0.0457078
-0.0541157
-0.0495326
-0.0389164
-0.0264712
-0.0161958
-0.00705749
-0.00112498
0.00363419
0.00704597
0.00858515
0.0102082
0.00421575
-0.00534355
-0.0349927
-0.0598362
-0.0634305
-0.0555865
-0.0378617
-0.0266862
-0.0101131
0.00147011
-0.0981602
-0.103568
-0.104534
-0.102923
-0.100952
-0.0996105
-0.0988812
-0.0983858
-0.0978072
-0.0969852
-0.0958401
-0.094283
-0.0921774
-0.089357
-0.085661
-0.0809722
-0.0752398
-0.0684962
-0.0608459
-0.052461
-0.0435472
-0.0343392
-0.0250587
-0.0159241
-0.00710884
0.00122574
0.00893609
0.0159126
0.0220066
0.0270578
0.0306573
0.032987
0.0345152
0.0354189
0.0333895
0.0251334
0.00828811
-0.0142898
-0.0333154
-0.0410926
-0.0382478
-0.0303982
-0.0204682
-0.0119903
-0.00423088
0.000987534
0.00537478
0.00874932
0.0101361
0.011617
0.00609227
-0.00223447
-0.029591
-0.0538608
-0.0581544
-0.0509394
-0.0345813
-0.0240947
-0.00911678
0.00137129
-0.0888929
-0.0942661
-0.095638
-0.0945348
-0.0929239
-0.0917473
-0.0910385
-0.0904754
-0.0897689
-0.0887746
-0.0874348
-0.0856951
-0.0834663
-0.0806315
-0.0770716
-0.0726963
-0.0674611
-0.0613828
-0.0545325
-0.0470363
-0.0390504
-0.0307603
-0.0223491
-0.0140034
-0.00588093
0.00186612
0.00909522
0.0157061
0.0215525
0.0264903
0.0302025
0.0328353
0.0347346
0.0361001
0.0348652
0.0279463
0.0135294
-0.00558773
-0.0215911
-0.028877
-0.0278068
-0.0225103
-0.0148757
-0.00801024
-0.00152156
0.00301567
0.0070089
0.010365
0.0116447
0.012947
0.00801059
0.00108448
-0.0233123
-0.0465284
-0.0517377
-0.0456007
-0.030973
-0.0212795
-0.0079812
0.00127778
-0.0799281
-0.0851329
-0.0867705
-0.086085
-0.0848072
-0.0838124
-0.083168
-0.0826027
-0.0818572
-0.0807997
-0.0793858
-0.0775853
-0.0753431
-0.0725794
-0.0692076
-0.0651583
-0.0603944
-0.0549235
-0.0487945
-0.0421003
-0.0349594
-0.0275178
-0.0199249
-0.0123388
-0.00490094
0.0022502
0.00897719
0.0151833
0.0207338
0.0255045
0.0292378
0.032026
0.0340798
0.0355224
0.0347022
0.0291474
0.0174807
0.00197113
-0.0112799
-0.0181571
-0.0186099
-0.0154472
-0.0097954
-0.00432938
0.00103291
0.00494432
0.00854383
0.0118923
0.01316
0.0142859
0.010071
0.00457473
-0.0164137
-0.0381425
-0.0443778
-0.0397209
-0.0271365
-0.0183231
-0.00670779
0.00121144
-0.0713696
-0.0762985
-0.0780787
-0.0777234
-0.0767413
-0.0759302
-0.0753772
-0.0748545
-0.0741314
-0.0730883
-0.0716891
-0.0699195
-0.0677481
-0.0651214
-0.0619773
-0.0582635
-0.0539503
-0.0490409
-0.0435696
-0.0376049
-0.0312371
-0.0245805
-0.0177567
-0.0108982
-0.00413019
0.0024233
0.00863494
0.0144099
0.0196223
0.0241701
0.027837
0.030663
0.0327372
0.034078
0.0334786
0.0291465
0.0200568
0.0078483
-0.0029808
-0.00935891
-0.0108662
-0.00931107
-0.0052841
-0.00100037
0.00339659
0.00674966
0.00997588
0.0133201
0.0147174
0.0157343
0.012355
0.00814832
-0.00928913
-0.0292045
-0.0364173
-0.0335083
-0.0231901
-0.0153241
-0.00531086
0.0011929
-0.0632569
-0.0678406
-0.0696735
-0.0695741
-0.0688473
-0.0682104
-0.0677608
-0.0673078
-0.0666481
-0.0656719
-0.0643495
-0.062676
-0.0606352
-0.0581927
-0.0553045
-0.0519321
-0.0480524
-0.0436669
-0.0387999
-0.0335027
-0.0278442
-0.0219144
-0.0158116
-0.00964652
-0.00352795
0.00243408
0.00812305
0.0134488
0.0182959
0.0225682
0.0260912
0.0288611
0.0308715
0.0320603
0.0315965
0.0282469
0.0212989
0.0118881
0.0031867
-0.00252053
-0.00458245
-0.00411786
-0.00135942
0.0019468
0.0055374
0.00840666
0.0112912
0.014615
0.0162865
0.0173779
0.0148935
0.0116812
-0.00242415
-0.0203625
-0.0283194
-0.0272133
-0.0192585
-0.0123873
-0.00382814
0.00123461
-0.0556081
-0.0598229
-0.061646
-0.061738
-0.0612249
-0.0607459
-0.0604002
-0.0600294
-0.0594562
-0.0585809
-0.0573754
-0.0558404
-0.05397
-0.0517429
-0.0491284
-0.0460984
-0.0426356
-0.0387407
-0.0344317
-0.0297476
-0.0247414
-0.0194843
-0.0140556
-0.00854749
-0.00305329
0.00233008
0.00749779
0.012364
0.0168248
0.0207879
0.0241074
0.0267487
0.0286434
0.0296901
0.0293296
0.0267483
0.0214999
0.0143645
0.00750733
0.0025962
0.000373031
0.000174231
0.00198691
0.00450261
0.00742813
0.00989139
0.0124753
0.0157344
0.0177459
0.0192096
0.0175721
0.0149746
0.00367073
-0.0122747
-0.0205786
-0.0210973
-0.0154611
-0.00960997
-0.00232619
0.00133105
-0.0484656
-0.0522959
-0.0540571
-0.0542848
-0.053946
-0.0536046
-0.0533578
-0.0530737
-0.0525985
-0.051841
-0.0507749
-0.0494035
-0.0477271
-0.0457332
-0.0434003
-0.0407083
-0.0376443
-0.0342091
-0.0304165
-0.0262966
-0.0218908
-0.0172555
-0.012455
-0.0075654
-0.00266662
0.00215652
0.00681267
0.0112194
0.0152819
0.0189146
0.0219925
0.0244582
0.0262159
0.0271527
0.0268974
0.0249374
0.0210185
0.0156874
0.0103938
0.00632035
0.00418723
0.00363983
0.00477925
0.00667165
0.0090515
0.0111809
0.0135083
0.0166414
0.0189271
0.0207835
0.0200063
0.0176887
0.00855007
-0.00541216
-0.0135956
-0.0153975
-0.0119039
-0.00707159
-0.000893291
0.00145491
-0.0418392
-0.0452761
-0.0469388
-0.0472589
-0.0470607
-0.0468372
-0.0466808
-0.0464819
-0.0461071
-0.0454733
-0.0445559
-0.0433593
-0.0418874
-0.0401329
-0.0380811
-0.0357172
-0.0330321
-0.0300266
-0.0267117
-0.0231109
-0.019257
-0.0151953
-0.0109774
-0.00666679
-0.00233085
0.00195659
0.00611662
0.0100714
0.013736
0.0170307
0.0198462
0.0221143
0.0237337
0.0245981
0.0244623
0.023021
0.0201462
0.016225
0.0122146
0.00894405
0.00704704
0.00636879
0.00705258
0.00846719
0.0104021
0.0122564
0.0143566
0.0172911
0.0197114
0.0218025
0.021688
0.0194435
0.0119585
3.10794e-05
-0.00762569
-0.0103104
-0.00867124
-0.00483231
0.000367732
0.00156437
-0.0357064
-0.0387646
-0.0403108
-0.0406909
-0.0406048
-0.0404803
-0.0404033
-0.0402825
-0.0400039
-0.0394919
-0.0387235
-0.0377028
-0.0364354
-0.0349177
-0.0331392
-0.031089
-0.0287603
-0.0261544
-0.02328
-0.020156
-0.0168083
-0.0132736
-0.00959357
-0.0058212
-0.00201249
0.00176799
0.00545237
0.00897033
0.012247
0.0152079
0.0177559
0.0198225
0.0213126
0.0221366
0.0221314
0.0211288
0.0190749
0.0162439
0.013264
0.0107205
0.00912798
0.0084563
0.00884935
0.00990928
0.0114824
0.0131015
0.0149857
0.0176343
0.0200138
0.0220291
0.022304
0.0201022
0.0139369
0.00406503
-0.00280809
-0.00597989
-0.00581606
-0.0029278
0.00135676
0.00161752
-0.0300583
-0.0327622
-0.0341826
-0.0345972
-0.0345982
-0.0345548
-0.0345455
-0.0344963
-0.0343022
-0.0339041
-0.0332785
-0.0324279
-0.031358
-0.0300676
-0.028549
-0.026794
-0.0247973
-0.0225604
-0.0200902
-0.0174023
-0.014517
-0.0114643
-0.00827813
-0.00500225
-0.0016834
0.00162257
0.00485814
0.00796093
0.0108645
0.0135019
0.0157892
0.0176628
0.0190371
0.0198427
0.0199689
0.0193327
0.0179195
0.0159309
0.0137729
0.0118578
0.0105836
0.00999609
0.0102181
0.0110218
0.0123
0.0137046
0.0153752
0.0176642
0.0198374
0.0215492
0.0219383
0.0198536
0.0147668
0.0068176
0.000837373
-0.00247603
-0.00336791
-0.00136078
0.00202021
0.00158913
-0.0248863
-0.0272584
-0.0285475
-0.0289769
-0.0290444
-0.0290666
-0.0291131
-0.0291186
-0.0290006
-0.0287085
-0.0282183
-0.027528
-0.0266436
-0.0255659
-0.0242897
-0.0228081
-0.0211173
-0.0192182
-0.0171167
-0.0148252
-0.0123602
-0.00974603
-0.00701003
-0.00418875
-0.00132088
0.00154645
0.00436422
0.00707739
0.00962835
0.0119586
0.0139971
0.0156911
0.0169625
0.0177602
0.0180076
0.0176723
0.0167557
0.0154146
0.0139101
0.0125171
0.0115433
0.0110761
0.0112102
0.0118308
0.0128674
0.01407
0.0155218
0.0174169
0.0192747
0.0205987
0.0209048
0.0190135
0.0148123
0.00851302
0.00341867
0.000217664
-0.00133763
-0.000119945
0.00237317
0.00148429
-0.0201644
-0.0222313
-0.0233912
-0.0238218
-0.0239397
-0.0240133
-0.0241047
-0.0241597
-0.0241079
-0.0239082
-0.0235385
-0.0229947
-0.0222807
-0.0213981
-0.0203436
-0.0191118
-0.0176993
-0.0161066
-0.0143386
-0.0124053
-0.0103198
-0.00810175
-0.00577345
-0.00336498
-0.00090784
0.00155769
0.00399036
0.0063433
0.00856691
0.0106104
0.0124155
0.013944
0.0151202
0.0159108
0.0162623
0.0161679
0.015632
0.0147798
0.0137984
0.0128183
0.0121133
0.0117769
0.0118762
0.0123663
0.0132055
0.0142139
0.0154429
0.0169485
0.0184483
0.0193901
0.0195229
0.0178555
0.0143901
0.0094231
0.00512903
0.00218992
0.000286548
0.000819914
0.00247906
0.00133438
-0.0158663
-0.0176587
-0.0186958
-0.0191186
-0.0192741
-0.0193882
-0.0195159
-0.0196138
-0.0196217
-0.019498
-0.0192321
-0.0188181
-0.0182572
-0.0175505
-0.0166957
-0.0156887
-0.0145264
-0.013209
-0.01174
-0.0101275
-0.00838208
-0.00651944
-0.00455745
-0.00252069
-0.000435057
0.00166605
0.00374875
0.00577277
0.00769621
0.00947868
0.01108
0.0124407
0.013525
0.0143026
0.014733
0.0148233
0.014576
0.0140815
0.0134311
0.012841
0.0123792
0.0121704
0.0122659
0.0126622
0.0133392
0.014164
0.0151725
0.0163199
0.0174653
0.0180766
0.0180237
0.0165693
0.013721
0.00979681
0.00617951
0.0035636
0.00153748
0.00150049
0.00242591
0.00111632
-0.0119702
-0.0135171
-0.0144393
-0.0148483
-0.0150309
-0.0151765
-0.0153323
-0.0154633
-0.0155166
-0.015459
-0.0152839
-0.014985
-0.0145604
-0.01401
-0.0133325
-0.012525
-0.0115849
-0.010512
-0.00930867
-0.00798126
-0.00653802
-0.00499155
-0.00335612
-0.00165149
0.000101317
0.0018749
0.00364158
0.00536853
0.00702053
0.00856209
0.00995758
0.0111735
0.0121733
0.0129305
0.0134151
0.0136405
0.0136065
0.0133853
0.0130305
0.0126896
0.0124188
0.01232
0.0124266
0.0127541
0.0132968
0.0139528
0.0147518
0.0155899
0.0164017
0.0167529
0.016546
0.0152766
0.0129369
0.0098194
0.00675865
0.00446464
0.00246301
0.00197662
0.00230355
0.000981986
-0.00845094
-0.00978003
-0.0105966
-0.0109881
-0.01119
-0.0113596
-0.011537
-0.011694
-0.0117882
-0.0117908
-0.0116878
-0.0114843
-0.011177
-0.0107633
-0.0102412
-0.00960866
-0.00886352
-0.00800535
-0.0070357
-0.00595918
-0.0047822
-0.00351469
-0.00216789
-0.0007575
0.000699576
0.00218159
0.00366587
0.00512519
0.00653246
0.00785825
0.00906956
0.0101474
0.0110543
0.0117806
0.0122959
0.0126135
0.012732
0.0127093
0.0125685
0.0124159
0.0122927
0.0122813
0.0124028
0.0126773
0.0131074
0.0136136
0.0142235
0.0148061
0.0153434
0.015482
0.0151626
0.0140477
0.0121131
0.00961785
0.00701426
0.00497446
0.00311806
0.00230576
0.00216562
0.000870646
-0.00528228
-0.00642029
-0.00714146
-0.00751372
-0.0077287
-0.00791586
-0.0081091
-0.0082857
-0.00841087
-0.00846006
-0.00842347
-0.00829984
-0.0080921
-0.00779647
-0.00740936
-0.00692862
-0.00635269
-0.00568112
-0.00491481
-0.00405698
-0.00311245
-0.00208888
-0.000995025
0.000156878
0.00135354
0.00257766
0.00381112
0.00503265
0.00621979
0.00734927
0.00839558
0.00933864
0.0101545
0.0108349
0.0113587
0.0117329
0.0119543
0.0120615
0.0120736
0.01206
0.0120478
0.0121013
0.012235
0.012466
0.0128022
0.0131795
0.013623
0.0140007
0.0143175
0.014298
0.013903
0.0129151
0.0112975
0.00928106
0.00706159
0.00528152
0.00356114
0.00253089
0.00203877
0.000783858
-0.00244008
-0.00341185
-0.00404784
-0.00440023
-0.00462361
-0.00482342
-0.00502793
-0.00521915
-0.00536863
-0.0054564
-0.00547344
-0.00541845
-0.00529239
-0.00509597
-0.00482451
-0.00447434
-0.0040439
-0.00353285
-0.00294169
-0.00227262
-0.00152913
-0.00071697
0.000157155
0.00108388
0.00205293
0.00305088
0.00406354
0.00507408
0.00606462
0.00701722
0.00791197
0.00873285
0.00945968
0.0100846
0.0105912
0.0109895
0.0112702
0.0114633
0.0115754
0.011657
0.0117226
0.0118199
0.0119594
0.0121531
0.0124112
0.0126807
0.0129825
0.0131991
0.0133448
0.013213
0.0127718
0.0118899
0.0105191
0.00886647
0.00697438
0.00539494
0.00382989
0.00267861
0.00193239
0.000718713
9.88663e-05
-0.000729257
-0.00128995
-0.00162276
-0.00185096
-0.00205952
-0.00227165
-0.00247328
-0.00264155
-0.00276005
-0.00282141
-0.00282363
-0.00276688
-0.00265107
-0.0024753
-0.00223566
-0.00192929
-0.00155517
-0.00111347
-0.000605744
-3.45064e-05
0.000596086
0.00128099
0.0020132
0.00278491
0.00358591
0.0044052
0.0052298
0.00604583
0.00683934
0.00759445
0.00829892
0.00893628
0.00950035
0.00997804
0.0103744
0.010682
0.0109212
0.0110934
0.0112334
0.0113482
0.0114709
0.0116088
0.011769