/*--------------------------------*- C++ -*----------------------------------*\
| =========                 |                                                 |
| \\      /  F ield         | OpenFOAM: The Open Source CFD Toolbox           |
|  \\    /   O peration     | Version:  2512                                  |
|   \\  /    A nd           | Website:  www.openfoam.com                      |
|    \\/     M anipulation  |                                                 |
\*---------------------------------------------------------------------------*/
FoamFile
{
    version     2.0;
    format      ascii;
    arch        "LSB;label=32;scalar=64";
    class       surfaceScalarField;
    location    "197";
    object      phi;
}
// * * * * * * * * * * * * * * * * * * * * * * * * * * * * * * * * * * * * * //

dimensions      [0 3 -1 0 0 0 0];

oriented        oriented;

internalField   nonuniform List<scalar> 
26232
(
3.20832e-05
0.000802386
-0.00083447
0.000262995
0.00124545
-0.00147636
0.00085487
0.000738451
-0.00133033
0.0019817
-0.000628462
-0.000498368
0.003821
-0.00281146
0.000972156
0.00654544
-0.00578936
0.00306492
0.0103118
-0.00954637
0.00577998
0.0152474
-0.014055
0.0091194
0.0214347
-0.0192614
0.0130742
0.0288968
-0.0250766
0.0176145
0.0375884
-0.0313752
0.0226836
0.0473924
-0.0380013
0.0281973
0.0581258
-0.0447812
0.0340477
0.0695539
-0.0515383
0.0401102
0.0814092
-0.0581093
0.0462539
0.0934149
-0.0643573
0.0523517
0.105307
-0.0701819
0.05829
0.116854
-0.0755245
0.0639772
0.127875
-0.0803672
0.069346
0.138247
-0.0847373
0.0743657
0.147905
-0.0886724
0.0790146
0.156848
-0.0923013
0.0833583
0.16509
-0.0955805
0.0873382
-0.0989177
0.0915044
0.172503
0.000112231
0.000690155
0.000596082
0.000761597
0.00162708
-0.000292551
0.00339108
-0.00239246
0.00607313
-0.0054935
0.00984236
-0.00955859
0.0148324
-0.0145364
0.0211197
-0.0203423
0.0287044
-0.0268461
0.0374984
-0.0338707
0.0473254
-0.0412021
0.0579335
-0.0486093
0.0690194
-0.0558671
0.0802598
-0.0627787
0.0913441
-0.0691936
0.102004
-0.0750175
0.112038
-0.0802157
0.121322
-0.0848084
0.129816
-0.0888608
0.137551
-0.092472
0.144627
-0.0957493
0.151166
-0.0988402
0.157334
-0.101748
-0.10488
0.163296
0.000192801
0.000497354
0.000941452
1.29462e-05
0.00243989
-0.00179099
0.00488374
-0.00483631
0.0084542
-0.00906397
0.0132931
-0.0143975
0.0194739
-0.0207172
0.0269762
-0.0278445
0.0356706
-0.0355405
0.0453227
-0.0435228
0.0556149
-0.0514943
0.0661837
-0.0591781
0.0766643
-0.0663477
0.0867337
-0.0728481
0.0961449
-0.0786048
0.104748
-0.0836207
0.112495
-0.087963
0.119432
-0.0917447
0.125673
-0.0951023
0.131379
-0.0981777
0.136725
-0.101096
0.141862
-0.103977
0.146951
-0.106837
-0.10996
0.152031
0.00028123
0.000216124
0.00131762
-0.00102344
0.00331881
-0.00379219
0.00647987
-0.00799736
0.0109551
-0.0135392
0.016822
-0.0202644
0.0240471
-0.0279424
0.0324674
-0.0362648
0.0417962
-0.0448694
0.0516566
-0.0533832
0.0616335
-0.0614712
0.0713326
-0.0688773
0.080433
-0.075448
0.0887217
-0.0811368
0.0961078
-0.0859909
0.102614
-0.0901273
0.108354
-0.0937023
0.113492
-0.096883
0.118214
-0.0998245
0.122692
-0.102655
0.127067
-0.10547
0.131433
-0.108343
0.13587
-0.111274
-0.114452
0.140362
0.000383928
-0.000167804
0.00173827
-0.00237779
0.00427638
-0.00633029
0.00817071
-0.0118917
0.013513
-0.0188815
0.0202704
-0.0270217
0.0282586
-0.0359306
0.0371489
-0.045155
0.0465113
-0.0542318
0.0558841
-0.062756
0.064848
-0.0704351
0.0730866
-0.0771159
0.0804199
-0.0827814
0.0868082
-0.087525
0.0923285
-0.0915113
0.0971362
-0.094935
0.101421
-0.097987
0.105368
-0.100831
0.109136
-0.103592
0.112838
-0.106358
0.116553
-0.109185
0.120319
-0.112109
0.124172
-0.115127
-0.118359
0.128079
0.000503812
-0.000671617
0.00220535
-0.00407933
0.00529868
-0.00942361
0.00989995
-0.016493
0.015994
-0.0249755
0.0233943
-0.0344221
0.0317447
-0.0442809
0.0405697
-0.05398
0.0493615
-0.0630237
0.0576718
-0.0710663
0.0651814
-0.0779447
0.0717323
-0.0836668
0.0773204
-0.0883695
0.0820586
-0.0922633
0.0861271
-0.0955797
0.0897237
-0.0985317
0.0930281
-0.101291
0.0961821
-0.103985
0.0992851
-0.106695
0.1024
-0.109473
0.105562
-0.112348
0.108788
-0.115335
0.112094
-0.118433
-0.121706
0.115441
0.000639416
-0.00131103
0.00270574
-0.00614565
0.00634114
-0.013059
0.0115636
-0.0217154
0.0182078
-0.0316198
0.025911
-0.0421253
0.0341628
-0.0525327
0.0424076
-0.0622248
0.0501569
-0.0707729
0.0570727
-0.0779821
0.0630008
-0.0838728
0.0679548
-0.0886208
0.0720678
-0.0924825
0.075533
-0.0957284
0.0785511
-0.0985978
0.0812961
-0.101277
0.0838997
-0.103895
0.0864515
-0.106536
0.0890068
-0.10925
0.0915966
-0.112062
0.0942365
-0.114987
0.0969316
-0.11803
0.0996872
-0.121189
-0.124491
0.102472
0.000785239
-0.00209627
0.00321313
-0.00857354
0.00733501
-0.0171809
0.0130282
-0.0274085
0.0199499
-0.0385416
0.027572
-0.0497474
0.0352906
-0.0602512
0.042562
-0.0694962
0.049007
-0.077218
0.0544521
-0.0834272
0.0589094
-0.0883301
0.062519
-0.0922304
0.0654809
-0.0954443
0.0679983
-0.0982459
0.0702433
-0.100843
0.0723428
-0.103376
0.0743816
-0.105934
0.0764107
-0.108566
0.0784588
-0.111298
0.0805405
-0.114144
0.0826617
-0.117109
0.0848237
-0.120192
0.087027
-0.123392
-0.126713
0.0892486
0.000932839
-0.00302911
0.00369258
-0.0113333
0.00819981
-0.0216881
0.0141589
-0.0333676
0.0210494
-0.0454321
0.0282263
-0.0569243
0.0350764
-0.0671014
0.041153
-0.0755727
0.0462353
-0.0823004
0.0503128
-0.0875046
0.0535196
-0.091537
0.0560585
-0.0947692
0.0581368
-0.0975226
0.0599288
-0.100038
0.0615619
-0.102476
0.0631194
-0.104934
0.0646511
-0.107466
0.0661847
-0.110099
0.0677342
-0.112848
0.0693067
-0.115716
0.0709042
-0.118706
0.0725267
-0.121815
0.0741725
-0.125038
-0.128367
0.0758272
0.00107185
-0.00410096
0.00410573
-0.0143672
0.00885756
-0.02644
0.0148461
-0.0393561
0.0214049
-0.051991
0.0278451
-0.0633644
0.0336251
-0.0728814
0.0384451
-0.0803928
0.0422453
-0.0861006
0.0451389
-0.0903982
0.0473255
-0.0937236
0.049018
-0.0964617
0.0503973
-0.0989019
0.0515959
-0.101236
0.0526999
-0.10358
0.05376
-0.105994
0.0548041
-0.10851
0.0558468
-0.111142
0.0568956
-0.113896
0.0579536
-0.116775
0.0590217
-0.119774
0.060099
-0.122892
0.0611828
-0.126122
-0.12945
0.0622657
0.0011917
-0.00529267
0.00441737
-0.0175928
0.00924646
-0.031269
0.0150245
-0.0451341
0.0209966
-0.0579631
0.0265065
-0.0688743
0.0311397
-0.0775146
0.0347538
-0.0840069
0.0374189
-0.0887657
0.0393221
-0.0923014
0.0406806
-0.0950821
0.041686
-0.0974671
0.0424805
-0.0996965
0.043157
-0.101913
0.0437699
-0.104193
0.0443489
-0.106573
0.0449094
-0.10907
0.0454595
-0.111692
0.0460035
-0.11444
0.0465431
-0.117314
0.0470783
-0.12031
0.0476076
-0.123421
0.0481273
-0.126641
-0.129957
0.0486346
0.00128557
-0.00657823
0.00460313
-0.0209104
0.00933112
-0.035997
0.0146802
-0.0504832
0.0198771
-0.0631601
0.0243605
-0.0733576
0.0278646
-0.0810187
0.0303841
-0.0865264
0.0320755
-0.0904571
0.0331553
-0.0933811
0.0338273
-0.0957542
0.0342485
-0.0978882
0.0345228
-0.0999708
0.0347119
-0.102102
0.0348488
-0.10433
0.0349505
-0.106675
0.0350258
-0.109145
0.0350794
-0.111745
0.0351142
-0.114475
0.0351317
-0.117332
0.035132
-0.12031
0.0351136
-0.123403
0.0350725
-0.1266
0.0350084
-0.129893
-0.00021228
-0.0026136
0.00282588
-0.000786142
-0.00641149
0.00698535
-0.00168093
-0.00917138
0.0100662
-0.00285353
-0.0110852
0.0122578
-0.0042589
-0.012345
0.0137503
-0.00585451
-0.0131341
0.0147297
-0.00760357
-0.0136073
0.0153563
-0.0094761
-0.0138781
0.0157507
-0.0114481
-0.014015
0.0159871
-0.0134997
-0.0140446
0.0160962
-0.0156123
-0.0139596
0.0160722
-0.0177664
-0.0137283
0.0158823
-0.0199389
-0.0133029
0.0154754
-0.0221024
-0.0126261
0.0147895
-0.0242231
-0.0116358
0.0137565
-0.0262609
-0.0102682
0.012306
-0.0281697
-0.00846018
0.010369
-0.0298966
-0.00615205
0.00787894
-0.0313888
-0.0032814
0.00477361
-0.0325122
0.000156932
0.000966426
-0.0333375
0.00416803
-0.00334272
-0.0337463
0.00879737
-0.00838859
-0.0337232
0.0140284
-0.0140514
0.0198324
-0.0333367
-0.0202189
-0.000304034
-0.00230956
-0.00107297
-0.00564256
-0.00221576
-0.00802859
-0.00365716
-0.00964376
-0.00533414
-0.010668
-0.00719661
-0.0112716
-0.009207
-0.0115969
-0.0113382
-0.0117469
-0.0135706
-0.0117827
-0.0158877
-0.0117274
-0.0182736
-0.0115737
-0.0207088
-0.011293
-0.0231691
-0.0108426
-0.0256229
-0.0101723
-0.0280305
-0.00922815
-0.0303434
-0.00795538
-0.0325032
-0.00630038
-0.0344446
-0.00421069
-0.0360927
-0.00163322
-0.0373463
0.00141053
-0.0381746
0.00499634
-0.0385013
0.00912405
-0.0382746
0.0138016
0.0190682
-0.0375104
-0.000373745
-0.00193582
-0.00128494
-0.00473137
-0.00259931
-0.00671422
-0.00421348
-0.00802959
-0.00604783
-0.00883363
-0.00804365
-0.00927578
-0.0101595
-0.00948103
-0.0123667
-0.00953969
-0.0146442
-0.00950522
-0.0169736
-0.00939793
-0.0193355
-0.00921188
-0.0217058
-0.00892273
-0.0240537
-0.00849464
-0.0263404
-0.0078856
-0.0285175
-0.00705102
-0.0305259
-0.00594696
-0.0322963
-0.00452998
-0.0337462
-0.00276079
-0.0347727
-0.000606724
-0.0353012
0.00193903
-0.0352324
0.00492754
-0.0344815
0.00837316
-0.0329674
0.0122875
0.0167301
-0.0306293
-0.000418551
-0.00151727
-0.00141596
-0.00373396
-0.00282471
-0.00530546
-0.00451882
-0.00633548
-0.00640407
-0.00694838
-0.00841234
-0.00726751
-0.0104956
-0.00739779
-0.0126193
-0.00741597
-0.0147563
-0.00736817
-0.0168814
-0.00727283
-0.0189669
-0.00712646
-0.0209793
-0.00691025
-0.0228781
-0.00659586
-0.0246136
-0.00615009
-0.0261264
-0.0055382
-0.027347
-0.00472637
-0.0281935
-0.00368348
-0.0285715
-0.00238282
-0.028374
-0.000804198
-0.0274988
0.00106379
-0.0258164
0.0032451
-0.0232118
0.00576861
-0.0196009
0.00867654
0.0119381
-0.0148088
-0.000438462
-0.00107881
-0.00146743
-0.00270499
-0.00289767
-0.00387522
-0.00458702
-0.00464613
-0.0064294
-0.005106
-0.00834731
-0.0053496
-0.0102843
-0.00546082
-0.0121973
-0.00550292
-0.0140501
-0.00551535
-0.0158074
-0.00551556
-0.0174306
-0.00550331
-0.018875
-0.00546587
-0.0200881
-0.00538275
-0.0210086
-0.00522951
-0.0215662
-0.00498063
-0.0216806
-0.00461194
-0.0212618
-0.00410232
-0.0202086
-0.00343597
-0.018409
-0.00260382
-0.0157414
-0.00160388
-0.0120579
-0.00043836
-0.00718316
0.000893869
-0.000923545
0.00241693
0.00443792
0.00657664
-0.000434772
-0.000644033
-0.00144389
-0.00169587
-0.00282789
-0.00249122
-0.00443501
-0.00303902
-0.0061503
-0.00339072
-0.00788752
-0.00361238
-0.00958096
-0.00376738
-0.0111776
-0.00390628
-0.0126302
-0.00406271
-0.013892
-0.00425375
-0.0149126
-0.00448278
-0.0156352
-0.0047432
-0.015996
-0.00502198
-0.0159229
-0.00530262
-0.0153359
-0.00556761
-0.0141475
-0.0058004
-0.0122625
-0.00598733
-0.00957833
-0.00612009
-0.00598637
-0.00619578
-0.00136901
-0.00622125
0.00440566
-0.00621302
0.0114915
-0.00619201
0.0200343
-0.00612579
-0.00623566
0.0307078
-0.000409074
-0.000234959
-0.00134978
-0.000755163
-0.0026227
-0.0012183
-0.00407211
-0.0015896
-0.00557669
-0.00188614
-0.00704171
-0.00214736
-0.00839119
-0.00241791
-0.00956027
-0.00273719
-0.0104889
-0.00313411
-0.0111166
-0.003626
-0.0113795
-0.00421993
-0.0112077
-0.00491493
-0.0105253
-0.0057044
-0.00924976
-0.00657818
-0.00729291
-0.00752447
-0.00456184
-0.00853146
-0.000959881
-0.00958929
0.0036113
-0.0106913
0.00925344
-0.0118379
0.0160684
-0.0130363
0.0241565
-0.0143011
0.0336621
-0.0156976
0.0445775
-0.0170411
-0.0194084
0.0577502
-0.000363073
0.000128114
-0.00118893
7.06938e-05
-0.00228634
-0.00012089
-0.00349929
-0.000376653
-0.00470103
-0.000684404
-0.00578741
-0.00106097
-0.00666971
-0.00153561
-0.00726803
-0.00213887
-0.00750569
-0.00289645
-0.00730512
-0.00382657
-0.00658542
-0.00493962
-0.00526142
-0.00623894
-0.00324394
-0.00772188
-0.00044106
-0.00938107
0.00324016
-0.0112057
0.00789176
-0.0131831
0.0136028
-0.0153003
0.0204579
-0.0175464
0.0285343
-0.0199143
0.0379037
-0.0224057
0.0486104
-0.0250078
0.0607704
-0.0278576
0.0741597
-0.0304304
-0.0348549
0.0896062
-0.000299053
0.000427166
-0.00096741
0.000739051
-0.00182514
0.000736842
-0.0027184
0.00051661
-0.00351396
0.000111153
-0.00409607
-0.000478864
-0.00435964
-0.00127204
-0.0042057
-0.00229282
-0.00353723
-0.00356492
-0.00225676
-0.00510704
-0.000265713
-0.00693067
0.00253454
-0.00903919
0.00624036
-0.0114277
0.0109428
-0.0140835
0.0167243
-0.0169872
0.0236556
-0.0201143
0.031793
-0.0234377
0.0411767
-0.0269301
0.0518284
-0.030566
0.0637538
-0.0343311
0.0769227
-0.0381767
0.0913482
-0.042283
0.106788
-0.0458699
-0.0516588
0.123591
-0.000221503
0.00064867
-0.000694756
0.0012123
-0.00125346
0.00129555
-0.00174425
0.0010074
-0.0020264
0.000393306
-0.00196874
-0.000536526
-0.00144772
-0.00179305
-0.000343651
-0.00339689
0.00146037
-0.00536894
0.00407787
-0.00772454
0.00761647
-0.0104693
0.0121738
-0.0135965
0.0178324
-0.0170863
0.0246551
-0.0209062
0.0326807
-0.0250127
0.0419209
-0.0293546
0.0523599
-0.0338767
0.0639542
-0.0385243
0.0766345
-0.0432462
0.0903065
-0.0480032
0.104862
-0.0527318
0.12014
-0.0575614
0.136079
-0.0618091
-0.0678318
0.152252
-0.000136295
0.000784965
-0.000387497
0.00146351
-0.000597674
0.00150573
-0.0006119
0.00102162
-0.000279316
6.07224e-05
0.00054647
-0.00136231
0.00200747
-0.00325405
0.00423994
-0.00562937
0.00737185
-0.00850085
0.0115177
-0.0118703
0.0167716
-0.0157233
0.0232006
-0.0200254
0.0308372
-0.0247229
0.0396755
-0.0297446
0.0496692
-0.0350065
0.0607328
-0.0404182
0.0727459
-0.0458898
0.0855597
-0.0513382
0.0990047
-0.0566912
0.112899
-0.0618972
0.127071
-0.0669043
0.141275
-0.0717655
0.155614
-0.0761474
-0.081342
0.169124
-4.95046e-05
-6.23594e-05
0.00011304
0.000636294
0.00166917
0.00337178
0.0058977
0.00938773
0.0139611
0.0197052
0.0266655
0.0348374
0.0441622
0.0545279
0.0657753
0.0777088
0.090109
0.102748
0.115403
0.127871
0.139982
0.151574
0.162765
0.172928
-0.0306921
0.0347378
-0.0373824
-0.027622
0.0471103
-0.0501805
-0.0240856
0.0601358
-0.0636721
-0.0200919
0.0731851
-0.0771788
-0.0156182
0.0855808
-0.0900545
-0.0104463
0.0964192
-0.101591
-0.00425825
0.104776
-0.110964
0.00349938
0.109347
-0.117105
0.0131785
0.108894
-0.118573
0.0249929
0.102126
-0.11394
0.0386316
0.0881656
-0.101804
0.0533511
0.0668963
-0.0816158
0.0682232
0.0388093
-0.0536814
0.0826166
0.00464585
-0.0190393
0.0961479
-0.0339398
0.0204086
0.108524
-0.0744283
0.0620524
0.119108
-0.111423
0.100839
0.127083
-0.139561
0.131587
0.131923
-0.1565
0.151659
0.13383
-0.163739
0.161832
0.133516
-0.164434
0.164749
0.131173
-0.162077
0.16442
0.126205
-0.161362
0.16633
0.118784
-0.165801
0.173223
0.111376
-0.170995
0.178403
0.107792
-0.162525
0.166108
0.110266
-0.126116
0.123643
0.118221
-0.061271
0.0533156
0.129036
0.0165059
-0.0273214
0.139756
0.0885407
-0.0992606
0.148245
0.142012
-0.150501
0.15388
0.174575
-0.180211
0.15673
0.189682
-0.192531
0.156123
0.198749
-0.198142
0.151389
0.213392
-0.208658
0.143907
0.230738
-0.223256
0.137194
0.228679
-0.221965
0.134437
0.180527
-0.17777
0.136585
0.0906497
-0.0927982
0.142143
-0.0200173
0.0144597
0.148968
-0.111917
0.105092
0.154554
-0.177107
0.171521
0.156222
-0.209267
0.207599
0.152246
-0.231426
0.235402
0.1443
-0.248831
0.256778
0.13708
-0.237212
0.244431
0.135205
-0.191679
0.193554
0.139215
-0.0758956
0.0718851
0.146073
0.0230695
-0.0299274
0.150178
0.138509
-0.142613
0.148792
0.209582
-0.208196
0.144088
0.266576
-0.261872
0.140995
0.296649
-0.293556
0.141858
0.195767
-0.19663
0.144886
0.13924
-0.142268
0.145672
-0.0584029
0.0576163
0.144417
-0.158539
0.159794
0.142674
-0.253831
0.255575
0.140945
-0.360492
0.362222
-0.118035
0.11987
-0.0340435
0.031271
-0.02973
0.0427968
-0.0245454
0.0549512
-0.0183674
0.0670072
-0.0112338
0.0784471
-0.00292431
0.0881098
0.00686207
0.0949899
0.0181143
0.0980948
0.0308909
0.0961176
0.0449451
0.0880718
0.0596889
0.0734218
0.0743297
0.0522555
0.0881678
0.0249712
0.100643
-0.00782965
0.111861
-0.0451572
0.121493
-0.0840608
0.129017
-0.118947
0.133868
-0.144412
0.135851
-0.158483
0.135335
-0.163222
0.133136
-0.162236
0.129618
-0.158559
0.124026
-0.15577
0.115859
-0.157635
0.107036
-0.162171
0.101716
-0.157205
0.103125
-0.127525
0.11119
-0.0693359
0.123192
0.00450371
0.135597
0.0761353
0.146008
0.131602
0.153545
0.167038
0.157956
0.185271
0.15851
0.198194
0.15481
0.217092
0.148402
0.237146
0.142461
0.23462
0.139699
0.183289
0.141022
0.0893262
0.14515
-0.0241445
0.150318
-0.117086
0.154503
-0.181292
0.155376
-0.21014
0.150994
-0.227044
0.142781
-0.240618
0.135384
-0.229816
0.133756
-0.19005
0.138317
-0.0804569
0.145701
0.0156858
0.150186
0.134023
0.149012
0.210755
0.144512
0.271076
0.141347
0.299814
0.142267
0.194847
0.145531
0.135976
0.146401
-0.0592727
0.145102
-0.15724
0.143195
-0.251924
0.14138
-0.358678
-0.116171
-0.0264165
0.0270582
-0.0209737
0.037354
-0.0144469
0.0484244
-0.00660701
0.0591673
0.00284469
0.0689954
0.0136686
0.0772858
0.0256769
0.0829817
0.0388673
0.0849044
0.0529931
0.0819919
0.0675818
0.073483
0.0819777
0.0590259
0.095484
0.0387492
0.107511
0.0129439
0.117861
-0.0181796
0.126586
-0.0538818
0.13345
-0.0909254
0.137958
-0.123455
0.139791
-0.146245
0.13912
-0.157812
0.136503
-0.160605
0.132737
-0.15847
0.128292
-0.154114
0.12243
-0.149908
0.114049
-0.149254
0.104245
-0.152367
0.0971742
-0.150134
0.0970874
-0.127438
0.104687
-0.0769352
0.117427
-0.00823656
0.131228
0.062334
0.143469
0.119361
0.152904
0.157602
0.158943
0.179233
0.160847
0.196291
0.158444
0.219495
0.153279
0.242311
0.148091
0.239808
0.14521
0.18617
0.145534
0.0890023
0.148167
-0.026778
0.151634
-0.120552
0.154394
-0.184053
0.154535
-0.210281
0.149905
-0.222414
0.141573
-0.232286
0.134039
-0.222281
0.132559
-0.188571
0.13754
-0.085438
0.145379
0.00784633
0.150278
0.129125
0.149372
0.211661
0.145087
0.275362
0.141826
0.303075
0.142778
0.193895
0.146307
0.132447
0.147279
-0.0602443
0.145917
-0.155878
0.143833
-0.24984
0.141946
-0.356791
-0.114301
-0.0100165
0.0222658
-0.00401762
0.0313551
0.00390764
0.0404991
0.0132541
0.0498208
0.0238432
0.0584063
0.03564
0.0654891
0.0485308
0.0700908
0.0622381
0.0711972
0.0763295
0.0679005
0.0902545
0.059558
0.103392
0.045888
0.115169
0.0269723
0.125223
0.00289023
0.133455
-0.0264112
0.139874
-0.0603011
0.144154
-0.0952057
0.145819
-0.12512
0.144818
-0.145244
0.141723
-0.154718
0.13731
-0.156192
0.132274
-0.153434
0.12708
-0.14892
0.121181
-0.144009
0.11313
-0.141203
0.103002
-0.142239
0.0943914
-0.141523
0.0923576
-0.125404
0.0988719
-0.0834494
0.111682
-0.0210467
0.126612
0.0474042
0.140548
0.105425
0.151847
0.146303
0.159578
0.171501
0.163021
0.192848
0.162145
0.220371
0.158362
0.246094
0.153908
0.244262
0.150783
0.189295
0.150027
0.0897583
0.151122
-0.0278736
0.152897
-0.122327
0.154223
-0.185379
0.153666
-0.209724
0.148916
-0.217664
0.140605
-0.223975
0.132979
-0.214655
0.131543
-0.187134
0.136823
-0.0907189
0.145071
-0.00040165
0.150433
0.123762
0.149871
0.212223
0.145831
0.279401
0.142457
0.30645
0.143404
0.192948
0.147208
0.128644
0.148296
-0.0613325
0.146856
-0.154438
0.144586
-0.247569
0.142631
-0.354835
-0.112448
0.0123096
0.0165328
0.0191729
0.0244918
0.0272089
0.0324632
0.0366451
0.0403846
0.0473691
0.0476823
0.0592086
0.0536496
0.0719062
0.0573932
0.0850897
0.0580137
0.0982634
0.0547268
0.110872
0.0469491
0.122387
0.0343737
0.132355
0.0170044
0.14067
-0.00542497
0.147124
-0.0328656
0.151523
-0.0646998
0.153361
-0.0970433
0.152299
-0.124058
0.148679
-0.141624
0.143461
-0.1495
0.137597
-0.150328
0.131642
-0.147478
0.125911
-0.143189
0.120097
-0.138195
0.11275
-0.133857
0.103017
-0.132505
0.0933954
-0.131902
0.0892163
-0.121225
0.0939365
-0.0881697
0.106108
-0.033218
0.121753
0.0317588
0.137157
0.0900216
0.150224
0.133236
0.159685
0.16204
0.164835
0.187698
0.165699
0.219507
0.163428
0.248365
0.159718
0.247973
0.156282
0.19273
0.15436
0.0916808
0.153936
-0.0274498
0.154065
-0.122455
0.153966
-0.18528
0.152735
-0.208494
0.147972
-0.2129
0.139808
-0.215811
0.13213
-0.206978
0.13064
-0.185644
0.136103
-0.0961817
0.144728
-0.0090265
0.150619
0.117871
0.150498
0.212345
0.146757
0.283143
0.143262
0.309944
0.144157
0.192053
0.148225
0.124576
0.149442
-0.0625492
0.147915
-0.152912
0.145448
-0.245102
0.143425
-0.352812
-0.110632
0.0364094
0.0108312
0.0430219
0.0178794
0.0507866
0.0246986
0.0598708
0.0313004
0.0701342
0.0374189
0.0813462
0.0424375
0.0932063
0.0455331
0.105314
0.0459061
0.117176
0.0428646
0.128291
0.0358342
0.138243
0.0244215
0.146644
0.0086035
0.153529
-0.0123101
0.158514
-0.0378509
0.161097
-0.0672821
0.160646
-0.0965924
0.157084
-0.120497
0.151195
-0.135735
0.14424
-0.142544
0.137268
-0.143356
0.130708
-0.140919
0.124652
-0.137133
0.118956
-0.132498
0.112494
-0.127395
0.103801
-0.123813
0.0939669
-0.122068
0.0878195
-0.115078
0.0901158
-0.0904659
0.10093
-0.0440318
0.116694
0.0159941
0.133213
0.0735033
0.147866
0.118582
0.159052
0.150855
0.16604
0.18071
0.168825
0.216721
0.16821
0.248981
0.165305
0.250878
0.161526
0.196509
0.158427
0.09478
0.156522
-0.0255453
0.155087
-0.12102
0.15359
-0.183784
0.151699
-0.206603
0.147004
-0.208206
0.139101
-0.207908
0.131413
-0.199289
0.129772
-0.184003
0.135313
-0.101723
0.144289
-0.0180026
0.150791
0.111369
0.15123
0.211906
0.147864
0.286508
0.144255
0.313554
0.145039
0.191269
0.149351
0.120263
0.150701
-0.0638985
0.149084
-0.151296
0.146411
-0.242429
0.144315
-0.350716
-0.108873
0.0620157
0.00656574
0.0673282
0.0125668
0.0739169
0.0181098
0.0818811
0.0233362
0.0910108
0.0282891
0.101039
0.0324097
0.111649
0.0349224
0.122435
0.0351207
0.132921
0.0323784
0.142649
0.0261064
0.151262
0.0158078
0.158486
0.00137948
0.164133
-0.0179568
0.167691
-0.0414091
0.168421
-0.0680113
0.165751
-0.0939228
0.159962
-0.114707
0.152225
-0.127999
0.143972
-0.134291
0.136234
-0.135618
0.12934
-0.134025
0.123169
-0.130962
0.117595
-0.126924
0.111962
-0.121763
0.104718
-0.116569
0.0955845
-0.112934
0.0881107
-0.107604
0.0877296
-0.0900849
0.0963875
-0.0526897
0.111542
0.000839444
0.128675
0.0563703
0.14464
0.102617
0.157473
0.138021
0.166376
0.171807
0.171231
0.211866
0.17242
0.247791
0.170439
0.25286
0.166376
0.200571
0.16209
0.0990665
0.158788
-0.0222434
0.155902
-0.118134
0.153059
-0.180941
0.150511
-0.204055
0.14595
-0.203645
0.138405
-0.200363
0.130744
-0.191628
0.128865
-0.182124
0.134381
-0.107239
0.143689
-0.0273107
0.150894
0.104164
0.152031
0.210769
0.149144
0.289395
0.145438
0.317259
0.146057
0.19065
0.150571
0.115749
0.152057
-0.0653842
0.150351
-0.14959
0.147466
-0.239544
0.145289
-0.348539
-0.107195
0.091207
0.00496496
0.0941543
0.00961945
0.0986141
0.01365
0.104539
0.0174109
0.111693
0.0211358
0.119851
0.0242516
0.128705
0.026068
0.13784
0.0259859
0.146793
0.0234252
0.155118
0.017782
0.162299
0.00862647
0.168566
-0.00488707
0.172723
-0.0221143
0.174577
-0.0432635
0.173271
-0.0667045
0.168462
-0.0891143
0.160806
-0.107051
0.151722
-0.118915
0.142644
-0.125213
0.134471
-0.127444
0.127443
-0.126997
0.121327
-0.124846
0.115907
-0.121505
0.110914
-0.116769
0.105171
-0.110825
0.097499
-0.105262
0.0897124
-0.0998173
0.0869111
-0.0872836
0.0927986
-0.0585772
0.106466
-0.0128278
0.123577
0.0392594
0.140466
0.0857277
0.154792
0.123696
0.165609
0.16099
0.172599
0.204875
0.175709
0.244682
0.174798
0.25377
0.170608
0.204761
0.165247
0.104428
0.160636
-0.0176327
0.156439
-0.113937
0.152329
-0.17683
0.149121
-0.200847
0.144741
-0.199265
0.137647
-0.193268
0.130048
-0.18403
0.127849
-0.179925
0.133242
-0.112631
0.142861
-0.0369301
0.150862
0.0961634
0.15285
0.208781
0.150567
0.291678
0.146805
0.321022
0.147205
0.19025
0.151869
0.111086
0.15349
-0.0670057
0.151702
-0.147802
0.148596
-0.236438
0.14633
-0.346272
-0.10562
0.122821
0.00573577
0.123475
0.0089653
0.125564
0.011561
0.129021
0.013954
0.133699
0.0164575
0.139467
0.0184836
0.146044
0.0194913
0.153045
0.0189846
0.160045
0.0164255
0.166606
0.0112208
0.172196
0.00303625
0.176559
-0.0092495
0.178955
-0.0245103
0.178753
-0.0430616
0.1753
-0.0632521
0.168591
-0.0824046
0.15956
-0.0980203
0.149677
-0.109032
0.140226
-0.115763
0.131911
-0.119129
0.124893
-0.119979
0.118937
-0.11889
0.11374
-0.116307
0.109199
-0.112228
0.104713
-0.10634
0.0988859
-0.0994347
0.0918703
-0.0928018
0.0874769
-0.0828902
0.0904479
-0.0615481
0.101686
-0.0240658
0.118035
0.0229098
0.135332
0.0684312
0.150888
0.10814
0.163539
0.148339
0.172741
0.195673
0.177919
0.239505
0.178195
0.253494
0.174013
0.208944
0.167753
0.110688
0.161967
-0.0118461
0.156607
-0.108577
0.151336
-0.17156
0.14746
-0.196971
0.143297
-0.195102
0.136755
-0.186726
0.129258
-0.176533
0.126662
-0.17733
0.131837
-0.117805
0.141732
-0.0468253
0.150622
0.0872741
0.153625
0.205778
0.152094
0.293208
0.148335
0.324781
0.148474
0.190111
0.153225
0.106334
0.154981
-0.0687608
0.153119
-0.145941
0.149787
-0.233105
0.147424
-0.34391
-0.104178
0.150379
0.00760953
0.14982
0.0095243
0.150345
0.0110356
0.151862
0.0124365
0.154449
0.0138709
0.158003
0.0149295
0.162276
0.0152184
0.166959
0.0143013
0.171689
0.0116963
0.176029
0.00688053
0.179761
-0.000696105
0.181809
-0.0112969
0.181991
-0.0246923
0.17958
-0.0406509
0.174167
-0.057839
0.166031
-0.0742691
0.15622
-0.0882085
0.146061
-0.0988725
0.136603
-0.106305
0.128366
-0.110893
0.121457
-0.11307
0.115712
-0.113146
0.110819
-0.111414
0.106649
-0.108059
0.103069
-0.10276
0.0990319
-0.0953977
0.093615
-0.0873848
0.0888188
-0.0780941
0.0892398
-0.0619691
0.097559
-0.032385
0.112271
0.00819831
0.12931
0.0513921
0.145722
0.0917271
0.160012
0.13405
0.171318
0.184367
0.178587
0.232236
0.180274
0.251807
0.176369
0.212848
0.169493
0.117564
0.162705
-0.00505841
0.156344
-0.102216
0.150042
-0.165258
0.145489
-0.192418
0.141553
-0.191166
0.135676
-0.180849
0.128339
-0.169196
0.125266
-0.174257
0.130119
-0.122659
0.14024
-0.0569454
0.1501
0.0774138
0.154275
0.201602
0.153662
0.293821
0.149996
0.328447
0.149851
0.190255
0.154617
0.101568
0.156509
-0.070652
0.154583
-0.144015
0.15102
-0.229542
0.148556
-0.341447
-0.102902
0.167371
0.00936259
0.166655
0.0102402
0.16657
0.0111207
0.167133
0.0118735
0.168543
0.0124607
0.170666
0.0128065
0.173288
0.0125963
0.17617
0.0114194
0.179001
0.00886577
0.181292
0.00458942
0.182777
-0.0021809
0.182904
-0.0114245
0.181095
-0.0228831
0.176893
-0.0364487
0.170142
-0.0510883
0.161309
-0.0654364
0.151385
-0.078284
0.141448
-0.0889354
0.132293
-0.0971498
0.124306
-0.102906
0.117571
-0.106335
0.112013
-0.107588
0.107404
-0.106805
0.103542
-0.104197
0.100492
-0.0997096
0.0978022
-0.0927078
0.0942559
-0.0838385
0.0901558
-0.073994
0.0889247
-0.060738
0.0942556
-0.0377159
0.106576
-0.00412166
0.122548
0.0354195
0.139317
0.0749586
0.155086
0.118281
0.168597
0.170855
0.178139
0.222693
0.181263
0.248683
0.177718
0.216393
0.170539
0.124744
0.162968
0.0025127
0.155769
-0.0950178
0.148586
-0.158075
0.143336
-0.187168
0.139565
-0.187395
0.134425
-0.175708
0.127318
-0.162088
0.123702
-0.170641
0.128086
-0.127043
0.138328
-0.0671876
0.149215
0.066527
0.154732
0.196085
0.155213
0.29334
0.151736
0.331925
0.15132
0.190671
0.156025
0.0968629
0.158055
-0.0726819
0.156075
-0.142035
0.152278
-0.225745
0.149718
-0.338887
-0.101827
0.172257
0.0100329
0.171801
0.0106968
0.171779
0.0111418
0.172199
0.0114537
0.173061
0.0115993
0.174364
0.011503
0.175978
0.0109827
0.177677
0.00971967
0.179218
0.00732509
0.180393
0.00341423
0.180483
-0.00227103
0.179108
-0.0100491
0.176022
-0.0197969
0.170903
-0.0313296
0.163801
-0.0439865
0.155215
-0.0568504
0.145947
-0.0690163
0.136785
-0.0797735
0.128295
-0.0886596
0.120778
-0.0953888
0.114322
-0.0998797
0.108927
-0.102192
0.104499
-0.102377
0.100832
-0.10053
0.0979805
-0.0968581
0.0959945
-0.0907218
0.0939874
-0.0818314
0.0911755
-0.0711821
0.0893591
-0.0589216
0.0922296
-0.0405864
0.101264
-0.0131563
0.115465
0.0212191
0.131649
0.0587747
0.148028
0.101902
0.16324
0.155643
0.175135
0.210799
0.180168
0.243649
0.177676
0.218886
0.170715
0.131704
0.1628
0.0104283
0.154846
-0.0870645
0.147037
-0.150265
0.141151
-0.181282
0.137447
-0.183691
0.133046
-0.171307
0.126221
-0.155263
0.122052
-0.166472
0.125893
-0.130884
0.136076
-0.0773706
0.147926
0.0546767
0.154867
0.189144
0.156633
0.291574
0.153516
0.335042
0.152859
0.191329
0.157425
0.0922962
0.159595
-0.0748512
0.157568
-0.140009
0.153559
-0.221737
0.150902
-0.33623
-0.100988
0.191286
0.0109071
-0.19216
0.190973
0.0110094
0.190935
0.0111803
0.191194
0.0111943
0.191831
0.0109628
0.192908
0.0104252
0.194467
0.0094239
0.196497
0.00768991
0.198875
0.00494688
0.201315
0.000974377
0.203666
-0.00462227
0.20547
-0.0118534
0.206349
-0.0206755
0.20588
-0.03086
0.203815
-0.041922
0.200164
-0.0531991
0.195149
-0.0640019
0.189091
-0.0737154
0.182315
-0.0818838
0.175123
-0.0881967
0.167763
-0.0925191
0.160424
-0.0948531
0.153263
-0.0952159
0.146277
-0.0935436
0.139456
-0.0900375
0.133026
-0.0842915
0.126775
-0.0755812
0.119725
-0.0641314
0.111987
-0.0511839
0.106175
-0.0347745
0.105336
-0.0123168
0.10953
0.0170244
0.11669
0.0516148
0.124235
0.0943569
0.131168
0.14871
0.137959
0.204007
0.145539
0.23607
0.155363
0.209061
0.165802
0.121265
0.172457
0.00377342
0.174039
-0.0886467
0.169923
-0.146148
0.163255
-0.174615
0.156551
-0.176987
0.149056
-0.163812
0.140029
-0.146236
0.132377
-0.158821
0.130318
-0.128825
0.132683
-0.0797355
0.136215
0.0511447
0.137778
0.18758
0.137998
0.291354
0.138595
0.334444
0.142307
0.187618
0.149532
0.0850711
0.152853
-0.0781731
0.150167
-0.137322
0.145073
-0.216643
0.139663
-0.330819
-0.0981306
0.203579
0.0110354
-0.203707
0.203732
0.0108566
0.204165
0.0107471
0.204857
0.0105024
0.205824
0.00999651
0.207101
0.00914772
0.208694
0.00783055
0.210529
0.00585512
0.212477
0.00299924
0.2144
-0.000949212
0.215985
-0.00620647
0.21694
-0.0128087
0.216962
-0.020698
0.215782
-0.0296794
0.213244
-0.0393844
0.209354
-0.0493085
0.204255
-0.058903
0.198187
-0.067648
0.191435
-0.0751319
0.184289
-0.0810503
0.177003
-0.0852334
0.169751
-0.0876005
0.162671
-0.0881364
0.155816
-0.0866888
0.149122
-0.083343
0.14273
-0.0778997
0.136794
-0.0696448
0.130636
-0.0579742
0.123644
-0.0441912
0.117311
-0.0284418
0.114529
-0.00953451
0.11703
0.0145234
0.123386
0.045259
0.131285
0.0864573
0.139307
0.140688
0.147493
0.195822
0.156878
0.226685
0.168478
0.197461
0.179731
0.110013
0.186635
-0.00313115
0.187342
-0.0893532
0.182166
-0.140973
0.17436
-0.166808
0.166873
-0.169501
0.159149
-0.156087
0.149846
-0.136934
0.141606
-0.15058
0.138867
-0.126085
0.141057
-0.0819255
0.145018
0.0471835
0.147306
0.185293
0.148488
0.290172
0.149754
0.333178
0.1536
0.183772
0.161038
0.0776332
0.164273
-0.0814083