/*--------------------------------*- C++ -*----------------------------------*\
| =========                 |                                                 |
| \\      /  F ield         | OpenFOAM: The Open Source CFD Toolbox           |
|  \\    /   O peration     | Version:  2512                                  |
|   \\  /    A nd           | Website:  www.openfoam.com                      |
|    \\/     M anipulation  |                                                 |
\*---------------------------------------------------------------------------*/
FoamFile
{
    version     2.0;
    format      ascii;
    arch        "LSB;label=32;scalar=64";
    class       volVectorField;
    location    "197";
    object      U;
}
// * * * * * * * * * * * * * * * * * * * * * * * * * * * * * * * * * * * * * //

dimensions      [0 1 -1 0 0 0 0];

internalField   nonuniform List<vector> 
13248
(
(-0.0106672 0.0098705 7.37803e-20)
(-0.0166025 0.017232 0)
(-0.00929451 0.0171752 -1.40346e-19)
(0.0102086 0.0126925 1.32209e-19)
(0.0414963 0.00594322 1.24218e-19)
(0.0843726 -0.00151635 0)
(0.138592 -0.00857831 0)
(0.203637 -0.014452 2.97664e-19)
(0.278538 -0.0185759 -3.34381e-21)
(0.361766 -0.0205746 -2.56497e-19)
(0.451229 -0.0202468 2.31117e-19)
(0.54436 -0.0175657 -1.43995e-19)
(0.638305 -0.0126755 0)
(0.730152 -0.00587722 -2.26926e-19)
(0.817176 0.00240155 4.1631e-19)
(0.897049 0.0116484 -9.80688e-20)
(0.967996 0.0213169 -1.61151e-19)
(1.02889 0.0308647 1.51283e-19)
(1.07925 0.039839 0)
(1.11922 0.0477351 0)
(1.14953 0.0545901 0)
(1.17095 0.0592197 0)
(1.18585 0.0638624 3.98706e-20)
(1.19347 0.063056 1.38582e-19)
(-0.0100974 0.00861803 -2.22934e-19)
(-0.0115778 0.0141242 1.52381e-19)
(0.00406938 0.0134435 -1.00444e-21)
(0.0352997 0.00916867 -2.01843e-19)
(0.081262 0.00334222 -1.2408e-19)
(0.141253 -0.0024572 -1.17119e-19)
(0.214313 -0.00709481 -2.14795e-19)
(0.29895 -0.00979674 2.02734e-19)
(0.392966 -0.0100949 0)
(0.493439 -0.00780486 2.17524e-21)
(0.596867 -0.00301072 4.61419e-21)
(0.699459 0.00396313 1.43848e-19)
(0.797495 0.012602 0)
(0.887686 0.0222705 0)
(0.96746 0.032292 1.5042e-19)
(1.03515 0.0420253 -2.82176e-19)
(1.09003 0.0509288 1.60079e-19)
(1.13232 0.0585985 -1.50288e-19)
(1.16295 0.0647951 -6.43688e-20)
(1.18349 0.069395 -1.11449e-19)
(1.19572 0.0725324 -4.45247e-20)
(1.20184 0.0739293 -8.20793e-20)
(1.2032 0.0750471 1.2417e-19)
(1.20207 0.0721775 3.5148e-20)
(-0.00831149 0.00667188 0)
(-0.00272675 0.00928568 0)
(0.0239515 0.00752773 7.14265e-20)
(0.0696516 0.00358685 6.60176e-20)
(0.132925 -0.000660809 -1.48038e-21)
(0.212239 -0.00370054 -1.20084e-19)
(0.305441 -0.00450811 0)
(0.409505 -0.00251919 -1.00504e-19)
(0.520489 0.00240523 9.31587e-20)
(0.633766 0.0100134 2.02957e-22)
(0.744455 0.0197287 -1.55272e-19)
(0.847961 0.0307541 -1.38301e-19)
(0.940474 0.0422016 5.28993e-21)
(1.01934 0.0532211 -1.06524e-19)
(1.08321 0.0631083 2.61335e-19)
(1.13205 0.0713731 0)
(1.16694 0.0777648 -1.58174e-19)
(1.18974 0.0822521 7.69969e-20)
(1.20283 0.0849903 6.43118e-20)
(1.20866 0.0862032 0)
(1.20959 0.0863061 5.04388e-20)
(1.20752 0.0852379 -1.72763e-19)
(1.20375 0.0843031 1.62176e-19)
(1.20019 0.0805081 1.00185e-19)
(-0.00508654 0.00427594 -7.86221e-20)
(0.0106771 0.00345771 -8.11687e-20)
(0.0515364 0.000685599 7.37259e-20)
(0.114702 -0.00230023 0)
(0.197782 -0.00387956 0)
(0.297884 -0.00275508 -1.86974e-21)
(0.411037 0.00175365 0)
(0.532114 0.00970976 -3.03227e-19)
(0.655162 0.0206295 2.79984e-19)
(0.774032 0.0336039 -3.43422e-19)
(0.883147 0.04748 7.75299e-20)
(0.978187 0.0610722 0)
(1.05651 0.0733533 1.23259e-19)
(1.11727 0.0835898 -2.26043e-19)
(1.16123 0.0913997 5.35668e-20)
(1.19041 0.096738 1.30523e-19)
(1.20755 0.0998249 -8.92358e-21)
(1.21566 0.101046 -1.44505e-19)
(1.21755 0.100848 0)
(1.2156 0.0996473 0)
(1.2116 0.097835 -4.86673e-20)
(1.20672 0.0954404 4.30808e-20)
(1.20168 0.0934229 1.50128e-19)
(1.19694 0.0890398 -1.4094e-19)
(-0.000118267 0.00164555 -8.24055e-20)
(0.02941 -0.0025945 -8.22028e-20)
(0.0878734 -0.00571771 2.31388e-19)
(0.1714 -0.0065771 -1.40624e-19)
(0.276092 -0.00399512 1.32366e-19)
(0.396997 0.0028438 2.40407e-19)
(0.527699 0.0139363 -1.69265e-19)
(0.660711 0.0285041 -2.0345e-19)
(0.788376 0.045208 5.70414e-21)
(0.903946 0.0624417 2.5865e-19)
(1.00249 0.0786523 0)
(1.08137 0.0926092 6.90416e-20)
(1.1403 0.103561 0)
(1.18089 0.111266 -1.08405e-19)
(1.20606 0.11591 1.51792e-19)
(1.2193 0.117971 9.81141e-22)
(1.22409 0.11805 -3.85577e-20)
(1.22342 0.116746 7.00431e-20)
(1.21963 0.114558 6.04744e-20)
(1.21431 0.111852 -5.35146e-20)
(1.20846 0.108877 4.86556e-20)
(1.20261 0.105658 -4.30701e-20)
(1.19696 0.102749 0)
(1.1919 0.0980343 -3.27513e-20)
(0.00694712 -0.000993849 8.23938e-20)
(0.0541851 -0.00805145 8.61537e-20)
(0.133638 -0.0102528 -7.74379e-20)
(0.239822 -0.0073316 1.43968e-19)
(0.366601 0.00111744 -1.35506e-19)
(0.506261 0.015034 1.22117e-19)
(0.649633 0.0333359 -5.85579e-20)
(0.787255 0.0541477 1.52974e-19)
(0.91088 0.0752724 -9.58035e-20)
(1.01471 0.094674 1.66761e-19)
(1.09599 0.110848 -3.82667e-19)
(1.1549 0.123002 1.39769e-19)
(1.19387 0.131036 -1.19388e-19)
(1.21666 0.135379 1.12141e-19)
(1.22745 0.136761 9.42314e-20)
(1.2301 0.135992 8.08596e-20)
(1.22776 0.133804 -2.25298e-19)
(1.22272 0.130766 1.3892e-19)
(1.21646 0.127269 -6.04762e-20)
(1.20985 0.12355 1.55964e-19)
(1.20337 0.11974 -5.04085e-20)
(1.19722 0.115861 -1.20521e-19)
(1.19145 0.112201 1.10895e-19)
(1.18616 0.107258 3.2741e-20)
(0.01645 -0.00336422 0)
(0.085493 -0.0120041 5.68208e-22)
(0.188887 -0.0114702 1.6071e-19)
(0.318896 -0.00282037 -1.5089e-19)
(0.466393 0.0130957 -1.35792e-19)
(0.620495 0.0348713 2.52033e-19)
(0.769644 0.0600395 -1.1688e-19)
(0.903621 0.0856386 1.54562e-19)
(1.0153 0.108959 -3.99572e-21)
(1.10148 0.128081 -8.68198e-20)
(1.1626 0.14209 1.86482e-19)
(1.20183 0.151 -2.74049e-19)
(1.22375 0.155479 0)
(1.2332 0.156515 -5.25372e-20)
(1.23449 0.155136 -1.38124e-19)
(1.23096 0.152217 4.37473e-20)
(1.22493 0.148411 2.04385e-21)
(1.21786 0.144152 -9.13402e-20)
(1.21059 0.139696 7.03731e-21)
(1.20353 0.135182 1.05033e-19)
(1.19687 0.130674 -4.57809e-20)
(1.19063 0.1262 -1.71933e-20)
(1.18479 0.121848 5.36724e-20)
(1.17935 0.116716 0)
(0.0286422 -0.00511055 0)
(0.123441 -0.0134449 4.3547e-20)
(0.252876 -0.00795769 -2.09088e-19)
(0.406317 0.00838661 7.59141e-20)
(0.571135 0.0329006 -7.14478e-20)
(0.733505 0.062427 -6.49168e-20)
(0.880692 0.0930872 -1.14393e-19)
(1.00355 0.121223 5.73692e-20)
(1.09783 0.144246 4.9646e-20)
(1.16391 0.160958 0)
(1.20554 0.171411 1.10452e-19)
(1.2281 0.176501 -1.6302e-19)
(1.23722 0.177499 1.21069e-19)
(1.23775 0.175683 5.25641e-20)
(1.23334 0.172113 -4.23022e-20)
(1.22649 0.167558 -3.44961e-20)
(1.2187 0.162515 -3.1774e-20)
(1.2108 0.157278 9.68435e-20)
(1.20318 0.152004 0)
(1.19602 0.146769 4.73152e-20)
(1.18935 0.141607 3.89893e-20)
(1.18314 0.136535 -9.76921e-20)
(1.1773 0.131531 -6.56676e-20)
(1.17178 0.126205 6.07793e-20)
(0.043619 -0.00580427 -4.67016e-20)
(0.167623 -0.0113115 -1.56734e-21)
(0.323984 0.00155624 4.2443e-20)
(0.498705 0.027262 1.18106e-19)
(0.675694 0.0607324 3.40977e-20)
(0.83925 0.0969187 -6.60115e-20)
(0.977337 0.13091 6.03504e-20)
(1.08377 0.15906 -5.27254e-20)
(1.15828 0.179593 9.381e-20)
(1.2049 0.192454 3.95348e-20)
(1.22988 0.198736 -1.12199e-19)
(1.23974 0.200032 3.27873e-20)
(1.24008 0.197935 5.52514e-20)
(1.23507 0.193754 -2.73078e-20)
(1.22749 0.188424 0)
(1.21898 0.182539 3.95924e-20)
(1.21041 0.176447 6.61177e-20)
(1.20221 0.17033 1.06692e-20)
(1.19453 0.164279 -5.45909e-20)
(1.18741 0.158336 2.25273e-20)
(1.1808 0.15252 0)
(1.17464 0.146828 -1.7373e-20)
(1.16884 0.141208 -1.62436e-20)
(1.1633 0.135636 0)
(0.0612621 -0.00497448 0)
(0.217048 -0.00458423 2.44298e-20)
(0.39976 0.0180603 4.50862e-20)
(0.591967 0.0542061 -1.20075e-19)
(0.774919 0.0960734 3.8703e-20)
(0.932846 0.137004 0)
(1.05645 0.171808 5.77469e-20)
(1.14384 0.197664 -8.05107e-20)
(1.19889 0.214123 -4.67539e-20)
(1.2286 0.222391 2.1084e-20)
(1.24058 0.224425 -3.3069e-20)
(1.24145 0.22223 8.06418e-20)
(1.23615 0.217458 3.97966e-20)
(1.22794 0.211282 -2.79944e-20)
(1.2187 0.204446 -2.94506e-21)
(1.20943 0.197374 -7.42489e-20)
(1.20059 0.190289 3.3656e-20)
(1.19235 0.183301 -8.36701e-22)
(1.18475 0.17646 0)
(1.17775 0.16979 -2.25508e-20)
(1.17127 0.163298 0)
(1.16522 0.156961 4.99553e-20)
(1.15952 0.150755 -5.91191e-20)
(1.15401 0.144856 2.68125e-20)
(0.0812051 -0.00215295 -1.26394e-20)
(0.27014 0.00760009 -6.12241e-20)
(0.477108 0.0421316 6.9511e-20)
(0.68178 0.0890052 4.07781e-20)
(0.864336 0.137838 -1.95344e-20)
(1.01108 0.181102 3.25613e-20)
(1.11709 0.214278 -1.58699e-20)
(1.18519 0.236036 2.62341e-20)
(1.22286 0.247479 0)
(1.23895 0.250936 5.86834e-20)
(1.24142 0.248938 -2.62243e-21)
(1.23631 0.243619 -4.69681e-20)
(1.22762 0.236508 1.99251e-20)
(1.21766 0.22857 -2.22248e-20)
(1.20764 0.220349 -8.23763e-21)
(1.19811 0.212129 9.74601e-21)
(1.18927 0.204045 -7.37194e-21)
(1.18115 0.196159 -3.96145e-20)
(1.17372 0.188501 2.42333e-20)
(1.16691 0.18108 4.88096e-21)
(1.16062 0.173889 4.25646e-21)
(1.15475 0.166896 3.71257e-21)
(1.14918 0.160139 0)
(1.14376 0.153804 0)
(0.102896 0.00308775 1.26481e-20)
(0.32495 0.0258565 -1.26492e-20)
(0.552727 0.073852 -2.31262e-20)
(0.764223 0.130874 0)
(0.940666 0.18459 -9.67179e-21)
(1.0724 0.22767 -8.65279e-21)
(1.15976 0.257158 -1.47769e-20)
(1.20998 0.273611 0)
(1.23313 0.279625 0)
(1.23887 0.278372 0)
(1.23477 0.272656 0)
(1.22591 0.264531 0)
(1.21531 0.255304 -1.24589e-20)
(1.20453 0.245714 5.65826e-21)
(1.19427 0.236137 9.73849e-21)
(1.18478 0.226749 4.538e-21)
(1.17611 0.217627 1.1083e-20)
(1.16824 0.208803 0)
(1.16109 0.200289 -2.58878e-21)
(1.15457 0.192086 -2.45823e-21)
(1.14857 0.184171 -4.26323e-21)
(1.14297 0.176522 -3.7185e-21)
(1.13765 0.16924 0)
(1.13246 0.162355 2.59005e-21)
(0.000388925 -0.0474765 9.1783e-21)
(-0.00243384 -0.113541 -9.52371e-21)
(-0.0108309 -0.158343 -1.80212e-20)
(-0.0227464 -0.186632 0)
(-0.0367434 -0.202724 -2.42128e-20)
(-0.0518909 -0.210399 7.67106e-21)
(-0.0674742 -0.212648 -1.43237e-20)
(-0.0829755 -0.21157 0)
(-0.0980534 -0.208417 0)
(-0.112492 -0.203739 0)
(-0.126148 -0.197579 0)
(-0.138914 -0.18966 0)
(-0.15069 -0.179536 3.21958e-22)
(-0.161364 -0.166703 -9.89488e-21)
(-0.17081 -0.150663 1.81965e-20)
(-0.178884 -0.130974 2.60858e-20)
(-0.185425 -0.10728 7.73279e-21)
(-0.190264 -0.0793392 0)
(-0.193229 -0.0470479 7.47458e-21)
(-0.193989 -0.0104715 -2.02321e-20)
(-0.192563 0.0302192 -1.22789e-20)
(-0.188965 0.0743979 -1.13598e-20)
(-0.183096 0.121473 0)
(-0.175986 0.170576 0)
(0.00248852 -0.0428345 -2.732e-20)
(0.0014588 -0.102157 4.72988e-20)
(-0.00738801 -0.142256 -1.74664e-20)
(-0.0208322 -0.167413 -3.36069e-20)
(-0.0368022 -0.181614 4.76976e-20)
(-0.0540559 -0.18835 -2.99408e-20)
(-0.0717162 -0.19035 4.24841e-20)
(-0.0892007 -0.189498 2.62451e-20)
(-0.106167 -0.186892 0)
(-0.122431 -0.182994 -2.42112e-20)
(-0.13789 -0.177809 -1.45561e-22)
(-0.152476 -0.171062 2.14954e-20)
(-0.166113 -0.162335 2.95302e-20)
(-0.178707 -0.151165 3.7352e-20)
(-0.190132 -0.137102 -1.81995e-20)
(-0.200227 -0.119746 -5.00538e-20)
(-0.208804 -0.0987713 1.45839e-20)
(-0.215642 -0.0739463 -5.61157e-20)
(-0.22052 -0.0451451 0)
(-0.223175 -0.0123616 1.32007e-20)
(-0.223433 0.0240963 1.22652e-20)
(-0.221037 0.0640171 1.13468e-20)
(-0.215907 0.107084 0)
(-0.210243 0.152828 0)
(0.0038835 -0.0367414 0)
(0.00399925 -0.0879245 9.14703e-20)
(-0.00519729 -0.122905 -3.45972e-20)
(-0.0196116 -0.145065 3.31473e-20)
(-0.0366965 -0.157765 -9.23429e-20)
(-0.0549754 -0.164024 0)
(-0.0734463 -0.166206 -5.49211e-20)
(-0.0914726 -0.165936 2.5436e-20)
(-0.108703 -0.164153 -4.79341e-20)
(-0.124965 -0.161243 2.16922e-20)
(-0.140177 -0.157196 1.27743e-19)
(-0.15429 -0.151761 -5.99042e-20)
(-0.167246 -0.144567 -9.42365e-20)
(-0.17896 -0.135207 -3.3549e-20)
(-0.189311 -0.123287 6.71316e-22)
(-0.198136 -0.108465 1.21133e-19)
(-0.205235 -0.0904589 -5.64932e-20)
(-0.210357 -0.0690643 2.68442e-21)
(-0.213215 -0.0441573 0)
(-0.213618 -0.0157087 -4.06851e-20)
(-0.211374 0.016151 0)
(-0.205955 0.0513313 -3.70257e-20)
(-0.196871 0.0897032 1.28946e-19)
(-0.187038 0.130976 -1.97538e-21)
(0.00442179 -0.0296947 0)
(0.00492632 -0.0718915 -6.62766e-22)
(-0.00452206 -0.101591 3.37017e-20)
(-0.019323 -0.12097 -3.17943e-20)
(-0.0366529 -0.13256 3.05141e-20)
(-0.0548957 -0.138781 1.70441e-19)
(-0.0729697 -0.141563 -5.36082e-20)
(-0.0901963 -0.142244 -4.98343e-20)
(-0.106206 -0.1416 9.45779e-20)
(-0.12082 -0.139947 -1.33065e-19)
(-0.133957 -0.13727 4.07641e-20)
(-0.145569 -0.133352 3.77763e-20)
(-0.155601 -0.127873 0)
(-0.163971 -0.120485 3.40632e-20)
(-0.170565 -0.110853 0)
(-0.175225 -0.0986897 5.42116e-20)
(-0.177758 -0.0837633 -1.00948e-19)
(-0.177921 -0.0659107 2.77298e-20)
(-0.175441 -0.0450417 8.59976e-20)
(-0.170105 -0.021147 4.06464e-20)
(-0.16173 0.00580117 0)
(-0.149831 0.0359161 -9.18906e-20)
(-0.133331 0.0693855 3.04892e-20)
(-0.113854 0.105813 0)
(0.0040507 -0.0222075 0)
(0.00415676 -0.0550999 -1.06248e-19)
(-0.00545006 -0.0795529 -3.35477e-20)
(-0.0200619 -0.096397 -6.31664e-20)
(-0.0367945 -0.107223 5.94834e-20)
(-0.0539966 -0.113785 -5.64779e-20)
(-0.0705594 -0.117546 1.05011e-19)
(-0.0857817 -0.11954 4.93797e-20)
(-0.099274 -0.120377 -1.39124e-19)
(-0.110842 -0.120303 8.5579e-20)
(-0.12039 -0.119299 -1.20361e-19)
(-0.127861 -0.117179 2.57032e-19)
(-0.133197 -0.113672 -1.38115e-19)
(-0.136321 -0.10848 6.16758e-20)
(-0.137124 -0.101321 1.69515e-19)
(-0.13547 -0.0919516 -5.77738e-20)
(-0.131189 -0.0801863 -4.96768e-20)
(-0.124078 -0.0659079 -4.60003e-20)
(-0.113901 -0.0490716 0)
(-0.100417 -0.0297015 -6.54541e-20)
(-0.08341 -0.00780156 -5.37015e-20)
(-0.0626089 0.0167374 8.34641e-20)
(-0.0376697 0.0442653 9.08825e-20)
(-0.00575657 0.0768142 -8.24013e-20)
(0.00281898 -0.0147626 0)
(0.00180089 -0.0385145 -1.39635e-19)
(-0.00784759 -0.0579149 -3.30238e-24)
(-0.0216899 -0.0724563 1.24806e-19)
(-0.0369881 -0.0827769 0)
(-0.0521599 -0.0899519 0)
(-0.0661253 -0.0949667 0)
(-0.0781857 -0.0985518 -4.84068e-20)
(-0.087939 -0.101146 8.35024e-22)
(-0.0951717 -0.102922 8.47602e-20)
(-0.0997719 -0.10385 -1.16835e-19)
(-0.101672 -0.103768 1.01204e-21)
(-0.100813 -0.102441 0)
(-0.0971263 -0.0996113 -6.16494e-20)
(-0.090529 -0.0950343 5.14599e-20)
(-0.0809187 -0.0884996 -1.49627e-19)
(-0.0681757 -0.0798513 1.75715e-19)
(-0.0521596 -0.0690021 3.12217e-20)
(-0.0327133 -0.055938 -8.92437e-21)
(-0.00966108 -0.0407357 -1.2681e-19)
(0.0171561 -0.0235367 -5.14054e-20)
(0.0479175 -0.00445876 1.576e-19)
(0.0835784 0.0170391 -1.00035e-19)
(0.128698 0.0438578 0)
(0.00087051 -0.00779123 6.68834e-20)
(-0.00183487 -0.0229937 6.96509e-20)
(-0.0113266 -0.0376648 -6.59184e-20)
(-0.0237602 -0.0501022 -1.24374e-19)
(-0.0367197 -0.0600589 1.1712e-19)
(-0.0487813 -0.0679607 -1.09813e-19)
(-0.0589435 -0.0743348 1.54846e-19)
(-0.0665337 -0.079613 -4.80249e-20)
(-0.071144 -0.0840613 9.01569e-20)
(-0.0725418 -0.0877703 0)
(-0.0705957 -0.0906845 7.46554e-20)
(-0.0652275 -0.0926477 -1.4191e-19)
(-0.0563826 -0.0934466 1.27204e-19)
(-0.0440155 -0.0928484 -1.19473e-19)
(-0.0280834 -0.0906291 0)
(-0.00854602 -0.0865965 9.55474e-20)
(0.0146335 -0.0806105 1.62973e-19)
(0.0415013 -0.0725924 -1.5447e-19)
(0.0721012 -0.0625451 -6.45469e-20)
(0.106477 -0.050565 -5.38142e-20)
(0.144658 -0.0368502 1.54577e-19)
(0.186941 -0.0216684 3.72106e-20)
(0.231653 -0.00521881 -3.8414e-20)
(0.294006 0.0146015 3.06222e-20)
(-0.00156782 -0.00165988 -6.68924e-20)
(-0.0062644 -0.00927536 2.09567e-19)
(-0.0152503 -0.0196602 -6.5704e-20)
(-0.0255071 -0.0301607 1.24465e-19)
(-0.0350662 -0.0397745 -1.17204e-19)
(-0.0427252 -0.0483452 5.04742e-22)
(-0.0475939 -0.0559777 5.173e-20)
(-0.0490395 -0.0628186 1.91243e-19)
(-0.0466504 -0.0689584 -2.31245e-21)
(-0.0401724 -0.0743912 -8.40264e-20)
(-0.0294547 -0.0790163 0)
(-0.0144157 -0.0826619 -6.75898e-20)
(0.00497668 -0.0851147 1.29544e-19)
(0.0287139 -0.0861475 1.13201e-19)
(0.0567502 -0.0855441 -5.45116e-20)
(0.0890043 -0.0831219 -7.71916e-22)
(0.125361 -0.0787507 -4.17703e-20)
(0.165678 -0.0723664 7.21528e-20)
(0.209793 -0.0639933 6.45272e-20)
(0.257554 -0.0537341 -5.61233e-20)
(0.308474 -0.0418798 4.75434e-20)
(0.364199 -0.0284 -4.1013e-20)
(0.416016 -0.0147629 0)
(0.498214 0.0017143 -3.05759e-20)
(-0.00420242 0.003337 6.76311e-20)
(-0.0108522 0.0020205 -6.99461e-20)
(-0.0187801 -0.00464644 6.67518e-20)
(-0.0259079 -0.0133717 0)
(-0.0307835 -0.0225739 0)
(-0.0324563 -0.0316094 1.10893e-19)
(-0.0301657 -0.0402087 -1.03702e-19)
(-0.0233274 -0.048253 9.54236e-20)
(-0.0115343 -0.0556564 -4.47799e-19)
(0.00547348 -0.0623027 1.20925e-21)
(0.0278349 -0.0680266 7.63904e-20)
(0.0555828 -0.0726206 0)
(0.0886492 -0.0758545 -1.24728e-19)
(0.126867 -0.0774974 2.29565e-19)
(0.169975 -0.0773419 -1.57357e-19)
(0.21762 -0.0752258 -2.25214e-19)
(0.269375 -0.0710516 9.95045e-21)
(0.324752 -0.064802 1.48091e-19)
(0.383207 -0.0565599 0)
(0.44436 -0.0464263 0)
(0.506616 -0.0350095 -4.75327e-20)
(0.574122 -0.0214943 4.10033e-20)
(0.629403 -0.00908515 -1.37168e-19)
(0.725128 0.00748455 1.28698e-19)
(-0.00671522 0.0070012 0)
(-0.0148839 0.0104388 0)
(-0.0209487 0.0067819 -2.01035e-19)
(-0.023783 -0.000379873 6.37342e-20)
(-0.0224581 -0.00907842 3.38496e-22)
(-0.0162802 -0.0182868 1.1264e-19)
(-0.00462849 -0.0274217 0)
(0.0130037 -0.0361282 -9.74628e-20)
(0.0369716 -0.0441506 8.9849e-20)
(0.0674655 -0.051256 -1.65222e-19)
(0.104502 -0.0572049 1.65131e-21)
(0.147916 -0.0617485 1.3781e-19)
(0.197353 -0.0646437 -4.52721e-21)
(0.252276 -0.0656736 1.07714e-19)
(0.311975 -0.0646708 -1.59584e-19)
(0.375607 -0.0615394 0)
(0.442224 -0.0562711 1.58386e-19)
(0.510834 -0.0489543 -2.20525e-19)
(0.580388 -0.0398043 6.3577e-20)
(0.650206 -0.0289673 0)
(0.71795 -0.0173593 4.88987e-20)
(0.788419 -0.00374345 1.63478e-19)
(0.842435 0.00767074 -1.53416e-19)
(0.933228 0.024093 -1.62512e-19)
(-0.0087985 0.0092591 2.09033e-19)
(-0.0176429 0.0157379 -2.88552e-19)
(-0.0207728 0.0142356 6.80468e-23)
(-0.0179266 0.00834021 6.45033e-20)
(-0.00866294 0.000223069 -1.20951e-19)
(0.00745132 -0.00881686 -1.12057e-19)
(0.0308607 -0.0179526 2.09305e-19)
(0.0619239 -0.0266296 -3.12644e-21)
(0.100824 -0.03444 -1.8287e-19)
(0.147508 -0.0410458 3.33456e-19)
(0.201648 -0.0461472 -4.26398e-21)
(0.262611 -0.0494794 -1.42745e-19)
(0.329472 -0.0508268 0)
(0.401036 -0.0500435 0)
(0.475905 -0.0470727 -5.17183e-20)
(0.552555 -0.0419623 -9.26892e-20)
(0.629426 -0.0348691 -1.59624e-19)
(0.705015 -0.0260582 1.49833e-19)
(0.777929 -0.0158912 -6.35952e-20)
(0.847112 -0.00474023 1.09139e-19)
(0.910938 0.00665618 -5.53477e-20)
(0.971605 0.0187954 7.94359e-20)
(1.01816 0.0286302 -1.98239e-19)
(1.08435 0.0420362 3.32891e-20)
(-0.0101855 0.0101601 7.06084e-20)
(-0.0184375 0.0179175 0)
(-0.0172517 0.0176235 1.38132e-19)
(-0.00708846 0.0126353 -1.30129e-19)
(0.0120564 0.00517031 1.21054e-19)
(0.04034 -0.00330429 0)
(0.0779484 -0.0117871 0)
(0.124939 -0.0195741 -9.77756e-20)
(0.181096 -0.0261446 3.07588e-21)
(0.245836 -0.031097 8.62948e-20)
(0.318142 -0.034125 -7.55001e-20)
(0.396573 -0.0350184 1.43491e-19)
(0.479319 -0.0336766 0)
(0.564305 -0.0301209 2.26762e-19)
(0.649342 -0.0244997 -4.16033e-19)
(0.732275 -0.017083 2.83437e-19)
(0.811131 -0.00824212 1.60818e-19)
(0.884237 0.00156345 -1.50961e-19)
(0.950316 0.0118742 0)
(1.00846 0.022089 0)
(1.05833 0.0319499 0)
(1.10002 0.0407079 0)
(1.13219 0.0481165 3.91679e-20)
(1.16588 0.0556495 -1.40068e-19)
(-0.168051 0.228228 -7.03528e-21)
(-0.154826 0.298165 7.05657e-21)
(-0.138631 0.367535 -1.84479e-22)
(-0.120173 0.432594 0)
(-0.0994221 0.489911 -5.0975e-21)
(-0.0758294 0.535642 9.58433e-21)
(-0.0479675 0.565954 -2.42152e-22)
(-0.0133089 0.575876 -4.13881e-21)
(0.0307969 0.56048 0)
(0.0863186 0.515327 0)
(0.153467 0.438296 -2.52589e-22)
(0.229551 0.331229 -2.61051e-22)
(0.309712 0.198919 -4.39408e-21)
(0.389297 0.0481202 4.01112e-21)
(0.465653 -0.113706 0)
(0.536864 -0.273051 0)
(0.599292 -0.41031 2.74606e-21)
(0.648313 -0.507379 -4.80763e-22)
(0.680978 -0.558499 -2.00435e-21)
(0.697141 -0.571622 -9.44713e-23)
(0.700286 -0.559859 0)
(0.69431 -0.537784 0)
(0.676908 -0.522954 0)
(0.643218 -0.524856 0)
(0.598915 -0.525246 0)
(0.564873 -0.479622 0)
(0.562116 -0.353519 5.84682e-22)
(0.593639 -0.157065 -9.08974e-22)
(0.646473 0.0587964 0)
(0.704834 0.242905 0)
(0.754968 0.366761 -4.72356e-22)
(0.790976 0.431447 4.5907e-22)
(0.814096 0.45075 1.5954e-22)
(0.823403 0.453889 0)
(0.810865 0.468174 0)
(0.774653 0.488564 2.9236e-22)
(0.732155 0.470248 -2.84198e-22)
(0.708725 0.362252 0)
(0.713689 0.179324 4.0201e-22)
(0.743449 -0.0340379 -5.9416e-22)
(0.780122 -0.201738 1.72169e-22)
(0.818511 -0.3135 0)
(0.842942 -0.363143 -1.8856e-22)
(0.838957 -0.394217 1.83355e-22)
(0.803133 -0.414091 0)
(0.754879 -0.382661 0)
(0.729051 -0.296822 -8.33347e-23)
(0.739968 -0.110514 2.36397e-22)
(0.775829 0.0383214 0)
(0.814992 0.197487 0)
(0.824873 0.284721 -5.17499e-23)
(0.801098 0.349442 1.85513e-24)
(0.77874 0.37853 -1.87904e-24)
(0.773917 0.244053 4.51259e-23)
(0.793513 0.169798 0)
(0.814147 -0.0683192 0)
(0.812642 -0.181318 0)
(0.801542 -0.2813 0)
(0.801935 -0.386999 0)
(0.786362 -0.123787 0)
(-0.207206 0.207407 -5.69944e-22)
(-0.192408 0.273833 -2.29144e-20)
(-0.172856 0.339921 1.23561e-21)
(-0.148107 0.401804 2.03619e-20)
(-0.117537 0.456292 2.70463e-22)
(-0.080165 0.498308 0)
(-0.0350705 0.523556 -1.609e-20)
(0.0192338 0.52743 3.19404e-20)
(0.0839409 0.505358 -1.58576e-20)
(0.158515 0.454267 1.67432e-20)
(0.240893 0.373577 -1.60195e-20)
(0.327029 0.266004 1.76202e-20)
(0.41234 0.136302 -1.71456e-20)
(0.493052 -0.010457 -5.67589e-22)
(0.567933 -0.167751 -1.62644e-20)
(0.635222 -0.321665 1.58049e-20)
(0.689787 -0.450898 -1.17959e-20)
(0.726678 -0.53682 1.11327e-20)
(0.744784 -0.575287 -7.33028e-21)
(0.746385 -0.577119 1.2721e-20)
(0.736102 -0.557397 -5.46287e-21)
(0.719333 -0.528901 -2.53263e-22)
(0.695594 -0.50597 -3.70558e-21)
(0.658322 -0.499806 7.36271e-21)
(0.607919 -0.499427 -3.65558e-21)
(0.561497 -0.465284 2.48031e-22)
(0.543094 -0.358506 5.38555e-21)
(0.562112 -0.179494 4.85422e-22)
(0.609028 0.0269132 -1.02459e-20)
(0.667284 0.211203 9.16594e-21)
(0.721862 0.341505 -4.16666e-21)
(0.765713 0.414309 3.60668e-22)
(0.798004 0.44151 -1.59875e-22)
(0.814473 0.453666 2.72909e-22)
(0.806752 0.477589 0)
(0.775625 0.5038 0)
(0.740442 0.483725 -1.48243e-21)
(0.725397 0.367785 1.02896e-21)
(0.73614 0.175315 1.2983e-21)
(0.768547 -0.0446633 8.49922e-23)
(0.802326 -0.214515 -1.71536e-21)
(0.835274 -0.32375 2.85976e-22)
(0.853925 -0.366459 0)
(0.847314 -0.387903 0)
(0.809441 -0.401287 0)
(0.757665 -0.371334 0)
(0.728896 -0.294513 2.7298e-22)
(0.736229 -0.117454 -1.55495e-22)
(0.772701 0.0273063 0)
(0.80987 0.19072 0)
(0.820451 0.285747 0)
(0.796608 0.354835 -9.34028e-23)
(0.775016 0.38186 -4.32505e-24)
(0.77322 0.242296 -8.71172e-23)
(0.794443 0.165345 0)
(0.820667 -0.0699507 0)
(0.818367 -0.180507 5.86723e-23)
(0.807441 -0.279853 1.47121e-22)
(0.806538 -0.38559 0)
(0.788207 -0.122402 0)
(-0.183939 0.180963 -1.23453e-21)
(-0.16767 0.242184 -3.9645e-20)
(-0.144867 0.303879 3.62898e-20)
(-0.114356 0.360759 -3.40028e-20)
(-0.0757733 0.409894 -2.72328e-22)
(-0.0287959 0.44674 0)
(0.0283915 0.466967 -3.14439e-20)
(0.0958404 0.46626 3.07969e-20)
(0.1727 0.440392 2.49106e-22)
(0.257106 0.387292 5.24858e-22)
(0.345948 0.307316 5.5586e-22)
(0.435032 0.203481 5.63186e-22)
(0.520257 0.0798834 -3.81313e-20)
(0.599166 -0.0600537 3.76239e-20)
(0.671254 -0.210464 0)
(0.733656 -0.35712 1.00676e-21)
(0.77964 -0.477228 -2.47046e-20)
(0.80392 -0.552506 2.43374e-20)
(0.807424 -0.580581 0)
(0.795241 -0.574079 0)
(0.773039 -0.549272 -9.40953e-21)
(0.746573 -0.517284 1.69671e-20)
(0.717085 -0.488406 -1.42528e-20)
(0.677699 -0.474192 1.75979e-22)
(0.623901 -0.471171 1.33554e-20)
(0.56766 -0.447093 -1.50335e-20)
(0.534204 -0.360599 1.60484e-20)
(0.539276 -0.20158 1.12723e-22)
(0.57815 -0.00662485 -8.9423e-21)
(0.634417 0.17592 0)
(0.692097 0.31173 0)
(0.742955 0.392625 1.89645e-21)
(0.783755 0.428576 -2.51008e-21)
(0.80709 0.450673 -1.12464e-23)
(0.804615 0.484569 2.30179e-21)
(0.7794 0.5167 -2.23701e-21)
(0.751849 0.495687 0)
(0.744985 0.373261 4.13701e-22)
(0.761313 0.172899 4.23093e-21)
(0.796144 -0.0523171 -8.00473e-21)
(0.827053 -0.22387 3.30665e-21)
(0.854191 -0.33119 3.13629e-22)
(0.866728 -0.368256 -2.00216e-21)
(0.857473 -0.38091 1.5181e-21)
(0.818105 -0.388151 2.62775e-22)
(0.763398 -0.359823 2.40214e-22)
(0.731944 -0.292513 -2.73665e-22)
(0.735351 -0.125083 0)
(0.771889 0.0156772 0)
(0.806625 0.183444 -8.11089e-22)
(0.817869 0.286435 3.99873e-22)
(0.793872 0.359894 -3.66004e-22)
(0.772915 0.385179 5.80334e-22)
(0.774016 0.24038 8.18492e-22)
(0.796897 0.16052 -1.72098e-22)
(0.828619 -0.0716377 3.62691e-22)
(0.825387 -0.179518 -2.9291e-22)
(0.814313 -0.27805 1.39603e-22)
(0.81197 -0.383886 0)
(0.790952 -0.120913 0)
(-0.106114 0.151545 -6.73917e-20)
(-0.0884542 0.206366 2.79544e-21)
(-0.0635171 0.260738 6.10932e-20)
(-0.0311025 0.311215 -4.97159e-22)
(0.0117499 0.354266 0)
(0.0645466 0.386313 0)
(0.127807 0.402786 -5.99519e-20)
(0.200721 0.399168 -5.28866e-21)
(0.281763 0.372126 9.47673e-20)
(0.368422 0.320264 2.62189e-21)
(0.457233 0.244356 -3.51441e-20)
(0.544264 0.147183 -3.77247e-20)
(0.626338 0.0316702 3.78006e-20)
(0.702346 -0.100032 0)
(0.771704 -0.243114 -3.51286e-20)
(0.829529 -0.381902 3.20934e-20)
(0.866944 -0.492408 0)
(0.878736 -0.557436 0)
(0.868121 -0.576804 1.52243e-20)
(0.843098 -0.564241 -3.18843e-21)
(0.810526 -0.536345 -1.09636e-20)
(0.775626 -0.503211 -7.58034e-21)
(0.740738 -0.471045 7.51998e-21)
(0.700225 -0.449352 -6.06413e-21)
(0.645987 -0.441098 -6.1312e-23)
(0.583412 -0.423989 5.78825e-21)
(0.536176 -0.357698 8.53027e-22)
(0.526157 -0.221461 1.02439e-22)
(0.554592 -0.0407011 0)
(0.606614 0.137896 6.51601e-21)
(0.666009 0.277951 -6.66879e-21)
(0.722782 0.36669 3.26707e-22)
(0.771193 0.41195 0)
(0.801054 0.444478 -2.64896e-22)
(0.804187 0.488382 4.6488e-21)
(0.78546 0.526635 -9.38444e-21)
(0.765643 0.505912 -2.09764e-21)
(0.766683 0.379023 -1.25739e-21)
(0.788402 0.172562 6.49532e-21)
(0.825573 -0.056876 9.41719e-22)
(0.853863 -0.229947 -5.78289e-21)
(0.875068 -0.335994 5.0157e-21)
(0.881225 -0.368768 -6.93425e-24)
(0.869153 -0.373576 1.1924e-21)
(0.828743 -0.374856 -1.42293e-21)
(0.771724 -0.347992 -1.59835e-21)
(0.737883 -0.290509 4.75577e-22)
(0.737058 -0.133103 8.51787e-22)
(0.773197 0.00356341 -1.61998e-21)
(0.80518 0.175634 1.17106e-21)
(0.817114 0.286728 -3.87176e-22)
(0.79298 0.364611 3.03978e-22)
(0.772609 0.388551 3.60442e-22)
(0.776452 0.238401 -1.30063e-21)
(0.800913 0.155386 7.7257e-24)
(0.83795 -0.073364 -4.29418e-22)
(0.833657 -0.178325 0)
(0.822148 -0.275881 -1.36712e-22)
(0.81818 -0.381877 1.22156e-22)
(0.794534 -0.11932 0)
(0.00881699 0.118203 5.71837e-20)
(0.0254198 0.166313 -1.09963e-19)
(0.0509728 0.213005 5.22143e-20)
(0.0850158 0.257371 5.11988e-20)
(0.129002 0.295343 -1.01889e-19)
(0.182847 0.323178 -2.98106e-21)
(0.246443 0.336532 5.25995e-20)
(0.318841 0.331571 6.1173e-20)
(0.398253 0.305563 -5.99448e-20)
(0.482028 0.257337 0)
(0.566854 0.187521 -7.53698e-20)
(0.649305 0.0983128 1.51318e-19)
(0.727357 -0.00842114 -7.58894e-20)
(0.800764 -0.13169 0)
(0.867859 -0.266579 0)
(0.920925 -0.395898 1.03349e-21)
(0.949181 -0.495612 -5.09673e-20)
(0.94852 -0.550768 4.95129e-20)
(0.924803 -0.563575 0)
(0.888493 -0.547895 2.41585e-20)
(0.847525 -0.519204 -4.05936e-20)
(0.806056 -0.48678 3.1553e-20)
(0.766406 -0.45401 -2.58562e-20)
(0.725073 -0.426888 1.04066e-21)
(0.672626 -0.411949 2.02548e-20)
(0.607713 -0.397618 -9.92883e-21)
(0.54929 -0.349092 -3.83254e-22)
(0.523488 -0.237221 -5.71533e-21)
(0.539086 -0.0743979 -6.63506e-23)
(0.584514 0.0979034 5.85592e-21)
(0.643912 0.240608 3.41755e-22)
(0.705176 0.33664 -4.11534e-21)
(0.760057 0.3914 7.92215e-21)
(0.796021 0.434505 -4.27272e-21)
(0.80504 0.488365 0)
(0.793194 0.533171 -6.17764e-21)
(0.781094 0.514394 6.16005e-21)
(0.789736 0.385361 -7.11341e-21)
(0.816592 0.174546 8.85289e-21)
(0.856049 -0.0583318 -1.02407e-21)
(0.882199 -0.232686 0)
(0.897548 -0.337982 -6.46135e-22)
(0.897197 -0.367874 1.3671e-21)
(0.882139 -0.365968 0)
(0.841044 -0.361579 2.30976e-21)
(0.782252 -0.335936 -9.48225e-22)
(0.746316 -0.288336 4.21617e-22)
(0.74101 -0.141325 3.40817e-22)
(0.776358 -0.00895584 0)
(0.805403 0.167228 0)
(0.81812 0.286521 -1.04265e-21)
(0.793994 0.368948 1.80798e-21)
(0.774249 0.392016 -1.18909e-21)
(0.780647 0.236459 4.54033e-22)
(0.806508 0.149929 9.23566e-22)
(0.848596 -0.0751294 4.29823e-22)
(0.843117 -0.176885 -6.87513e-22)
(0.830923 -0.273302 0)
(0.82511 -0.379543 -2.16538e-22)
(0.798886 -0.117622 2.37979e-24)
(0.145167 0.0809203 5.05586e-20)
(0.160959 0.124337 -5.01743e-20)
(0.184378 0.165899 3.87721e-22)
(0.216927 0.204394 -3.4205e-22)
(0.258959 0.237291 3.81192e-22)
(0.310278 0.261273 -3.94114e-22)
(0.370505 0.272475 7.83967e-22)
(0.438725 0.267525 0)
(0.513231 0.244023 -9.3137e-22)
(0.5916 0.200717 1.01306e-21)
(0.671033 0.13773 1.08872e-21)
(0.748754 0.0563453 -1.19385e-21)
(0.823523 -0.0419198 0)
(0.895075 -0.156763 0)
(0.959583 -0.282167 1.1e-21)
(1.00644 -0.400071 0)
(1.02432 -0.488042 -8.43829e-22)
(1.01142 -0.534205 0)
(0.976268 -0.54267 -2.98112e-20)
(0.930762 -0.52652 5.2608e-20)
(0.88335 -0.499055 -3.99718e-20)
(0.837186 -0.468532 1.73083e-20)
(0.793619 -0.437034 1.09581e-20)
(0.751281 -0.407016 -1.06422e-20)
(0.701883 -0.385375 -8.553e-21)
(0.6386 -0.369768 8.30873e-21)
(0.573 -0.334705 0)
(0.531833 -0.247164 2.4383e-22)
(0.532432 -0.105575 0)
(0.568858 0.0571216 0)
(0.626123 0.200297 7.27344e-21)
(0.690063 0.302654 -7.4954e-21)
(0.750051 0.366764 3.84519e-22)
(0.791631 0.420323 4.66313e-22)
(0.806658 0.483975 -4.78939e-22)
(0.801888 0.535953 -5.54811e-21)
(0.797394 0.521019 5.38693e-21)
(0.81322 0.392267 -9.20526e-21)
(0.845006 0.178885 8.01297e-21)
(0.886869 -0.0566906 2.08695e-21)
(0.911509 -0.232151 -6.23335e-21)
(0.921257 -0.337136 8.27165e-22)
(0.914379 -0.36556 3.49772e-21)
(0.896169 -0.358192 0)
(0.854652 -0.348449 -9.28427e-22)
(0.794534 -0.323658 1.06153e-21)
(0.756775 -0.285814 -1.41865e-21)
(0.746803 -0.149561 -3.42978e-22)
(0.781061 -0.0218389 0)
(0.807113 0.158131 3.35624e-22)
(0.820773 0.285672 -5.78339e-22)
(0.796937 0.372832 -1.29526e-23)