/*--------------------------------*- C++ -*----------------------------------*\
| =========                 |                                                 |
| \\      /  F ield         | OpenFOAM: The Open Source CFD Toolbox           |
|  \\    /   O peration     | Version:  2512                                  |
|   \\  /    A nd           | Website:  www.openfoam.com                      |
|    \\/     M anipulation  |                                                 |
\*---------------------------------------------------------------------------*/
FoamFile
{
    version     2.0;
    format      ascii;
    arch        "LSB;label=32;scalar=64";
    class       volVectorField;
    location    "78.25";
    object      U;
}
// * * * * * * * * * * * * * * * * * * * * * * * * * * * * * * * * * * * * * //

dimensions      [0 1 -1 0 0 0 0];

internalField   nonuniform List<vector> 
13248
(
(-0.0117254 0.0113549 7.60048e-20)
(-0.0189038 0.0219615 0)
(-0.011238 0.0252902 -1.44173e-19)
(0.00973827 0.0236589 1.35812e-19)
(0.0431416 0.0189955 1.27672e-19)
(0.0884118 0.0128396 0)
(0.145033 0.00634238 0)
(0.212315 0.00035014 3.09874e-19)
(0.289202 -0.0045253 -2.00414e-21)
(0.374127 -0.00786683 -2.69725e-19)
(0.464973 -0.00943274 2.47044e-19)
(0.559142 -0.00914653 -1.54298e-19)
(0.653719 -0.00708538 0)
(0.745708 -0.00346035 -2.51874e-19)
(0.832285 0.00141432 4.64633e-19)
(0.91103 0.00716016 -1.10188e-19)
(0.980112 0.0133796 -1.84263e-19)
(1.03839 0.0196854 1.72984e-19)
(1.08546 0.0257834 0)
(1.12153 0.0312901 0)
(1.14762 0.0364398 0)
(1.1643 0.0398468 0)
(1.17497 0.044604 4.52403e-20)
(1.17673 0.0427217 1.54552e-19)
(-0.0106711 0.00933704 -2.29585e-19)
(-0.0128844 0.0166764 1.56646e-19)
(0.00300649 0.0181332 -1.11099e-21)
(0.0351925 0.0157889 -2.07378e-19)
(0.0825183 0.011463 -1.27533e-19)
(0.144033 0.0066629 -1.2061e-19)
(0.218595 0.00250878 -2.22381e-19)
(0.304601 -0.000217559 2.0981e-19)
(0.399801 -0.00103096 0)
(0.50125 0.0002759 1.55028e-21)
(0.605428 0.00365092 3.07027e-21)
(0.708512 0.00881624 1.53436e-19)
(0.80673 0.0153222 0)
(0.896728 0.0226182 0)
(0.975873 0.0301303 1.67315e-19)
(1.04245 0.0373333 -3.14059e-19)
(1.09575 0.0438082 1.80124e-19)
(1.136 0.0492739 -1.69109e-19)
(1.16423 0.0536028 -7.24246e-20)
(1.18209 0.056773 -1.26532e-19)
(1.19145 0.0590027 -5.00535e-20)
(1.19458 0.0600339 -9.24317e-20)
(1.19309 0.0616339 1.40187e-19)
(1.1883 0.0590388 3.92713e-20)
(-0.00860104 0.00698165 0)
(-0.00336324 0.0105121 0)
(0.0235239 0.00997435 7.33917e-20)
(0.0698342 0.00722963 6.787e-20)
(0.13393 0.0039774 -1.37555e-21)
(0.214123 0.00164624 -1.23614e-19)
(0.308151 0.00121457 0)
(0.412928 0.00322426 -1.04276e-19)
(0.524491 0.00780812 9.71091e-20)
(0.63821 0.0147226 2.00744e-23)
(0.749195 0.023415 -1.64288e-19)
(0.852832 0.0331302 -1.48118e-19)
(0.945279 0.0430393 4.54574e-21)
(1.02384 0.0523678 -1.16998e-19)
(1.08714 0.0604985 2.85041e-19)
(1.13513 0.0670342 0)
(1.16889 0.0718162 -1.75607e-19)
(1.19031 0.074898 8.57056e-20)
(1.20179 0.0765076 7.23602e-20)
(1.20583 0.076927 0)
(1.20483 0.0766144 5.68906e-20)
(1.20067 0.0755217 -1.93284e-19)
(1.19487 0.0750325 1.8144e-19)
(1.18876 0.0715866 1.10988e-19)
(-0.00522387 0.00439705 -8.08351e-20)
(0.0104785 0.00396523 -8.34305e-20)
(0.0515767 0.00181413 7.57704e-20)
(0.115157 -0.000493244 0)
(0.198703 -0.00145963 0)
(0.299229 0.000130678 -1.98236e-21)
(0.41271 0.00490122 0)
(0.534008 0.0128792 -3.14891e-19)
(0.657183 0.0235646 2.91706e-19)
(0.776109 0.0360508 -3.5934e-19)
(0.885227 0.0492061 8.18959e-20)
(0.98021 0.0618821 0)
(1.0584 0.0731029 1.32257e-19)
(1.11891 0.0821952 -2.43347e-19)
(1.1625 0.0888422 5.78623e-20)
(1.19113 0.0930629 1.42987e-19)
(1.20754 0.095137 -8.92936e-21)
(1.21472 0.0955014 -1.57993e-19)
(1.21549 0.0946458 0)
(1.21225 0.0930186 0)
(1.2068 0.0910446 -5.38102e-20)
(1.20037 0.0887455 4.76895e-20)
(1.19379 0.0871745 1.66605e-19)
(1.18721 0.0831538 -1.56415e-19)
(-0.000168547 0.00168964 -8.46727e-20)
(0.0295038 -0.00243514 -8.44984e-20)
(0.0882578 -0.00528524 2.37852e-19)
(0.172086 -0.00579583 -1.4468e-19)
(0.276995 -0.00286988 1.36184e-19)
(0.397986 0.00424052 2.47946e-19)
(0.528641 0.0154797 -1.74766e-19)
(0.66151 0.0300365 -2.11311e-19)
(0.788994 0.0465593 5.06061e-21)
(0.904397 0.0634474 2.70194e-19)
(1.00281 0.079168 0)
(1.08161 0.0925207 7.29379e-20)
(1.14046 0.102791 0)
(1.18094 0.109774 -1.16372e-19)
(1.20589 0.113698 1.63291e-19)
(1.21879 0.115076 1.3761e-21)
(1.22307 0.114545 -4.18075e-20)
(1.22171 0.112736 7.68095e-20)
(1.21706 0.110179 6.60799e-20)
(1.21073 0.107264 -5.86542e-20)
(1.20376 0.104264 5.37967e-20)
(1.19674 0.101214 -4.76772e-20)
(1.18993 0.0986973 0)
(1.18358 0.0943604 -3.61489e-20)
(0.00696151 -0.000981637 8.46607e-20)
(0.05448 -0.00804546 8.85255e-20)
(0.134251 -0.0101565 -7.96084e-20)
(0.240639 -0.00708515 1.48165e-19)
(0.367431 0.00152193 -1.39456e-19)
(0.506912 0.0155559 1.26059e-19)
(0.649965 0.0338995 -6.03863e-20)
(0.78722 0.0546603 1.58756e-19)
(0.910519 0.0756402 -9.9468e-20)
(1.01412 0.0948126 1.74595e-19)
(1.09529 0.110687 -4.01535e-19)
(1.15418 0.122487 1.46852e-19)
(1.19315 0.130128 -1.26897e-19)
(1.21591 0.134056 1.19194e-19)
(1.22656 0.135021 1.0116e-19)
(1.22895 0.133855 8.74902e-20)
(1.22619 0.131313 -2.43443e-19)
(1.22058 0.127991 1.50461e-19)
(1.21362 0.124304 -6.60815e-20)
(1.20622 0.120514 1.70762e-19)
(1.19889 0.116766 -5.51779e-20)
(1.19184 0.113092 -1.32396e-19)
(1.1852 0.109798 1.21915e-19)
(1.17898 0.105246 3.6137e-20)
(0.0165224 -0.00336872 0)
(0.0859205 -0.0120615 5.96631e-22)
(0.189612 -0.0115294 1.65274e-19)
(0.319708 -0.00285056 -1.55164e-19)
(0.467036 0.0130932 -1.39932e-19)
(0.620764 0.0348705 2.5994e-19)
(0.769444 0.0600042 -1.20654e-19)
(0.902978 0.0855349 1.60315e-19)
(1.01434 0.10876 -3.81231e-21)
(1.10034 0.127765 -9.04075e-20)
(1.16143 0.141635 1.95805e-19)
(1.2007 0.150381 -2.88089e-19)
(1.22265 0.15467 0)
(1.23209 0.155496 -5.57342e-20)
(1.23325 0.153894 -1.47518e-19)
(1.22946 0.150759 4.65748e-20)
(1.22306 0.146765 2.08488e-21)
(1.21551 0.142366 -9.90493e-20)
(1.20767 0.137841 7.18099e-21)
(1.19998 0.133345 1.14113e-19)
(1.19265 0.128954 -5.00796e-20)
(1.18574 0.124705 -1.88789e-20)
(1.17924 0.120691 5.87545e-20)
(1.17314 0.115932 0)
(0.028764 -0.00512518 0)
(0.123936 -0.0135263 4.47644e-20)
(0.2536 -0.00809039 -2.14848e-19)
(0.406994 0.00820335 7.81183e-20)
(0.571496 0.0326553 -7.35224e-20)
(0.733388 0.0621104 -6.6927e-20)
(0.880078 0.0927036 -1.18323e-19)
(1.00255 0.120791 5.91111e-20)
(1.09659 0.143787 5.14276e-20)
(1.16261 0.160486 0)
(1.20426 0.170925 1.15742e-19)
(1.22688 0.175982 -1.71302e-19)
(1.23603 0.176921 1.27446e-19)
(1.23649 0.175019 5.57626e-20)
(1.23193 0.171348 -4.51352e-20)
(1.22483 0.166692 -3.71882e-20)
(1.21669 0.161569 -3.44684e-20)
(1.20838 0.15629 1.04243e-19)
(1.2003 0.151026 0)
(1.19264 0.145867 5.14482e-20)
(1.18546 0.140856 4.27053e-20)
(1.17872 0.136015 -1.06646e-19)
(1.17239 0.131322 -7.2112e-20)
(1.16639 0.126354 6.67331e-20)
(0.0437739 -0.00582338 -4.79059e-20)
(0.168121 -0.0113984 -1.58282e-21)
(0.324608 0.00138575 4.36083e-20)
(0.499158 0.0269865 1.2146e-19)
(0.675743 0.0603414 3.51847e-20)
(0.838811 0.0964291 -6.80435e-20)
(0.976475 0.130366 6.22679e-20)
(1.08264 0.158519 -5.45972e-20)
(1.15703 0.179101 9.74042e-20)
(1.20366 0.192035 4.1332e-20)
(1.2287 0.198386 -1.17129e-19)
(1.23859 0.199729 3.44256e-20)
(1.2389 0.197649 5.83209e-20)
(1.23379 0.193457 -2.87801e-20)
(1.22603 0.188101 0)
(1.21726 0.182192 4.22707e-20)
(1.20839 0.176091 7.09528e-20)
(1.19983 0.169996 1.17312e-20)
(1.19177 0.164007 -5.88211e-20)
(1.18425 0.158176 2.44174e-20)
(1.17724 0.152529 0)
(1.17068 0.147065 -1.89808e-20)
(1.1645 0.141729 -1.78082e-20)
(1.15861 0.136491 0)
(0.0614284 -0.00499302 0)
(0.217491 -0.00466791 2.50508e-20)
(0.400218 0.0178688 4.62711e-20)
(0.592162 0.0538762 -1.23449e-19)
(0.774695 0.095611 3.9764e-20)
(0.932207 0.136458 0)
(1.05552 0.171257 5.96926e-20)
(1.14277 0.197181 -8.32562e-20)
(1.19781 0.213757 -4.85349e-20)
(1.22756 0.222156 2.19627e-20)
(1.23957 0.224308 -3.46663e-20)
(1.24043 0.222202 8.44314e-20)
(1.23506 0.217487 4.20005e-20)
(1.2267 0.211346 -2.93924e-20)
(1.21726 0.204532 -2.93982e-21)
(1.20774 0.197485 -7.91102e-20)
(1.19862 0.190438 3.5937e-20)
(1.19008 0.183512 -9.02116e-22)
(1.18216 0.176765 0)
(1.17484 0.170228 -2.44427e-20)
(1.16804 0.16391 0)
(1.16169 0.157791 5.4658e-20)
(1.15569 0.151845 -6.48645e-20)
(1.14992 0.146255 2.94808e-20)
(0.0813603 -0.00216801 -1.29456e-20)
(0.270483 0.00752176 -6.28037e-20)
(0.47737 0.0419288 7.13019e-20)
(0.681739 0.0886541 4.19102e-20)
(0.863927 0.137373 -2.00663e-20)
(1.01038 0.180604 3.35769e-20)
(1.11624 0.213841 -1.6348e-20)
(1.18431 0.235732 2.71509e-20)
(1.22202 0.247341 0)
(1.23815 0.250962 6.11619e-20)
(1.24062 0.249104 -2.61084e-21)
(1.23545 0.243893 -4.91839e-20)
(1.22663 0.236861 2.09753e-20)
(1.2165 0.228982 -2.35326e-20)
(1.20627 0.220814 -8.83593e-21)
(1.19651 0.212649 1.03376e-20)
(1.18741 0.204633 -7.89588e-21)
(1.17903 0.196834 -4.2645e-20)
(1.17133 0.189287 2.61083e-20)
(1.16426 0.182006 5.30171e-21)
(1.15772 0.174987 4.64581e-21)
(1.1516 0.168197 4.07215e-21)
(1.14581 0.161677 0)
(1.14019 0.155627 0)
(0.103022 0.00307619 1.29545e-20)
(0.325168 0.0257814 -1.29659e-20)
(0.552799 0.0736471 -2.37249e-20)
(0.764009 0.130537 0)
(0.940183 0.184189 -9.93874e-21)
(1.07177 0.227309 -8.90428e-21)
(1.1591 0.256928 -1.52548e-20)
(1.20936 0.273566 0)
(1.23257 0.279776 0)
(1.23832 0.278701 0)
(1.23417 0.273131 0)
(1.2252 0.265118 0)
(1.21445 0.255979 -1.3132e-20)
(1.20348 0.246463 5.97092e-21)
(1.19301 0.236955 1.03388e-20)
(1.18329 0.227642 4.82713e-21)
(1.17439 0.218604 1.18639e-20)
(1.16629 0.209879 0)
(1.15891 0.201483 -2.8083e-21)
(1.15217 0.193421 -2.67354e-21)
(1.14597 0.18567 -4.65319e-21)
(1.14018 0.178206 -4.07864e-21)
(1.13468 0.171142 0)
(1.12932 0.16452 2.88476e-21)
(-0.000546074 -0.022492 8.15552e-21)
(-0.00453339 -0.0580485 -8.46922e-21)
(-0.013186 -0.0860983 -1.60389e-20)
(-0.0244628 -0.107512 0)
(-0.0371498 -0.123393 -2.1481e-20)
(-0.0505462 -0.135025 6.75461e-21)
(-0.064119 -0.143676 -1.27309e-20)
(-0.0774733 -0.150432 0)
(-0.0903445 -0.156107 0)
(-0.102568 -0.161214 0)
(-0.114047 -0.165988 0)
(-0.124729 -0.170447 0)
(-0.13458 -0.174449 8.72656e-23)
(-0.143572 -0.177748 -8.46182e-21)
(-0.151673 -0.180035 1.58004e-20)
(-0.158839 -0.18096 2.24139e-20)
(-0.165012 -0.180148 6.8631e-21)
(-0.170128 -0.177211 0)
(-0.174122 -0.171756 6.32723e-21)
(-0.176946 -0.163402 -1.74605e-20)
(-0.17855 -0.151811 -1.07833e-20)
(-0.178835 -0.136666 -1.00777e-20)
(-0.177877 -0.117606 0)
(-0.176681 -0.0944185 0)
(0.00016422 -0.0180275 -2.44565e-20)
(-0.00323728 -0.0475015 4.22429e-20)
(-0.0123206 -0.0715417 -1.58664e-20)
(-0.0245147 -0.0904076 -3.02513e-20)
(-0.0383176 -0.104816 4.27801e-20)
(-0.0528848 -0.115774 -2.69429e-20)
(-0.067596 -0.124329 3.8071e-20)
(-0.0820101 -0.131395 2.38984e-20)
(-0.0958475 -0.137652 0)
(-0.108947 -0.143519 -2.13231e-20)
(-0.121227 -0.149172 -5.66163e-23)
(-0.13265 -0.154597 1.88759e-20)
(-0.143198 -0.159644 2.64841e-20)
(-0.15286 -0.164075 3.321e-20)
(-0.161618 -0.167596 -1.58251e-20)
(-0.169443 -0.169878 -4.40945e-20)
(-0.176296 -0.170563 1.33615e-20)
(-0.182131 -0.169274 -5.06672e-20)
(-0.186911 -0.165609 0)
(-0.190634 -0.159161 1.15078e-20)
(-0.193277 -0.149529 1.07711e-20)
(-0.19465 -0.136303 1.00662e-20)
(-0.194788 -0.119009 0)
(-0.195763 -0.0973802 0)
(0.000269959 -0.0127913 0)
(-0.00310263 -0.0353494 8.42413e-20)
(-0.0125579 -0.0550327 -3.1798e-20)
(-0.0252432 -0.0712996 3.01963e-20)
(-0.0395033 -0.0843447 -8.53382e-20)
(-0.0544185 -0.0948072 0)
(-0.0693218 -0.103454 -5.06723e-20)
(-0.083747 -0.110992 2.37841e-20)
(-0.0974054 -0.117956 -4.49064e-20)
(-0.110137 -0.124674 2.10391e-20)
(-0.121862 -0.131271 1.1893e-19)
(-0.132549 -0.137715 -5.5819e-20)
(-0.142186 -0.143857 -8.71963e-20)
(-0.150764 -0.149473 -3.21087e-20)
(-0.158269 -0.154291 4.22667e-22)
(-0.164677 -0.158003 1.13502e-19)
(-0.169952 -0.160271 -5.30452e-20)
(-0.17405 -0.160728 1.01407e-21)
(-0.176932 -0.158965 0)
(-0.178604 -0.154539 -4.0414e-20)
(-0.179049 -0.146963 0)
(-0.177965 -0.135706 -3.54088e-20)
(-0.175151 -0.120217 1.27361e-19)
(-0.173603 -0.100298 -1.46098e-21)
(-0.000275465 -0.00719598 0)
(-0.00419031 -0.0224572 1.15218e-22)
(-0.0139117 -0.0376391 3.20073e-20)
(-0.0265938 -0.0513188 -3.02906e-20)
(-0.0405816 -0.0630993 2.83319e-20)
(-0.054957 -0.0731966 1.61441e-19)
(-0.0690507 -0.0820626 -5.06367e-20)
(-0.0823929 -0.0901772 -4.78242e-20)
(-0.094692 -0.0979273 8.98398e-20)
(-0.105785 -0.10555 -1.26399e-19)
(-0.115589 -0.113127 3.95594e-20)
(-0.124067 -0.120613 3.69905e-20)
(-0.131205 -0.127866 0)
(-0.136992 -0.134681 3.24134e-20)
(-0.141412 -0.140808 0)
(-0.144445 -0.145967 5.49984e-20)
(-0.146059 -0.149852 -1.01269e-19)
(-0.146209 -0.15212 2.61799e-20)
(-0.144843 -0.152388 8.7184e-20)
(-0.141941 -0.150207 4.03784e-20)
(-0.137494 -0.145028 0)
(-0.131146 -0.136158 -9.57393e-20)
(-0.122143 -0.122786 3.12789e-20)
(-0.113406 -0.104497 0)
(-0.00143189 -0.00167232 0)
(-0.0064033 -0.0097141 -1.01623e-19)
(-0.0162357 -0.0204379 -3.24656e-20)
(-0.0283726 -0.0315829 -6.07457e-20)
(-0.04131 -0.0421628 5.72025e-20)
(-0.0542057 -0.051958 -5.38907e-20)
(-0.0664301 -0.0610944 1.01844e-19)
(-0.0775295 -0.0698203 4.78011e-20)
(-0.0872141 -0.0783706 -1.35016e-19)
(-0.0953135 -0.0868939 8.43347e-20)
(-0.101735 -0.0954301 -1.18494e-19)
(-0.10643 -0.103921 2.58402e-19)
(-0.109376 -0.11223 -1.38301e-19)
(-0.110556 -0.120169 6.39003e-20)
(-0.109961 -0.127507 1.76277e-19)
(-0.107581 -0.133992 -5.72734e-20)
(-0.103405 -0.139346 -5.22592e-20)
(-0.0974185 -0.143273 -4.74213e-20)
(-0.0895943 -0.145444 0)
(-0.0799206 -0.145478 -7.27423e-20)
(-0.0684452 -0.142878 -6.12882e-20)
(-0.0549911 -0.136872 9.29235e-20)
(-0.0382774 -0.126164 1.02281e-19)
(-0.0187709 -0.109309 -9.44217e-20)
(-0.00307612 0.00337878 0)
(-0.00949112 0.00204646 -1.37217e-19)
(-0.0192229 -0.00444482 -6.71233e-22)
(-0.0302366 -0.0131506 1.2215e-19)
(-0.041304 -0.0225629 0)
(-0.05172 -0.0320554 0)
(-0.0609292 -0.041438 0)
(-0.0685091 -0.050731 -4.79642e-20)
(-0.0741729 -0.0600181 1.80041e-22)
(-0.077737 -0.0693579 8.51089e-20)
(-0.0790882 -0.0787435 -1.1823e-19)
(-0.078159 -0.0880983 4.41002e-22)
(-0.0749108 -0.0972843 0)
(-0.0693248 -0.106116 -6.38722e-20)
(-0.061399 -0.114373 5.74e-20)
(-0.0511485 -0.121812 -1.63226e-19)
(-0.0386061 -0.128172 1.95613e-19)
(-0.0238195 -0.133186 3.89854e-20)
(-0.00684174 -0.136581 -7.37309e-21)
(0.0122696 -0.13808 -1.47336e-19)
(0.0334035 -0.137364 -6.26108e-20)
(0.0564686 -0.1339 1.90379e-19)
(0.0823698 -0.126277 -1.22611e-19)
(0.114881 -0.111351 0)
(-0.00501964 0.00762654 6.72333e-20)
(-0.0130747 0.012111 6.8737e-20)
(-0.022422 0.00944116 -6.59544e-20)
(-0.0316955 0.00301319 -1.23902e-19)
(-0.0400269 -0.00526189 1.16671e-19)
(-0.046888 -0.0144068 -1.10171e-19)
(-0.0518171 -0.0239471 1.5582e-19)
(-0.0544323 -0.0336912 -4.78618e-20)
(-0.0544492 -0.0435747 9.16095e-20)
(-0.0516638 -0.053561 0)
(-0.0459343 -0.0635877 7.97411e-20)
(-0.0371687 -0.0735479 -1.50447e-19)
(-0.0253163 -0.0832874 1.37403e-19)
(-0.0103651 -0.0926109 -1.29055e-19)
(0.00765665 -0.10129 0)
(0.0286765 -0.109072 1.07751e-19)
(0.052576 -0.115694 1.91759e-19)
(0.0791921 -0.120889 -1.80223e-19)
(0.108325 -0.124406 -7.87104e-20)
(0.139752 -0.126018 -6.62142e-20)
(0.173179 -0.125556 1.90173e-19)
(0.208496 -0.12281 4.81497e-20)
(0.24461 -0.117185 -4.93626e-20)
(0.294262 -0.104093 3.84339e-20)
(-0.00704103 0.0108422 -6.72424e-20)
(-0.0166981 0.019942 2.11523e-19)
(-0.0252834 0.0204948 -6.6657e-20)
(-0.0321458 0.016086 1.25557e-19)
(-0.0368071 0.00888587 -1.18227e-19)
(-0.0389361 0.00014299 7.05704e-22)
(-0.0381783 -0.00943265 5.27713e-20)
(-0.0341939 -0.019459 1.98219e-19)
(-0.026698 -0.029731 -5.94415e-22)
(-0.0154693 -0.040112 -8.65571e-20)
(-0.000346218 -0.0504735 0)
(0.0187688 -0.060664 -7.45519e-20)
(0.0419043 -0.0704982 1.40405e-19)
(0.0690142 -0.0797564 1.27206e-19)
(0.0999697 -0.0881906 -6.03345e-20)
(0.134555 -0.0955343 4.84199e-23)
(0.172468 -0.101515 -4.88533e-20)
(0.213327 -0.105868 8.76651e-20)
(0.256686 -0.108354 7.86813e-20)
(0.302083 -0.108764 -6.9707e-20)
(0.348776 -0.107034 6.0515e-20)
(0.397647 -0.102708 -5.24461e-20)
(0.441533 -0.0972329 0)
(0.510578 -0.0834295 -3.83622e-20)
(-0.0089173 0.012917 6.90977e-20)
(-0.0198742 0.0252174 -7.08482e-20)
(-0.027191 0.0282167 6.80319e-20)
(-0.0308848 0.0254462 0)
(-0.0308523 0.019189 0)
(-0.0269526 0.0108755 1.14432e-19)
(-0.0189399 0.00139858 -1.06301e-19)
(-0.0065276 -0.00869998 1.00114e-19)
(0.010554 -0.0190839 -4.68172e-19)
(0.0325189 -0.0295154 5.15013e-22)
(0.0594995 -0.039791 8.1914e-20)
(0.0915275 -0.0497029 0)
(0.128511 -0.0590244 -1.39043e-19)
(0.170222 -0.067507 2.58316e-19)
(0.216282 -0.0748868 -1.7906e-19)
(0.266173 -0.0808967 -2.65625e-19)
(0.319246 -0.0852814 7.96901e-21)
(0.374748 -0.0878139 1.78826e-19)
(0.431847 -0.0883193 0)
(0.489835 -0.0866068 0)
(0.54708 -0.0829625 -6.05e-20)
(0.606554 -0.0760651 5.24326e-20)
(0.653607 -0.0699537 -1.7161e-19)
(0.734318 -0.0539258 1.61059e-19)
(-0.0104554 0.0138639 0)
(-0.0221293 0.0278464 0)
(-0.0274919 0.0323691 -2.05304e-19)
(-0.0271143 0.0307285 6.51339e-20)
(-0.0212177 0.025198 4.49236e-23)
(-0.00983301 0.0173079 1.15926e-19)
(0.00717552 0.00807799 0)
(0.0300215 -0.0018215 -1.01396e-19)
(0.0589092 -0.011937 9.40685e-20)
(0.0939648 -0.0219341 -1.76491e-19)
(0.13518 -0.0315309 8.63221e-22)
(0.182366 -0.0404626 1.51415e-19)
(0.235125 -0.0484671 -2.64128e-21)
(0.292834 -0.0552853 1.2491e-19)
(0.35465 -0.0606698 -1.81177e-19)
(0.419542 -0.0644 0)
(0.48634 -0.0662969 1.90242e-19)
(0.553802 -0.0662365 -2.65934e-19)
(0.62065 -0.0641845 7.73722e-20)
(0.685924 -0.0600183 0)
(0.747464 -0.0544021 6.01823e-20)
(0.80891 -0.0455269 2.02148e-19)
(0.854128 -0.0387399 -1.89714e-19)
(0.92973 -0.0219263 -1.91034e-19)
(-0.0115086 0.0137979 2.15157e-19)
(-0.0230212 0.0279579 -2.96512e-19)
(-0.0254941 0.0330053 1.86238e-22)
(-0.0199111 0.0319048 6.62402e-20)
(-0.00675261 0.0268385 -1.24228e-19)
(0.0137981 0.0193733 -1.15248e-19)
(0.041751 0.0106087 2.1715e-19)
(0.077189 0.00131086 -1.76247e-21)
(0.120147 -0.00797109 -1.91127e-19)
(0.170503 -0.0168186 3.54573e-19)
(0.227897 -0.0248885 -2.28121e-21)
(0.291669 -0.0318853 -1.54249e-19)
(0.360836 -0.0375531 0)
(0.434114 -0.0416797 0)
(0.509964 -0.0441073 -5.92132e-20)
(0.586689 -0.0447436 -1.06803e-19)
(0.662538 -0.0435689 -1.89119e-19)
(0.735822 -0.040642 1.77525e-19)
(0.805019 -0.036095 -7.7398e-20)
(0.868949 -0.0300525 1.3249e-19)
(0.926204 -0.0230678 -6.81224e-20)
(0.978566 -0.0140925 9.49713e-20)
(1.01675 -0.00722552 -2.37988e-19)
(1.07169 0.00770486 3.96197e-20)
(-0.0119658 0.0128957 7.27876e-20)
(-0.0221111 0.0258599 0)
(-0.0204088 0.030467 1.41838e-19)
(-0.00814001 0.0293365 -1.33617e-19)
(0.0140143 0.0245236 1.24336e-19)
(0.0457179 0.0175891 0)
(0.086796 0.00967196 0)
(0.137074 0.00159897 -1.02424e-19)
(0.196213 -0.00601851 1.58383e-21)
(0.263572 -0.012719 9.03338e-20)
(0.338111 -0.0181533 -8.16449e-20)
(0.418356 -0.0220684 1.5447e-19)
(0.502439 -0.0243055 0)
(0.588194 -0.0248021 2.5429e-19)
(0.673304 -0.0235922 -4.69687e-19)
(0.755473 -0.020802 3.23671e-19)
(0.832599 -0.0166329 1.87212e-19)
(0.90291 -0.0113577 -1.75742e-19)
(0.965112 -0.00523818 0)
(1.01832 0.0013144 0)
(1.06244 0.00822004 0)
(1.09757 0.0149673 0)
(1.12318 0.0208943 4.63334e-20)
(1.14999 0.0299347 -1.60123e-19)
(-0.176532 -0.0633516 -6.58215e-21)
(-0.171521 -0.0193671 6.60155e-21)
(-0.163993 0.0331699 -1.84982e-22)
(-0.153986 0.0929837 0)
(-0.141233 0.158551 -5.70115e-21)
(-0.12589 0.227641 1.08537e-20)
(-0.108351 0.297445 -2.84895e-22)
(-0.0892484 0.364698 -4.74243e-21)
(-0.0692116 0.4259 0)
(-0.0484524 0.477848 0)
(-0.0261179 0.516324 -2.02054e-22)
(8.99116e-05 0.537028 -1.88889e-22)
(0.0334827 0.534976 -3.09946e-21)
(0.0776039 0.504326 2.83477e-21)
(0.134351 0.440875 0)
(0.202386 0.344849 0)
(0.277091 0.220314 3.16183e-21)
(0.35337 0.0744901 3.41787e-23)
(0.428398 -0.0838174 -2.82206e-21)
(0.500102 -0.239575 -1.77408e-22)
(0.564016 -0.37212 0)
(0.614728 -0.464517 0)
(0.64839 -0.513214 0)
(0.665344 -0.525789 0)
(0.6696 -0.514735 0)
(0.660061 -0.4992 0)
(0.629314 -0.49803 3.03401e-22)
(0.579641 -0.505648 -4.76585e-22)
(0.533719 -0.481529 0)
(0.520247 -0.38157 0)
(0.547941 -0.203579 -5.94958e-22)
(0.603516 0.00718446 5.78219e-22)
(0.667472 0.196426 2.45446e-22)
(0.722939 0.331435 0)
(0.762867 0.405937 0)
(0.789856 0.430996 2.48943e-22)
(0.79951 0.437315 -2.41985e-22)
(0.78024 0.456946 0)
(0.734254 0.476804 2.44751e-22)
(0.689811 0.442301 -3.74375e-22)
(0.676738 0.307002 1.62241e-22)
(0.69749 0.103697 0)
(0.738294 -0.104849 -2.7756e-22)
(0.781476 -0.251026 2.69889e-22)
(0.819731 -0.334361 0)
(0.83162 -0.373491 0)
(0.80497 -0.404135 -6.13353e-23)
(0.753441 -0.407785 1.72142e-22)
(0.713505 -0.329683 0)
(0.711736 -0.187686 0)
(0.747969 0.0180061 -5.76674e-23)
(0.787597 0.151078 5.62411e-24)
(0.801835 0.297865 -6.29455e-24)
(0.779517 0.356341 3.45044e-23)
(0.750532 0.385008 0)
(0.73236 0.315911 0)
(0.758358 0.105455 0)
(0.755255 0.02121 0)
(0.763975 -0.266943 0)
(0.741364 -0.262577 0)
(-0.201636 -0.0682319 -5.48545e-22)
(-0.200559 -0.0275738 -2.27552e-20)
(-0.196863 0.0212669 6.16148e-22)
(-0.190455 0.077576 2.08068e-20)
(-0.180565 0.139865 2.81137e-22)
(-0.166763 0.206033 0)
(-0.148801 0.273554 -1.64678e-20)
(-0.126698 0.33932 3.16013e-20)
(-0.100209 0.399241 -1.51344e-20)
(-0.0691205 0.450364 1.31359e-20)
(-0.0325766 0.486072 -1.25653e-20)
(0.0116447 0.502794 1.18667e-20)
(0.0653944 0.495129 -1.15207e-20)
(0.129601 0.458309 -3.83879e-22)
(0.203487 0.389937 -1.31629e-20)
(0.283634 0.291601 1.27907e-20)
(0.36526 0.167736 -1.39791e-20)
(0.444467 0.0239987 1.31378e-20)
(0.519644 -0.131698 -1.2917e-20)
(0.588445 -0.283625 2.36281e-20)
(0.645444 -0.40944 -1.07767e-20)
(0.685403 -0.491691 -5.06819e-22)
(0.706393 -0.528732 -5.41716e-21)
(0.710147 -0.531376 9.44917e-21)
(0.702389 -0.512435 -4.0669e-21)
(0.68562 -0.487484 1.86011e-22)
(0.652514 -0.475433 2.924e-21)
(0.599155 -0.478195 3.31006e-22)
(0.542052 -0.462595 -6.3021e-21)
(0.511665 -0.381743 7.16475e-21)
(0.524359 -0.222477 -3.75576e-21)
(0.571534 -0.0222186 4.69345e-22)
(0.6333 0.165994 -2.45956e-22)
(0.691773 0.306784 3.57798e-22)
(0.73916 0.388774 0)
(0.774751 0.421923 0)
(0.790064 0.438608 -9.08067e-22)
(0.773718 0.468731 6.58935e-22)
(0.732267 0.492851 8.19514e-22)
(0.695825 0.453126 3.71995e-22)
(0.691903 0.307463 -1.39864e-21)
(0.718424 0.0951513 3.78505e-22)
(0.760655 -0.117758 0)
(0.799387 -0.263763 0)
(0.832647 -0.341807 0)
(0.840862 -0.371423 0)
(0.812992 -0.39313 2.37219e-22)
(0.759738 -0.394978 -1.12591e-22)
(0.716215 -0.323896 0)
(0.712421 -0.192196 0)
(0.74522 0.00790992 0)
(0.785307 0.144045 -8.06695e-23)
(0.796753 0.298554 1.49231e-23)
(0.775913 0.361756 -7.55802e-23)
(0.747187 0.389947 0)
(0.730176 0.315759 0)
(0.760595 0.102306 6.77472e-23)
(0.758592 0.0209289 2.1244e-22)
(0.77051 -0.265259 0)
(0.746518 -0.261383 0)
(-0.18093 -0.0733921 -8.78571e-22)
(-0.182893 -0.0364225 -4.00487e-20)
(-0.181257 0.00841951 3.70085e-20)
(-0.176986 0.0605807 -3.46775e-20)
(-0.169048 0.118786 -2.83082e-22)
(-0.156166 0.180738 0)
(-0.137296 0.244367 -2.81879e-20)
(-0.112333 0.307492 2.75417e-20)
(-0.0797096 0.364137 2.1026e-22)
(-0.040393 0.411051 3.49992e-22)
(0.00673987 0.443283 3.44868e-22)
(0.0646087 0.45637 3.67769e-22)
(0.132177 0.444799 -2.4795e-20)
(0.208706 0.404903 2.44805e-20)
(0.291899 0.335495 0)
(0.377686 0.238804 9.01739e-22)
(0.461651 0.118974 -2.99933e-20)
(0.540729 -0.0199737 2.95895e-20)
(0.61423 -0.170913 0)
(0.679058 -0.317332 0)
(0.728148 -0.435566 -1.98598e-20)
(0.756402 -0.508318 3.45462e-20)
(0.76435 -0.535481 -2.56454e-20)
(0.755689 -0.530311 2.71378e-21)
(0.736679 -0.506331 1.46337e-20)
(0.712536 -0.47513 -1.21589e-20)
(0.677819 -0.453227 1.01019e-20)
(0.623653 -0.44917 -8.84025e-23)
(0.558814 -0.439544 -4.93537e-21)
(0.51283 -0.377713 0)
(0.509438 -0.239585 0)
(0.545979 -0.0523664 2.50131e-21)
(0.603622 0.133054 -3.26863e-21)
(0.664163 0.278394 -4.90163e-23)
(0.718296 0.367707 2.0744e-21)
(0.761604 0.409939 -2.01593e-21)
(0.782093 0.437998 0)
(0.769117 0.478755 2.24686e-22)
(0.733087 0.506955 2.53414e-21)
(0.70484 0.462511 -5.61724e-21)
(0.709656 0.307874 2.68059e-21)
(0.741761 0.0880843 4.34216e-22)
(0.785375 -0.128026 -3.33269e-21)
(0.819564 -0.273796 2.52418e-21)
(0.847294 -0.347519 4.25432e-22)
(0.851676 -0.368596 3.06505e-22)
(0.822707 -0.381819 -2.37811e-22)
(0.76819 -0.382028 0)
(0.721461 -0.318189 0)
(0.715654 -0.197046 -7.30729e-22)
(0.744557 -0.00250457 3.67217e-22)
(0.784755 0.136728 -3.09055e-22)
(0.793362 0.299017 4.5648e-22)
(0.773742 0.366961 5.9816e-22)
(0.74513 0.394765 -1.48037e-22)
(0.72922 0.315495 3.24131e-22)
(0.764001 0.0987635 -3.14997e-22)
(0.76329 0.0203968 1.84997e-22)
(0.778365 -0.263525 0)
(0.752518 -0.260159 0)
(-0.11829 -0.0791007 -7.14582e-20)
(-0.122882 -0.0460009 3.90476e-21)
(-0.121991 -0.00500117 6.38513e-20)
(-0.118091 0.042469 -5.0099e-22)
(-0.110906 0.0966659 0)
(-0.0985724 0.1533 0)
(-0.0781733 0.211937 -4.65876e-20)
(-0.0513646 0.269124 5.59172e-22)
(-0.0168679 0.321108 6.45642e-20)
(0.0279005 0.363244 2.49561e-22)
(0.0825008 0.392551 -2.12124e-20)
(0.147583 0.402694 -2.25554e-20)
(0.221998 0.389025 2.25711e-20)
(0.303878 0.348738 0)
(0.390132 0.281395 -2.90466e-20)
(0.476656 0.189315 2.63847e-20)
(0.559526 0.0756646 0)
(0.636975 -0.0569559 0)
(0.708476 -0.202035 2.81932e-20)
(0.769168 -0.342174 -2.94722e-21)
(0.810163 -0.452399 -2.30674e-20)
(0.82652 -0.516193 -1.58549e-20)
(0.821401 -0.535026 1.56994e-20)
(0.801146 -0.52367 -8.81591e-21)
(0.772039 -0.496626 2.02629e-21)
(0.740436 -0.462365 6.29067e-21)
(0.704096 -0.432685 5.77653e-22)
(0.651682 -0.419956 4.29265e-23)
(0.583351 -0.412322 0)
(0.524136 -0.367941 5.12126e-21)
(0.503743 -0.25312 -5.27106e-21)
(0.527564 -0.0822532 3.93628e-22)
(0.579282 0.0982508 0)
(0.640614 0.246666 -3.12753e-22)
(0.700405 0.343043 3.74379e-21)
(0.750321 0.39509 -6.74871e-21)
(0.775511 0.435101 -6.0935e-22)
(0.766351 0.486406 -5.06561e-22)
(0.73635 0.51868 3.36947e-21)
(0.716276 0.470598 6.40519e-22)
(0.729299 0.308569 -6.63682e-21)
(0.766829 0.0826015 5.6304e-21)
(0.811998 -0.135702 -3.9216e-23)
(0.841772 -0.28123 2.09566e-21)
(0.863529 -0.351647 -2.46412e-21)
(0.863881 -0.365266 -2.00516e-21)
(0.833837 -0.370408 6.10548e-22)
(0.77844 -0.3689 7.04464e-22)
(0.728887 -0.312362 -1.35286e-21)
(0.721141 -0.202029 1.00366e-21)
(0.745824 -0.0131346 -3.22473e-22)
(0.785859 0.129104 3.14637e-22)
(0.79164 0.299227 2.64604e-22)
(0.773057 0.371975 -8.91887e-22)
(0.744457 0.399494 -1.0748e-23)
(0.729602 0.315173 -3.93701e-22)
(0.768588 0.0948784 0)
(0.769327 0.0196319 -1.66119e-22)
(0.7875 -0.261714 3.82242e-22)
(0.759352 -0.258856 0)
(-0.0196197 -0.0852653 6.30633e-20)
(-0.0273859 -0.0556137 -1.1872e-19)
(-0.0276828 -0.0190438 5.51919e-20)
(-0.023434 0.0233359 4.6941e-20)
(-0.0166334 0.0711341 -8.97657e-20)
(-0.00573361 0.122102 2.01736e-21)
(0.0141105 0.175121 4.00637e-20)
(0.0416493 0.225902 3.76122e-20)
(0.0779753 0.273386 -3.68677e-20)
(0.124526 0.312182 0)
(0.181353 0.338099 -4.15282e-20)
(0.248225 0.346071 8.54838e-20)
(0.323775 0.332043 -4.38871e-20)
(0.405646 0.293605 0)
(0.490528 0.230525 0)
(0.574557 0.144802 9.36997e-22)
(0.654666 0.0384937 -6.34784e-20)
(0.730205 -0.0867106 6.1657e-20)
(0.799999 -0.225182 0)
(0.856535 -0.357912 5.14439e-20)
(0.889082 -0.459308 -8.88403e-20)
(0.893586 -0.514603 7.05264e-20)
(0.87589 -0.527108 -5.43712e-20)
(0.845153 -0.511804 5.48355e-21)
(0.80777 -0.483414 2.97259e-20)
(0.769386 -0.448773 -1.26483e-20)
(0.730888 -0.414476 -2.77147e-22)
(0.681622 -0.39297 -3.26745e-21)
(0.614091 -0.383118 -1.42033e-22)
(0.545374 -0.352526 3.44958e-21)
(0.508051 -0.261629 2.98328e-22)
(0.517172 -0.110043 -4.42521e-21)
(0.561025 0.0623921 8.40596e-21)
(0.621584 0.212018 -4.41322e-21)
(0.685513 0.314969 0)
(0.740702 0.377215 -3.69363e-21)
(0.77013 0.429407 3.60512e-21)
(0.765204 0.491113 -3.62034e-21)
(0.74166 0.527815 4.49396e-21)
(0.729561 0.477546 -6.95411e-22)
(0.750205 0.309917 0)
(0.793001 0.079058 -9.0432e-22)
(0.839978 -0.140772 2.4153e-21)
(0.865679 -0.285937 0)
(0.881108 -0.354041 3.98087e-21)
(0.877286 -0.361431 -1.75259e-21)
(0.846206 -0.358987 4.43557e-22)
(0.790183 -0.355677 3.10892e-22)
(0.738093 -0.306378 0)
(0.728517 -0.207027 0)
(0.748806 -0.0239076 -7.74031e-22)
(0.788488 0.121129 1.20705e-21)
(0.791536 0.299132 -7.27174e-22)
(0.773896 0.376794 2.24276e-22)
(0.745257 0.404165 6.10325e-22)
(0.73143 0.314843 3.9408e-22)
(0.774368 0.0906358 -8.1107e-22)
(0.776676 0.0186298 0)
(0.797858 -0.259779 -5.68502e-22)
(0.767002 -0.25742 -1.00289e-22)
(0.115139 -0.090407 5.76678e-20)
(0.102269 -0.0644124 -5.71597e-20)
(0.096327 -0.0335198 3.98154e-22)
(0.0966216 0.00348558 -3.14385e-22)
(0.101783 0.0440906 3.2723e-22)
(0.111666 0.089608 -3.03151e-22)
(0.129368 0.13689 4.88765e-22)
(0.1555 0.183069 0)
(0.19081 0.225648 -4.83406e-22)
(0.236016 0.260474 5.10199e-22)
(0.291273 0.2834 5.55762e-22)
(0.356066 0.290146 -6.5617e-22)
(0.428899 0.277107 0)
(0.507378 0.241999 0)
(0.588399 0.184395 8.52463e-22)
(0.668489 0.10571 0)
(0.745763 0.00722661 -9.5544e-22)
(0.81988 -0.110446 0)
(0.887919 -0.241303 -5.5602e-20)
(0.939575 -0.365103 1.03979e-19)
(0.962965 -0.456937 -8.77561e-20)
(0.955891 -0.504484 3.95131e-20)
(0.92675 -0.512727 2.34633e-20)
(0.886874 -0.495806 -2.27867e-20)
(0.843052 -0.467496 -1.29507e-20)
(0.799169 -0.434169 1.24736e-20)
(0.757848 -0.398352 0)
(0.711829 -0.369482 1.773e-22)
(0.648745 -0.354071 0)
(0.575488 -0.332148 0)
(0.522897 -0.263913 6.08648e-21)
(0.51562 -0.134495 -6.214e-21)
(0.549452 0.026436 3.49047e-22)
(0.60735 0.175005 4.28926e-22)
(0.673508 0.283692 -3.05981e-22)
(0.732492 0.356153 -2.97204e-21)
(0.765716 0.420444 2.88583e-21)
(0.765329 0.492378 -4.5009e-21)
(0.748492 0.534259 3.9295e-21)
(0.744112 0.483532 1.41211e-21)
(0.771846 0.312145 -7.28427e-21)
(0.819688 0.0775279 -1.04392e-21)
(0.86875 -0.143334 5.30305e-21)
(0.890928 -0.287914 0)
(0.89978 -0.354635 -1.83973e-21)
(0.891639 -0.357158 1.48354e-21)
(0.859594 -0.347656 -2.04341e-21)
(0.803118 -0.342357 -3.12859e-22)
(0.748655 -0.300146 0)
(0.737343 -0.211935 2.27662e-22)
(0.753218 -0.034802 -4.11194e-22)