/*--------------------------------*- C++ -*----------------------------------*\
| =========                 |                                                 |
| \\      /  F ield         | OpenFOAM: The Open Source CFD Toolbox           |
|  \\    /   O peration     | Version:  2512                                  |
|   \\  /    A nd           | Website:  www.openfoam.com                      |
|    \\/     M anipulation  |                                                 |
\*---------------------------------------------------------------------------*/
FoamFile
{
    version     2.0;
    format      ascii;
    arch        "LSB;label=32;scalar=64";
    class       surfaceScalarField;
    location    "17.25";
    object      phi;
}
// * * * * * * * * * * * * * * * * * * * * * * * * * * * * * * * * * * * * * //

dimensions      [0 3 -1 0 0 0 0];

oriented        oriented;

internalField   nonuniform List<scalar> 
26232
(
2.97786e-05
0.000990442
-0.00102022
0.000308034
0.00197351
-0.00225177
0.000995133
0.0021038
-0.0027909
0.00223972
0.00142843
-0.00267302
0.00418886
-2.75028e-05
-0.00192164
0.00699193
-0.00225555
-0.000547527
0.0107949
-0.00525173
0.00144874
0.0157329
-0.00901104
0.00407309
0.0219155
-0.0135142
0.00733155
0.0294113
-0.0187188
0.011223
0.0382319
-0.0245532
0.0157326
0.0483202
-0.0309154
0.020827
0.0595457
-0.0376763
0.0264508
0.0717068
-0.0446876
0.0325266
0.0845414
-0.0517923
0.0389577
0.0977445
-0.0588361
0.0456329
0.11099
-0.0656787
0.0524327
0.123957
-0.0722046
0.059238
0.136352
-0.0783264
0.0659316
0.147929
-0.0840076
0.0724303
0.15851
-0.0892
0.0786188
0.16796
-0.0940365
0.0845867
0.176148
-0.098226
0.0900377
-0.102627
0.0961079
0.182667
7.01392e-05
0.000920302
0.000498342
0.00154531
0.00147653
0.00112561
0.00318441
-0.000279451
0.00579743
-0.00264053
0.00948116
-0.00593928
0.0143815
-0.010152
0.0206049
-0.0152344
0.0281986
-0.0211079
0.0371326
-0.0276528
0.047289
-0.0347096
0.0584627
-0.042089
0.0703732
-0.0495868
0.0826879
-0.0570022
0.0950507
-0.0641551
0.107116
-0.0709009
0.118577
-0.0771405
0.129198
-0.0828255
0.138829
-0.0879569
0.147403
-0.0925821
0.154971
-0.096768
0.16159
-0.100656
0.167551
-0.104186
-0.107962
0.172886
0.000133746
0.000786556
0.000772278
0.000906776
0.00213456
-0.000236666
0.00442533
-0.00257022
0.00783419
-0.00604938
0.0125208
-0.0106259
0.0185922
-0.0162235
0.0260771
-0.0227193
0.034905
-0.0299358
0.0448981
-0.0376459
0.0557798
-0.0455913
0.067199
-0.0535083
0.0787676
-0.0611554
0.0901024
-0.0683371
0.100867
-0.0749199
0.110806
-0.0808396
0.119765
-0.0860993
0.127698
-0.0907591
0.134662
-0.0949202
0.140787
-0.0987074
0.146257
-0.102239
0.151255
-0.105653
0.155998
-0.10893
-0.112503
0.160539
0.000219667
0.00056689
0.00112605
3.94547e-07
0.00295625
-0.00206686
0.00592631
-0.00554029
0.0102156
-0.0103387
0.0159393
-0.0163496
0.0231158
-0.0234
0.0316426
-0.0312461
0.0412892
-0.0395824
0.0517153
-0.048072
0.06251
-0.0563859
0.0732448
-0.0642431
0.083529
-0.0714396
0.0930558
-0.0778639
0.101633
-0.0834971
0.109193
-0.0883993
0.115781
-0.0926873
0.121529
-0.0965078
0.126621
-0.100012
0.131248
-0.103335
0.13559
-0.10658
0.139773
-0.109836
0.143931
-0.113087
-0.116609
0.148037
0.000326216
0.000240674
0.00154905
-0.00122244
0.0039122
-0.00443002
0.00761844
-0.00924653
0.0128007
-0.0155209
0.0194807
-0.0230295
0.0275371
-0.0314565
0.0366989
-0.0404079
0.0465715
-0.049455
0.0566926
-0.058193
0.0666023
-0.0662956
0.0759101
-0.0735509
0.0843437
-0.0798731
0.0917711
-0.0852914
0.0981955
-0.0899215
0.103726
-0.0939303
0.108538
-0.0974992
0.112827
-0.100796
0.116772
-0.103957
0.120519
-0.107082
0.124171
-0.110233
0.127787
-0.113452
0.131426
-0.116726
-0.120223
0.13504
0.000450516
-0.000209842
0.00202853
-0.00280046
0.00496121
-0.0073627
0.00940637
-0.0136917
0.0154043
-0.0215188
0.0228337
-0.030459
0.031399
-0.0400218
0.0406622
-0.049671
0.0501144
-0.0589072
0.0592652
-0.0673438
0.0677214
-0.0747518
0.0752371
-0.0810666
0.0817267
-0.0863628
0.0872437
-0.0908084
0.091937
-0.0946148
0.0960001
-0.0979934
0.0996263
-0.101125
0.102979
-0.104149
0.10618
-0.107158
0.109309
-0.110211
0.112417
-0.113341
0.11553
-0.116564
0.118678
-0.119874
-0.123361
0.121816
0.000589822
-0.000799664
0.00254529
-0.00475592
0.00604826
-0.0108657
0.0111697
-0.0188132
0.0178099
-0.028159
0.02567
-0.0383191
0.034282
-0.0486338
0.0430933
-0.0584823
0.051576
-0.06739
0.0593216
-0.0750894
0.0660939
-0.081524
0.071834
-0.0868068
0.076626
-0.0911547
0.0806408
-0.0948232
0.0840799
-0.0980539
0.0871312
-0.101045
0.0899453
-0.103939
0.0926289
-0.106832
0.0952508
-0.10978
0.097852
-0.112812
0.100456
-0.115945
0.103073
-0.119181
0.105718
-0.122519
-0.125998
0.108355
0.000739452
-0.00153912
0.00307418
-0.00709065
0.00710438
-0.0148959
0.0127698
-0.0244786
0.0197942
-0.0351834
0.0276986
-0.0462234
0.0358903
-0.0568255
0.0437932
-0.0663852
0.050963
-0.0745599
0.0571502
-0.0812766
0.0623008
-0.0866747
0.0665121
-0.091018
0.0699664
-0.094609
0.0728695
-0.0977263
0.0754067
-0.100591
0.0777216
-0.10336
0.0799131
-0.106131
0.0820431
-0.108962
0.0841478
-0.111885
0.0862469
-0.114912
0.0883509
-0.118049
0.0904647
-0.121295
0.0925944
-0.124649
-0.128118
0.0947149
0.000892347
-0.00243146
0.0035829
-0.0097812
0.00805023
-0.0193632
0.014065
-0.0304933
0.0211633
-0.0422818
0.028723
-0.0537831
0.036109
-0.0642116
0.0428175
-0.0730937
0.048557
-0.0802994
0.0532545
-0.0859741
0.0570042
-0.0904244
0.0599924
-0.0940062
0.0624289
-0.0970455
0.0645004
-0.0997979
0.0663493
-0.10244
0.0680717
-0.105082
0.0697265
-0.107786
0.0713472
-0.110583
0.0729518
-0.113489
0.07455
-0.11651
0.0761468
-0.119645
0.0777449
-0.122893
0.0793458
-0.12625
-0.129707
0.0809346
0.00103913
-0.00347059
0.00403429
-0.0127764
0.00880541
-0.0241343
0.0149333
-0.0366212
0.0217881
-0.0491366
0.0286736
-0.0606686
0.0350018
-0.0705397
0.0404074
-0.0784993
0.0447699
-0.0846619
0.0481621
-0.0893663
0.0507663
-0.0930285
0.0527964
-0.0960363
0.0544447
-0.0986939
0.0558575
-0.101211
0.0571329
-0.103715
0.0583299
-0.106279
0.0594814
-0.108937
0.0606052
-0.111707
0.0617104
-0.114594
0.0628023
-0.117602
0.0638836
-0.120727
0.0649556
-0.123965
0.0660174
-0.127312
-0.130751
0.0670618
0.00116948
-0.00464008
0.00439208
-0.015999
0.00930179
-0.029044
0.0152935
-0.0426129
0.0216231
-0.0554663
0.0276021
-0.0666476
0.0327575
-0.075695
0.0368869
-0.0826287
0.0400174
-0.0877925
0.0423157
-0.0916646
0.0439976
-0.0947104
0.0452642
-0.0973029
0.0462708
-0.0997005
0.0471219
-0.102062
0.04788
-0.104473
0.0485797
-0.106979
0.049239
-0.109597
0.0498673
-0.112335
0.0504702
-0.115197
0.0510507
-0.118182
0.0516105
-0.121287
0.0521499
-0.124505
0.0526663
-0.127828
-0.131242
0.0531568
0.00127619
-0.00591627
0.0046292
-0.019352
0.00949564
-0.0339105
0.015116
-0.0482333
0.0207034
-0.0610536
0.0256479
-0.0715921
0.0296258
-0.0796729
0.0325849
-0.0855878
0.0346564
-0.089864
0.036051
-0.0930592
0.0369798
-0.0956392
0.0376117
-0.0979348
0.0380624
-0.100151
0.0384017
-0.102401
0.0386679
-0.10474
0.0388804
-0.107191
0.0390493
-0.109765
0.03918
-0.112466
0.0392764
-0.115294
0.0393407
-0.118247
0.0393746
-0.12132
0.039378
-0.124508
0.0393484
-0.127799
0.0392863
-0.13118
-0.000317951
0.000267868
5.00827e-05
-0.00109577
0.000678141
9.96773e-05
-0.00223349
0.00101945
0.000118272
-0.00366202
0.0013115
0.000117034
-0.00533203
0.00156644
0.000103563
-0.00720917
0.00179451
8.26363e-05
-0.00927073
0.00200486
5.66946e-05
-0.0115027
0.00220552
2.64177e-05
-0.0138974
0.00240314
-8.39739e-06
-0.0164516
0.00260283
-4.86299e-05
-0.0191645
0.00280804
-9.50909e-05
-0.0220368
0.00302059
-0.000148361
-0.025069
0.00324094
-0.000208708
-0.0282614
0.00346844
-0.000276048
-0.0316131
0.00370163
-0.000349921
-0.0351221
0.00393845
-0.000429462
-0.0387852
0.0041765
-0.000513345
-0.0425988
0.0044133
-0.000599704
-0.0465595
0.00464669
-0.000686025
-0.0506655
0.00487509
-0.000769132
-0.0549168
0.00509667
-0.000845372
-0.0593161
0.00530971
-0.000910417
-0.0638801
0.0055216
-0.000957532
0.00575573
-0.0686571
-0.000978739
-0.000292117
0.000559985
-0.00101198
0.001398
-0.00206847
0.00207594
-0.0033965
0.00263954
-0.00494796
0.0031179
-0.00668774
0.00353428
-0.00859082
0.00390794
-0.0106398
0.00425446
-0.0128226
0.00458598
-0.015131
0.00491121
-0.0175586
0.00523564
-0.0200998
0.00556181
-0.0227487
0.00588981
-0.025498
0.00621781
-0.028339
0.00654255
-0.0312604
0.00685984
-0.0342489
0.00716502
-0.0372891
0.00745356
-0.0403644
0.00772194
-0.0434581
0.00796881
-0.0465564
0.00819493
-0.0496483
0.00840163
-0.0527295
0.00860276
0.00886645
-0.0558402
-0.000241784
0.000801769
-0.000847658
0.00200387
-0.00174322
0.0029715
-0.00287099
0.00376731
-0.00418519
0.0044321
-0.00564931
0.00499841
-0.00723423
0.00549285
-0.00891633
0.00593656
-0.010676
0.00634562
-0.012496
0.00673123
-0.0143604
0.00710003
-0.0162532
0.00745459
-0.0181574
0.00779402
-0.0200542
0.00811463
-0.0219222
0.00841056
-0.0237368
0.00867439
-0.0254695
0.00889775
-0.0270879
0.00907195
-0.0285549
0.00918901
-0.0298298
0.00924364
-0.0308713
0.00923643
-0.0316445
0.00917482
-0.0321123
0.00907063
0.00897648
-0.0322224
-0.000176338
0.000978108
-0.000631297
0.00245883
-0.00131088
0.00365108
-0.00216706
0.00462348
-0.0031571
0.00542215
-0.00424313
0.00608444
-0.00539132
0.00664104
-0.00657099
0.00711623
-0.00775364
0.00752827
-0.00891201
0.00788959
-0.0100191
0.00820717
-0.0110476
0.00848305
-0.0119687
0.00871507
-0.0127516
0.00889752
-0.0133628
0.00902185
-0.0137657
0.00907729
-0.0139194
0.00905135
-0.0137778
0.00893041
-0.0132891
0.00870033
-0.0123932
0.00834772
-0.0110204
0.00786365
-0.00909702
0.00725143
-0.00655999
0.0065336
0.00581324
-0.00339676
-0.00010735
0.00108546
-0.000398638
0.00275012
-0.000839026
0.00409147
-0.00138947
0.00517393
-0.00201041
0.00604308
-0.00266294
0.00673697
-0.00330915
0.00728725
-0.00391198
0.00771907
-0.00443491
0.0080512
-0.00484147
0.00829615
-0.00509481
0.00846051
-0.00515716
0.00854541
-0.00498942
0.00854733
-0.00455059
0.0084587
-0.00379737
0.00826862
-0.00268359
0.00796351
-0.00115967
0.00752744
0.000828157
0.00694258
0.00333884
0.00618964
0.00643812
0.00524844
0.0102066
0.00409518
0.0147366
0.00272139
0.0201224
0.00114781
-0.000673279
0.0266089
-4.59558e-05
0.00113141
-0.000185001
0.00288917
-0.000395525
0.004302
-0.000644922
0.00542333
-0.000895771
0.00629393
-0.00110856
0.00694976
-0.00124226
0.00742095
-0.00125493
0.00773174
-0.00110378
0.00790005
-0.000745025
0.0079374
-0.000133715
0.0078492
0.000776476
0.00763522
0.00203363
0.00729018
0.00368789
0.00680444
0.00579185
0.00616466
0.00840087
0.00535449
0.0115735
0.00435484
0.0153722
0.00314382
0.0198638
0.00169805
0.0251087
3.52878e-06
0.0311998
-0.00199591
0.0382343
-0.00431311
0.0462456
-0.00686353
-0.0101424
0.0557148
-1.17934e-06
0.00113259
-1.77584e-05
0.00290575
-3.38772e-05
0.00431811
-1.85952e-05
0.00540805
6.49742e-05
0.00621036
0.000258043
0.00675669
0.000604229
0.00707476
0.00114942
0.00718655
0.00194167
0.0071078
0.00303123
0.00684784
0.00447069
0.00640973
0.00631524
0.00579067
0.00862283
0.00498259
0.0114543
0.00397293
0.0148751
0.00274395
0.0189527
0.00127688
0.0237579
-0.000450354
0.0293668
-0.00246515
0.0358544
-0.00478955
0.0433097
-0.0074517
0.0517784
-0.0104647
0.0613963
-0.013931
0.0720415
-0.0175087
-0.02254
0.0844392
2.4484e-05
0.00110811
8.97242e-05
0.00284051
0.000218265
0.00418957
0.000444509
0.0051818
0.000808726
0.00584615
0.00135498
0.00621043
0.00213107
0.00629868
0.0031883
0.00612932
0.00458171
0.00571438
0.00637042
0.00505913
0.00861784
0.0041623
0.0113921
0.00301646
0.0147659
0.00160871
0.0188141
-7.52162e-05
0.0236222
-0.00206419
0.0292719
-0.00437284
0.0358494
-0.00702779
0.0434363
-0.010052
0.0521111
-0.0134644
0.0619471
-0.0172877
0.072973
-0.0214905
0.0853046
-0.0262627
0.0986695
-0.0308736
-0.0376641
0.113794
3.07359e-05
0.00107737
0.000140877
0.00273036
0.000367748
0.0039627
0.000755766
0.00479378
0.001353
0.00524891
0.00221123
0.0053522
0.00338673
0.00512318
0.00494106
0.00457499
0.00694183
0.00371361
0.00946312
0.00253785
0.0125855
0.00103995
0.0163954
-0.00079351
0.0209843
-0.00298012
0.0264483
-0.00553927
0.0328763
-0.00849219
0.0403594
-0.0118559
0.0489759
-0.0156443
0.0587885
-0.0198647
0.0698377
-0.0245136
0.0821392
-0.0295892
0.0956556
-0.0350069
0.11038
-0.0409869
0.12604
-0.0465338
-0.054529
0.142905
2.46791e-05
0.00105269
0.000156002
0.00259904
0.000454526
0.00366418
0.000981032
0.00426728
0.00179783
0.00443212
0.00297103
0.004179
0.00457272
0.00352149
0.00668242
0.00246529
0.00938777
0.00100825
0.012784
-0.000858345
0.016972
-0.0031481
0.0220552
-0.00587672
0.0281344
-0.00905929
0.035302
-0.0127069
0.0436338
-0.0168239
0.0531829
-0.021405
0.0639721
-0.0264334
0.0759873
-0.0318799
0.0891741
-0.0377004
0.103433
-0.0438483
0.11863
-0.0502033
0.134546
-0.0569036
0.15106
-0.0630475
-0.0711495
0.16768
1.61464e-05
0.00103655
0.000167507
0.00244768
0.000543646
0.00328804
0.00122807
0.00358286
0.00230456
0.00335563
0.00386149
0.00262207
0.00599448
0.0013885
0.00880718
-0.000347411
0.0124104
-0.00259493
0.0169173
-0.00536525
0.0224378
-0.00866866
0.0290702
-0.0125091
0.0368912
-0.0168803
0.0459463
-0.021762
0.0562406
-0.0271182
0.0677323
-0.0328968
0.0803291
-0.0390301
0.0938881
-0.0454389
0.10822
-0.0520319
0.123098
-0.0587268
0.138289
-0.0653946
0.153473
-0.0720876
0.168636
-0.0782104
-0.0852396
0.182726
1.63274e-05
0.000212242
0.000709385
0.00161922
0.00305322
0.00512776
0.00796499
0.0116907
0.0164273
0.022285
0.029349
0.0376668
0.0472373
0.0580019
0.0698414
0.0825775
0.0959801
0.109779
0.123679
0.137382
0.150606
0.163106
0.174933
0.185801
-0.0718751
0.00452941
-0.00131141
-0.0746802
0.00405684
-0.00125171
-0.0770268
0.00345913
-0.00111257
-0.0787974
0.0026531
-0.000882517
-0.0798635
0.00161978
-0.000553625
-0.0800532
0.000307518
-0.000117864
-0.0793578
-0.00108983
0.000394437
-0.0776309
-0.00271648
0.00098955
-0.0747451
-0.00453617
0.00165041
-0.0705952
-0.00649082
0.00234089
-0.0650866
-0.0085223
0.00301373
-0.0581499
-0.0105417
0.00360505
-0.0497505
-0.0124336
0.00403424
-0.0399243
-0.0140681
0.00424184
-0.0287226
-0.0153511
0.00414942
-0.0163519
-0.0160091
0.00363843
-0.00299171
-0.0161147
0.00275444
0.0110144
-0.0154819
0.00147575
0.0253711
-0.0142346
-0.000122087
0.0397308
-0.0124416
-0.00191814
0.053769
-0.010243
-0.00379522
0.0672024
-0.00782344
-0.00560992
0.0798205
-0.00537135
-0.00724674
0.0914894
-0.00303754
-0.00863137
0.102125
-0.000897412
-0.00973851
0.111726
0.000951203
-0.0105519
0.120315
0.0025187
-0.0111075
0.127952
0.00380535
-0.0114423
0.134714
0.00483566
-0.0115982
0.140686
0.00565663
-0.0116281
0.145975
0.0062618
-0.011551
0.150656
0.00675306
-0.0114336
0.154813
0.00714584
-0.0113029
0.158521
0.00749634
-0.0112045
0.161848
0.00779768
-0.0111251
0.164853
0.00814875
-0.0111531
0.167587
0.0084464
-0.0111813
0.170085
0.00891467
-0.011412
0.17236
0.00928294
-0.0115579
0.174399
0.0100327
-0.0120724
0.176184
0.0104906
-0.0122751
0.177685
0.0115938
-0.0130949
0.178897
0.0120254
-0.0132372
0.179823
0.0134634
-0.0143899
0.180492
0.0138213
-0.0144895
0.180934
0.0156412
-0.0160835
0.181185
0.0160486
-0.0163002
0.18128
0.0183389
-0.0184339
0.181249
0.0188592
-0.0188274
0.181111
0.0217621
-0.0216243
0.180893
0.0222684
-0.0220503
0.180602
0.0260208
-0.0257301
0.180256
0.0264383
-0.0260924
0.17986
0.0311613
-0.0307658
0.179422
0.0316804
-0.0312419
0.178944
0.0374671
-0.0369887
0.178433
0.038191
-0.0376807
0.177887
0.0453971
-0.0448504
0.177313
0.0464377
-0.0458644
0.0552914
-0.0546839
-0.0585301
0.00721937
-0.0608919
0.00641856
-0.0628074
0.00537469
-0.0642019
0.00404753
-0.0649603
0.00237822
-0.0649049
0.000252165
-0.0640483
-0.00194647
-0.0622438
-0.00452098
-0.0593773
-0.00740264
-0.0553674
-0.0105008
-0.050125
-0.0137647
-0.0435886
-0.0170781
-0.0357307
-0.0202915
-0.0266068
-0.0231921
-0.016177
-0.0257809
-0.00472371
-0.0274624
0.00747469
-0.0283131
0.020284
-0.0282912
0.0333901
-0.0273407
0.0464788
-0.0255303
0.0592708
-0.023035
0.0715338
-0.0200864
0.0830954
-0.016933
0.0938501
-0.0137923
0.103744
-0.0107916
0.11274
-0.00804425
0.120859
-0.00560056
0.128145
-0.00348089
0.134658
-0.00167711
0.140442
-0.000127097
0.145618
0.00108542
0.150224
0.00214691
0.154338
0.00303233
0.158025
0.00380893
0.161348
0.00447513
0.164358
0.00513867
0.167109
0.00569537
0.169632
0.00639206
0.171941
0.00697319
0.174024
0.00794992
0.175857
0.00865792
0.177407
0.0100433
0.178666
0.0107668
0.179634
0.0124954
0.180339
0.0131165
0.180812
0.015168
0.181092
0.0157686
0.181211
0.0182193
0.181204
0.0188671
0.181087
0.0218788
0.18089
0.022465
0.180618
0.0262926
0.180292
0.0267644
0.179914
0.0315401
0.179493
0.0321006
0.179029
0.0379311
0.178535
0.0386857
0.177999
0.0459328
0.177438
0.0469991
0.0558931
-0.0339779
0.00897486
-0.035481
0.00792172
-0.036631
0.0065247
-0.0373621
0.0047786
-0.0375708
0.00258693
-0.037168
-0.000150667
-0.0360387
-0.00307575
-0.0341022
-0.00645753
-0.0312235
-0.0102813
-0.0273713
-0.0143529
-0.0224549
-0.0186812
-0.0164157
-0.0231173
-0.00921772
-0.0274895
-0.000827362
-0.0315824
0.00823882
-0.0348471
0.0182715
-0.037495
0.0290276
-0.0390692
0.0402279
-0.0394915
0.0515965
-0.0387092
0.0628715
-0.0368053
0.0738236
-0.0339872
0.0842729
-0.0305357
0.0940967
-0.0267568
0.103231
-0.0229263
0.111647
-0.0192082
0.119331
-0.0157279
0.126301
-0.0125704
0.132592
-0.00977194
0.138251
-0.00733647
0.143358
-0.00523398
0.147913
-0.00346963
0.152005
-0.00194467
0.155672
-0.000634727
0.158984
0.000496355
0.161991
0.00146868
0.164729
0.00240064
0.16725
0.00317388
0.169579
0.00406372
0.171731
0.00482078
0.173694
0.00598689
0.175443
0.00690884
0.176943
0.00854374
0.178177
0.00953231
0.179142
0.0115308
0.179859
0.0123991
0.180356
0.0146717
0.180667
0.0154569
0.180823
0.0180638
0.180856
0.0188344
0.18078
0.0219539
0.180628
0.0226175
0.180399
0.026521
0.180119
0.0270447
0.179784
0.0318751
0.17941
0.0324748
0.17899
0.0383515
0.17854
0.039135
0.178047
0.0464265
0.177529
0.0475169
0.0564562
-0.00364503
0.00922313
-0.00417186
0.00844855
-0.0044629
0.00681574
-0.00440632
0.00472203
-0.00400466
0.00218527
-0.00320956
-0.000945769
-0.00180967
-0.00447564
0.00025442
-0.00852163
0.00289685
-0.0129238
0.0063497
-0.0178058
0.0106663
-0.0229978
0.0158962
-0.0283472
0.0220509
-0.0336441
0.0290771
-0.0386087
0.0370416
-0.0428115
0.045677
-0.0461304
0.0548306
-0.0482228
0.0642697
-0.0489307
0.0737619
-0.0482013
0.0830898
-0.0461332
0.0920726
-0.04297
0.100577
-0.0390401
0.108519
-0.034699
0.115862
-0.0302692
0.12261
-0.025956
0.128765
-0.0218829
0.134351
-0.0181565
0.139404
-0.0148251
0.143967
-0.011899
0.148084
-0.0093509
0.151783
-0.00716936
0.15512
-0.00528152
0.158147
-0.0036614
0.160886
-0.00224296
0.163379
-0.00102421
0.165657
0.000123029
0.167783
0.00104736
0.169765
0.00208226
0.17162
0.00296515
0.17334
0.00426702
0.174902
0.0053468
0.17627
0.00717643
0.177421
0.00838052
0.178345
0.0106076
0.179054
0.0116894
0.179567
0.014159
0.179914
0.0151095
0.180117
0.0178611
0.180207
0.0187448
0.180193
0.0219675
0.180107
0.0227035
0.179946
0.0266818
0.179737
0.0272538
0.179473
0.0321395
0.179172
0.0327751
0.178824
0.0386996
0.17845
0.0395091
0.178029
0.0468474
0.177587
0.0479592
0.0569475
0.027161
0.00867112
0.0277208
0.00788871
0.0282965
0.00624001
0.029
0.00401856
0.029882
0.00130329
0.0309624
-0.00202621
0.03241
-0.00592323
0.0342822
-0.0103938
0.0367257
-0.0153673
0.0397588
-0.0208388
0.0434527
-0.0266917
0.0478539
-0.0327484
0.0529735
-0.0387636
0.0587835
-0.0444187
0.0652812
-0.0493092
0.0722871
-0.0531364
0.0796477
-0.0555833
0.08718
-0.056463
0.0947028
-0.0557242
0.102053
-0.0534836
0.109102
-0.0500188
0.115757
-0.0456957
0.121961
-0.0409027
0.127687
-0.0359946
0.132946
-0.0312155
0.137746
-0.0266826
0.142102
-0.0225126
0.146042
-0.0187652
0.149598
-0.0154551
0.152806
-0.0125589
0.155694
-0.0100575
0.158305
-0.00789189
0.160668
-0.00602467
0.162816
-0.00439093
0.164782
-0.00299081
0.166603
-0.0016978
0.168276
-0.000624981
0.169864
0.00049392
0.171374
0.00145541
0.1728
0.00284113
0.174127
0.00401938
0.175322
0.00598182
0.17636
0.00734186
0.177223
0.00974528
0.177915
0.0109967
0.178444
0.01363
0.178834
0.0147195
0.179097
0.0175987
0.17926
0.0185815
0.179328
0.0218999
0.17933
0.0227009
0.179261
0.0267511
0.179148
0.0273665
0.178981
0.0323069
0.178782
0.0329742
0.178535
0.0389466
0.178265
0.0397787
0.177948
0.0471647
0.177613
0.0482946
0.0573341
0.056837
0.00754883
0.0580318
0.00669399
0.0592469
0.00502492
0.0604801
0.00278535
0.0617602
2.3164e-05
0.0631108
-0.00337683
0.064625
-0.00743739
0.0663698
-0.0121387
0.0684419
-0.0174394
0.0709028
-0.0232997
0.0738141
-0.029603
0.0772188
-0.0361531
0.0811296
-0.0426744
0.0855288
-0.048818
0.090381
-0.0541614
0.0955641
-0.0583194
0.100953
-0.060972
0.106426
-0.061936
0.111874
-0.0611724
0.117207
-0.0588161
0.122357
-0.0551689
0.127277
-0.0506163
0.131929
-0.0455547
0.136284
-0.0403491
0.140336
-0.0352681
0.144086
-0.0304323
0.14752
-0.0259469
0.150646
-0.0218905
0.153476
-0.0182855
0.156032
-0.0151148
0.158332
-0.012358
0.160405
-0.00996453
0.162278
-0.00789734
0.163977
-0.00609044
0.165527
-0.00454036
0.166953
-0.00312409
0.168283
-0.00195476
0.169525
-0.000748468
0.170724
0.000256301
0.171881
0.00168429
0.172987
0.00291386
0.174015
0.00495409
0.174943
0.00641299
0.175748
0.0089404
0.17643
0.0103151
0.176984
0.0130761
0.177428
0.014275
0.177766
0.0172614
0.17802
0.0183269
0.178189
0.0217309
0.178302
0.022588
0.178348
0.0267053
0.178356
0.0273581
0.178312
0.0323513
0.178241
0.0330452
0.178123
0.0390644
0.177987
0.0399148
0.177803
0.0473483
0.177606
0.0484919
0.0575835
0.0855287
0.00645926
0.0867669
0.00545583
0.0881085
0.00368327
0.0894688
0.00142504
0.090843
-0.00135096
0.0922433
-0.00477715
0.093694
-0.0088881
0.0952254
-0.0136701
0.0968869
-0.019101
0.098712
-0.0251247
0.10073
-0.0316208
0.102974
-0.0383971
0.105483
-0.0451835
0.108261
-0.0515961
0.11128
-0.0571802
0.114468
-0.061508
0.117751
-0.064255
0.121079
-0.0652639
0.124426
-0.0645188
0.127778
-0.0621683
0.131131
-0.0585216
0.134474
-0.0539602
0.137783
-0.0488633
0.141014
-0.0435805
0.144132
-0.0383858
0.147119
-0.0334193
0.149928
-0.0287555
0.152533
-0.0244955
0.154923
-0.0206762
0.157099
-0.0172904
0.159064
-0.0143234
0.160834
-0.0117343
0.162429
-0.0094925
0.163869
-0.00753014
0.165174
-0.00584488
0.166364
-0.00431472
0.167457
-0.00304763
0.168485
-0.00177614
0.169469
-0.000727648
0.170426
0.000726825
0.171369
0.00197117
0.172272
0.00405079
0.173123
0.00556208
0.173895
0.00816872
0.174585
0.00962491
0.175181
0.0124796
0.175698
0.0137588
0.176127
0.0168316
0.176492
0.0179623
0.176783
0.0214404
0.177027
0.0223431
0.177211
0.0265216
0.177365
0.0272045
0.177469
0.0322471
0.177552
0.032962
0.177591
0.0390255
0.177617
0.0398892
0.177597
0.0473682
0.177568
0.048521
0.0576637
0.114223
0.00602953
0.114923
0.00475637
0.1158
0.00280632
0.116715
0.000509508
0.117678
-0.00231345
0.118679
-0.00577861
0.119679
-0.00988805
0.120664
-0.0146554
0.121645
-0.0200811
0.122621
-0.0261013
0.123591
-0.0325911
0.124551
-0.0393571
0.125495
-0.0461273
0.126446
-0.0525464
0.127458
-0.0581922
0.128534
-0.0625841
0.129672
-0.0653929
0.130901
-0.0664929
0.132271
-0.0658894
0.133834
-0.0637314
0.135626
-0.0603138
0.137655
-0.0559883
0.139889
-0.0510974
0.142265
-0.0459564
0.14471
-0.0408308
0.147175
-0.0358843
0.149591
-0.0311722
0.151898
-0.026802
0.15406
-0.0228384
0.156058
-0.0192888
0.157884
-0.0161486
0.159537
-0.0133876
0.161029
-0.0109852
0.162375
-0.00887553
0.163589
-0.00705945
0.164687
-0.00541229
0.165686
-0.00404706
0.166608
-0.00269741
0.167498
-0.00161752
0.168343
-0.000118276
0.169203
0.00111068
0.170045
0.00320897
0.170867
0.00474022
0.171643
0.00739238
0.172372
0.00889625
0.173035
0.011816
0.173645
0.0131495
0.174187
0.016289
0.174682
0.0174676
0.175115
0.0210077
0.175513
0.021945
0.175857
0.0261774
0.176179
0.0268826
0.176456
0.0319698
0.176719
0.032699
0.176942
0.0388029
0.177157
0.0396743
0.177329
0.0471955
0.177498
0.048352
0.057543
0.142296
0.00663876
0.142055
0.00499708
0.141973
0.00288819
0.141955
0.00052787
0.142032
-0.00239095
0.142154
-0.00590061
0.142245
-0.00997848
0.14227
-0.0146803
0.142202
-0.0200139
0.14201
-0.0259093
0.141668
-0.0322485
0.141157
-0.0388457
0.140463
-0.0454337
0.139594
-0.0516775
0.138597
-0.0571949
0.137609
-0.0615961
0.136739
-0.0645238
0.1361
-0.0658529
0.135797
-0.0655868
0.135916
-0.06385
0.136502
-0.0609002
0.137553
-0.0570391
0.139017
-0.0525616
0.140804
-0.0477438
0.142808
-0.0428345
0.14494
-0.0380165
0.147131
-0.0333625
0.14929
-0.0289607
0.151358
-0.0249071
0.153303
-0.0212338
0.155106
-0.0179508
0.156756
-0.0150385
0.158259
-0.0124878
0.159621
-0.0102372
0.160854
-0.00829256
0.161968
-0.00652602
0.162977
-0.00505598
0.163901
-0.003622
0.164771
-0.00248704
0.165625
-0.000972673
0.166467
0.000268796
0.167314
0.00236154
0.168161
0.00389311
0.168986
0.00656781
0.169788
0.00809401
0.170548
0.0110565
0.171275
0.0124227
0.171952
0.0156116
0.172598
0.0168219
0.173193
0.020412
0.173766
0.0213725
0.174293
0.0256506
0.174806
0.0263695
0.17528
0.0314953
0.175748
0.0322318
0.17618
0.0383707
0.17661
0.0392437
0.177004
0.0468018
0.1774
0.0479564
0.0571909
0.166171
0.00814865
0.165044
0.00612338
0.163848
0.0040844
0.162742
0.0016341
0.16181
-0.00145896
0.160835
-0.00492567
0.159786
-0.00892951
0.158629
-0.0135231
0.157313
-0.0186982
0.155789
-0.0243856
0.154023
-0.0304827
0.151994
-0.0368161
0.149696
-0.0431364
0.147162
-0.0491426
0.144462
-0.0544951
0.141747
-0.0588818
0.139252
-0.0620282
0.137166
-0.0637672
0.135634
-0.0640549
0.134743
-0.0629589
0.134522
-0.0606794
0.134941
-0.0574574
0.135919
-0.0535396
0.137344
-0.0491694
0.139088
-0.044578
0.141028
-0.0399572
0.143093
-0.0354271
0.145199
-0.0310671
0.147265
-0.0269726
0.149236
-0.0232053
0.151086
-0.0198007
0.1528
-0.0167525
0.154376
-0.0140641
0.155818
-0.0116792
0.157136
-0.00960997
0.158334
-0.00772439
0.159425
-0.00614696
0.160423
-0.00461983
0.161361
-0.00342546
0.162272
-0.00188309
0.163175
-0.000634026
0.164085
0.00145157
0.16501
0.00296802
0.165926
0.00565168
0.166838
0.00718224
0.167723
0.010171
0.168593
0.0115525
0.169429
0.0147762
0.170247
0.0160036
0.171027
0.0196322
0.171795
0.0206047
0.172526
0.0249196
0.173252
0.0256433
0.173947
0.0308005
0.174642
0.0315367
0.175309
0.0377036
0.175981
0.0385717
0.176623
0.0461599
0.177272
0.0473066
0.0565775
0.18118
0.00969483
0.179582
0.00772125
0.17777
0.00589672
0.175921
0.00348324
0.174208
0.000254107
0.172335
-0.00305309
0.170314
-0.00690821
0.168121
-0.0113306
0.165703
-0.0162794
0.163013
-0.0216956
0.160024
-0.0274938
0.156725
-0.033517
0.153134
-0.0395453
0.14931
-0.0453189
0.145369
-0.0505545
0.141473
-0.0549854
0.137894
-0.058449
0.134883
-0.0607565
0.132591
-0.061763
0.131091
-0.0614591
0.130394
-0.0599826
0.130446
-0.057509
0.131146
-0.0542395
0.132368
-0.050392
0.133976
-0.0461853
0.135839
-0.0418205
0.137856
-0.0374445
0.139953
-0.0331636
0.14206
-0.0290801
0.144108
-0.0252529
0.146055
-0.0217479
0.14788
-0.0185771
0.149575
-0.0157594
0.151141
-0.0132454
0.152587
-0.0110556
0.153916
-0.00905302
0.155137
-0.00736852
0.15626
-0.00574284
0.15732
-0.0044853
0.158338
-0.00290081
0.15936
-0.00165682
0.160376
0.000435623
0.161425
0.00191916
0.162472
0.00460477
0.163528
0.00612679
0.164569
0.00913001
0.165608
0.0105129
0.166625
0.0137591
0.167638
0.0149909
0.168623
0.0186471
0.169607
0.0196207
0.170563
0.0239632
0.171524
0.0246828
0.172462
0.0298628
0.173407
0.0305908
0.174333
0.0367776
0.175271
0.0376338
0.176188
0.0452436
0.177118
0.0463763
0.0556741
0.184862
0.010634
0.183222
0.00936125
0.181517
0.00760197
0.179717
0.00528351
0.177623
0.00234803
0.175539
-0.000969469
0.173135
-0.00450448
0.170447
-0.00864241
0.167433
-0.0132653
0.164081
-0.0183435
0.160391
-0.0238037
0.156387
-0.0295137
0.152134
-0.0352921
0.147735
-0.0409199
0.143339
-0.0461583
0.139113
-0.050759
0.135198
-0.0545343
0.131758
-0.0573164
0.128971
-0.0589763
0.127004
-0.0594922
0.125889
-0.0588676
0.125571
-0.0571912
0.125954
-0.054622
0.126916
-0.0513538
0.128324
-0.0475935
0.130049
-0.0435457
0.131986
-0.0393816
0.134047
-0.0352247
0.136151
-0.0311832
0.138238
-0.0273403
0.140263
-0.0237734
0.142196
-0.0205092
0.144019
-0.0175827
0.145727
-0.014953
0.147323
-0.0126525
0.14881
-0.0105396
0.150194
-0.00875292
0.15148
-0.00702818
0.152698
-0.00570376
0.153875
-0.00407736
0.155051
-0.00283337
0.156222
-0.000734991
0.157426
0.000714795
0.158638
0.00339326
0.159868
0.00489655
0.161093
0.00790551
0.162327
0.00927853
0.163549
0.0125369
0.164778
0.0137617
0.16599
0.0174355
0.167211
0.0183998
0.168414
0.0227605
0.169629
0.023467
0.170832
0.0286604
0.17205
0.0293725
0.173258
0.0355693
0.174486
0.0364065
0.175702
0.0440275
0.176938
0.0451402
0.0544531
0.202603
0.0114617
-0.203431
0.202388
0.0095768
0.20219
0.00779988
0.202002
0.00547151
0.201673
0.00267729
0.201159
-0.000455366
0.20074
-0.00408603
0.20013
-0.00803255
0.199289
-0.0124238
0.198155
-0.0172099
0.19666
-0.0223079
0.194748
-0.0276021
0.192396
-0.0329397
0.189611
-0.0381349
0.186439
-0.0429864
0.182966
-0.0472859
0.179291
-0.0508595
0.175535
-0.0535603
0.171829
-0.0552704
0.16829
-0.0559529
0.165034
-0.055612
0.162152
-0.0543092
0.159701
-0.0521709
0.157705
-0.0493585
0.15616
-0.0460477
0.15503
-0.0424164
0.154269
-0.0386199
0.153822
-0.0347777
0.153636
-0.0309978
0.15366
-0.0273645
0.15384
-0.0239531
0.154126
-0.0207949
0.154476
-0.0179325
0.154857
-0.015334
0.155243
-0.0130393
0.155617
-0.0109127
0.15596
-0.00909615
0.156263
-0.0073317
0.156524
-0.00596456
0.156753
-0.00430584
0.156955
-0.00303593
0.157162
-0.000941432
0.157364
0.000512751
0.157577
0.00318026
0.157811
0.00466251
0.158052
0.00766457
0.158306
0.00902441
0.158556
0.0122871
0.158808
0.0135097
0.159048
0.0171952
0.159285
0.0181631
0.159505
0.0225406
0.159723
0.0232486
0.159923
0.0284606
0.160125
0.0291703
0.160312
0.0353821
0.160506
0.0362124
0.160688
0.0438453
0.160885
0.0449436
0.0542641
0.214459
0.0115691
-0.214567
0.214419
0.00961699
0.214566
0.00765324
0.214608
0.00542969
0.214465
0.00281985
0.214207
-0.000197737
0.213733
-0.00361178
0.213045
-0.00734454
0.212061
-0.0114397
0.210728
-0.0158769
0.209003
-0.0205828
0.206856
-0.0254556
0.204282
-0.0303657
0.201303
-0.0351553
0.197969
-0.0396525
0.194362
-0.0436793
0.190579
-0.0470765
0.186731
-0.0497122
0.182942
-0.0514809
0.179323