/*--------------------------------*- C++ -*----------------------------------*\
| =========                 |                                                 |
| \\      /  F ield         | OpenFOAM: The Open Source CFD Toolbox           |
|  \\    /   O peration     | Version:  2512                                  |
|   \\  /    A nd           | Website:  www.openfoam.com                      |
|    \\/     M anipulation  |                                                 |
\*---------------------------------------------------------------------------*/
FoamFile
{
    version     2.0;
    format      ascii;
    arch        "LSB;label=32;scalar=64";
    class       volScalarField;
    location    "8";
    object      p;
}
// * * * * * * * * * * * * * * * * * * * * * * * * * * * * * * * * * * * * * //

dimensions      [0 2 -2 0 0 0 0];

internalField   nonuniform List<scalar> 
13248
(
-0.389117
-0.38669
-0.383324
-0.379338
-0.375173
-0.371318
-0.368174
-0.366007
-0.364912
-0.364799
-0.365399
-0.366289
-0.36694
-0.366781
-0.365268
-0.361952
-0.356529
-0.348874
-0.339018
-0.327158
-0.313415
-0.298197
-0.280575
-0.261445
-0.396891
-0.393955
-0.390074
-0.385588
-0.380923
-0.376535
-0.37277
-0.369813
-0.367669
-0.366159
-0.364944
-0.363575
-0.361565
-0.358454
-0.353877
-0.347608
-0.33957
-0.329824
-0.318524
-0.305871
-0.292045
-0.277241
-0.261319
-0.245154
-0.407053
-0.403246
-0.398668
-0.393617
-0.388431
-0.383488
-0.37903
-0.375124
-0.371659
-0.368379
-0.364927
-0.360914
-0.355987
-0.349884
-0.342463
-0.333707
-0.323699
-0.312587
-0.300537
-0.287717
-0.274243
-0.260296
-0.245771
-0.231239
-0.419566
-0.414579
-0.409125
-0.403403
-0.397594
-0.391951
-0.386576
-0.381391
-0.376187
-0.370687
-0.364605
-0.357703
-0.349836
-0.340957
-0.331115
-0.32042
-0.309012
-0.297032
-0.284607
-0.271841
-0.258824
-0.245676
-0.232354
-0.219404
-0.434281
-0.427892
-0.421416
-0.4149
-0.408298
-0.401696
-0.395031
-0.388101
-0.380667
-0.372525
-0.363556
-0.353738
-0.343134
-0.33187
-0.320094
-0.307952
-0.295565
-0.283029
-0.270412
-0.257769
-0.245149
-0.232611
-0.220138
-0.208067
-0.451003
-0.443076
-0.435482
-0.428037
-0.420396
-0.412443
-0.40397
-0.394727
-0.384558
-0.373443
-0.361493
-0.348897
-0.335876
-0.322635
-0.309339
-0.296103
-0.282999
-0.270064
-0.25732
-0.244781
-0.232462
-0.220384
-0.208544
-0.197155
-0.469451
-0.459936
-0.451162
-0.442617
-0.433581
-0.423741
-0.412825
-0.400676
-0.387347
-0.373083
-0.358223
-0.343108
-0.328025
-0.313177
-0.298685
-0.284605
-0.270951
-0.257715
-0.244879
-0.232427
-0.220347
-0.208629
-0.197274
-0.186362
-0.489189
-0.478111
-0.468104
-0.458214
-0.447299
-0.434917
-0.42089
-0.405317
-0.388568
-0.371156
-0.353589
-0.336268
-0.31946
-0.303306
-0.287858
-0.27311
-0.259023
-0.245553
-0.232652
-0.22028
-0.208403
-0.196995
-0.186051
-0.175544
-0.509561
-0.497014
-0.4857
-0.474117
-0.460727
-0.44511
-0.427386
-0.408052
-0.387827
-0.367437
-0.347458
-0.328259
-0.310027
-0.292818
-0.276608
-0.261332
-0.246914
-0.233276
-0.220349
-0.208073
-0.196395
-0.185278
-0.174698
-0.164551
-0.529655
-0.515785
-0.503041
-0.489317
-0.472805
-0.453336
-0.431525
-0.408338
-0.384795
-0.361729
-0.339679
-0.318921
-0.299533
-0.28148
-0.26467
-0.248994
-0.234341
-0.220608
-0.207706
-0.195556
-0.184092
-0.173268
-0.163026
-0.153231
-0.548325
-0.5333
-0.518934
-0.50255
-0.482304
-0.458535
-0.432488
-0.405581
-0.379027
-0.353647
-0.329876
-0.307855
-0.287552
-0.268851
-0.251602
-0.235656
-0.220874
-0.207134
-0.194328
-0.182361
-0.171157
-0.160649
-0.150745
-0.141324
-0.564298
-0.548317
-0.532106
-0.512525
-0.488004
-0.459636
-0.429361
-0.398974
-0.369758
-0.342434
-0.317275
-0.294282
-0.273312
-0.254173
-0.236667
-0.220609
-0.205838
-0.192211
-0.179603
-0.16791
-0.157045
-0.146926
-0.137431
-0.128503
-0.313268
-0.320284
-0.324938
-0.328975
-0.333715
-0.339461
-0.346246
-0.353995
-0.36254
-0.371647
-0.381018
-0.390303
-0.399092
-0.406924
-0.41329
-0.417649
-0.419439
-0.418102
-0.413117
-0.404036
-0.390538
-0.372607
-0.350529
-0.325019
-0.3167
-0.323168
-0.327577
-0.331532
-0.336251
-0.342019
-0.348863
-0.356708
-0.365387
-0.374665
-0.384251
-0.393795
-0.402891
-0.411081
-0.417856
-0.422675
-0.42497
-0.424165
-0.419701
-0.411063
-0.397856
-0.380286
-0.358242
-0.33276
-0.324063
-0.329324
-0.333158
-0.336872
-0.34147
-0.347202
-0.354087
-0.362046
-0.370918
-0.380475
-0.390436
-0.400463
-0.410163
-0.41909
-0.426749
-0.432606
-0.436096
-0.436629
-0.433608
-0.42654
-0.415118
-0.398558
-0.376992
-0.351681
-0.333932
-0.337531
-0.340512
-0.343791
-0.348096
-0.353626
-0.360392
-0.368314
-0.37723
-0.386925
-0.397127
-0.407514
-0.417711
-0.42729
-0.435775
-0.442647
-0.447349
-0.449292
-0.447884
-0.442582
-0.432847
-0.418232
-0.398354
-0.372963
-0.34461
-0.34637
-0.348304
-0.350932
-0.354694
-0.359744
-0.366089
-0.373647
-0.382262
-0.391725
-0.401779
-0.412115
-0.422376
-0.432156
-0.441001
-0.448413
-0.453852
-0.456752
-0.456517
-0.452556
-0.444349
-0.431378
-0.41342
-0.389081
-0.354585
-0.354618
-0.355428
-0.357199
-0.360128
-0.364345
-0.369871
-0.376632
-0.384487
-0.393239
-0.402646
-0.412418
-0.422218
-0.431662
-0.440318
-0.447718
-0.453316
-0.456574
-0.456922
-0.453765
-0.446591
-0.434665
-0.418539
-0.395106
-0.362854
-0.36152
-0.361256
-0.362019
-0.363851
-0.36689
-0.371195
-0.376726
-0.383373
-0.390966
-0.399285
-0.408064
-0.416988
-0.425694
-0.43375
-0.440704
-0.446073
-0.449272
-0.449726
-0.446828
-0.440157
-0.428723
-0.413802
-0.391249
-0.369056
-0.366856
-0.36568
-0.365379
-0.365946
-0.367563
-0.370351
-0.374337
-0.379461
-0.385601
-0.39257
-0.400126
-0.407964
-0.415723
-0.423016
-0.429359
-0.434214
-0.436999
-0.437131
-0.433963
-0.42717
-0.415701
-0.401125
-0.379242
-0.373426
-0.370864
-0.368995
-0.367682
-0.366957
-0.367076
-0.368247
-0.370579
-0.374087
-0.378704
-0.384281
-0.390579
-0.39732
-0.404134
-0.410556
-0.416064
-0.42008
-0.42199
-0.421202
-0.41711
-0.409485
-0.397504
-0.382622
-0.36133
-0.37665
-0.374104
-0.37175
-0.36955
-0.367645
-0.366376
-0.366042
-0.36684
-0.368861
-0.372077
-0.376371
-0.381526
-0.387189
-0.39293
-0.398225
-0.402482
-0.405074
-0.405386
-0.402891
-0.397172
-0.388171
-0.375516
-0.360415
-0.340076
-0.379686
-0.377317
-0.374614
-0.371681
-0.368795
-0.366376
-0.3648
-0.364329
-0.365103
-0.367133
-0.370275
-0.374257
-0.378672
-0.383007
-0.386663
-0.389004
-0.38941
-0.387354
-0.382458
-0.374584
-0.363889
-0.350599
-0.33583
-0.317402
-0.383559
-0.38129
-0.378274
-0.374748
-0.371102
-0.367815
-0.365302
-0.363855
-0.363621
-0.36458
-0.366544
-0.369166
-0.371962
-0.374354
-0.37572
-0.375463
-0.373071
-0.368192
-0.360645
-0.350518
-0.337992
-0.32369
-0.308334
-0.291886
-0.291753
-0.247477
-0.199052
-0.148397
-0.0981194
-0.0511698
-0.00966324
0.024722
0.0512155
0.0698966
0.0815417
0.0873505
0.0886637
0.0867546
0.0827336
0.0774405
0.0717147
0.0657708
0.059926
0.0543683
0.0491919
0.0445587
0.0403231
0.0364865
0.0330615
0.0300218
0.0273399
0.0249721
0.0228778
0.021023
0.019378
0.0179168
0.0166167
0.015458
0.0144228
0.0134956
0.0126628
0.0119122
0.011233
0.0106155
0.0100511
0.00953182
0.00905081
0.0086008
0.00817677
0.0077706
0.00738051
0.00699385
0.00661661
0.00622404
0.00583846
0.00541324
0.00499167
0.00451132
0.00400829
0.0034569
0.00281636
0.00215281
0.00134339
0.00050071
-0.300493
-0.255992
-0.207305
-0.156295
-0.105374
-0.0573869
-0.0150253
0.0201645
0.0474213
0.0667844
0.0790248
0.0853495
0.0871168
0.0856064
0.0819396
0.0770348
0.0713255
0.065481
0.0597368
0.0542411
0.0489988
0.0445226
0.0403722
0.0365657
0.0331365
0.0300884
0.0274071
0.0250395
0.0229423
0.0210833
0.0194337
0.0179679
0.0166636
0.0155007
0.0144618
0.0135311
0.0126951
0.0119416
0.0112597
0.0106397
0.010073
0.0095517
0.00906878
0.00861707
0.00819139
0.0077839
0.00739222
0.00700481
0.00662569
0.0062333
0.00584508
0.00542109
0.00499666
0.0045168
0.00401361
0.00345849
0.00282248
0.00215145
0.0013479
0.000495243
-0.322388
-0.277764
-0.228682
-0.176308
-0.123732
-0.0740915
-0.0298022
0.00735705
0.0364731
0.0575382
0.0712987
0.0789683
0.0819229
0.081448
0.0786402
0.0744043
0.069367
0.0640469
0.0587345
0.0536174
0.0488993
0.0441785
0.0400492
0.0363805
0.0330426
0.030034
0.0273861
0.0250422
0.0229583
0.021107
0.0194614
0.0179975
0.0166937
0.0155305
0.0144907
0.0135588
0.0127213
0.0119661
0.0112826
0.010661
0.0100927
0.0095699
0.00908551
0.00863248
0.00820545
0.00779691
0.00740388
0.00701592
0.00663507
0.00624305
0.00585229
0.00542969
0.00500245
0.00452318
0.00401988
0.003461
0.0028295
0.0021509
0.00135301
0.00049009
-0.347679
-0.304367
-0.254969
-0.202524
-0.149202
-0.097951
-0.0515913
-0.0121351
0.0193567
0.0427605
0.0587374
0.0684558
0.0732721
0.0744755
0.0731043
0.0700562
0.0660181
0.0614917
0.056806
0.0521708
0.0477288
0.0434661
0.0395283
0.0359566
0.0327526
0.0298531
0.0272831
0.0249855
0.0229301
0.0210977
0.0194646
0.0180087
0.01671
0.01555
0.0145118
0.0135806
0.0127431
0.0119875
0.0113032
0.0106807
0.0101114
0.00958748
0.00910199
0.00864792
0.0082198
0.00781042
0.00741622
0.00702786
0.00664544
0.0062539
0.00586073
0.00543958
0.00500962
0.00453097
0.00402753
0.00346496
0.0028377
0.00215161
0.00135883
0.000485542
-0.36591
-0.327079
-0.279968
-0.228859
-0.176149
-0.124554
-0.0770206
-0.0357914
-0.00209886
0.0237593
0.0422755
0.0544858
0.0616552
0.0650146
0.0655771
0.064144
0.0614235
0.0579581
0.0541185
0.0501478
0.0462122
0.0423733
0.0387062
0.0353372
0.0323038
0.0294906
0.0270847
0.0248664
0.0228546
0.0210532
0.0194415
0.0180003
0.0167116
0.0155585
0.0145248
0.0135964
0.0127605
0.0120056
0.0113215
0.0106987
0.010129
0.00960443
0.0091182
0.0086634
0.00823443
0.00782444
0.00742925
0.00704066
0.00665683
0.00626586
0.00587043
0.00545078
0.00501822
0.00454023
0.00403655
0.00347051
0.002847
0.00215376
0.00136528
0.000481787
-0.37338
-0.338581
-0.296442
-0.249696
-0.199983
-0.149944
-0.102777
-0.0608995
-0.0257014
0.00227746
0.0232733
0.0381042
0.0478556
0.0536304
0.0564099
0.0569226
0.0558002
0.0536133
0.0507903
0.0476219
0.0443082
0.0409682
0.0377133
0.0346113
0.0317175
0.0289056
0.0267621
0.0246792
0.0227308
0.0209719
0.0193907
0.0179711
0.0166977
0.0155553
0.014529
0.0136056
0.0127729
0.0120201
0.0113371
0.0107149
0.0101453
0.00962058
0.00913398
0.00867876
0.00824921
0.00783881
0.00744284
0.00705417
0.00666911
0.0062788
0.00588131
0.00546315
0.00502813
0.00455088
0.00404679
0.00347765
0.00285722
0.00215743
0.00137222
0.000479016
-0.37001
-0.338236
-0.301911
-0.261348
-0.21689
-0.1707
-0.125938
-0.0849773
-0.049342
-0.019922
0.00316515
0.0204493
0.0327617
0.0410078
0.0460548
0.0486515
0.0493255
0.0485896
0.046916
0.0446577
0.0420616
0.0392924
0.0364874
0.0337466
0.031127
0.0289256
0.0264009
0.0244289
0.022558
0.0208531
0.0193114
0.0179205
0.0166677
0.0155401
0.0145243
0.0136081
0.0127804
0.0120309
0.0113501
0.0107292
0.0101602
0.00963585
0.00914926
0.00869392
0.00826405
0.00785345
0.00745691
0.00706829
0.0066822
0.0062926
0.00589327
0.00547658
0.00503928
0.00456284
0.0040581
0.00348642
0.00286817
0.0021627
0.0013795
0.000477478
-0.357558
-0.328241
-0.298293
-0.264453
-0.225674
-0.184775
-0.144363
-0.106054
-0.0712901
-0.0413636
-0.0168252
0.00250359
0.0171438
0.0277464
0.0350154
0.0396242
0.0421434
0.0429765
0.0425625
0.0413003
0.0394923
0.0373519
0.0350427
0.0326895
0.0303775
0.0281732
0.0261035
0.0241258
0.0223221
0.020693
0.0192024
0.0178476
0.0166211
0.0155124
0.0145101
0.0136035
0.0127826
0.0120378
0.0113602
0.0107414
0.0101738
0.00965015
0.00916397
0.00870882
0.00827889
0.00786831
0.00747141
0.00708295
0.00669607
0.00630717
0.0059063
0.00549098
0.00505163
0.00457607
0.00407038
0.00349687
0.00287968
0.00216971
0.00138699
0.000477483
-0.33882
-0.312066
-0.288438
-0.261005
-0.227971
-0.192573
-0.157308
-0.122895
-0.0902564
-0.0608754
-0.0356873
-0.0148958
0.00166785
0.0143668
0.0237008
0.0302254
0.0344743
0.0368883
0.0378101
0.0376156
0.0366481
0.0351727
0.0333901
0.0314483
0.0294534
0.0274798
0.0255235
0.0237024
0.0219822
0.0204813
0.0190621
0.0177518
0.016557
0.0154717
0.0144862
0.0135917
0.0127795
0.0120408
0.0113674
0.0107515
0.0101859
0.00966354
0.00917815
0.0087235
0.00829377
0.00788339
0.00748634
0.00709815
0.00671072
0.00632248
0.00592042
0.00550629
0.00506517
0.00459057
0.00408355
0.0035091
0.00289162
0.0021786
0.00139458
0.000479422
-0.317228
-0.293978
-0.275986
-0.253665
-0.225904
-0.196063
-0.165718
-0.135393
-0.105647
-0.0777462
-0.0527532
-0.0311861
-0.0132247
0.0011925
0.012337
0.0206105
0.0264651
0.0303544
0.0326389
0.0336005
0.033562
0.0328109
0.0315887
0.03008
0.0284175
0.0266992
0.0249432
0.0232326
0.0215492
0.0202068
0.0188867
0.0176332
0.0164766
0.0154191
0.0144539
0.0135741
0.0127723
0.012041
0.0113727
0.0107604
0.0101971
0.0096764
0.00919202
0.00873805
0.00830869
0.00789861
0.00750159
0.0071137
0.00672595
0.00633829
0.00593539
0.00552228
0.00507967
0.00460618
0.00409736
0.00352307
0.00290377
0.00218945
0.00140217
0.000483816
-0.296501
-0.278285
-0.264582
-0.245698
-0.222522
-0.19786
-0.172046
-0.145424
-0.118759
-0.0929323
-0.068847
-0.047153
-0.0282852
-0.0124705
0.000313457
0.0102786
0.0177461
0.0230863
0.0266689
0.0288379
0.0298711
0.0300071
0.029482
0.0285078
0.0272511
0.0258375
0.0243306
0.0227546
0.0214364
0.0199441
0.0186901
0.0174995
0.0163843
0.0153567
0.0144136
0.0135501
0.01276
0.012037
0.0113746
0.0107663
0.0102059
0.00968704
0.00920396
0.00875088
0.0083221
0.0079125
0.0075157
0.00712822
0.00674043
0.00635336
0.00594998
0.00553785
0.00509401
0.00462197
0.00411083
0.00353811
0.0029153
0.00220194
0.0014093
0.000491269
-0.277209
-0.266043
-0.254503
-0.237318
-0.217886
-0.197637
-0.175881
-0.152669
-0.128774
-0.105063
-0.0823459
-0.0612364
-0.0421736
-0.0255495
-0.0115514
-0.000161477
0.00878536
0.0155498
0.0204268
0.0237048
0.0256757
0.0266399
0.0268345
0.0264534
0.0256707
0.0246281
0.0234184
0.022124
0.0208651
0.019615
0.0183775
0.0172745
0.0162249
0.0152422
0.0143316
0.0134921
0.01272
0.0120105
0.0113581
0.0107575
0.0102027
0.00968824
0.00920847
0.00875794
0.00833113
0.00792309
0.00752752
0.00714101
0.00675404
0.00636752
0.00596472
0.00555291
0.00510888
0.00463791
0.00412412
0.00355445
0.00292576
0.00221598
0.00141526
0.000502359
-0.253656
-0.256089
-0.243518
-0.22537
-0.206817
-0.188192
-0.168505
-0.147519
-0.125774
-0.104037
-0.0830285
-0.0633365
-0.0454002
-0.0295589
-0.0160024
-0.00475958
0.00427198
0.0112865
0.016526
0.0202561
0.02273
0.0241836
0.0248232
0.0248356
0.0243878
0.0236189
0.0226346
0.021534
0.0204079
0.0192536
0.0181497
0.0170616
0.016061
0.0151189
0.0142408
0.0134273
0.0126755
0.0119821
0.0113425
0.0107518
0.010205
0.00969682
0.00922202
0.00877536
0.00835171
0.00794584
0.00755252
0.00716654
0.00678199
0.00639373
0.00599444
0.00557861
0.00513769
0.00466389
0.00414744
0.00358019
0.00294214
0.00223569
0.00142293
0.000516793
-0.229547
-0.235627
-0.224671
-0.207156
-0.189735
-0.173128
-0.156055
-0.137835
-0.118763
-0.0995411
-0.0808406
-0.0631733
-0.0469059
-0.0323211
-0.0196109
-0.00884986
-1.996e-07
0.00706226
0.0125169
0.0165663
0.0194104
0.0212473
0.0222662
0.0226406
0.0225251
0.0220525
0.0213302
0.0204517
0.0194977
0.0184884
0.0175082
0.016581
0.0156796
0.0148155
0.0139998
0.013236
0.012524
0.0118623
0.0112482
0.0106781
0.0101478
0.00965286
0.0091888
0.0087508
0.00833423
0.007934
0.00754548
0.00716298
0.00678206
0.00639531
0.00599951
0.00558316
0.00514574
0.00467068
0.0041554
0.0035889
0.00294787
0.00224334
0.0014252
0.000524429
-0.207487
-0.214076
-0.205495
-0.190041
-0.174347
-0.159705
-0.144962
-0.129221
-0.11256
-0.0955878
-0.0789261
-0.0630335
-0.0482323
-0.0347758
-0.0228573
-0.0125822
-0.00395979
0.0030806
0.00866345
0.0129415
0.0160787
0.018246
0.0196107
0.0203274
0.0205367
0.0203623
0.0199087
0.0192653
0.018508
0.0176883
0.0168604
0.0160373
0.0152265
0.0144424
0.0136937
0.0129853
0.012319
0.0116949
0.0111116
0.0105666
0.0100569
0.00957894
0.00912872
0.00870206
0.0082948
0.00790216
0.00752
0.00714246
0.00676612
0.00638231
0.00599025
0.00557512
0.00514105
0.00466625
0.00415304
0.00358759
0.00294615
0.00224375
0.00142349
0.000528287
-0.18697
-0.19352
-0.187149
-0.174073
-0.160225
-0.14728
-0.134444
-0.120816
-0.106301
-0.0913703
-0.0765775
-0.0623403
-0.0489467
-0.036619
-0.0255368
-0.0158191
-0.00750891
-0.000579452
0.00504757
0.00948385
0.0128598
0.015316
0.0169938
0.0180277
0.0185436
0.0186553
0.0184625
0.0180522
0.0174996
0.0168581
0.016166
0.0154554
0.014744
0.014044
0.0133653
0.0127151
0.012097
0.0115127
0.0109622
0.0104443
0.0099569
0.00949721
0.00906208
0.0086478
0.00825077
0.00786646
0.00749133
0.00711927
0.00674799
0.00636747
0.00597943
0.0055659
0.00513511
0.00466122
0.00414964
0.00358594
0.00294384
0.002244
0.00142181
0.000531343
-0.167749
-0.174401
-0.169764
-0.158823
-0.146777
-0.135414
-0.124261
-0.112508
-0.0999488
-0.0869099
-0.0738621
-0.061185
-0.0491393
-0.0379206
-0.027692
-0.0185773
-0.0106433
-0.00389763
0.00170112
0.00622905
0.00978417
0.0124774
0.0144248
0.0157418
0.0165391
0.0169199
0.0169774
0.016794
0.0164395
0.0159664
0.0154191
0.0148329
0.0142267
0.0136151
0.0130107
0.0124223
0.0118557
0.0113142
0.0107992
0.0103107
0.0098475
0.00940782
0.00898921
0.00858857
0.00820283
0.00782776
0.00746043
0.00709451
0.00672883
0.0063521
0.00596846
0.00555693
0.00512954
0.00465705
0.00414688
0.0035855
0.00294232
0.00224531
0.00142102
0.000533949
-0.150304
-0.156754
-0.15336
-0.14426
-0.133938
-0.124102
-0.114488
-0.104409
-0.0936065
-0.0822922
-0.0708526
-0.0596267
-0.0488524
-0.0387046
-0.0293298
-0.0208496
-0.0133447
-0.00684706
-0.00134506
0.00320676
0.00687755
0.00975153
0.0119216
0.0134838
0.0145339
0.0151631
0.0154561
0.0154888
0.0153271
0.0150252
0.0146278
0.0141689
0.0136705
0.013151
0.0126245
0.0121019
0.0115905
0.011095
0.0106184
0.0101618
0.00972513
0.00930747
0.00890713
0.00852161
0.00814846
0.00778374
0.00742516
0.00706621
0.00670682
0.00633455
0.0059557
0.00554679
0.00512297
0.00465244
0.00414372
0.0035851
0.00294083
0.00224677
0.00142061
0.000535761
-0.134442
-0.140397
-0.137971
-0.130487
-0.121761
-0.113356
-0.105141
-0.0965446
-0.0873007
-0.0775392
-0.0675702
-0.0576887
-0.0481097
-0.0389901
-0.030461
-0.0226365
-0.0156031
-0.00940955
-0.00406722
0.000444084
0.00416894
0.00716811
0.0095127
0.0112803
0.0125511
0.0134042
0.0139146
0.0141519
0.0141778
0.0140446
0.0137954
0.0134645
0.0130763
0.0126518
0.0122067
0.0117531
0.0113001
0.0108538
0.0104184
0.00999625
0.00958847
0.00919487
0.00881459
0.00844577
0.00808656
0.00773337
0.00738454
0.00703347
0.00668106
0.00631399
0.00594036
0.00553476
0.00511469
0.00464673
0.00413956
0.00358409
0.00293895
0.00224783
0.0014203
0.000536761
-0.11972
-0.125281
-0.123676
-0.117585
-0.110275
-0.103165
-0.0962043
-0.0889182
-0.0810525
-0.072682
-0.0640513
-0.0554107
-0.0469507
-0.0388114
-0.0311094
-0.0239496
-0.0174186
-0.0115751
-0.00644724
-0.00203492
0.00168606
0.00475614
0.00722666
0.00915765
0.0106145
0.011664
0.0123713
0.0127986
0.0130022
0.013031
0.0129267
0.0127238
0.0124469
0.0121195
0.0117582
0.0113765
0.0109846
0.0105903
0.0101988
0.00981367
0.00943699
0.00906947
0.00871106
0.00836052
0.00801664
0.00767622
0.00733818
0.00699593
0.00665127
0.00629016
0.00592224
0.00552063
0.00510453
0.0046398
0.00413429
0.00358241
0.00293667
0.00224842
0.00142016
0.00053715
-0.106231
-0.111449
-0.110483
-0.105554
-0.0994746
-0.0935126
-0.0876673
-0.0815391
-0.0748913
-0.0677614
-0.0603407
-0.0528378
-0.0454182
-0.0382057
-0.0313034
-0.0248062
-0.0187973
-0.0133395
-0.00847241
-0.004211
-0.000547583
0.00254122
0.0050894
0.00714094
0.00874737
0.00996335
0.0108439
0.011443
0.0118111
0.0119934
0.0120291
0.0119525
0.011786
0.0115565
0.0112806
0.0109728
0.0106445
0.0103046
0.00995939
0.00961359
0.00927017
0.00893073
0.00859599
0.00826534
0.00793822
0.00761182
0.00728568
0.00695325
0.00661714
0.00626281
0.00590114
0.00550424
0.00509242
0.00463157
0.00412791
0.00358001
0.00293403
0.00224854
0.00142027
0.000537135
-0.0940612
-0.0988175
-0.0983091
-0.0943576
-0.089348
-0.084397
-0.0795341
-0.0744235
-0.0688478
-0.0628186
-0.0564839
-0.0500162
-0.0435568
-0.0372134
-0.0310764
-0.0252304
-0.0197525
-0.014706
-0.0101368
-0.00607099
-0.0025135
0.000545283
0.00312459
0.00525408
0.00697257
0.0083232
0.00935086
0.0101012
0.0106184
0.010943
0.011111
0.0111521
0.011098
0.0109661
0.0107762
0.0105435
0.0102805
0.00999687
0.00970012
0.00939573
0.00908759
0.00877813
0.00846881
0.00815967
0.00785076
0.00753968
0.00722658
0.006905
0.0065783
0.00623161
0.00587678
0.00548537
0.00507818
0.00462186
0.00412034
0.00357681
0.00293103
0.00224819
0.00142065
0.00053688
-0.0829651
-0.0872505
-0.087105
-0.0839842
-0.0798975
-0.075824
-0.0718158
-0.0675916
-0.0629536
-0.0578943
-0.0525276
-0.0469945
-0.0414141
-0.0358788
-0.0304666
-0.0252518
-0.0203043
-0.0156844
-0.0114412
-0.00760783
-0.00419835
-0.00121375
0.00135297
0.00351905
0.00531198
0.00676438
0.00791137
0.00879027
0.00943873
0.00989223
0.0101831
0.0103399
0.01039
0.0103531
0.0102481
0.0100908
0.00989395
0.00966807
0.00942137
0.00916014
0.00888909
0.00861136
0.00832912
0.00804304
0.00775375
0.00745931
0.0071604
0.00685075
0.00653436
0.00619621
0.00584886
0.00546372
0.0050616
0.00461049
0.00411148
0.00357267
0.00292765
0.00224735
0.00142126
0.000536515
-0.0728106
-0.0767087
-0.076855
-0.0744223
-0.071115
-0.0677926
-0.0645203
-0.0610616
-0.0572375
-0.0530272
-0.0485169
-0.043821
-0.0390388
-0.0342483
-0.0295156
-0.0249049
-0.0204781
-0.0162912
-0.0123929
-0.00882057
-0.00559428
-0.00272267
-0.000208465
0.00195513
0.00378585
0.00530699
0.00654454
0.00752769
0.00828753
0.0088543
0.00925634
0.00951975
0.00966853
0.00972273
0.00970059
0.00961767
0.00948704
0.00931955
0.00912398
0.00890727
0.00867478
0.00843031
0.00817669
0.00791512
0.00764683
0.0073703
0.00708673
0.00679011
0.00648494
0.00615625
0.00581709
0.00543902
0.00504249
0.00459723
0.0041012
0.00356747
0.00292381
0.002246
0.00142205
0.000536144
-0.0636411
-0.0671601
-0.0675022
-0.0656268
-0.0629753
-0.0602931
-0.0576502
-0.0548477
-0.0517248
-0.0482525
-0.0444946
-0.0405431
-0.0364798
-0.0323694
-0.0282672
-0.0242276
-0.0203046
-0.0165482
-0.0130053
-0.0097144
-0.00669925
-0.00397342
-0.00154703
0.00057821
0.00241194
0.00396946
0.00526848
0.0063306
0.00718048
0.00784311
0.00834258
0.00870167
0.00894169
0.00908161
0.00913873
0.00912809
0.00906264
0.00895335
0.00880934
0.00863798
0.00844515
0.00823519
0.00801148
0.00777574
0.00752973
0.00727233
0.00700524
0.0067227
0.00642971
0.00611141
0.00578118
0.005411
0.00502063
0.0045819
0.00408939
0.00356111
0.00291947
0.00224416
0.00142294
0.000535858
-0.055397
-0.0585082
-0.0589714
-0.0575542
-0.0554563
-0.053317
-0.0512076
-0.0489625
-0.0464391
-0.0436034
-0.0405016
-0.0372066
-0.0337851
-0.0302901
-0.0267669
-0.0232611
-0.0198184
-0.0164826
-0.0132972
-0.0103004
-0.00751696
-0.00496332
-0.0026548
-0.000599825
0.00120481
0.00276786
0.00409987
0.0052154
0.00613309
0.00687279
0.00745421
0.00789659
0.0082185
0.00843716
0.0085685
0.00862675
0.00862437
0.0085722
0.00847941
0.00835363
0.00820107
0.0080265
0.00783372
0.00762493
0.00740232
0.00716518
0.00691565
0.00664824
0.00636836
0.00606139
0.00574087
0.0053794
0.00499583
0.00456429
0.00407591
0.00355348
0.00291454
0.00224186
0.00142388
0.000535729
-0.0478986
-0.0506566
-0.0512114
-0.0501717
-0.0485368
-0.046853
-0.0451913
-0.0434154
-0.0414004
-0.0391095
-0.0365752
-0.0338543
-0.0310007
-0.0280573
-0.0250604
-0.0220475
-0.0190568
-0.0161254
-0.0132926
-0.0105949
-0.00805667
-0.00569508
-0.00352886
-0.00157144
0.000175452
0.00171548
0.00305321
0.00419703
0.00516002
0.00595723
0.00660396
0.00711587
0.00750875
0.00779761
0.00799673
0.00811916
0.00817662
0.00817948
0.00813676
0.0080561
0.00794387
0.00780511
0.00764396
0.00746296
0.00726471
0.00704881
0.00681781
0.00656652
0.00630066
0.00600593
0.00569591
0.00534396
0.0049679
0.00454422
0.00406063
0.0035445
0.00290894
0.00223911
0.00142484
0.000535801
-0.0411356
-0.0435869
-0.0441895
-0.0434461
-0.0421894
-0.0408834
-0.0395947
-0.0382109
-0.0366232
-0.0347949
-0.0327474
-0.0305246
-0.0281692
-0.0257155
-0.0231924
-0.0206297
-0.0180588
-0.0155104
-0.0130191
-0.010619
-0.00833265
-0.00617659
-0.00417131
-0.00233373
-0.000669168
0.000822315
0.0021405
0.00328849
0.00427456
0.00510941
0.00580424
0.006371
0.00682261
0.00717178
0.00743091
0.00761158
0.00772447
0.00777927
0.00778457
0.00774781
0.00767534
0.00757232
0.00744307
0.0072904
0.00711718
0.00692334
0.00671173
0.00647742
0.00622645
0.00594481
0.00564611
0.00530447
0.00493665
0.00452153
0.00404343
0.00353411
0.0029026
0.00223597
0.00142578
0.0005361
-0.0350568
-0.0372109
-0.0378342
-0.0373244
-0.0363775
-0.0353851
-0.0344067
-0.0333488
-0.032118
-0.0306791
-0.0290459
-0.0272516
-0.0253297
-0.0233069
-0.0212058
-0.01905
-0.0168643
-0.0146735
-0.0125076
-0.0103976
-0.00836365
-0.00642047
-0.00458904
-0.00288852
-0.00132646
9.45667e-05
0.00137063
0.00250049
0.00348839
0.00434123
0.00506665
0.00567304
0.00617029
0.00656878
0.00687899
0.00711082
0.00727365
0.00737627
0.00742663
0.00743175
0.0073978
0.00732985
0.00723231
0.0071081
0.00696032
0.00678909
0.00659754
0.00638098
0.00614568
0.00587792
0.00559132
0.00526077
0.00490194
0.00449608
0.00402416
0.00352225
0.00289544
0.00223245
0.00142671
0.000536638
-0.0295873
-0.0314715
-0.0320927
-0.0317658
-0.0310719
-0.030338
-0.0296154
-0.0288264
-0.0278915
-0.0267781
-0.0254944
-0.0240655
-0.0225172
-0.0208701
-0.0191412
-0.017349
-0.0155125
-0.0136512
-0.0117906
-0.00995854
-0.00817211
-0.00644354
-0.00479335
-0.00324194
-0.00179804
-0.000465581
0.000748921
0.00184083
0.002811
0.00366312
0.00440166
0.00503226
0.00556148
0.00599766
0.00634916
0.00662405
0.00683035
0.0069757
0.00706725
0.00711143
0.00711402
0.00707988
0.00701332
0.00691729
0.00679499
0.00664666
0.00647563
0.00627738
0.00605841
0.00580524
0.00553147
0.00521274
0.00486362
0.00446774
0.00400271
0.00350888
0.00288738
0.00222859
0.00142762
0.000537428
-0.0246662
-0.0263141
-0.0269258
-0.0267488
-0.0262524
-0.0257234
-0.025207
-0.0246373
-0.0239457
-0.0231022
-0.0221111
-0.0209911
-0.019762
-0.0184394
-0.0170357
-0.015565
-0.0140416
-0.0124801
-0.0109018
-0.00933156
-0.00778329
-0.0062662
-0.00479958
-0.00340426
-0.00208951
-0.00085962
0.000277349
0.00131404
0.0022489
0.00308321
0.0038179
0.00445741
0.00500511
0.00546714
0.00584952
0.00615863
0.00640104
0.00658319
0.00671122
0.00679084
0.00682727
0.00682501
0.00678816
0.00671955
0.00662236
0.00649687
0.00634657
0.00616699
0.00596487
0.00572685
0.00546657
0.00516033
0.00482164
0.00443647
0.00397899
0.00349397
0.0028784
0.00222441
0.00142857
0.000538484
-0.0202521
-0.0216882
-0.0222767
-0.0222123
-0.0218812
-0.0215157
-0.0211641
-0.0207718
-0.0202789
-0.0196578
-0.0189097
-0.0180488
-0.01709
-0.0160451
-0.0149228
-0.0137335
-0.0124876
-0.0111954
-0.00987473
-0.00854749
-0.00722436
-0.00591142
-0.00462631
-0.00338962
-0.00221038
-0.00109274
-4.55836e-05
0.000922027
0.00180634
0.00260664
0.00332038
0.00395664
0.0045097
0.00498529
0.00538773
0.00572171
0.00599228
0.00620456
0.00636364
0.00647433
0.00654122
0.00656828
0.00655928
0.0065168
0.00644393
0.00634089
0.0062112
0.00605042
0.00586544
0.00564301
0.00539676
0.0051036
0.00477597
0.00440222
0.00395293
0.00347752
0.00286845
0.00221993
0.00142961
0.000539828
-0.0162973
-0.0175441
-0.0181022
-0.0181239
-0.0179238
-0.0176937
-0.017471
-0.0172186
-0.0168858
-0.0164464
-0.0158992
-0.015254
-0.0145224
-0.0137129
-0.0128317
-0.0118863
-0.0108838
-0.00983082
-0.00874228
-0.00763735
-0.00652369
-0.00540424
-0.00429474
-0.00321512
-0.00217368
-0.00117396
-0.00022489
0.00066339
0.00148532
0.00223944
0.00292643
0.00353775
0.00408202
0.00455912
0.00497081
0.00532008
0.00561044
0.00584568
0.00602974
0.00616653
0.00625983
0.00631304
0.00632946
0.00631133
0.00626154
0.00618013
0.00607062
0.00592847
0.00576072
0.0055541
0.00532228
0.00504269
0.00472667
0.00436503
0.00392449
0.00345953
0.00285752
0.00221517
0.00143082
0.000541494
-0.0127558
-0.0138364
-0.0143608
-0.0144472
-0.0143503
-0.0142278
-0.0141115
-0.0139681
-0.0137602
-0.0134667
-0.0130839
-0.0126175
-0.0120754
-0.0114641
-0.0107877
-0.0100515
-0.00926007
-0.00841723
-0.00753536
-0.00663131
-0.00570985
-0.00477077
-0.00382798
-0.00290056
-0.00199566
-0.0011155
-0.00026899
0.000532913
0.00128161
0.00197448
0.00261673
0.0031999
0.00372574
0.00419368
0.00460448
0.00495969
0.00526139
0.00551212
0.00571472
0.00587211
0.00598727
0.00606291
0.0061018
0.00610574
0.00607732
0.00601632
0.00592619
0.0058022
0.00565151
0.00546072
0.00524354
0.00497787
0.00467388
0.00432501
0.00389366
0.00344004
0.00284561
0.00221016
0.00143229
0.000543523
-0.00959172
-0.0105271
-0.0110161
-0.0111498
-0.011133
-0.0110946
-0.0110618
-0.011008
-0.0109
-0.0107209
-0.0104691
-0.0101476
-0.00976212
-0.00931621
-0.00881204
-0.00825341
-0.00764303
-0.00698274
-0.00628283
-0.00555806
-0.00481044
-0.00403681
-0.00324908
-0.00246563
-0.00169259
-0.000930768
-0.000187483
0.000526785
0.00118975
0.00181845
0.00240355
0.00294641
0.00344348
0.00389262
0.00429323
0.00464549
0.00495029
0.00520903
0.00542349
0.00559567
0.00572772
0.00582163
0.00587957
0.00590283
0.00589366
0.00585145
0.00577955
0.00567291
0.00553883
0.00536362
0.00516111
0.00490954
0.00461783
0.00428231
0.00386048
0.00341909
0.00283272
0.0022049
0.00143413
0.000545965
-0.00676491
-0.00757277
-0.00802597
-0.00819352
-0.00823884
-0.00826615
-0.00829853
-0.00831501
-0.00828843
-0.00820314
-0.00805525
-0.00784952
-0.00759365
-0.00728386
-0.00692119
-0.00651095
-0.00605481
-0.00555274
-0.00501283
-0.0044475
-0.00385563
-0.00323107
-0.00258408
-0.00193298
-0.00128246
-0.000630686
1.62978e-05
0.000675882
0.00121094
0.00175342
0.00227963
0.00277586
0.00323628
0.0036583
0.00404026
0.00438132
0.00468135
0.00494077
0.00516044
0.00534146
0.00548519
0.00559288
0.0056661
0.00570556
0.00571312
0.00568771
0.00563254
0.00554214
0.0054239
0.0052638
0.00507571
0.00483824
0.00455886
0.00423718
0.00382501
0.00339674
0.00281882
0.00219936
0.00143643
0.00054887
-0.00426533
-0.00496294
-0.0053803
-0.00556975
-0.00566068
-0.00573677
-0.00581737
-0.00588654
-0.00592311
-0.00591521
-0.00586013
-0.00575841
-0.00560703
-0.00540787
-0.00515145
-0.00486411
-0.0045386
-0.0041753
-0.00378103
-0.00336473
-0.00291723
-0.00242947
-0.00191157
-0.00138873
-0.000863286
-0.000334262
0.00016227
0.000643256
0.00121114
0.00172978
0.00221464
0.00266945
0.00309319
0.00348477