/*--------------------------------*- C++ -*----------------------------------*\
| =========                 |                                                 |
| \\      /  F ield         | OpenFOAM: The Open Source CFD Toolbox           |
|  \\    /   O peration     | Version:  2512                                  |
|   \\  /    A nd           | Website:  www.openfoam.com                      |
|    \\/     M anipulation  |                                                 |
\*---------------------------------------------------------------------------*/
FoamFile
{
    version     2.0;
    format      ascii;
    arch        "LSB;label=32;scalar=64";
    class       surfaceScalarField;
    location    "179.5";
    object      phi;
}
// * * * * * * * * * * * * * * * * * * * * * * * * * * * * * * * * * * * * * //

dimensions      [0 3 -1 0 0 0 0];

oriented        oriented;

internalField   nonuniform List<scalar> 
26232
(
2.93731e-05
0.00108568
-0.00111506
0.000429232
0.00199613
-0.00239599
0.00144296
0.00181079
-0.00282452
0.00328015
0.000562784
-0.00239997
0.00613536
-0.00174878
-0.00110643
0.0101897
-0.00513622
0.00108191
0.0156005
-0.00960365
0.0041928
0.0224808
-0.0151271
0.00824682
0.0308731
-0.0216367
0.0132444
0.0407239
-0.0290061
0.0191553
0.0518664
-0.0370506
0.0259081
0.0640183
-0.0455369
0.033385
0.0767968
-0.0542009
0.0414224
0.0897511
-0.0627717
0.0498174
0.102407
-0.0709973
0.0583411
0.11432
-0.0786687
0.0667559
0.125124
-0.0856389
0.0748352
0.134572
-0.0918347
0.0823865
0.142564
-0.0972561
0.0892638
0.149131
-0.101975
0.0954081
0.154426
-0.10607
0.100775
0.15858
-0.109757
0.105603
0.161543
-0.112701
0.109737
-0.116089
0.114359
0.163273
8.93337e-05
0.000996351
0.000680589
0.00140487
0.00204674
0.000444632
0.00443031
-0.00182078
0.00804988
-0.00536835
0.0130875
-0.0101738
0.0196633
-0.0161795
0.0278043
-0.0232681
0.0374169
-0.0312493
0.0482735
-0.0398627
0.060021
-0.0487982
0.0722124
-0.0577282
0.0843557
-0.0663442
0.0959738
-0.0743898
0.106662
-0.0816857
0.116136
-0.0881426
0.124258
-0.0937604
0.131037
-0.098614
0.13661
-0.102829
0.141187
-0.106552
0.145037
-0.10992
0.14834
-0.11306
0.151583
-0.115943
-0.119133
0.154627
0.000183183
0.000813167
0.00105052
0.000537539
0.00289214
-0.00139699
0.00596524
-0.00489388
0.0104824
-0.00988551
0.0165809
-0.0162724
0.0242846
-0.0238831
0.0334718
-0.0324553
0.0438652
-0.0416427
0.0550516
-0.051049
0.0665305
-0.0602771
0.0777827
-0.0689805
0.088342
-0.0769035
0.0978558
-0.0839036
0.106123
-0.0899532
0.113104
-0.0951232
0.118896
-0.0995523
0.123694
-0.103412
0.127734
-0.10687
0.131253
-0.110071
0.134443
-0.11311
0.137456
-0.116074
0.140413
-0.1189
-0.121972
0.143252
0.000301938
0.000511229
0.00150899
-0.000669516
0.00391275
-0.00380075
0.00775823
-0.00873936
0.01321
-0.0153372
0.0203047
-0.0233671
0.0289111
-0.0324895
0.0387184
-0.0422625
0.0492653
-0.0521897
0.0600077
-0.0617915
0.0704056
-0.070675
0.0800065
-0.0785814
0.0885061
-0.0854031
0.0957735
-0.0911709
0.10184
-0.0960194
0.106857
-0.10014
0.111043
-0.103738
0.114627
-0.106996
0.117813
-0.110056
0.120758
-0.113015
0.12358
-0.115932
0.12635
-0.118844
0.129176
-0.121726
-0.124827
0.132031
0.000438359
7.28707e-05
0.00202731
-0.00225847
0.00503937
-0.00681281
0.00967173
-0.0133717
0.0159903
-0.0216558
0.0238756
-0.0312524
0.0330028
-0.0416167
0.0428753
-0.0521351
0.0529094
-0.0622237
0.0625405
-0.0714226
0.0713205
-0.079455
0.0789774
-0.0862382
0.0854282
-0.0918539
0.0907504
-0.0964931
0.095126
-0.100395
0.0987801
-0.103794
0.10193
-0.106888
0.104755
-0.109822
0.107389
-0.11269
0.109924
-0.11555
0.112421
-0.118429
0.11492
-0.121343
0.117472
-0.124278
-0.127365
0.120009
0.000587683
-0.000514812
0.00258134
-0.00425213
0.00620607
-0.0104375
0.0115678
-0.0187334
0.0185815
-0.0286695
0.0269323
-0.0396032
0.0361034
-0.0507878
0.0454726
-0.0615043
0.0544411
-0.0711921
0.0625465
-0.0795281
0.0695269
-0.0864354
0.0753245
-0.0920358
0.080043
-0.0965724
0.0838808
-0.100331
0.0870652
-0.103579
0.0898044
-0.106534
0.0922633
-0.109347
0.0945591
-0.112117
0.0967698
-0.114901
0.0989455
-0.117725
0.10112
-0.120603
0.103316
-0.123539
0.105563
-0.126526
-0.129631
0.107829
0.000746429
-0.00126124
0.00314716
-0.00665286
0.00734418
-0.0146346
0.0133048
-0.024694
0.020752
-0.0361167
0.0291704
-0.0480215
0.0379034
-0.0595209
0.0463042
-0.0699052
0.0538724
-0.0787603
0.0603285
-0.0859842
0.0656159
-0.0917228
0.0698476
-0.0962675
0.07323
-0.0999547
0.0759923
-0.103093
0.0783386
-0.105926
0.0804261
-0.108621
0.0823634
-0.111284
0.08422
-0.113974
0.086039
-0.11672
0.0878478
-0.119534
0.0896648
-0.12242
0.0915035
-0.125378
0.0933807
-0.128403
-0.131518
0.0952683
0.000909062
-0.0021703
0.00369579
-0.00943959
0.00837761
-0.0193164
0.0147413
-0.0310577
0.0223029
-0.0436783
0.0303847
-0.0561034
0.0382811
-0.0674173
0.0454258
-0.0770499
0.0514907
-0.0848251
0.0563936
-0.0908871
0.0602402
-0.0955695
0.0632385
-0.0992658
0.0656208
-0.102337
0.0675928
-0.105065
0.0693104
-0.107643
0.0708795
-0.11019
0.072366
-0.112771
0.0738094
-0.115417
0.0752338
-0.118144
0.0766552
-0.120955
0.0780856
-0.123851
0.0795353
-0.126827
0.0810152
-0.129883
-0.133015
0.0825122
0.00106764
-0.00323795
0.00419248
-0.0125644
0.00922703
-0.0243509
0.0157524
-0.0375831
0.0230979
-0.0510237
0.0304986
-0.0635042
0.0372972
-0.0742159
0.0430812
-0.0828338
0.0477119
-0.0894558
0.0512676
-0.0944429
0.05395
-0.0982518
0.0559953
-0.101311
0.0576154
-0.103957
0.0589713
-0.106421
0.0601711
-0.108843
0.0612809
-0.1113
0.0623393
-0.113829
0.0633687
-0.116447
0.0643833
-0.119159
0.0653935
-0.121966
0.0664077
-0.124865
0.0674336
-0.127853
0.0684774
-0.130927
-0.134071
0.0695336
0.001212
-0.00444994
0.0046
-0.0159524
0.00982058
-0.0295715
0.0162497
-0.0440122
0.0230837
-0.0578577
0.0295587
-0.0699791
0.0351411
-0.0797983
0.0395978
-0.0872906
0.0429532
-0.0928112
0.0453893
-0.096879
0.0471441
-0.100007
0.0484394
-0.102606
0.049447
-0.104965
0.0502823
-0.107256
0.0510155
-0.109576
0.0516864
-0.111971
0.0523172
-0.11446
0.0529215
-0.117051
0.0535085
-0.119746
0.0540859
-0.122543
0.0546601
-0.125439
0.0552373
-0.128431
0.055822
-0.131511
-0.134665
0.0564159
0.00133161
-0.00578156
0.00488531
-0.0195061
0.0101065
-0.0347927
0.0161949
-0.0501005
0.0222876
-0.0639504
0.0277
-0.0753916
0.0320607
-0.084159
0.0353029
-0.0905328
0.0375673
-0.0950755
0.0390854
-0.0983971
0.0400906
-0.101012
0.04077
-0.103286
0.0412519
-0.105447
0.0416147
-0.107619
0.041902
-0.109864
0.0421374
-0.112206
0.0423343
-0.114657
0.0425014
-0.117218
0.0426458
-0.11989
0.0427732
-0.12267
0.0428887
-0.125555
0.0429965
-0.128538
0.0430986
-0.131613
-0.134766
0.0431991
0.00142018
-0.00720174
0.00502786
-0.0231138
0.0100626
-0.0398274
0.0156013
-0.0556392
0.0208002
-0.0691493
0.0251064
-0.0796978
0.0283136
-0.0873662
0.0304858
-0.092705
0.031831
-0.0964207
0.0325899
-0.099156
0.0329685
-0.10139
0.0331138
-0.103431
0.0331167
-0.10545
0.0330282
-0.107531
0.032875
-0.10971
0.0326712
-0.112003
0.0324254
-0.114411
0.0321438
-0.116937
0.0318321
-0.119578
0.0314951
-0.122333
0.0311376
-0.125197
0.030763
-0.128164
0.0303724
-0.131223
0.0299722
-0.134366
-0.00011307
0.00278115
-0.00266808
-0.000463967
0.0070903
-0.0067394
-0.00105965
0.0104831
-0.00988746
-0.00188816
0.0130771
-0.0122486
-0.00292139
0.0150053
-0.0139721
-0.00412154
0.0164171
-0.0152169
-0.00544732
0.0174562
-0.0161305
-0.00685847
0.0182411
-0.01683
-0.00831798
0.0188531
-0.0173936
-0.00979232
0.0193334
-0.0178591
-0.0112503
0.0196865
-0.0182285
-0.012661
0.0198866
-0.0184759
-0.0139923
0.019886
-0.0185547
-0.0152092
0.0196215
-0.0184046
-0.0162729
0.0190198
-0.0179561
-0.0171408
0.018002
-0.0171341
-0.0177663
0.0164862
-0.0158607
-0.0180995
0.0143915
-0.0140582
-0.0180879
0.0116408
-0.0116525
-0.0176772
0.00816648
-0.00857717
-0.0168219
0.00392069
-0.00477598
-0.0155063
-0.00108817
-0.000227398
-0.0135859
-0.0068521
0.00493172
-0.013245
-0.0111473
0.0108064
2.6708e-06
0.00277848
-7.98491e-05
0.00717282
-0.000302599
0.0107059
-0.000686291
0.0134608
-0.00122317
0.0155422
-0.00188459
0.0170785
-0.00262912
0.0182008
-0.00340962
0.0190216
-0.00417836
0.0196218
-0.00488974
0.0200448
-0.00550115
0.0202979
-0.00597257
0.020358
-0.00626565
0.0201791
-0.00634279
0.0196986
-0.00616662
0.0188437
-0.00569986
0.0175352
-0.00490547
0.0156918
-0.00374698
0.013233
-0.00218831
0.0100822
-0.000194284
0.00617246
0.00228226
0.00144414
0.00528516
-0.00409107
0.00887239
-0.0104393
-0.0174635
0.0130908
0.000111108
0.00266738
0.000291361
0.00699257
0.00044941
0.0105478
0.000537778
0.0133724
0.00054551
0.0155344
0.000490968
0.017133
0.000413158
0.0182786
0.000363188
0.0190716
0.000397174
0.0195879
0.000571141
0.0198708
0.00093812
0.0199309
0.00154686
0.0197493
0.00244171
0.0192843
0.00366288
0.0184775
0.0052468
0.0172598
0.00722631
0.0155557
0.00963087
0.0132872
0.0124866
0.0103772
0.0158163
0.00675252
0.019642
0.00234672
0.0239756
-0.00288942
0.0288656
-0.0089811
0.0343215
-0.0158952
-0.0236174
0.0404754
0.000199561
0.00246781
0.000609379
0.00658275
0.00111791
0.0100393
0.00166073
0.0128296
0.00221233
0.0149828
0.00278047
0.0165649
0.00339856
0.0176605
0.00411717
0.018353
0.00499589
0.0187091
0.00609681
0.0187699
0.00747984
0.0185478
0.00920007
0.0180291
0.0113064
0.0171779
0.0138415
0.0159424
0.0168419
0.0142594
0.020339
0.0120586
0.0243596
0.00926658
0.0289279
0.00580898
0.03406
0.00162044
0.0397845
-0.00337784
0.0461114
-0.00921626
0.0530666
-0.0159364
0.0606184
-0.0234469
-0.0319346
0.0689357
0.000258538
0.00220928
0.000839831
0.00600146
0.00163146
0.00924769
0.00256439
0.0118967
0.00360526
0.013942
0.00475295
0.0154172
0.00603326
0.0163802
0.00749173
0.0168945
0.00918591
0.017015
0.0111784
0.0167774
0.0135316
0.0161946
0.0163039
0.0152568
0.019548
0.0139339
0.0233104
0.01218
0.027632
0.00993769
0.032549
0.00714171
0.0380969
0.00371864
0.0443083
-0.000402379
0.0512249
-0.00529618
0.0588641
-0.0110171
0.0672477
-0.0175999
0.0763901
-0.0250788
0.0862014
-0.0332582
-0.0426089
0.0968756
0.000282509
0.00192677
0.000960322
0.00532364
0.00193904
0.00826898
0.00315823
0.0106775
0.00458517
0.012515
0.00621409
0.0137883
0.0080637
0.0145306
0.0101723
0.0147859
0.0125919
0.0145954
0.0153819
0.0139874
0.0186043
0.0129723
0.0223203
0.0115408
0.0265885
0.00966559
0.031465
0.00730352
0.0370061
0.00439658
0.0432507
0.000897109
0.0502805
-0.00331112
0.0581333
-0.0082552
0.066852
-0.0140149
0.0764662
-0.0206313
0.0869759
-0.0281096
0.098334
-0.0364368
0.110373
-0.0452975
-0.0553846
0.123149
0.000270758
0.00165601
0.000964607
0.00462979
0.00202121
0.00721238
0.00340063
0.00929804
0.00507983
0.0108358
0.00705476
0.0118134
0.00934097
0.0122444
0.0119717
0.0121552
0.0149944
0.0115727
0.0184668
0.010515
0.0224535
0.00898559
0.0270233
0.00697094
0.0322492
0.00443976
0.0382008
0.00135185
0.0449629
-0.00236546
0.0526228
-0.00676278
0.0612269
-0.0119153
0.0708448
-0.0178731
0.0815014
-0.0246715
0.0931698
-0.0322997
0.105775
-0.0407146
0.119116
-0.0497777
0.132964
-0.0591463
-0.0694132
0.146993
0.00022783
0.00142818
0.000865481
0.00399214
0.00189842
0.00617943
0.0033165
0.00787996
0.00511501
0.00903732
0.00729986
0.00962853
0.00989129
0.00965293
0.0129253
0.00912118
0.016453
0.00804491
0.0205397
0.00642834
0.0252624
0.00426286
0.030707
0.00152632
0.0369697
-0.00182296
0.0441526
-0.00583096
0.0523415
-0.0105544
0.0616213
-0.0160426
0.0720375
-0.0223315
0.0835924
-0.029428
0.0962204
-0.0372995
0.109762
-0.0458408
0.123987
-0.0549398
0.138496
-0.0642868
0.153031
-0.0736816
-0.0831801
0.166798
0.000163896
0.00126428
0.000696297
0.00345974
0.00163552
0.00524021
0.0030079
0.00650758
0.00483538
0.00720983
0.00714408
0.00731983
0.00997103
0.00682599
0.0133684
0.00572379
0.0174055
0.00400784
0.022168
0.00166586
0.0277559
-0.00132504
0.0342791
-0.0049969
0.041844
-0.00938787
0.0505471
-0.0145341
0.0604531
-0.0204604
0.0715796
-0.027169
0.0838747
-0.0346266
0.0972005
-0.0427538
0.111322
-0.0514206
0.125906
-0.0604254
0.140544
-0.0695771
0.154729
-0.0784723
0.168171
-0.0871232
-0.0949299
0.17992
9.4604e-05
0.00116968
0.000509562
0.00304478
0.00133858
0.00441119
0.00264947
0.0051967
0.0044994
0.00535989
0.0069466
0.00487263
0.0100589
0.00371364
0.0139195
0.00186323
0.018627
-0.000699647
0.0242928
-0.00399992
0.0310313
-0.00806361
0.0389472
-0.0129128
0.0481164
-0.0185571
0.058566
-0.0249837
0.0702534
-0.0321478
0.0830488
-0.0399644
0.0967258
-0.0483036
0.110963
-0.0569914
0.125357
-0.0658138
0.139463
-0.0745318
0.152795
-0.0829093
0.164964
-0.0906416
0.175639
-0.0977974
-0.103578
0.184287
3.90934e-05
0.00113059
0.000369042
0.00271484
0.00113735
0.00364288
0.00245705
0.003877
0.00442837
0.00338857
0.00715181
0.00214919
0.010735
0.000130481
0.0152967
-0.00269849
0.0209583
-0.00636123
0.0278335
-0.0108752
0.0360097
-0.0162398
0.0455257
-0.0224288
0.0563496
-0.029381
0.0683609
-0.036995
0.0813407
-0.0451276
0.094973
-0.0535967
0.108859
-0.0621901
0.12255
-0.0706822
0.135582
-0.0788452
0.147547
-0.0864974
0.158099
-0.0934609
0.16717
-0.0997132
0.174544
-0.105171
-0.109482
0.180448
1.55282e-05
0.000334379
0.00115275
0.00262977
0.00491191
0.00814301
0.0124663
0.0180146
0.0248978
0.0331779
0.0428462
0.0538024
0.0658439
0.0786662
0.0918797
0.105039
0.117684
0.129388
0.139807
0.148718
0.156032
0.161922
0.166488
0.171365
-0.00781268
-0.0278155
0.0244808
-0.00427111
-0.041028
0.0374864
-0.000590618
-0.0553764
0.0516959
0.00298185
-0.0700104
0.0664379
0.00607696
-0.0841764
0.0810812
0.00850403
-0.0973056
0.0948785
0.0101878
-0.108869
0.107185
0.0113645
-0.118483
0.117306
0.0128284
-0.125764
0.1243
0.0156665
-0.129673
0.126835
0.0211297
-0.128506
0.123043
0.029893
-0.119913
0.11115
0.041678
-0.101946
0.0901613
0.0554589
-0.0741437
0.0603628
0.0701382
-0.0377478
0.0230685
0.0848677
0.00474199
-0.0194715
0.0990313
0.0496816
-0.0638451
0.111749
0.091546
-0.104264
0.121966
0.125098
-0.135315
0.128998
0.147803
-0.154836
0.132976
0.160278
-0.164255
0.134381
0.165237
-0.166642
0.13312
0.167622
-0.166361
0.128849
0.173399
-0.169127
0.122579
0.183313
-0.177043
0.117316
0.186885
-0.181621
0.116258
0.166944
-0.165886
0.120475
0.113566
-0.117782
0.128804
0.034464
-0.0427928
0.138649
-0.0497315
0.0398862
0.147496
-0.119259
0.110412
0.15365
-0.165274
0.15912
0.156997
-0.188742
0.185395
0.157725
-0.196585
0.195857
0.155034
-0.200237
0.202928
0.148379
-0.209493
0.216148
0.139674
-0.22062
0.229324
0.132858
-0.207396
0.214213
0.131122
-0.154182
0.155918
0.134734
-0.05994
0.0563284
0.14186
0.0394383
-0.0465641
0.149657
0.125692
-0.133489
0.154904
0.181582
-0.18683
0.15474
0.220415
-0.220251
0.149049
0.25495
-0.249258
0.14138
0.262472
-0.254804
0.13687
0.239064
-0.234554
0.137938
0.13299
-0.134058
0.143844
0.0244743
-0.0303806
0.14939
-0.0983443
0.0927987
0.15034
-0.176985
0.176035
0.146471
-0.233375
0.237245
0.142355
-0.296378
0.300494
0.141456
-0.229918
0.230817
0.143546
-0.198565
0.196476
0.144685
-0.0121934
0.0110536
0.143907
0.115456
-0.114678
0.14234
0.212724
-0.211156
0.140634
0.374099
-0.372393
0.164105
-0.162409
0.0160748
-0.0307994
0.0189378
-0.043891
0.0216835
-0.058122
0.0241018
-0.0724288
0.0259068
-0.0859814
0.0267291
-0.0981278
0.026234
-0.108374
0.0243221
-0.116571
0.0213753
-0.122817
0.0186799
-0.126977
0.0180565
-0.127883
0.021272
-0.123129
0.0290882
-0.109763
0.0409416
-0.085997
0.0554841
-0.0522903
0.0715012
-0.0112752
0.087684
0.0334988
0.102906
0.0763241
0.11584
0.112163
0.12559
0.138054
0.132041
0.153827
0.135385
0.161892
0.135518
0.16749
0.132566
0.17635
0.128027
0.187851
0.124727
0.190185
0.124998
0.166673
0.129204
0.10936
0.136386
0.0272816
0.144318
-0.0576632
0.151081
-0.126022
0.155215
-0.169409
0.15676
-0.190287
0.156159
-0.195985
0.152696
-0.196773
0.145494
-0.202291
0.136169
-0.211294
0.128825
-0.200053
0.127111
-0.152469
0.131497
-0.0643258
0.139962
0.0309732
0.14917
0.116485
0.155459
0.175293
0.156035
0.219839
0.150925
0.260059
0.143718
0.26968
0.139172
0.24361
0.139602
0.13256
0.144798
0.0192785
0.149842
-0.103388
0.15061
-0.177753
0.146488
-0.229253
0.142275
-0.292166
0.141326
-0.228969
0.143276
-0.200514
0.144314
-0.0132322
0.143468
0.116303
0.142
0.214191
0.140386
0.375713
0.165751
0.0426043
-0.0329283
0.0447178
-0.0460046
0.0465725
-0.0599767
0.0479596
-0.0738158
0.0486686
-0.0866904
0.048395
-0.0978543
0.0466959
-0.106675
0.0431128
-0.112988
0.0375173
-0.117222
0.0305794
-0.120039
0.024131
-0.121435
0.0207492
-0.119747
0.0226521
-0.111665
0.0304914
-0.0938363
0.0432774
-0.0650763
0.0592382
-0.027236
0.0768131
0.015924
0.0940643
0.0590729
0.109476
0.0967511
0.121897
0.125633
0.130869
0.144855
0.136272
0.15649
0.138069
0.165693
0.136833
0.177586
0.134336
0.190348
0.132983
0.191538
0.134293
0.165364
0.138231
0.105421
0.14384
0.021673
0.149716
-0.0635391
0.154299
-0.130605
0.156455
-0.171565
0.156303
-0.190135
0.154489
-0.19417
0.150448
-0.192733
0.142986
-0.194829
0.133256
-0.201564
0.125391
-0.192188
0.123537
-0.150615
0.128468
-0.0692567
0.138085
0.0213566
0.148597
0.105973
0.15595
0.16794
0.157414
0.218375
0.153068
0.264405
0.146424
0.276324
0.141843
0.248191
0.141546
0.132857
0.145879
0.0149456
0.150369
-0.107878
0.150973
-0.178356
0.146605
-0.224885
0.142229
-0.28779
0.141222
-0.227962
0.143091
-0.202384
0.144084
-0.0142253
0.143167
0.117219
0.141786
0.215573
0.140285
0.377214
0.167318
0.0703396
-0.0343322
0.0716544
-0.0473195
0.0725895
-0.0609118
0.0728303
-0.0740566
0.0722519
-0.086112
0.0707197
-0.096322
0.0680038
-0.103959
0.0637264
-0.108711
0.057385
-0.11088
0.0487399
-0.111394
0.0386245
-0.111319
0.029418
-0.110541
0.024408
-0.106655
0.0261112
-0.0955395
0.0349024
-0.0738675
0.0491652
-0.0414988
0.0669585
-0.00186926
0.0854665
0.0405649
0.102921
0.079297
0.117796
0.110757
0.129208
0.133444
0.136741
0.148956
0.140455
0.161979
0.141267
0.176774
0.141006
0.190609
0.141558
0.190986
0.143649
0.163273
0.146969
0.102101
0.151015
0.017627
0.154722
-0.0672464
0.157126
-0.133009
0.157377
-0.171817
0.155647
-0.188404
0.152708
-0.191231
0.148219
-0.188243
0.14076
-0.18737
0.130906
-0.191711
0.122582
-0.183864
0.120394
-0.148427
0.125626
-0.074488
0.136171
0.0108117
0.147875
0.0942684
0.156325
0.15949
0.158831
0.215868
0.155424
0.267812
0.149453
0.282295
0.144843
0.252801
0.143732
0.133969
0.147094
0.0115831
0.150951
-0.111735
0.151406
-0.178811
0.146805
-0.220284
0.142194
-0.283179
0.141116
-0.226883
0.14297
-0.204238
0.143983
-0.0152378
0.142998
0.118204
0.141693
0.216877
0.140338
0.37857
0.16877
0.0979117
-0.0353683
0.0984913
-0.0478991
0.0983204
-0.0607409
0.0971731
-0.0729093
0.0950364
-0.0839753
0.0919338
-0.0932194
0.0878718
-0.099897
0.0828011
-0.10364
0.0764362
-0.104515
0.0681637
-0.103122
0.057554
-0.10071
0.0455093
-0.0984958
0.0349024
-0.0960486
0.0295751
-0.0902121
0.0321419
-0.0764344
0.0425418
-0.0518987
0.0585503
-0.0178778
0.0773551
0.0217602
0.0961896
0.0604625
0.113079
0.0938682
0.126681
0.119841
0.136325
0.139312
0.142141
0.156164
0.145249
0.173666
0.147374
0.188484
0.149774
0.188586
0.152529
0.160518
0.155148
0.0994825
0.157577
0.0151976
0.159207
-0.0688759
0.159481
-0.133283
0.157914
-0.17025
0.154752
-0.185242
0.150801
-0.18728
0.145968
-0.18341
0.138731
-0.180134
0.129046
-0.182026
0.120403
-0.175221
0.117722
-0.145746
0.12296
-0.0797262
0.134164
-0.000392436
0.146927
0.0815057
0.156507
0.14991
0.160208
0.212167
0.157913
0.270108
0.152716
0.287492
0.148104
0.257412
0.146141
0.135932
0.148402
0.00932175
0.151561
-0.114894
0.151878
-0.179128
0.147067
-0.215474
0.142155
-0.278267
0.140984
-0.225712
0.142886
-0.206141
0.143991
-0.0163424
0.14295
0.119246
0.141717
0.21811
0.140545
0.379741
0.170071
0.123674
-0.0358931
0.123419
-0.0476438
0.122047
-0.0593695
0.119424
-0.0702861
0.115672
-0.0802236
0.110937
-0.0884837
0.105369
-0.0943298
0.0991595
-0.0974302
0.0924129
-0.0977687
0.0848744
-0.0955833
0.0757661
-0.0916014
0.0644415
-0.0871713
0.0518311
-0.0834381
0.0411802
-0.0795613
0.0366545
-0.0719086
0.0407324
-0.0559767
0.0526865
-0.0298318
0.0700149
0.00443179
0.0891596
0.0413178
0.107404
0.0756236
0.122849
0.104397
0.134531
0.127629
0.142571
0.148124
0.148136
0.168101
0.152707
0.183913
0.156928
0.184364
0.160313
0.157134
0.162401
0.0973941
0.163342
0.0142571
0.16304
-0.0685746
0.16128
-0.131523
0.158008
-0.166979
0.153578
-0.180812
0.148736
-0.182438
0.143627
-0.178301
0.136777
-0.173285
0.127549
-0.172797
0.118791
-0.166463
0.115532
-0.142487
0.12045
-0.0846439
0.131998
-0.01194
0.145659
0.0678446
0.156397
0.139172
0.161439
0.207125
0.160413
0.271134
0.156102
0.291803
0.151523
0.26199
0.148689
0.138767
0.149796
0.00821393
0.152167
-0.117265
0.152355
-0.179316
0.147374
-0.210492
0.142101
-0.272994
0.140804
-0.224415
0.142811
-0.208147
0.144089
-0.0176203
0.143013
0.120321
0.141852
0.21927
0.140909
0.380685
0.17118
0.146548
-0.0354482
0.145096
-0.0461916
0.14225
-0.0565238
0.137996
-0.0660319
0.132588
-0.0748158
0.12627
-0.0821652
0.11931
-0.0873702
0.112019
-0.0901392
0.104669
-0.0904187
0.0973761
-0.0882903
0.0898111
-0.0840364
0.0810224
-0.0783826
0.0701852
-0.0726009
0.0582488
-0.0676248
0.0486411
-0.062301
0.0455652
-0.0529008
0.0511425
-0.0354091
0.0644497
-0.00887533
0.0820824
0.023685
0.100601
0.0571048
0.117373
0.0876253
0.130963
0.114039
0.141296
0.13779
0.149404
0.159993
0.15642
0.176898
0.162404
0.17838
0.166498
0.153041
0.168261
0.0956311
0.168024
0.0144935
0.166061
-0.0666113
0.162434
-0.127896
0.157598
-0.162143
0.152074
-0.175288
0.146479
-0.176842
0.141138
-0.17296
0.134767
-0.166914
0.126243
-0.164273
0.117624
-0.157844
0.113773
-0.138636
0.118091
-0.0889627
0.129609
-0.0234578
0.143979
0.0534744
0.155884
0.127267
0.162396
0.200613
0.162786
0.270743
0.159471
0.295118
0.154979
0.266482
0.151334
0.142412
0.151205
0.0083429
0.152736
-0.118796
0.152798
-0.179378
0.1477
-0.205394
0.142024
-0.267319
0.140559
-0.22295
0.142714
-0.210302
0.144253
-0.0191591
0.143176
0.121399
0.142094
0.220352
0.141431
0.381348
0.172057
0.164911
-0.0335614
0.161898
-0.0431782
0.157376
-0.0520017
0.151492
-0.0601482
0.144574
-0.0678981
0.136898
-0.0744886
0.128811
-0.0792833
0.120711
-0.0820391
0.112929
-0.0826371
0.105686
-0.0810473
0.0990113
-0.0773615
0.0924571
-0.0718284
0.0849348
-0.0650785
0.0755416
-0.0582316
0.065225
-0.0519844
0.0573716
-0.0450473
0.0559775
-0.0340151
0.0628022
-0.0157001
0.076399
0.0100883
0.093377
0.0401268
0.110476
0.0705258
0.125568
0.0989479
0.138097
0.125261
0.148731
0.149359
0.158148
0.167481
0.165878
0.17065
0.170765
0.148153
0.172488
0.0939084
0.17143
0.015551
0.168129
-0.0633099
0.162865
-0.122632
0.156622
-0.155899
0.150179
-0.168844
0.143983
-0.170646
0.138442
-0.167419
0.132575
-0.161047
0.124936
-0.156634
0.116721
-0.149628
0.112367
-0.134282
0.115854
-0.09245
0.126965
-0.0345685
0.141809
0.0386299
0.154854
0.114222
0.162936
0.192531
0.164874
0.268805
0.162663
0.29733
0.158329
0.270816
0.153971
0.14677
0.152598
0.00971617
0.153232
-0.11943
0.153166
-0.179312
0.148016
-0.200244
0.141921
-0.261224
0.140239
-0.221267
0.142568
-0.212632
0.144463
-0.021054
0.143426
0.122436
0.142435
0.221343
0.14211
0.381673
0.172657
0.176587
-0.030228
0.172049
-0.03864
0.16605
-0.0460031
0.158926
-0.0530237
0.150986
-0.0599582
0.142476
-0.0659791
0.133764
-0.070571
0.125262
-0.0735376
0.117329
-0.0747034
0.110221
-0.07394
0.104085
-0.071225
0.0988589
-0.0666023
0.0939897
-0.0602094
0.0883344
-0.0525764
0.0810121
-0.0446621
0.072913
-0.0369482
0.0671647
-0.0282668
0.0673366
-0.015872
0.074749
0.00267591
0.0878014
0.0270744
0.10347
0.0548568
0.11905
0.0833684
0.133269
0.111042
0.146168
0.136459
0.157818
0.155831
0.167224
0.161243
0.173018
0.14236
0.174962
0.0919644
0.17355
0.0169631
0.169152
-0.0589118
0.162473
-0.115954
0.154984
-0.14841
0.14779
-0.16165
0.141158
-0.164015
0.135456
-0.161716
0.130069
-0.155661
0.123427
-0.149992
0.115863
-0.142064
0.111173
-0.129592
0.113684
-0.094961
0.124063
-0.0449472
0.139091
0.0236015
0.153199
0.100114
0.162928
0.182802
0.16654
0.265193
0.165523
0.298347
0.161453
0.274886
0.156474
0.151749
0.153938
0.0122523
0.153613
-0.119105
0.15341
-0.179109
0.14829
-0.195124
0.141789
-0.254723
0.139837
-0.219316
0.142344
-0.215138
0.144694
-0.023404
0.143752
0.123377
0.142871
0.222225
0.142946
0.381597
0.172934
0.180139
-0.0260799
0.174654
-0.0331551
0.16785
-0.0391997
0.160223
-0.0453967
0.151976
-0.0517108
0.143309
-0.0573127
0.134582
-0.0618435
0.126171
-0.0651267
0.11841
-0.0669422
0.111575
-0.0671054
0.10587
-0.06552
0.101393
-0.0621253
0.098015
-0.0568312
0.0951521
-0.0497135
0.0916926
-0.0412026
0.0867897
-0.0320453
0.0812143
-0.0226915
0.077674
-0.0123316
0.0791413
0.00120858
0.086558
0.0196577
0.0986546
0.0427602
0.112999
0.0690242
0.127777
0.0962644
0.142247
0.121989
0.155729
0.142349
0.166656
0.150317
0.17345
0.135566
0.175902
0.0895129
0.174392
0.0184726
0.16911
-0.053629
0.161188
-0.108032
0.152607
-0.13983
0.144813
-0.153856
0.137922
-0.157123
0.132115
-0.15591
0.12715
-0.150695
0.121553
-0.144395
0.114848
-0.135359
0.110019
-0.124763
0.111531
-0.0964729
0.120887
-0.0543039
0.135799
0.00869023
0.150841
0.0850716
0.162226
0.171417
0.167581
0.259838
0.167869
0.298059
0.1642
0.278555
0.158789
0.157161
0.155154
0.0158872
0.153854
-0.117806
0.153488
-0.178743
0.148491
-0.190128
0.141636
-0.247868
0.139364
-0.217044
0.142011
-0.217785
0.14492
-0.0263129
0.14414
0.124157
0.143394
0.222971
0.143939
0.381053
0.172841
0.176354
-0.021985
0.170708
-0.0275097
0.16394
-0.0324318
0.156566
-0.0380222
0.148653
-0.0437979
0.14041
-0.0490697
0.132164
-0.0535976
0.124233
-0.0571956
0.116921
-0.0596301
0.110513
-0.0606974
0.105249
-0.060256
0.101261
-0.0581377
0.0985705
-0.0541403
0.0970057
-0.0481487
0.0960302
-0.0402271
0.0947512
-0.0307663
0.0925045
-0.0204448
0.0898614
-0.00968853
0.0886424
0.00242752
0.0910663
0.0172339
0.098375
0.0354514
0.109556
0.0578431
0.123126
0.0826941
0.1379
0.107215
0.152409
0.12784
0.164382
0.138344
0.172198
0.12775
0.175706
0.0860046
0.174167
0.0200123
0.168272
-0.0477341
0.159291
-0.0990516
0.149797
-0.130335
0.141521
-0.14558
0.1345
-0.150102
0.128624
-0.150035
0.123943
-0.146014
0.119324
-0.139777
0.113612
-0.129647
0.108822
-0.119972
0.109348
-0.0969988
0.117453
-0.0624095
0.131904
-0.00576042
0.147698
0.0692776
0.160796
0.158319
0.168013
0.252621
0.169639
0.296434
0.166465
0.281729
0.160863
0.162762
0.156247
0.0205032
0.153978
-0.115536
0.1534
-0.178165
0.14861
-0.185338
0.141486
-0.240744
0.138845
-0.214402
0.141562
-0.220502
0.145119
-0.0298699
0.144577
0.124699
0.144003
0.223545
0.145088
0.379968
0.17233
0.167877
-0.0184971
0.162564
-0.0221967
0.156671
-0.0265385
0.150205
-0.031556
0.14322
-0.036813
0.136007
-0.0418567
0.128826
-0.046417
0.121922
-0.0502912
0.115547
-0.053255
0.109923
-0.0550735
0.105206
-0.0555389
0.101524
-0.0544562
0.0990122
-0.0516282
0.0977567
-0.0468932
0.0976826
-0.040153
0.0983601
-0.0314438
0.0989698
-0.0210545
0.0987769
-0.00949562
0.0983846
0.00281982
0.0994598
0.0161587
0.103332
0.0315796
0.110777
0.0503981
0.121481
0.0719901
0.134635
0.0940605
0.148634
0.113841
0.161125
0.125852
0.170343
0.118532
0.174959
0.0813882
0.173868
0.0211038
0.166825
-0.0406918
0.156897
-0.0891234
0.146809
-0.120247
0.138255
-0.137027
0.131212
-0.14306
0.125282
-0.144104
0.120689
-0.141421
0.116857
-0.135945
0.112176
-0.124966
0.10758
-0.115376
0.10719
-0.0966094
0.114006
-0.069225
0.12756
-0.0193151
0.143751
0.0530869
0.158256
0.143814
0.167371
0.243506
0.170524
0.293281
0.168072
0.284181
0.162516
0.168317
0.157197
0.0258223
0.153971
-0.11231
0.153154
-0.177349
0.148638
-0.180821
0.141343
-0.233448
0.138279
-0.211339
0.141031
-0.223254
0.145285
-0.0341242
0.145055
0.124929
0.144688
0.223912
0.146387
0.378269
0.171345
0.20421
-0.0152334
-0.207474
0.201786
-0.019773
0.199039
-0.023791
0.195685
-0.0282019
0.191669
-0.0327968
0.18706
-0.0372485
0.181948
-0.0413042
0.176401
-0.0447446
0.170511
-0.0473647
0.164395
-0.0489582
0.158181
-0.0493241
0.151998
-0.0482732
0.145991
-0.0456218
0.14031
-0.0412122
0.135088
-0.0349303
0.13034
-0.0266962
0.125811
-0.0165259
0.121182
-0.00486681
0.115917
0.00808553
0.110688
0.0213877
0.10657
0.0356978
0.105039
0.0519289
0.107249
0.0697799
0.113644
0.0876653
0.123974
0.103511
0.138414
0.111413
0.15696
0.0999863
0.175921
0.0624275
0.188762
0.00826291
0.19371
-0.0456397
0.191456
-0.0868696
0.184813
-0.113604
0.17642
-0.128634
0.167702
-0.134341
0.159097
-0.135499
0.151218
-0.133541
0.144066
-0.128793
0.136224
-0.117124
0.12757
-0.106722
0.121315
-0.0903554
0.120549
-0.0684588
0.125387
-0.0241524
0.131981
0.046493
0.1375
0.138294
0.141212
0.239794
0.144997
0.289496
0.149925
0.279252
0.155049
0.163194
0.158089
0.0227828
0.158963
-0.113184
0.157694
-0.176081
0.152483
-0.17561
0.143685
-0.22465
0.137742
-0.205396
0.135762
-0.221274
0.135001
-0.0333628
0.132295
0.127635
0.130713
0.225494
0.133393
0.375589
0.169835
0.212997
-0.0127654
-0.215465
0.210303
-0.0170789
0.20757
-0.0210589
0.20435
-0.0249815
0.200525
-0.0289718
0.196149
-0.0328722
0.191293
-0.0364481
0.18603
-0.0394819
0.18045
-0.0417843
0.174666
-0.0431742
0.16881
-0.0434681
0.163022
-0.0424857
0.157453
-0.0400522
0.152248
-0.0360075
0.147548
-0.0302304
0.143481
-0.0226293
0.140051
-0.0130959
0.136903
-0.00171861
0.133834
0.0111542
0.130618
0.0246041
0.127799
0.0385162
0.126687
0.0530413
0.128747
0.0677197
0.13488
0.0815326
0.145419
0.0929722
0.160614
0.0962176
0.179
0.0815996
0.195765
0.0456629
0.20599
-0.00196185
0.208122
-0.0477719
0.203965
-0.0827129
0.196065
-0.105704
0.186892
-0.11946
0.177784
-0.125234
0.168943
-0.126658
0.160744
-0.125342
0.153505
-0.121554
0.14598
-0.109599
0.137484
-0.0982259
0.130638
-0.0835095
0.128967
-0.0667873
0.133272
-0.0284571
0.140138
0.0396265
0.146406
0.132026
0.151072
0.235128
0.156041
0.284528
0.162129
0.273164
0.167839
0.157484
0.17099
0.0196323
0.171045
-0.11324
0.169036
-0.174072
0.163201
-0.169775
0.153631
-0.21508
0.146767
-0.198531
0.144496
-0.219003
0.14388
-0.0327462
0.140997
0.130518
0.139367
0.227124
0.142696
0.37226
0.168016
0.221542
-0.010886
-0.223422
0.219112
-0.0146491
0.216397
-0.018343
0.213303
-0.0218883
0.209706
-0.025375
0.205597
-0.0287629
0.201032
-0.0318834
0.196088
-0.0345371
0.190848
-0.0365445
0.185417
-0.0377432
0.179919
-0.0379704
0.174495
-0.0370616
0.169298
-0.0348554
0.164488
-0.0311968
0.160216
-0.0259592
0.156641
-0.019054
0.153897
-0.0103519
0.151992
0.000186043
0.150807
0.0123392
0.150009