/*--------------------------------*- C++ -*----------------------------------*\
| =========                 |                                                 |
| \\      /  F ield         | OpenFOAM: The Open Source CFD Toolbox           |
|  \\    /   O peration     | Version:  2512                                  |
|   \\  /    A nd           | Website:  www.openfoam.com                      |
|    \\/     M anipulation  |                                                 |
\*---------------------------------------------------------------------------*/
FoamFile
{
    version     2.0;
    format      ascii;
    arch        "LSB;label=32;scalar=64";
    class       surfaceScalarField;
    location    "163";
    object      phi;
}
// * * * * * * * * * * * * * * * * * * * * * * * * * * * * * * * * * * * * * //

dimensions      [0 3 -1 0 0 0 0];

oriented        oriented;

internalField   nonuniform List<scalar> 
26232
(
0.000172681
0.000849997
-0.00102268
0.000761732
0.00127443
-0.00186349
0.00187456
0.000576774
-0.0016896
0.00363956
-0.00116779
-0.000597216
0.00619899
-0.00390534
0.00134592
0.00969672
-0.00759431
0.00409658
0.0142612
-0.012192
0.00762755
0.0199848
-0.0176375
0.0119139
0.0269028
-0.0238353
0.0169172
0.0349771
-0.0306465
0.0225722
0.0440878
-0.0378889
0.0287782
0.0540372
-0.0453476
0.0353983
0.0645654
-0.0527937
0.0422654
0.0753764
-0.0600056
0.0491947
0.0861684
-0.0667908
0.0559988
0.0966658
-0.0730023
0.0625049
0.106646
-0.078549
0.068569
0.115957
-0.0833983
0.0740873
0.124528
-0.0875706
0.0789997
0.132365
-0.0911347
0.0832973
0.139535
-0.0941713
0.0870014
0.146159
-0.0968291
0.0902046
0.152252
-0.0990817
0.0929894
-0.101309
0.0957007
0.15786
0.000213404
0.000636593
0.000978781
0.000509057
0.00244021
-0.000884651
0.00475039
-0.00347797
0.00806358
-0.00721852
0.0125169
-0.0120477
0.018205
-0.0178801
0.0251525
-0.024585
0.0332934
-0.0319762
0.042462
-0.039815
0.0524013
-0.0478282
0.0627889
-0.0557352
0.0732734
-0.0632782
0.0835168
-0.0702491
0.0932331
-0.0765071
0.102217
-0.0819867
0.110362
-0.0866938
0.117658
-0.0906936
0.12418
-0.0940932
0.130068
-0.0970226
0.135507
-0.0996103
0.140678
-0.102
0.145814
-0.104218
-0.106622
0.151127
0.000267242
0.000369351
0.00124138
-0.000465086
0.00310134
-0.00274461
0.00601885
-0.00639548
0.0101449
-0.0113446
0.0155809
-0.0174836
0.0223451
-0.0246443
0.030346
-0.032586
0.0393733
-0.0410035
0.0491123
-0.049554
0.0591813
-0.0578971
0.0691821
-0.065736
0.0787539
-0.07285
0.0876178
-0.0791129
0.0956045
-0.0844938
0.102663
-0.0890448
0.108847
-0.0928783
0.114294
-0.0961408
0.119189
-0.0989875
0.123729
-0.101563
0.128105
-0.103986
0.132466
-0.106361
0.136955
-0.108707
-0.11125
0.141582
0.000342948
2.64025e-05
0.00157309
-0.00169522
0.00389256
-0.00506408
0.0074747
-0.00997763
0.0124374
-0.0163073
0.0188035
-0.0238497
0.0264667
-0.0323075
0.0351805
-0.0412997
0.0445787
-0.0504017
0.0542259
-0.0592012
0.0636839
-0.0673552
0.0725772
-0.0746292
0.0806412
-0.080914
0.0877459
-0.0862176
0.0938924
-0.0906403
0.0991876
-0.09434
0.103806
-0.0974969
0.10795
-0.100285
0.111815
-0.102852
0.115566
-0.105314
0.119331
-0.107752
0.123197
-0.110227
0.127235
-0.112744
-0.115465
0.13145
0.00044333
-0.000416927
0.0019783
-0.00323019
0.00480886
-0.00789464
0.00907994
-0.0142487
0.0148343
-0.0220617
0.0219685
-0.0309839
0.0302149
-0.0405538
0.0391655
-0.0502503
0.0483355
-0.0595718
0.0572478
-0.0681135
0.0655103
-0.0756177
0.0728691
-0.081988
0.0792256
-0.0872705
0.0846207
-0.0916128
0.0891963
-0.095216
0.0931475
-0.0982912
0.0966785
-0.101028
0.0999718
-0.103578
0.103172
-0.106052
0.106383
-0.108525
0.109675
-0.111043
0.113087
-0.113638
0.116653
-0.116311
-0.119162
0.12035
0.000566019
-0.000982946
0.00244363
-0.0051078
0.00580834
-0.0112593
0.0107365
-0.0191769
0.017149
-0.0284742
0.0247786
-0.0386135
0.0331899
-0.0489651
0.0418533
-0.0589137
0.0502481
-0.0679665
0.0579564
-0.0758218
0.0647225
-0.0823838
0.0704647
-0.0877303
0.0752489
-0.0920547
0.0792378
-0.0956017
0.0826363
-0.0986145
0.0856461
-0.101301
0.088438
-0.10382
0.0911411
-0.106281
0.0938447
-0.108756
0.0966066
-0.111287
0.099462
-0.113899
0.10243
-0.116606
0.105529
-0.11941
-0.122366
0.108733
0.000705007
-0.00168795
0.00294253
-0.00734532
0.00682259
-0.0151394
0.0123084
-0.0246627
0.0191593
-0.0353251
0.0269335
-0.0463877
0.0350635
-0.0570952
0.0429781
-0.0668283
0.0502176
-0.075206
0.0565046
-0.0821089
0.061756
-0.0876351
0.0660469
-0.0920212
0.0695506
-0.0955584
0.0724769
-0.0985279
0.0750252
-0.101163
0.0773588
-0.103635
0.0795972
-0.106058
0.0818209
-0.108505
0.0840805
-0.111016
0.0864065
-0.113613
0.0888165
-0.116309
0.0913191
-0.119109
0.0939221
-0.122013
-0.125046
0.0966018
0.000852136
-0.00254009
0.00344062
-0.00993381
0.00776967
-0.0194685
0.0136488
-0.0305418
0.0206572
-0.0423336
0.028204
-0.0539345
0.0356617
-0.0645529
0.0425088
-0.0736754
0.0484215
-0.0811187
0.0532924
-0.0869797
0.05719
-0.0915327
0.0602898
-0.095121
0.0628048
-0.0980734
0.0649352
-0.100658
0.066842
-0.10307
0.0686405
-0.105433
0.0704064
-0.107824
0.0721864
-0.110285
0.0740083
-0.112838
0.0758882
-0.115493
0.0778351
-0.118256
0.0798535
-0.121127
0.081947
-0.124106
-0.127197
0.0840982
0.000997914
-0.003538
0.00389995
-0.0128358
0.00856616
-0.0241347
0.014626
-0.0366016
0.0214898
-0.0491974
0.0284767
-0.0609214
0.0349837
-0.0710599
0.0406115
-0.0793031
0.0452009
-0.0857082
0.0487953
-0.0905741
0.0515632
-0.0943006
0.0537199
-0.0972776
0.0554698
-0.0998233
0.0569766
-0.102165
0.0583562
-0.104449
0.0596835
-0.10676
0.0610033
-0.109144
0.062342
-0.111624
0.0637149
-0.11421
0.0651312
-0.116909
0.0665957
-0.11972
0.068111
-0.122642
0.069678
-0.125673
-0.128805
0.0712859
0.00113186
-0.00466986
0.00428256
-0.0159865
0.00913804
-0.0289902
0.0151435
-0.042607
0.021582
-0.055636
0.0277581
-0.0670974
0.0331655
-0.0764674
0.0375607
-0.0836983
0.0409366
-0.0890841
0.0434421
-0.0930796
0.0452916
-0.0961501
0.0466966
-0.0986826
0.0478286
-0.100955
0.0488089
-0.103146
0.0497149
-0.105355
0.0505922
-0.107638
0.0514671
-0.110019
0.0523545
-0.112511
0.0532635
-0.115119
0.0541995
-0.117845
0.0551656
-0.120686
0.0561632
-0.12364
0.0571918
-0.126702
-0.12986
0.0582467
0.00124378
-0.00591364
0.00455552
-0.0192983
0.00943102
-0.0338657
0.0151521
-0.0483281
0.0209371
-0.0614209
0.0261479
-0.0723082
0.0304176
-0.0807371
0.0336558
-0.0869364
0.0359708
-0.0913991
0.0375683
-0.0946771
0.0386674
-0.0972492
0.0394518
-0.0994671
0.0400534
-0.101557
0.0405562
-0.103648
0.041009
-0.105808
0.0414393
-0.108068
0.0418622
-0.110442
0.0422868
-0.112936
0.042719
-0.115552
0.0431624
-0.118288
0.0436186
-0.121143
0.0440882
-0.12411
0.0445694
-0.127183
-0.130351
0.0450611
0.00132754
-0.00724118
0.00469775
-0.0226685
0.00941818
-0.0385861
0.0146523
-0.0535622
0.0196232
-0.0663919
0.0238033
-0.0764883
0.0269754
-0.0839092
0.0291754
-0.0891364
0.0305836
-0.0928073
0.0314226
-0.0955161
0.0318913
-0.097718
0.0321372
-0.099713
0.0322556
-0.101675
0.0323018
-0.103694
0.0323061
-0.105812
0.0322846
-0.108046
0.0322464
-0.110404
0.0321975
-0.112887
0.0321422
-0.115496
0.0320833
-0.118229
0.0320221
-0.121081
0.0319587
-0.124046
0.0318904
-0.127115
0.0318186
-0.13028
-0.00027915
-0.00102227
0.00130142
-0.000970733
-0.00306815
0.00375974
-0.00199486
-0.00505942
0.00608355
-0.00329357
-0.00690656
0.00820527
-0.00481843
-0.00857568
0.0101005
-0.00652582
-0.0100866
0.0117939
-0.00837553
-0.0114929
0.0133426
-0.0103309
-0.0128602
0.0148156
-0.0123588
-0.0142476
0.0162756
-0.0144297
-0.0156968
0.0177677
-0.0165158
-0.0172281
0.0193142
-0.0185889
-0.0188412
0.0209143
-0.0206186
-0.0205176
0.0225473
-0.0225698
-0.0222238
0.024175
-0.0244011
-0.0239129
0.0257441
-0.0260635
-0.0255242
0.0271866
-0.0275005
-0.0269838
0.0284209
-0.0286486
-0.0282038
0.0293519
-0.0294396
-0.0290823
0.0298732
-0.0298034
-0.0295069
0.0298707
-0.0296701
-0.0293604
0.0292271
-0.0289785
-0.0285221
0.0278305
-0.0276995
-0.0268567
0.0255777
-0.0242606
-0.0258664
0.0224275
-0.000354594
-0.000667678
-0.00121666
-0.00220608
-0.00247161
-0.00380447
-0.00403758
-0.00534059
-0.00585105
-0.00676221
-0.00786126
-0.00807634
-0.0100274
-0.0093268
-0.0123167
-0.0105709
-0.0147028
-0.0118615
-0.0171639
-0.0132358
-0.0196798
-0.0147122
-0.02223
-0.016291
-0.024791
-0.0179565
-0.0273348
-0.0196801
-0.0298268
-0.0214208
-0.0322255
-0.0231255
-0.034481
-0.0247283
-0.036536
-0.0261488
-0.0383269
-0.0272914
-0.0397878
-0.028046
-0.0408555
-0.0282927
-0.0414725
-0.0279051
-0.0415953
-0.0267339
-0.0246316
-0.0412243
-0.000399985
-0.000267693
-0.00136417
-0.0012419
-0.00275366
-0.00241498
-0.00446843
-0.00362583
-0.00643277
-0.00479787
-0.00858948
-0.00591964
-0.010896
-0.00702033
-0.0133208
-0.0081461
-0.0158405
-0.00934175
-0.0184362
-0.01064
-0.0210908
-0.0120576
-0.0237862
-0.0135957
-0.0265011
-0.0152415
-0.0292104
-0.0169709
-0.0318829
-0.0187483
-0.0344811
-0.0205273
-0.0369601
-0.0222493
-0.0392667
-0.0238423
-0.0413399
-0.0252182
-0.0431148
-0.026271
-0.0445307
-0.0268768
-0.0455327
-0.0269031
-0.0460591
-0.0262075
-0.0245954
-0.0460953
-0.000409129
0.000141436
-0.0013957
-0.000255333
-0.00281074
-0.000999936
-0.0045435
-0.00189307
-0.0065093
-0.00283207
-0.00864466
-0.00378427
-0.0109031
-0.00476185
-0.013251
-0.00579825
-0.0156629
-0.00692986
-0.0181179
-0.00818497
-0.0205964
-0.00957917
-0.0230772
-0.0111148
-0.0255366
-0.0127822
-0.027947
-0.0145605
-0.0302765
-0.0164188
-0.0324881
-0.0183157
-0.0345383
-0.0201991
-0.0363754
-0.0220051
-0.0379373
-0.0236563
-0.0391512
-0.0250571
-0.0399414
-0.0260867
-0.0402402
-0.0266042
-0.0399641
-0.0264836
-0.0254783
-0.0390812
-0.00038148
0.000522916
-0.00130911
0.000672302
-0.00263891
0.000329864
-0.00425743
-0.000274557
-0.00607385
-0.00101565
-0.00801833
-0.00183979
-0.0100377
-0.00274244
-0.0120917
-0.00374432
-0.0141478
-0.00487369
-0.0161779
-0.00615494
-0.018154
-0.00760305
-0.020047
-0.00922182
-0.0218252
-0.0110039
-0.0234545
-0.0129312
-0.0248982
-0.014975
-0.0261176
-0.0170964
-0.0270708
-0.0192459
-0.0277114
-0.0213645
-0.0279843
-0.0233833
-0.0278194
-0.025222
-0.0271267
-0.0267794
-0.025819
-0.027912
-0.0238418
-0.0284609
-0.0285188
-0.0208013
-0.000321385
0.000844302
-0.00111688
0.0014678
-0.00226039
0.00147337
-0.00364175
0.00110681
-0.0051665
0.000509096
-0.00675857
-0.000247724
-0.00835459
-0.00114642
-0.00990318
-0.00219573
-0.0113598
-0.00341707
-0.012683
-0.0048317
-0.0138317
-0.00645437
-0.0147633
-0.00829022
-0.0154337
-0.0103336
-0.0157977
-0.0125672
-0.0158106
-0.0149622
-0.0154291
-0.0174778
-0.0146126
-0.0200624
-0.0133225
-0.0226546
-0.0115213
-0.0251845
-0.0091673
-0.0275761
-0.00619663
-0.02975
-0.00248174
-0.0316269
0.00211585
-0.0330585
-0.0335893
0.0071864
-0.000238198
0.0010825
-0.000845184
0.00207478
-0.00171982
0.00234801
-0.00276033
0.00214731
-0.00387212
0.00162089
-0.0049684
0.000848555
-0.0059749
-0.000139923
-0.00682578
-0.00134486
-0.00745962
-0.00278323
-0.00781769
-0.00447363
-0.00784159
-0.00643046
-0.00747264
-0.00865918
-0.00665247
-0.0111537
-0.00532471
-0.0138949
-0.00343723
-0.0168497
-0.000944257
-0.0199708
0.0021919
-0.0231986
0.0059996
-0.0264623
0.0104998
-0.0296846
0.015709
-0.0327853
0.021645
-0.035686
0.0283463
-0.0383282
0.0357686
-0.0404808
-0.042569
0.0447483
-0.000144145
0.00122664
-0.000529185
0.00245982
-0.00108005
0.00289888
-0.00170479
0.00277205
-0.00230729
0.00222339
-0.00279385
0.00133512
-0.00307515
0.000141368
-0.00306923
-0.00135077
-0.00269572
-0.00315674
-0.00187743
-0.00529193
-0.000539091
-0.00776879
0.00139162
-0.0105899
0.00398188
-0.013744
0.00729062
-0.0172037
0.0113654
-0.0209245
0.01624
-0.0248454
0.0219326
-0.0288912
0.0284466
-0.0329763
0.0357722
-0.0370103
0.0438912
-0.0409043
0.0527728
-0.0445676
0.0624224
-0.0479778
0.0727674
-0.0508257
-0.0541251
0.0843234
-5.19249e-05
0.00127857
-0.00020631
0.00261421
-0.000408395
0.00310096
-0.000573956
0.00293761
-0.00060533
0.00225476
-0.000400181
0.00112997
0.000142878
-0.000401691
0.00112584
-0.00233373
0.0026446
-0.0046755
0.00479175
-0.00743908
0.00765319
-0.0106302
0.0113046
-0.0142413
0.015807
-0.0182464
0.0212023
-0.022599
0.0275096
-0.0272318
0.0347233
-0.0320591
0.0428135
-0.0369814
0.0517295
-0.0418923
0.0614046
-0.0466854
0.0717635
-0.0512632
0.0827314
-0.0555356
0.0942488
-0.0594952
0.106232
-0.0628091
-0.0667162
0.118823
2.8152e-05
0.00125042
9.20526e-05
0.00255031
0.000237224
0.00295579
0.000545468
0.00262937
0.00111812
0.00168211
0.0020666
0.000181495
0.00350641
-0.0018415
0.00555207
-0.00437939
0.00831263
-0.00743606
0.0118868
-0.0110132
0.0163568
-0.0151002
0.0217816
-0.0196661
0.0281906
-0.0246553
0.0355784
-0.0299868
0.0439033
-0.0355567
0.0530887
-0.0412444
0.0630286
-0.0469213
0.0735964
-0.0524601
0.0846559
-0.0577449
0.0960709
-0.0626783
0.107724
-0.0671889
0.119492
-0.0712624
0.131377
-0.0746947
-0.0784791
0.14314
9.05759e-05
0.00115984
0.000348319
0.00229257
0.000823966
0.00248015
0.00160413
0.00184921
0.00279765
0.000488583
0.00452671
-0.00154756
0.0069175
-0.00423229
0.0100929
-0.00755475
0.0141625
-0.0115057
0.0192133
-0.016064
0.0252986
-0.0211855
0.0324294
-0.0267969
0.0405682
-0.0327941
0.0496277
-0.0390463
0.0594753
-0.0454042
0.0699423
-0.0517115
0.0808386
-0.0578177
0.0919691
-0.0635905
0.103149
-0.0689253
0.114224
-0.073753
0.125077
-0.0780413
0.135609
-0.0817953
0.145883
-0.0849683
-0.0879622
0.155366
0.000137164
0.000566244
0.00135679
0.00260878
0.00444328
0.0069923
0.0103876
0.0147467
0.0201582
0.0266664
0.034259
0.0428604
0.0523317
0.0624801
0.0730746
0.0838681
0.0946194
0.105116
0.115191
0.124735
0.133695
0.142104
0.150125
0.157864
-0.0209366
-0.0288772
0.0239474
-0.0151733
-0.0195395
0.0137763
-0.00852528
-0.00741953
0.00077152
-0.00124788
0.0071256
-0.014403
0.00665179
0.0240673
-0.0319669
0.0149094
0.0426765
-0.0509341
0.0230765
0.06228
-0.0704471
0.0307626
0.0814909
-0.089177
0.0376247
0.098996
-0.105858
0.0430134
0.11425
-0.119639
0.0464813
0.126965
-0.130433
0.0481971
0.137053
-0.138769
0.0493161
0.143882
-0.145001
0.0518372
0.145385
-0.147906
0.0576679
0.138151
-0.143982
0.0674238
0.119045
-0.1288
0.0801331
0.0870516
-0.0997609
0.0941257
0.0436577
-0.0576503
0.108059
-0.00776236
-0.00617074
0.121061
-0.0612686
0.0482667
0.131976
-0.108742
0.0978268
0.139873
-0.143197
0.1353
0.144342
-0.163013
0.158543
0.14585
-0.17142
0.169912
0.145306
-0.172768
0.173312
0.142803
-0.171215
0.173718
0.137508
-0.172632
0.177927
0.129619
-0.180138
0.188028
0.12191
-0.185807
0.193515
0.118245
-0.170423
0.174088
0.120562
-0.120135
0.117818
0.127911
-0.0410338
0.0336846
0.137364
0.0454927
-0.0549464
0.146286
0.117766
-0.126687
0.153188
0.166266
-0.173168
0.157319
0.190826
-0.194957
0.157482
0.207013
-0.207177
0.152928
0.224923
-0.220369
0.145287
0.24447
-0.236828
0.138329
0.236318
-0.229361
0.135564
0.181673
-0.178908
0.137805
0.0825062
-0.084747
0.143589
-0.03327
0.0274858
0.15036
-0.124068
0.117298
0.154527
-0.190411
0.186244
0.153104
-0.217739
0.219162
0.146656
-0.253009
0.259458
0.139426
-0.250934
0.258164
0.136657
-0.2179
0.220669
0.139839
-0.126616
0.123435
0.145638
0.00612771
-0.0119265
0.148741
0.0933708
-0.0964744
0.147029
0.228715
-0.227003
0.143518
0.256533
-0.253023
0.142128
0.302145
-0.300755
0.14299
0.23143
-0.232291
0.143998
0.0667642
-0.0677726
0.143605
-0.000338137
0.000731357
0.141617
-0.277591
0.279579
-0.242081
0.243894
-0.0374489
-0.0326526
-0.0323982
-0.0245903
-0.0260914
-0.0137263
-0.0187168
-0.000249062
-0.0104501
0.0158006
-0.00158086
0.0338073
0.00812503
0.0525741
0.0173083
0.0723076
0.0258831
0.0904212
0.033328
0.106805
0.0395482
0.120745
0.0450331
0.131568
0.0509465
0.137968
0.0587182
0.137613
0.0692004
0.127669
0.0820153
0.10623
0.0957629
0.073304
0.109161
0.0302591
0.121348
-0.0199488
0.131837
-0.0717574
0.139861
-0.116766
0.144868
-0.148203
0.1468
-0.164945
0.146224
-0.170844
0.14409
-0.170634
0.140607
-0.167732
0.134748
-0.166773
0.126155
-0.171546
0.117309
-0.176961
0.112566
-0.16568
0.114568
-0.122137
0.122549
-0.049015
0.133337
0.0347049
0.143963
0.107139
0.152633
0.157597
0.158255
0.185204
0.159533
0.205735
0.155941
0.228514
0.149237
0.251174
0.142877
0.242678
0.140005
0.184544
0.141304
0.0812075
0.14563
-0.0375959
0.150985
-0.129424
0.154274
-0.193699
0.152442
-0.215907
0.145747
-0.246314
0.13844
-0.243627
0.135767
-0.215228
0.139314
-0.130163
0.145304
0.00013796
0.148597
0.0900778
0.147068
0.230244
0.143626
0.259975
0.142362
0.303409
0.143389
0.230402
0.144719
0.0654338
0.144452
-7.03453e-05
0.142421
-0.27556
-0.240265
-0.0439783
-0.0347695
-0.0403863
-0.0281823
-0.0353339
-0.0187786
-0.0286857
-0.00689731
-0.020744
0.00785886
-0.0116939
0.0247572
-0.00211088
0.0429911
0.00844098
0.0617558
0.0188828
0.0799794
0.0289139
0.0967743
0.0384976
0.111162
0.048081
0.121985
0.058486
0.127563
0.0704472
0.125652
0.0840159
0.1141
0.0982786
0.091967
0.111881
0.0597017
0.123914
0.0182263
0.133964
-0.0299994
0.141812
-0.0796054
0.146937
-0.121892
0.149133
-0.150399
0.148705
-0.164516
0.146305
-0.168444
0.142816
-0.167145
0.138564
-0.16348
0.132481
-0.160689
0.123616
-0.162681
0.113875
-0.16722
0.1079
-0.159705
0.109211
-0.123448
0.117381
-0.0571847
0.129237
0.0228488
0.141426
0.0949505
0.151819
0.147203
0.158973
0.178051
0.161531
0.203177
0.159138
0.230907
0.153528
0.256784
0.147774
0.248433
0.144687
0.187631
0.144954
0.080941
0.147744
-0.040386
0.151613
-0.133293
0.154016
-0.196102
0.151874
-0.213765
0.145039
-0.239479
0.137685
-0.236273
0.135048
-0.212591
0.138881
-0.133997
0.145038
-0.00601899
0.148566
0.0865503
0.147234
0.231575
0.143825
0.263385
0.142673
0.30456
0.143909
0.229167
0.145591
0.063751
0.145466
5.51847e-05
0.143381
-0.273475
-0.238447
-0.0386947
-0.035156
-0.0369024
-0.0299747
-0.0335512
-0.0221297
-0.0285337
-0.0119149
-0.0215973
0.000922488
-0.0132057
0.0163656
-0.00375413
0.0335395
0.00730334
0.0506983
0.0191613
0.0681215
0.0314172
0.0845183
0.0439207
0.098658
0.0568649
0.10904
0.0705858
0.113842
0.0852022
0.111035
0.100257
0.0990456
0.114683
0.0775408
0.127306
0.0470788
0.137521
0.00801115
0.145421
-0.0378993
0.150735
-0.0849196
0.153115
-0.124271
0.152661
-0.149945
0.150057
-0.161913
0.14608
-0.164467
0.141453
-0.162517
0.136561
-0.158589
0.130493
-0.154621
0.121836
-0.154024
0.11163
-0.157013
0.104386
-0.152461
0.104529
-0.12359
0.112431
-0.0650868
0.125029
0.0102512
0.138607
0.0813721
0.150655
0.135155
0.159377
0.169329
0.163379
0.199175
0.162403
0.231883
0.158015
0.261172
0.152856
0.253592
0.14949
0.190996
0.148647
0.0817844
0.149887
-0.0416262
0.152229
-0.135635
0.153731
-0.197605
0.151353
-0.211387
0.144471
-0.232597
0.137093
-0.228895
0.134433
-0.209931
0.138479
-0.138042
0.144811
-0.0123515
0.148633
0.0827284
0.147528
0.23268
0.144128
0.266785
0.143077
0.305611
0.144548
0.227696
0.146613
0.0616858
0.146643
2.49658e-05
0.14449
-0.271322
-0.236626
-0.0221084
-0.0338489
-0.0221852
-0.0298979
-0.0206898
-0.0236251
-0.0174978
-0.0151069
-0.012138
-0.00443728
-0.00512916
0.00935678
0.00414406
0.0242663
0.0151235
0.0397188
0.027467
0.055778
0.0408356
0.0711497
0.0550075
0.0844862
0.0698743
0.0941735
0.0853217
0.098395
0.101012
0.0953454
0.116214
0.0838437
0.12988
0.0638746
0.141129
0.0358294
0.149668
-0.000527914
0.155524
-0.0437549
0.158433
-0.087829
0.158194
-0.124033
0.155275
-0.147026
0.150725
-0.157364
0.145437
-0.159179
0.139932
-0.157012
0.134544
-0.153201
0.128632
-0.148709
0.120572
-0.145964
0.110432
-0.146873
0.102111
-0.14414
0.100738
-0.122217
0.107799
-0.0721485
0.120733
-0.00268232
0.135442
0.0666633
0.149022
0.121575
0.159327
0.159024
0.164926
0.193575
0.165562
0.231247
0.162519
0.264215
0.157956
0.258155
0.154257
0.194696
0.152284
0.0837573
0.152002
-0.0413446
0.152804
-0.136436
0.153389
-0.198191
0.150837
-0.208835
0.143989
-0.225749
0.136603
-0.221509
0.133857
-0.207184
0.13805
-0.142235
0.144585
-0.0188868
0.148777
0.0785366
0.147946
0.233511
0.144551
0.270181
0.143585
0.306577
0.145309
0.225972
0.147775
0.0592193
0.147977
-0.000176553
0.145742
-0.269087
-0.2348
0.00416799
-0.0308305
0.00174656
-0.0274765
0.00123847
-0.023117
0.00281707
-0.0166855
0.00650666
-0.00812687
0.0127666
0.00309688
0.0208024
0.0162304
0.0306303
0.029891
0.0423134
0.0440948
0.0555237
0.0579395
0.0699405
0.0700694
0.0852079
0.0789061
0.10087
0.0827326
0.116296
0.07992
0.130647
0.0694925
0.143015
0.0515065
0.15278
0.026064
0.159839
-0.00758687
0.163913
-0.0478288
0.164606
-0.0885219
0.161955
-0.121382
0.156852
-0.141923
0.150641
-0.151152
0.1443
-0.152838
0.138167
-0.150879
0.132418
-0.147451
0.126708
-0.142999
0.119509
-0.138765
0.11
-0.137364
0.101032
-0.135173
0.0979869
-0.119172
0.103712
-0.0778732
0.116345
-0.0153154
0.131869
0.0511391
0.146788
0.106656
0.158655
0.147157
0.165977
0.186254
0.168399
0.228825
0.166829
0.265785
0.162886
0.262099
0.158828
0.198753
0.155762
0.0868241
0.154023
-0.0396058
0.153302
-0.135715
0.152952
-0.197841
0.150276
-0.206159
0.143537
-0.219011
0.136153
-0.214125
0.133253
-0.204284
0.137531
-0.146513
0.144311
-0.0256665
0.148963
0.0738842
0.148479
0.233995
0.145103
0.273556
0.144208
0.307472
0.146189
0.223992
0.149072
0.0563361
0.149458
-0.000561937
0.147125
-0.266753
-0.232966
0.0399478
-0.02603
0.0360972
-0.0236259
0.0334209
-0.0204407
0.0324668
-0.0157314
0.0334466
-0.0091067
0.0372543
-0.000710801
0.04291
0.0105748
0.0508615
0.0219394
0.0609874
0.0339689
0.0729989
0.045928
0.0864997
0.0565686
0.100968
0.064438
0.115738
0.0679623
0.13002
0.0656378
0.142969
0.0565434
0.153862
0.0406142
0.162247
0.0176788
0.16797
-0.0133103
0.170405
-0.0502631
0.169043
-0.0871602
0.164234
-0.116573
0.157286
-0.134975
0.149738
-0.143604
0.142599
-0.145699
0.136071
-0.144351
0.130109
-0.141489
0.124579
-0.137469
0.118319
-0.132505
0.109923
-0.128968
0.100927
-0.126176
0.0963467
-0.114592
0.100275
-0.0818017
0.112006
-0.027046
0.127863
0.0352822
0.14384
0.090679
0.157194
0.133803
0.16632
0.177128
0.17069
0.224455
0.170733
0.265742
0.167476
0.265355
0.163056
0.203173
0.158967
0.0909137
0.155874
-0.0365136
0.15368
-0.133521
0.152379
-0.19654
0.149617
-0.203397
0.143061
-0.212454
0.135691
-0.206756
0.132565
-0.201158
0.136861
-0.15081
0.143935
-0.0327396
0.149151
0.0686675
0.14911
0.234036
0.145792
0.276874
0.144954
0.30831
0.147187
0.221759
0.150493
0.05303
0.151074
-0.00114298
0.148626
-0.264306
-0.231125
0.0784911
-0.0201977
0.0733912
-0.0185259
0.0691331
-0.0161826
0.0661028
-0.0127011
0.064743
-0.00774689
0.0654599
-0.00142772
0.0684685
0.00756622
0.0738458
0.016562
0.0816021
0.0262126
0.0915227
0.0360074
0.103186
0.044905
0.115987
0.051637
0.129156
0.0547934
0.141833
0.0529611
0.153194
0.045182
0.162633
0.0311755
0.169749
0.010563
0.174148
-0.017709
0.17492
-0.0510355
0.171602
-0.0838424
0.164917
-0.109887
0.156509
-0.126567
0.147987
-0.135082
0.140295
-0.138008
0.133561
-0.137617
0.127541
-0.13547
0.12216
-0.132087
0.116745
-0.127091
0.109744
-0.121966
0.101389
-0.117822
0.0957216
-0.108924
0.0976128
-0.083693
0.107865
-0.0372979
0.123452
0.0196952
0.140109
0.0740213
0.154806
0.119107
0.165757
0.166177
0.172175
0.218036
0.173958
0.263959
0.171506
0.267808
0.166813
0.207866
0.161776
0.0959506
0.157478
-0.0322159
0.15389
-0.129933
0.151625
-0.194275
0.148804
-0.200576
0.142508
-0.206159
0.135173
-0.19942
0.131747
-0.197732
0.135985
-0.155048
0.143398
-0.040152
0.149291
0.0627742
0.149818
0.233509
0.146618
0.280074
0.145827
0.309101
0.148298
0.219288
0.152026
0.0493021
0.152812
-0.00192848
0.150233
-0.261727
-0.229279
0.112989
-0.0143634
0.107711
-0.0132478
0.103057
-0.0115292
0.0992287
-0.00887226
0.0965487
-0.00506691
0.0953486
-0.00022767
0.0959869
0.006928
0.0987128
0.0138361
0.103716
0.0212093
0.110922
0.0288014
0.120018
0.035809
0.130457
0.0411984
0.14148
0.0437701
0.15222
0.0422216
0.161853
0.0355489
0.169772
0.0232565
0.175503
0.00483205
0.178353
-0.0205594
0.177311
-0.0499939
0.172131
-0.078662
0.163899
-0.101656
0.154447
-0.117115
0.145315
-0.12595
0.137304
-0.129996
0.130503
-0.130817
0.124568
-0.129534
0.119344
-0.126864
0.114593
-0.12234
0.109021
-0.116394
0.10188
-0.11068
0.0958093
-0.102854
0.095769
-0.0836527
0.104045
-0.0455739
0.118721
0.00501962
0.135586
0.0571561
0.151381
0.103311
0.164108
0.15345
0.172684
0.20946
0.17636
0.260283
0.17482
0.269348
0.169951
0.212735
0.164087
0.101815
0.158745
-0.0268739
0.153867
-0.125055
0.150632
-0.191039
0.147768
-0.197712
0.141827
-0.200218
0.134566
-0.192159
0.130763
-0.193929
0.134855
-0.15914
0.142643
-0.0479393
0.149326
0.0560911
0.150571
0.232263
0.147575
0.283071
0.146827
0.309849
0.149515
0.216599
0.153661
0.0451558
0.154655
-0.00292234
0.151929
-0.259001
-0.227435
0.138101
-0.00932452
0.133535
-0.00868192
0.129434
-0.00742821
0.125981
-0.00541868
0.123437
-0.0025233
0.121525
0.00168393
0.121351
0.00710202
0.122614
0.0125736
0.125575
0.0182481
0.130353
0.0240232
0.136814
0.0293481
0.144596
0.0334171
0.153108
0.0352577
0.161573
0.033757
0.169189
0.0279325
0.175325
0.01712
0.179429
0.000728404
0.180357
-0.0214877
0.177356
-0.0469921
0.170492
-0.0717985
0.161111
-0.0922744
0.151033
-0.107037
0.14162
-0.116537
0.133493
-0.12187
0.126729
-0.124052
0.120989
-0.123794
0.115989
-0.121864
0.111729
-0.11808
0.107422
-0.112088
0.101834
-0.105092
0.0961075
-0.0971274
0.0945735
-0.0821187
0.100652
-0.0516527
0.113809
-0.00813667
0.130326
0.0406388
0.146884
0.0867531
0.161228
0.139106
0.171913
0.198776
0.177576
0.25462
0.177161
0.269763
0.172286
0.21761
0.165835
0.108266
0.159607
-0.0206464
0.153579
-0.119027
0.149369
-0.186829
0.146453
-0.194796
0.140972
-0.194736
0.133855
-0.185042
0.129607
-0.189681
0.133432
-0.162965
0.141616
-0.0561237
0.149193
0.0485142
0.151328
0.230128
0.148646
0.285752
0.14795
0.310546
0.150831
0.213718
0.155383
0.040603
0.156586
-0.00412504
0.153703
-0.256118
-0.225604
0.151408
-0.00536673
0.147794
-0.00506786
0.14455
-0.00418412
0.141946
-0.00281478
0.140338
-0.000915103
0.139372
0.0026496
0.139498
0.00697673
0.140516
0.0115549
0.142692
0.0160721
0.146211
0.0205045
0.15097
0.0245894
0.156712
0.0276747
0.163006
0.0289643
0.169264
0.027499
0.174786
0.0224099
0.178825
0.0130814
0.180819
-0.0012656
0.179875
-0.0205434
0.175103
-0.0422205
0.167
-0.0636951
0.157005
-0.0822798
0.146755
-0.0967869
0.137369
-0.107151
0.129303
-0.113803
0.122623
-0.117372
0.117094
-0.118265
0.112348
-0.117119
0.108408
-0.114139
0.105024
-0.108704
0.101001
-0.101069
0.0962117
-0.0923379
0.0938092
-0.0797163
0.0977255
-0.055569
0.10887
-0.0192809
0.124429
0.0250798
0.141305
0.0698765
0.157132
0.123279
0.170044
0.185863
0.177869
0.246795
0.178607
0.269025
0.173824
0.222393
0.167006
0.115084
0.160127
-0.0137671
0.153108
-0.112009
0.147942
-0.181663
0.144907
-0.191761
0.139962
-0.189791
0.133063
-0.178143
0.12833
-0.184949
0.131738
-0.166372
0.140267
-0.0646535
0.148817
0.0399646
0.152046
0.226899
0.149811
0.287987
0.149182
0.311175
0.152232
0.210669
0.157181
0.0356541
0.158582
-0.00552657
0.155544
-0.25308
-0.223799
0.155322
-0.00282498
0.152656
-0.00240144
0.150267
-0.00179592
0.148379
-0.000925933
0.1468
0.000663758
0.146341
0.00310818
0.147016
0.00630206
0.148696
0.00987457
0.151213
0.013555
0.154482
0.0172358
0.158507
0.0205645
0.163133
0.023049
0.168026
0.0240712
0.172681
0.0228433
0.176529
0.0185627
0.179032
0.0105785
0.179318
-0.00155164
0.176448
-0.0176734
0.170419
-0.0361918
0.16183
-0.0551061
0.151993
-0.072443
0.142179
-0.0869722
0.133218
-0.0981905
0.125443
-0.106028
0.118917
-0.110846
0.113551
-0.1129
0.109019
-0.112586
0.105241
-0.110361
0.102355
-0.105818
0.0995967
-0.0983101
0.0960336
-0.0887748
0.0934067
-0.0770894
0.0954932
-0.0576555
0.104178
-0.0279654
0.118253
0.0110044
0.13469
0.0534399
0.151247
0.106722
0.166008
0.171102
0.176194
0.236609
0.178574
0.266645
0.174359
0.226609
0.167509
0.121934
0.160228
-0.00648625
0.152414
-0.104195
0.146436
-0.175685
0.143218
-0.188544
0.138834
-0.185406
0.132205
-0.171515
0.126991
-0.179735
0.129899
-0.169281
0.138673
-0.0734272
0.14817
0.0304674
0.152651
0.222418
0.151026
0.289611
0.150515
0.311687
0.153721
0.207462
0.159027
0.0303486
0.16063
-0.00712987
0.157452
-0.249902
-0.222007
0.183415
0.000184392
-0.186424
0.180826
0.000187707
0.178379
0.000650905
0.175974
0.00147946
0.173827
0.00280982
0.172143
0.00479271
0.171087
0.00735801
0.170699
0.0102626
0.170989
0.0132646
0.172094
0.0161315
0.174131
0.0185275
0.177168
0.0200114
0.181206
0.0200331
0.186089
0.0179603
0.191464
0.0131876
0.196665
0.00537747
0.201054
-0.00593978
0.203554
-0.0201735
0.203543
-0.0361813
0.200914
-0.0524768
0.196111
-0.0676404
0.189771
-0.0806321
0.182522
-0.0909408
0.174855
-0.0983615
0.167121
-0.103112
0.159595
-0.105373
0.152301
-0.105293
0.145149
-0.10321
0.138375
-0.0990443
0.131846
-0.0917812
0.124482
-0.0814106
0.116401
-0.0690078
0.110435
-0.0516903
0.10978
-0.0273096
0.114506
0.00627838
0.121964
0.0459811
0.12937
0.0993166
0.135756
0.164716
0.141502
0.230863
0.147602
0.260545
0.155572
0.218639
0.163955
0.11355
0.168997
-0.0115275
0.168513
-0.103711
0.164183
-0.171355
0.158863
-0.183224
0.15189
-0.178433
0.143136
-0.162761
0.135295
-0.171894
0.132485
-0.16647
0.134248
-0.0751902
0.136478
0.0282373
0.136614
0.222282
0.134888
0.291338
0.136495
0.31008
0.142894
0.201064
0.149028
0.0242147
0.150799
-0.00890184
0.146372
-0.245474
-0.217935
0.194519
0.0022302
-0.196564
0.192653
0.00205369
0.190921
0.00238285
0.189305
0.0030951
0.187921
0.00419375
0.186958
0.0057558
0.186565
0.00775048
0.186812
0.0100165
0.187746
0.0123306
0.189426
0.0144511
0.191882
0.0160712
0.195097
0.0167967
0.198972
0.0161579
0.203276
0.0136561
0.207616
0.00884748
0.211547
0.00144734
0.214338
-0.00873142
0.215342
-0.0211776
0.214184
-0.0350231
0.210858
-0.0491511
0.205695
-0.0624767
0.199183
-0.0741201
0.191859
-0.0836169
0.184191
-0.0906941
0.176485
-0.0954057
0.168971
-0.0978592
0.161734
-0.0980554
0.154632
-0.0961078
0.147782
-0.0921942
0.141406
-0.0854053
0.134736
-0.0747403
0.127199
-0.0614714
0.120685
-0.0451759
0.118529
-0.0251535
0.122013
0.00279384
0.129082
0.0389121
0.136944
0.0914548
0.144377
0.157283
0.151484
0.223755
0.159162
0.252868
0.168416
0.209384
0.177478
0.104488
0.182541
-0.0165902
0.181395
-0.102565
0.175948
-0.165908
0.169664
-0.176941
0.162226
-0.170994
0.153095
-0.153631
0.144548
-0.163346
0.14115
-0.163073
0.14271
-0.0767496
0.145421
0.0255263
0.146225
0.221478
0.144921
0.292641
0.146922
0.308078
0.153741
0.194246
0.160294
0.0176609
0.161991