/*--------------------------------*- C++ -*----------------------------------*\
| =========                 |                                                 |
| \\      /  F ield         | OpenFOAM: The Open Source CFD Toolbox           |
|  \\    /   O peration     | Version:  2512                                  |
|   \\  /    A nd           | Website:  www.openfoam.com                      |
|    \\/     M anipulation  |                                                 |
\*---------------------------------------------------------------------------*/
FoamFile
{
    version     2.0;
    format      ascii;
    arch        "LSB;label=32;scalar=64";
    class       volScalarField;
    location    "138.75";
    object      p;
}
// * * * * * * * * * * * * * * * * * * * * * * * * * * * * * * * * * * * * * //

dimensions      [0 2 -2 0 0 0 0];

internalField   nonuniform List<scalar> 
13248
(
-0.410933
-0.408834
-0.40686
-0.405028
-0.40327
-0.401492
-0.399481
-0.396928
-0.393472
-0.388737
-0.382383
-0.374147
-0.363885
-0.351593
-0.337413
-0.321612
-0.304546
-0.28662
-0.268242
-0.249799
-0.231564
-0.21388
-0.196483
-0.179797
-0.419772
-0.416791
-0.413877
-0.411056
-0.408259
-0.405406
-0.402282
-0.398556
-0.393843
-0.387769
-0.380025
-0.370421
-0.358911
-0.345605
-0.330741
-0.314653
-0.297722
-0.280329
-0.262823
-0.245503
-0.228591
-0.212292
-0.196528
-0.181644
-0.429382
-0.425447
-0.421552
-0.417714
-0.413835
-0.409833
-0.40547
-0.400387
-0.394189
-0.38653
-0.377174
-0.36604
-0.353209
-0.338899
-0.323428
-0.307158
-0.290449
-0.273627
-0.256962
-0.24067
-0.224894
-0.209775
-0.195236
-0.181392
-0.440145
-0.435139
-0.430219
-0.425343
-0.420334
-0.415071
-0.409276
-0.402567
-0.394571
-0.38502
-0.373805
-0.36099
-0.346788
-0.33151
-0.315509
-0.299132
-0.282683
-0.266408
-0.250493
-0.235074
-0.220243
-0.206085
-0.192523
-0.179728
-0.452299
-0.446084
-0.440085
-0.434134
-0.427904
-0.421198
-0.413695
-0.405019
-0.39488
-0.383153
-0.369903
-0.355352
-0.339824
-0.323678
-0.307252
-0.290836
-0.274652
-0.258862
-0.243577
-0.228871
-0.214791
-0.201374
-0.188567
-0.176495
-0.465892
-0.458342
-0.451208
-0.444111
-0.436496
-0.428069
-0.418488
-0.407452
-0.39483
-0.380706
-0.365337
-0.349084
-0.332331
-0.315429
-0.298657
-0.282223
-0.266265
-0.250869
-0.236087
-0.221945
-0.208458
-0.195632
-0.183429
-0.171938
-0.480758
-0.471792
-0.463468
-0.455098
-0.445839
-0.435304
-0.423205
-0.409409
-0.394031
-0.377393
-0.359931
-0.342089
-0.32425
-0.306704
-0.289648
-0.2732
-0.257421
-0.242339
-0.227957
-0.21427
-0.201267
-0.188929
-0.177233
-0.166206
-0.496515
-0.486117
-0.476541
-0.466701
-0.455432
-0.442318
-0.427237
-0.41034
-0.392044
-0.372903
-0.353472
-0.334206
-0.315429
-0.29734
-0.280044
-0.263577
-0.247938
-0.233106
-0.219054
-0.205748
-0.193158
-0.181252
-0.170009
-0.15939
-0.512555
-0.50078
-0.489879
-0.47829
-0.464556
-0.448357
-0.429886
-0.409676
-0.388454
-0.366949
-0.34575
-0.325256
-0.305694
-0.28716
-0.269669
-0.253191
-0.237675
-0.223064
-0.209304
-0.196341
-0.184128
-0.172626
-0.161804
-0.151567
-0.528043
-0.515006
-0.502675
-0.488978
-0.472285
-0.452549
-0.430429
-0.406881
-0.38289
-0.359266
-0.336553
-0.315044
-0.294849
-0.275967
-0.258336
-0.241873
-0.226488
-0.212096
-0.19862
-0.18599
-0.174144
-0.163036
-0.152612
-0.142749
-0.541939
-0.527787
-0.51387
-0.497655
-0.477532
-0.453939
-0.428098
-0.401361
-0.374878
-0.349441
-0.325484
-0.303171
-0.282497
-0.263373
-0.245677
-0.229281
-0.214067
-0.199925
-0.186759
-0.174483
-0.163026
-0.152327
-0.142302
-0.132838
-0.5531
-0.538016
-0.522342
-0.503182
-0.479211
-0.451545
-0.422021
-0.39232
-0.363652
-0.336709
-0.311777
-0.288877
-0.267895
-0.248668
-0.231021
-0.214789
-0.199828
-0.18601
-0.173221
-0.161366
-0.150363
-0.140138
-0.130579
-0.121621
-0.343625
-0.345906
-0.347238
-0.348081
-0.348886
-0.349827
-0.350987
-0.352408
-0.354101
-0.356063
-0.358289
-0.360777
-0.36353
-0.366548
-0.369827
-0.373353
-0.377094
-0.380994
-0.38497
-0.388905
-0.39262
-0.395849
-0.398381
-0.400405
-0.342148
-0.345128
-0.34689
-0.348013
-0.349018
-0.350062
-0.351202
-0.35245
-0.353785
-0.355164
-0.35654
-0.357862
-0.359078
-0.360137
-0.360985
-0.361567
-0.361821
-0.361685
-0.361096
-0.359996
-0.358267
-0.355691
-0.352323
-0.349295
-0.342137
-0.345614
-0.347706
-0.349066
-0.35025
-0.351391
-0.352514
-0.353599
-0.354589
-0.3554
-0.355936
-0.356095
-0.355768
-0.354848
-0.353227
-0.350804
-0.347482
-0.34318
-0.337845
-0.331459
-0.323952
-0.315121
-0.305201
-0.29641
-0.34393
-0.347654
-0.349951
-0.351495
-0.352835
-0.354073
-0.355199
-0.356158
-0.356856
-0.357167
-0.35695
-0.356047
-0.3543
-0.351543
-0.347622
-0.342391
-0.335722
-0.327516
-0.317722
-0.306353
-0.293408
-0.278729
-0.262541
-0.247757
-0.34764
-0.351341
-0.353701
-0.355363
-0.35683
-0.358161
-0.359309
-0.360186
-0.360659
-0.360563
-0.359711
-0.357899
-0.354919
-0.350561
-0.344626
-0.336938
-0.327352
-0.315765
-0.302133
-0.286492
-0.268939
-0.249494
-0.228205
-0.207337
-0.353154
-0.356566
-0.35884
-0.360538
-0.36208
-0.36348
-0.364654
-0.365475
-0.365778
-0.365358
-0.363989
-0.361427
-0.35742
-0.351724
-0.344113
-0.334396
-0.322429
-0.308132
-0.291495
-0.272589
-0.251612
-0.22894
-0.20466
-0.176429
-0.360151
-0.363044
-0.365081
-0.366708
-0.368243
-0.369653
-0.370817
-0.371572
-0.371717
-0.371014
-0.369202
-0.366001
-0.361131
-0.354325
-0.345346
-0.33401
-0.320203
-0.303894
-0.285148
-0.264131
-0.241124
-0.216456
-0.190385
-0.162293
-0.368179
-0.37037
-0.372018
-0.373446
-0.374856
-0.376172
-0.377236
-0.377854
-0.377789
-0.376772
-0.374512
-0.370704
-0.365049
-0.357273
-0.347152
-0.334533
-0.319359
-0.301677
-0.281655
-0.259568
-0.235821
-0.210707
-0.185471
-0.157653
-0.376747
-0.378119
-0.379241
-0.380316
-0.38144
-0.382506
-0.383326
-0.383671
-0.383276
-0.381842
-0.379052
-0.374586
-0.368143
-0.35946
-0.348349
-0.334716
-0.318583
-0.300098
-0.279536
-0.257265
-0.233844
-0.20942
-0.185991
-0.16008
-0.385441
-0.385939
-0.386412
-0.386969
-0.387622
-0.388244
-0.388629
-0.388522
-0.387626
-0.385621
-0.382173
-0.376955
-0.369678
-0.360116
-0.348139
-0.333735
-0.317022
-0.298249
-0.277786
-0.256066
-0.2337
-0.210817
-0.189281
-0.16631
-0.394015
-0.393632
-0.393353
-0.393225
-0.39321
-0.393181
-0.392922
-0.39216
-0.390576
-0.387827
-0.383572
-0.377492
-0.369327
-0.358907
-0.34618
-0.331225
-0.314257
-0.29561
-0.275708
-0.255025
-0.234093
-0.213198
-0.193462
-0.173175
-0.402449
-0.401199
-0.400085
-0.39913
-0.398275
-0.39741
-0.396322
-0.394721
-0.392269
-0.388608
-0.383393
-0.376324
-0.367188
-0.355888
-0.34246
-0.327082
-0.310047
-0.291742
-0.272596
-0.253063
-0.233543
-0.21448
-0.196489
-0.179512
-0.402165
-0.401671
-0.397388
-0.387156
-0.37058
-0.347613
-0.31955
-0.288252
-0.256119
-0.226596
-0.202806
-0.187225
-0.181713
-0.187048
-0.201876
-0.221754
-0.23947
-0.24686
-0.238365
-0.213705
-0.179207
-0.144007
-0.114977
-0.094928
-0.0837826
-0.0801698
-0.0830741
-0.0933577
-0.111869
-0.134007
-0.149177
-0.148062
-0.131711
-0.108391
-0.0874248
-0.073626
-0.066811
-0.0660198
-0.0732176
-0.0882477
-0.103039
-0.106781
-0.0959739
-0.0792006
-0.0642204
-0.0538297
-0.0490182
-0.0500018
-0.0536355
-0.0544248
-0.0503994
-0.0457385
-0.040501
-0.0357935
-0.0341716
-0.03351
-0.0313459
-0.0297703
-0.0210996
-0.00450448
-0.346614
-0.343143
-0.336833
-0.32693
-0.3129
-0.294587
-0.27325
-0.250156
-0.22611
-0.205084
-0.189813
-0.182764
-0.185675
-0.198727
-0.219618
-0.24319
-0.262162
-0.26881
-0.257781
-0.229527
-0.191021
-0.152036
-0.119699
-0.0966757
-0.0826569
-0.0762308
-0.0762163
-0.0830184
-0.0975871
-0.116494
-0.130581
-0.131042
-0.118302
-0.098876
-0.0815496
-0.0708886
-0.0667243
-0.0684495
-0.0783915
-0.096126
-0.112752
-0.116731
-0.104221
-0.0847347
-0.0668131
-0.0540287
-0.0470943
-0.0458487
-0.0478811
-0.0478693
-0.0450691
-0.0418926
-0.0386406
-0.0361133
-0.0361974
-0.037257
-0.0350421
-0.0332755
-0.0235063
-0.00495624
-0.289283
-0.281501
-0.272347
-0.261635
-0.249436
-0.235279
-0.21906
-0.204729
-0.188939
-0.176986
-0.170878
-0.172883
-0.184254
-0.204369
-0.230172
-0.25634
-0.276088
-0.28235
-0.269877
-0.239449
-0.198476
-0.157061
-0.12244
-0.0971661
-0.0807497
-0.0717571
-0.0689535
-0.0723768
-0.082977
-0.0985104
-0.111388
-0.113237
-0.103983
-0.0883603
-0.0746822
-0.0671924
-0.0657299
-0.0700061
-0.0825896
-0.102831
-0.121184
-0.125534
-0.111592
-0.0896544
-0.068976
-0.0539462
-0.0451093
-0.0418754
-0.0424618
-0.0416141
-0.0398239
-0.0379203
-0.0366323
-0.0363513
-0.0382032
-0.040961
-0.0386287
-0.0366265
-0.0258177
-0.00540007
-0.236608
-0.223661
-0.211456
-0.198428
-0.187247
-0.176023
-0.164142
-0.157948
-0.149512
-0.146183
-0.148932
-0.159424
-0.178192
-0.20393
-0.233259
-0.261111
-0.281345
-0.287539
-0.274618
-0.243414
-0.201532
-0.159122
-0.12334
-0.096608
-0.0783727
-0.0672098
-0.0618718
-0.0621451
-0.0689191
-0.0809944
-0.0924379
-0.0964848
-0.0892273
-0.0771704
-0.0670186
-0.0625975
-0.0637474
-0.0704513
-0.0854435
-0.107999
-0.128019
-0.132978
-0.117898
-0.0938604
-0.0706954
-0.0536092
-0.0431082
-0.0381519
-0.0374638
-0.0357473
-0.0347383
-0.0338758
-0.0344989
-0.0365019
-0.0401694
-0.0445948
-0.042064
-0.039782
-0.0280045
-0.00583026
-0.194043
-0.175737
-0.160412
-0.143622
-0.13359
-0.123791
-0.118366
-0.114348
-0.11308
-0.116957
-0.12706
-0.14435
-0.168664
-0.198248
-0.229692
-0.258369
-0.278766
-0.285088
-0.272487
-0.241824
-0.200594
-0.158647
-0.122785
-0.0953156
-0.0757923
-0.0628957
-0.0554115
-0.0528856
-0.0560661
-0.0646509
-0.0742384
-0.078689
-0.07428
-0.0656056
-0.0587279
-0.0571305
-0.0606869
-0.0695876
-0.0867121
-0.111365
-0.132952
-0.138776
-0.122961
-0.0972822
-0.0719839
-0.0530609
-0.0411304
-0.0347117
-0.0329347
-0.0303409
-0.0298828
-0.0298154
-0.0322615
-0.0365563
-0.0420743
-0.0481215
-0.0453029
-0.042701
-0.0300387
-0.00624109
-0.164762
-0.14177
-0.12523
-0.112519
-0.0962823
-0.0868047
-0.0817527
-0.0806566
-0.0839577
-0.0927498
-0.107822
-0.129491
-0.157093
-0.188645
-0.220861
-0.24955
-0.269786
-0.276249
-0.264464
-0.235391
-0.196215
-0.156053
-0.121108
-0.0935787
-0.0732398
-0.0590094
-0.0497621
-0.0449189
-0.044924
-0.0500781
-0.0574823
-0.0618426
-0.0596669
-0.0539887
-0.0499924
-0.0508627
-0.0565469
-0.067356
-0.0862849
-0.112739
-0.135791
-0.142612
-0.126635
-0.0998628
-0.0728512
-0.0523364
-0.0391981
-0.031561
-0.0288913
-0.0254474
-0.0253138
-0.0257946
-0.0299372
-0.0365005
-0.0438907
-0.0514965
-0.0483047
-0.0453516
-0.031893
-0.00662555
-0.148031
-0.124006
-0.102587
-0.0853594
-0.0706152
-0.0622809
-0.0579968
-0.0583535
-0.0638403
-0.0751137
-0.0925564
-0.116068
-0.14473
-0.176519
-0.208387
-0.236494
-0.255995
-0.262392
-0.251751
-0.225142
-0.18916
-0.151847
-0.118646
-0.0916444
-0.070905
-0.0556811
-0.0450168
-0.0382764
-0.0356449
-0.0376322
-0.042668
-0.0465286
-0.0458829
-0.0426724
-0.0410488
-0.0439678
-0.0514377
-0.0637845
-0.0841142
-0.112047
-0.136483
-0.144385
-0.128836
-0.101558
-0.073298
-0.0514604
-0.0373234
-0.0286851
-0.0253104
-0.0210933
-0.0210753
-0.0218689
-0.0275382
-0.0363153
-0.0455881
-0.0546808
-0.0510339
-0.0477009
-0.0335434
-0.00697591
-0.142894
-0.119417
-0.0955969
-0.0757906
-0.0604006
-0.051054
-0.0463471
-0.046608
-0.0523404
-0.0639356
-0.0814831
-0.104668
-0.132495
-0.163039
-0.193595
-0.221189
-0.238775
-0.244772
-0.235529
-0.212081
-0.18013
-0.146425
-0.115584
-0.0896
-0.0688386
-0.0529323
-0.0411694
-0.0329211
-0.0281683
-0.0274062
-0.0300799
-0.0331126
-0.0333662
-0.0320055
-0.0321882
-0.0366807
-0.0455174
-0.0589994
-0.0802769
-0.109338
-0.135044
-0.144146
-0.129559
-0.102348
-0.0733316
-0.0504552
-0.0355177
-0.0260723
-0.0221544
-0.0172691
-0.0171963
-0.0180932
-0.0250725
-0.0359789
-0.0471334
-0.0576396
-0.0534515
-0.0497199
-0.0349736
-0.00728594
-0.145732
-0.124013
-0.100049
-0.079422
-0.0634932
-0.0513375
-0.045012
-0.0438325
-0.0481924
-0.0583466
-0.0742175
-0.0953879
-0.120872
-0.148842
-0.177066
-0.205213
-0.218876
-0.224461
-0.216984
-0.197253
-0.169868
-0.140216
-0.112138
-0.08756
-0.0671299
-0.0508386
-0.0382652
-0.028852
-0.0224444
-0.0194072
-0.0198364
-0.0218078
-0.0231524
-0.0222592
-0.0236958
-0.029272
-0.0390057
-0.0531113
-0.0748743
-0.104777
-0.131562
-0.141983
-0.128851
-0.102286
-0.0730433
-0.0494111
-0.0338321
-0.0237315
-0.0194203
-0.0139653
-0.0136823
-0.0145193
-0.0225392
-0.0354686
-0.0484929
-0.0603387
-0.0556165
-0.0513916
-0.0361718
-0.00755331
-0.15281
-0.133656
-0.111446
-0.0900531
-0.0736788
-0.0598898
-0.0514327
-0.0480035
-0.0497981
-0.0572494
-0.0701526
-0.088081
-0.110082
-0.134337
-0.158099
-0.176497
-0.195844
-0.202625
-0.197587
-0.182024
-0.159479
-0.13409
-0.109017
-0.086137
-0.0663312
-0.0498892
-0.0366947
-0.0263414
-0.0186076
-0.0137
-0.0120465
-0.0126693
-0.0136631
-0.0135256
-0.015809
-0.0219694
-0.0321309
-0.0464802
-0.0682999
-0.0984978
-0.126192
-0.138034
-0.126812
-0.101491
-0.072589
-0.0485002
-0.032369
-0.0216671
-0.0170903
-0.0112292
-0.010525
-0.0111895
-0.019941
-0.0347656
-0.0496259
-0.0627309
-0.0579594
-0.0527042
-0.0371143
-0.00777271
-0.159309
-0.141978
-0.121611
-0.102322
-0.085056
-0.0713418
-0.0618671
-0.0563939
-0.0550081
-0.058872
-0.0679573
-0.0818596
-0.0998449
-0.120258
-0.140895
-0.159191
-0.173378
-0.180441
-0.178089
-0.16693
-0.149369
-0.128375
-0.106486
-0.0855082
-0.0665312
-0.050109
-0.0364089
-0.02526
-0.0164589
-0.0100149
-0.00645635
-0.00563241
-0.00606202
-0.00616016
-0.00886066
-0.0150741
-0.0250558
-0.0389984
-0.0604532
-0.0910796
-0.119502
-0.132306
-0.123341
-0.0997339
-0.0716893
-0.0475674
-0.0310258
-0.0197559
-0.0149549
-0.00896998
-0.0079239
-0.00821916
-0.017224
-0.0338383
-0.0505203
-0.0647471
-0.0594722
-0.0536243
-0.037754
-0.00791476
-0.167875
-0.153674
-0.137741
-0.119473
-0.10215
-0.0874301
-0.0758596
-0.0679479
-0.0641423
-0.0643686
-0.0690493
-0.0780787
-0.0908491
-0.106255
-0.122936
-0.137723
-0.150753
-0.157129
-0.15677
-0.14944
-0.136329
-0.119399
-0.100657
-0.0818087
-0.0640829
-0.0482192
-0.0345437
-0.023102
-0.0138168
-0.00647005
-0.00144998
0.000695892
0.000574821
-0.000829753
-0.00296449
-0.00895096
-0.0185004
-0.0318081
-0.0523083
-0.0823552
-0.110878
-0.124664
-0.1176
-0.0961148
-0.0691254
-0.0455276
-0.0290753
-0.0176164
-0.0126629
-0.006614
-0.00558313
-0.0055776
-0.0145256
-0.0326975
-0.0510721
-0.0663575
-0.0603783
-0.05413
-0.0380659
-0.00792668
-0.160744
-0.153114
-0.13808
-0.121385
-0.105894
-0.0926103
-0.0819128
-0.0741331
-0.0694806
-0.0683826
-0.0713454
-0.0783317
-0.0888274
-0.101847
-0.115799
-0.128517
-0.138735
-0.143821
-0.142826
-0.135753
-0.123699
-0.108315
-0.0912979
-0.074087
-0.0577381
-0.0429058
-0.0298909
-0.0187642
-0.00953198
-0.00196465
0.00371486
0.00695596
0.00766044
0.00693463
0.00417583
-0.00111223
-0.00952042
-0.0218855
-0.0422023
-0.0739492
-0.105298
-0.12134
-0.11433
-0.092249
-0.0653849
-0.042272
-0.026351
-0.0152708
-0.0104155
-0.00394528
-0.0025079
-0.00208437
-0.0111424
-0.0311143
-0.0514107
-0.0679856
-0.0611967
-0.0542738
-0.0381371
-0.0078421
-0.154335
-0.148653
-0.135129
-0.119992
-0.106441
-0.0950579
-0.0857459
-0.0786187
-0.0740604
-0.0725733
-0.0744663
-0.07966
-0.0876851
-0.0976779
-0.108333
-0.11795
-0.12528
-0.128481
-0.12677
-0.120237
-0.109692
-0.0963644
-0.0815425
-0.0663545
-0.0516812
-0.0381096
-0.0259446
-0.0153319
-0.00636711
0.00120358
0.00722381
0.0110188
0.0119771
0.0107556
0.00876975
0.00440821
-0.00284045
-0.014084
-0.0338025
-0.066295
-0.0987596
-0.114897
-0.107585
-0.0861193
-0.0606258
-0.0388167
-0.0237022
-0.013016
-0.00828832
-0.00181213
-0.00050281
0.000431188
-0.00860356
-0.0297916
-0.0516106
-0.0690083
-0.0614008
-0.0537962
-0.0378326
-0.00777131
-0.146817
-0.14244
-0.13105
-0.117844
-0.106054
-0.0962665
-0.0882258
-0.0819408
-0.0777378
-0.0759764
-0.0768498
-0.0802694
-0.0858273
-0.0928393
-0.100502
-0.10737
-0.112263
-0.114051
-0.11213
-0.106445
-0.0974604
-0.0860179
-0.0730964
-0.0596171
-0.0463472
-0.0338435
-0.0224313
-0.012273
-0.00354234
0.00393504
0.0100683
0.014247
0.0156082
0.0148314
0.0129379
0.00905541
0.00245078
-0.00824681
-0.0274588
-0.0590854
-0.0903775
-0.106183
-0.0993909
-0.0792316
-0.055539
-0.0352
-0.0209798
-0.0107629
-0.00619755
0.000190812
0.00137349
0.0024946
-0.00670153
-0.0287462
-0.0515835
-0.0694143
-0.0611375
-0.0528252
-0.0372085
-0.00770655
-0.137354
-0.135233
-0.126253
-0.114999
-0.104782
-0.096361
-0.0894662
-0.0839603
-0.080022
-0.0779231
-0.0778315
-0.0796959
-0.083208
-0.0877086
-0.0930632
-0.0976564
-0.100762
-0.101551
-0.0994663
-0.0943663
-0.0865304
-0.0765646
-0.0652223
-0.0532453
-0.0412758
-0.0298074
-0.0191655
-0.00951076
-0.00106558
0.00624225
0.0123597
0.01684
0.0187413
0.0184981
0.0169504
0.0136939
0.00766814
-0.00262699
-0.020928
-0.0506828
-0.080648
-0.0963423
-0.090155
-0.07158
-0.0499387
-0.0313381
-0.0181835
-0.00851808
-0.00413603
0.00210947
0.00318768
0.00434243
-0.00493459
-0.0275056
-0.0510496
-0.0691958
-0.0604033
-0.0513925
-0.0362125
-0.00761987
-0.127757
-0.127587
-0.120702
-0.11125
-0.102471
-0.0952495
-0.0893437
-0.0845118
-0.0808216
-0.0784907
-0.0776788
-0.0783791
-0.0804016
-0.0834824
-0.0864032
-0.0891333
-0.0907986
-0.0906959
-0.0883654
-0.0836591
-0.0767401
-0.0680215
-0.0580522
-0.0474087
-0.0366189
-0.0261126
-0.0162153
-0.00708597
0.00103962
0.00814674
0.0141623
0.0188092
0.0211923
0.0215589
0.0206825
0.0182951
0.0131237
0.00360881
-0.0133033
-0.0411906
-0.0699846
-0.0852843
-0.0799001
-0.0632552
-0.0439494
-0.0273007
-0.0153488
-0.00629998
-0.00211125
0.00393397
0.00487714
0.00600134
-0.00306658
-0.0258081
-0.0498681
-0.0682067
-0.0590917
-0.0494493
-0.0348076
-0.00749091
-0.118494
-0.11946
-0.114331
-0.106573
-0.0991451
-0.0929965
-0.0879555
-0.0837453
-0.0803533
-0.0779361
-0.0766315
-0.0764473
-0.07723
-0.0787017
-0.0802604
-0.0815717
-0.0820631
-0.0812173
-0.0786715
-0.0742737
-0.0680932
-0.0603971
-0.0515805
-0.0420896
-0.0323582
-0.0227495
-0.0135743
-0.00499118
0.00277215
0.00965143
0.0155168
0.0202122
0.022984
0.0240141
0.0239573
0.0226571
0.0186913
0.0103063
-0.00518621
-0.0312885
-0.0585794
-0.0732385
-0.0688835
-0.0544839
-0.0377037
-0.0231405
-0.0125023
-0.00412679
-0.000137671
0.00565511
0.00645001
0.007462
-0.00109465
-0.0236079
-0.047891
-0.0662283
-0.057089
-0.0469731
-0.0329734
-0.00729745
-0.109074
-0.110915
-0.10734
-0.10113
-0.0949465
-0.0897647
-0.0854971
-0.0818678
-0.0788031
-0.0764002
-0.0747722
-0.0739412
-0.0738048
-0.0741313
-0.074575
-0.0747924
-0.0743822
-0.0729628
-0.0702426
-0.0660738
-0.0604721
-0.0536092
-0.045767
-0.0372824
-0.0285055
-0.0197345
-0.0112543
-0.00322455
0.00413948
0.0107595
0.016458
0.0211346
0.0241941
0.025787
0.0265748
0.0264865
0.0239852
0.0168804
0.00269715
-0.0214823
-0.0468429
-0.0604427
-0.0574296
-0.0455221
-0.0313661
-0.0189318
-0.00967406
-0.0020158
0.00177401
0.00727582
0.0079332
0.00871836
0.000920753
-0.0208583
-0.0449291
-0.0630665
-0.0543073
-0.043973
-0.0307099
-0.00701863
-0.0996686
-0.102281
-0.0999936
-0.0951156
-0.0900379
-0.0857228
-0.0821457
-0.0790471
-0.0763153
-0.074001
-0.0721946
-0.0709279
-0.070137
-0.0696602
-0.0692603
-0.0686686
-0.0675889
-0.0657352
-0.0628789
-0.0588913
-0.0537608
-0.0475922
-0.0405813
-0.0329762
-0.0250562
-0.0170637
-0.00925044
-0.00177242
0.00516664
0.0114914
0.0170085
0.0216313
0.024898
0.0269377
0.0284305
0.0294471
0.0284525
0.0226994
0.0098107
-0.0122742
-0.0352443
-0.0476123
-0.0459421
-0.0366634
-0.0251218
-0.0147605
-0.00689169
2.11655e-05
0.00361752
0.00880395
0.00935677
0.00979775
0.00297637
-0.0174685
-0.0408348
-0.0585914
-0.0506925
-0.0404874
-0.0280441
-0.00663768
-0.0907075
-0.0937517
-0.0924398
-0.0886801
-0.0845736
-0.0810283
-0.078064
-0.0754472
-0.0730473
-0.0708801
-0.0690148
-0.0674878
-0.066265
-0.0652379
-0.0642394
-0.0630695
-0.0615089
-0.0593467
-0.0564086
-0.052587
-0.0478555
-0.0422741
-0.0359766
-0.0291434
-0.0219941
-0.0147246
-0.0075504
-0.000617287
0.00588345
0.0118808
0.0171905
0.0217296
0.02514
0.0275163
0.0295012
0.0313073
0.0315304
0.0270552
0.0155875
-0.00403959
-0.0241026
-0.0351434
-0.0348777
-0.0282134
-0.0191572
-0.0107205
-0.00418358
0.00197661
0.00538991
0.0102523
0.0107651
0.0107852
0.00512942
-0.01339
-0.0355669
-0.0527745
-0.0462454
-0.0365881
-0.0250354
-0.00614529
-0.0821573
-0.0853704
-0.0848033
-0.0819797
-0.0787129
-0.0758412
-0.0734171
-0.0712357
-0.0691594
-0.067179
-0.0653453
-0.0636957
-0.0622166
-0.0608375
-0.0594412
-0.0578829
-0.0560036
-0.053649
-0.0506876
-0.0470319
-0.0426508
-0.0375764
-0.0318995
-0.0257498
-0.0192969
-0.0126978
-0.00613365
0.000264303
0.00632154
0.0119664
0.0170386
0.0214569
0.0249428
0.0275546
0.0298302
0.0320137
0.0329223
0.0295037
0.0197153
0.00304955
-0.0138076
-0.0236039
-0.0247117
-0.0204505
-0.0136351
-0.0069054
-0.0015822
0.00384201
0.00708841
0.0116406
0.0122139
0.0118172
0.0074415
-0.00868177
-0.0292342
-0.0457408
-0.0410446
-0.0323795
-0.0217772
-0.00554241
-0.0739364
-0.0772282
-0.0772332
-0.0751711
-0.0726102
-0.0703166
-0.0683628
-0.0665704
-0.064802
-0.0630315
-0.0612946
-0.0596259
-0.0580253
-0.0564493
-0.0548175
-0.0530274
-0.0509646
-0.0485174
-0.0455879
-0.0421078
-0.0380477
-0.0334232
-0.0282951
-0.0227559
-0.0169349
-0.0109573
-0.00497335
0.000901775
0.00651439
0.0117904
0.0165936
0.0208479
0.0243338
0.0270809
0.029486
0.0317103
0.0328091
0.0302163
0.0222701
0.00878019
-0.00494594
-0.0135857
-0.0158414
-0.0135781
-0.00867131
-0.00339533
0.000875713
0.00560157
0.0086995
0.0129854
0.0137506
0.013046
0.00994529
-0.00352962
-0.0221333
-0.0378072
-0.0352602
-0.0279911
-0.0183943
-0.00484273
-0.0661563
-0.0694285
-0.0698387
-0.0683774
-0.0663995
-0.0645948
-0.0630453
-0.0615961
-0.0601145
-0.0585635
-0.056966
-0.0553536
-0.0537329
-0.0520798
-0.0503403
-0.0484424
-0.0463049
-0.0438483
-0.0410016
-0.0377132
-0.0339579
-0.0297422
-0.025107
-0.0201181
-0.0148737
-0.00947293
-0.00403852
0.00132922
0.00649796
0.0113961
0.0159022
0.0199471
0.0233638
0.0261474
0.0285511
0.0306219
0.0316402
0.0296761
0.0234468
0.0129029
0.00199303
-0.00549246
-0.00847368
-0.00769378
-0.0043247
-0.000247593
0.00315267
0.00723394
0.0101936
0.0142716
0.015377
0.0145913
0.0126336
0.00175588
-0.0147499
-0.0294758
-0.0291502
-0.0235648
-0.0150307
-0.00407453
-0.0588638
-0.0620084
-0.0626871
-0.0616967
-0.0601967
-0.0588007
-0.0575943
-0.0564435
-0.0552235
-0.0538912
-0.0524596
-0.0509542
-0.0493866
-0.047745
-0.0459942
-0.0440841
-0.041958
-0.0395603
-0.0368404
-0.0337609
-0.0303017
-0.0264653
-0.0222795
-0.0177917
-0.0130761
-0.00821089
-0.00329603
0.00158302
0.00631304
0.0108258
0.0150145
0.0188129
0.0221031
0.0248264
0.0271295
0.0289684
0.0298127
0.0282989
0.0234973
0.0154379
0.00694484
0.000672678
-0.00259934
-0.0027997
-0.000606295
0.00250603
0.00521326
0.00871741
0.0115357
0.015434
0.0170002
0.0164674
0.0154197
0.00676464
-0.00768433
-0.0213509
-0.0230306
-0.0192412
-0.0118311
-0.00327929
-0.0520266
-0.0549896
-0.0558402
-0.0552142
-0.0541005
-0.0530412
-0.0521217
-0.0512267
-0.0502405
-0.0491174
-0.0478629
-0.0464973
-0.045033
-0.0434663
-0.0417745
-0.0399239
-0.0378749
-0.0355893
-0.0330321
-0.030177
-0.0270093
-0.0235304
-0.0197595
-0.0157319
-0.0115036
-0.00713619
-0.00271106
0.00169987
0.00600015
0.0101258
0.0139829
0.017509
0.0206033
0.0232024
0.0253459
0.0269443
0.0276117
0.0264244
0.0227656
0.016705
0.0102099
0.00519634
0.00191685
0.0011596
0.00250423
0.00485606
0.00702805
0.0100291
0.0126967
0.0163856
0.0184326
0.0184565
0.0180299
0.0110383
-0.00149902
-0.0139721
-0.0172092
-0.0151484
-0.0089208
-0.00250495
-0.045648
-0.0484004
-0.049346
-0.0489945
-0.0481883
-0.0474028
-0.0467201
-0.0460417
-0.0452617
-0.0443325
-0.0432547
-0.0420459
-0.0407174
-0.0392683
-0.0376849
-0.0359446
-0.0340203
-0.0318862
-0.0295185
-0.0268999
-0.0240204
-0.0208816
-0.0174977
-0.0138956
-0.0101178
-0.0062137
-0.00224889
0.00171603
0.00559977
0.00934339
0.0128613
0.0160955
0.0189552
0.021381
0.0233379
0.0247216
0.0252541
0.0243328
0.0215758
0.0170695
0.01216
0.00839553
0.00524796
0.00426729
0.00504349
0.00680949
0.00857645
0.011142
0.0136481
0.0170644
0.0194665
0.0201068
0.0199948
0.0141685
0.00343138
-0.00767868
-0.0119237
-0.0113933
-0.0063939
-0.00179736
-0.0397311
-0.0422502
-0.0432315
-0.0430831
-0.0425195
-0.0419544
-0.0414648
-0.0409667
-0.0403647
-0.0396119
-0.0387055
-0.0376597
-0.0364832
-0.0351771
-0.0337333
-0.0321371
-0.0303697
-0.0284138
-0.026254
-0.0238794
-0.021284
-0.0184703
-0.0154494
-0.0122424
-0.00888256
-0.00540927
-0.00187589
0.0016669
0.0051503
0.00852038
0.0117005
0.014637
0.0172446
0.0194685
0.0212351
0.0224449
0.0228966
0.0222114
0.020162
0.016826
0.0130552
0.00969538
0.00752189
0.00662138
0.00705771
0.00838468
0.00984605
0.012029
0.0143526
0.0174204
0.0199628
0.0210035
0.0209087
0.0159672
0.00697437
-0.00261546
-0.00734092
-0.00806681
-0.00429935
-0.00119237
-0.0342582
-0.036537
-0.0375133
-0.0375125
-0.0371382
-0.0367487
-0.0364145
-0.0360647
-0.0356141
-0.0350185
-0.0342727
-0.0333874
-0.0323685
-0.0312177
-0.0299308
-0.0284982
-0.0269068
-0.0251452
-0.0232034
-0.0210754
-0.0187581
-0.0162549
-0.0135751
-0.0107361
-0.00776411
-0.00469101
-0.00156056
0.00158483
0.00468661
0.00769702
0.0105479
0.0131909
0.0155459
0.0175574
0.0191444
0.0202216
0.0206395
0.0201701
0.0186804
0.016234
0.0133283
0.010306
0.00905034
0.00835001
0.00860433
0.00960696
0.0108336
0.012675
0.0147796
0.0174266
0.0198205
0.0209775
0.0207451
0.0165749
0.00921595
0.00120457
-0.00357226
-0.00522075
-0.00262824
-0.000706707
-0.0292154
-0.0312566
-0.032199
-0.0323019
-0.0320738
-0.0318227
-0.0316125
-0.0313832
-0.0310602
-0.0306019
-0.0300011
-0.029268
-0.0284047
-0.0274124
-0.026289
-0.0250285
-0.0236219
-0.0220613
-0.0203405
-0.0184566
-0.0164088
-0.0142011
-0.0118417
-0.00934507
-0.00673262
-0.00403042
-0.00127475
0.00149896
0.0042407
0.00690985
0.00944548
0.0118041
0.0139125
0.0157194
0.0171457
0.0181246
0.0185431
0.0182709
0.0172302
0.0154868
0.013347
0.0111124
0.0101335
0.00958554
0.00974592
0.010507
0.0115465
0.0130781
0.0149273
0.017133
0.0191402
0.0202046
0.0198066
0.0163341
0.0103927
0.00387469
-0.000654259
-0.00287754
-0.00133039
-0.000334254
-0.0245856
-0.0263971
-0.0272864
-0.0274599
-0.0273437
-0.027201
-0.0270886
-0.0269564
-0.0267396
-0.0264005
-0.0259316
-0.025335
-0.0246184
-0.0237805
-0.0228192
-0.0217309
-0.0205094
-0.0191493
-0.0176462
-0.0159996
-0.0142097
-0.0122813
-0.0102215
-0.00804285
-0.00576288
-0.00340326
-0.000994105
0.0014349
0.00384098
0.0061897
0.00842738
0.0105161
0.0123913
0.0140083
0.0152942
0.0161999
0.0166388
0.0165427
0.0158677
0.0146835
0.0131945
0.0116886
0.0108597
0.0104258
0.0105395
0.0111209
0.0120016
0.0132535
0.0148183
0.0165974
0.0181528
0.0189861
0.0184532
0.0155924
0.010799
0.00557981
0.00146927
-0.00102206
-0.000339625
-5.37809e-05
-0.0203471
-0.0219423
-0.0227679
-0.0229873
-0.022956
-0.0228972
-0.0228611
-0.0228057
-0.0226755
-0.0224365
-0.0220788
-0.021607
-0.0210275
-0.0203367
-0.0195314
-0.0186095
-0.0175673
-0.0164009
-0.0151074
-0.0136871
-0.0121412
-0.0104744
-0.00869324
-0.00680834
-0.00483453
-0.00278974
-0.000699061
0.00141267
0.00350937
0.00556123
0.00752142
0.0093581
0.011016
0.0124595
0.0136235
0.0144717
0.014939
0.014996
0.014616
0.0138659
0.012886
0.0118948
0.0112669
0.0109406
0.0110371
0.0114853
0.0122219
0.0132258
0.0144982
0.0158801
0.017018
0.0175768
0.0169472
0.0146025
0.0107099
0.00654846
0.0029255
0.0003862
0.000403235
0.000157603
-0.01648
-0.0178754
-0.018632
-0.018879
-0.0189113
-0.0189169
-0.0189396
-0.0189444
-0.018884
-0.018729
-0.0184684
-0.0181054
-0.0176484
-0.0170929
-0.0164337
-0.0156684
-0.0147951
-0.0138115
-0.0127154
-0.0115074
-0.0101891
-0.00876496
-0.00724078
-0.00562571
-0.00393213
-0.00217492
-0.000375082
0.00144677
0.00326039
0.00504059
0.00674701
0.00835194
0.00980842
0.0110943
0.0121478
0.0129493
0.0134448
0.0136272
0.0134768
0.0130565
0.0124631
0.0118382
0.0114105
0.0111886
0.0112854
0.0116344
0.0122389
0.0130266
0.0140191
0.0150486
0.0158261
0.0161323
0.0154422
0.0135199
0.0103333
0.00699207
0.00384441
0.00141433
0.000945467
0.000316509
-0.0129642
-0.0141769
-0.0148633
-0.0151247
-0.0152042
-0.015259
-0.0153265
-0.0153783
-0.0153741
-0.0152888
-0.0151131
-0.0148482
-0.0144948
-0.0140587
-0.0135323
-0.0129111
-0.0121935
-0.0113786
-0.0104649
-0.00945296
-0.00834418
-0.00714253
-0.00585324
-0.00448402
-0.0030451
-0.00154899
-1.29042e-05
0.00154617
0.0031025
0.00463561
0.00611227
0.00750817
0.00878196
0.00991579
0.010865
0.0116297
0.0121485
0.0124247
0.0124472
0.0122713
0.01197
0.0116021
0.011348
0.0112218
0.0113264
0.0116022
0.0120877
0.0126895
0.0134287
0.0141579
0.0146417
0.0147419
0.0140195
0.012433
0.00980955
0.00708799
0.00442457
0.00214057
0.00132603
0.000432763
-0.009778
-0.0108263
-0.0114443
-0.0117109
-0.0118252
-0.0119172
-0.0120186
-0.0121063
-0.0121468
-0.012118
-0.0120116
-0.0118256
-0.0115606
-0.0112352
-0.0108294
-0.0103395
-0.0097635
-0.00910156
-0.00835335
-0.00751938
-0.00660083
-0.00560095
-0.00452419
-0.00337697
-0.00216781
-0.000906871
0.000391733
0.00171378
0.00303875
0.00434947
0.00561802
0.00682628
0.00793784
0.00893103
0.00975856
0.0105042
0.0110358
0.0113764
0.0115231
0.0115161
0.0113896
0.0112397
0.0111304
0.0110869
0.011201
0.0114228
0.0118022
0.0122467
0.0127689
0.0132517
0.013505
0.0134484
0.012718
0.0113889
0.00922431
0.00696678
0.00471888
0.00262261
0.00157731
0.000513289
-0.00690108
-0.00780312
-0.00835656
-0.00862231
-0.0087618
-0.0088817
-0.00900878
-0.00912429
-0.00920081
-0.00922015
-0.00917567
-0.00906694
-0.00889536
-0.00864545
-0.00833511
-0.00795713
-0.00750597
-0.00698015
-0.00637954
-0.0057047
-0.0049565
-0.00413739
-0.00325096
-0.00230243
-0.00129873
-0.000248073
0.000838132
0.0019485
0.00306635
0.00417777
0.0052608
0.00630118
0.00727297
0.00816716
0.00897235
0.00959135
0.010098
0.0104724
0.0107022
0.0108148
0.0108341
0.010812
0.0108057
0.0108262
0.0109475
0.0111274
0.0114143
0.0117293
0.0120733
0.0123581
0.0124383
0.0122682
0.0115504
0.0104127
0.00862226
0.00671735
0.00480415
0.00291239
0.00172886
0.000564219
-0.00431389
-0.00508703
-0.00558072
-0.00584146
-0.00599879
-0.00613918
-0.00628476
-0.00642055
-0.00652409
-0.00658023
-0.00658268
-0.00653032
-0.00642266
-0.00625831
-0.0060362
-0.00575721
-0.00541676
-0.00501195
-0.00454221
-0.00400816
-0.0034107
-0.00275173
-0.002034
-0.00126159
-0.000440032
0.000424156
0.00132193
0.00224419
0.00317762
0.00411122