/*--------------------------------*- C++ -*----------------------------------*\
| =========                 |                                                 |
| \\      /  F ield         | OpenFOAM: The Open Source CFD Toolbox           |
|  \\    /   O peration     | Version:  2512                                  |
|   \\  /    A nd           | Website:  www.openfoam.com                      |
|    \\/     M anipulation  |                                                 |
\*---------------------------------------------------------------------------*/
FoamFile
{
    version     2.0;
    format      ascii;
    arch        "LSB;label=32;scalar=64";
    class       volVectorField;
    location    "113.5";
    object      U;
}
// * * * * * * * * * * * * * * * * * * * * * * * * * * * * * * * * * * * * * //

dimensions      [0 1 -1 0 0 0 0];

internalField   nonuniform List<vector> 
13248
(
(-0.0107877 0.0100546 7.40226e-20)
(-0.0168314 0.0177915 0)
(-0.00943375 0.0181143 -1.4076e-19)
(0.0102788 0.0139353 1.32599e-19)
(0.0418256 0.00739007 1.24605e-19)
(0.0849608 3.7096e-05 0)
(0.139403 -0.00700766 0)
(0.204613 -0.0129451 2.99115e-19)
(0.279613 -0.0172058 -3.17952e-21)
(0.362874 -0.0194076 -2.58077e-19)
(0.452304 -0.0193417 2.33007e-19)
(0.545342 -0.0169719 -1.45217e-19)
(0.639138 -0.0124307 0)
(0.730782 -0.00600445 -2.29777e-19)
(0.817548 0.00189661 4.21783e-19)
(0.897108 0.0107791 -9.9441e-20)
(0.967693 0.0201165 -1.63644e-19)
(1.02818 0.0293858 1.53624e-19)
(1.0781 0.0381525 0)
(1.11761 0.0459262 0)
(1.14748 0.0527597 0)
(1.16842 0.0574691 0)
(1.18297 0.062313 4.03767e-20)
(1.19003 0.0618024 1.39968e-19)
(-0.0101481 0.00869838 -2.23661e-19)
(-0.0116752 0.0144078 1.52847e-19)
(0.0040338 0.0139654 -1.0128e-21)
(0.035388 0.00989859 -2.02454e-19)
(0.0814902 0.00422328 -1.24467e-19)
(0.141603 -0.00148871 -1.17521e-19)
(0.214744 -0.00610263 -2.15689e-19)
(0.299409 -0.00884196 2.03567e-19)
(0.393402 -0.00923455 0)
(0.493805 -0.00709065 2.10265e-21)
(0.597127 -0.00248734 4.43557e-21)
(0.699585 0.00426021 1.4498e-19)
(0.797465 0.0126488 0)
(0.887483 0.0220565 0)
(0.967067 0.0318215 1.52313e-19)
(1.03455 0.041318 -2.85746e-19)
(1.08921 0.0500186 1.62256e-19)
(1.13126 0.0575327 -1.52332e-19)
(1.16165 0.0636318 -6.52275e-20)
(1.18194 0.0682006 -1.12996e-19)
(1.19391 0.0713808 -4.50721e-20)
(1.19977 0.0728883 -8.30855e-20)
(1.2009 0.0742193 1.25783e-19)
(1.19942 0.0715368 3.55656e-20)
(-0.00831978 0.00669568 0)
(-0.00273926 0.00940061 0)
(0.0239772 0.00777537 7.16455e-20)
(0.0697308 0.00396333 6.62287e-20)
(0.133045 -0.00018276 -1.46232e-21)
(0.212367 -0.00315856 -1.20485e-19)
(0.305536 -0.00394433 0)
(0.409524 -0.00197665 -1.0095e-19)
(0.520401 0.00288529 9.36235e-20)
(0.633552 0.010394 1.76891e-22)
(0.744111 0.0199793 -1.56334e-19)
(0.847492 0.0308529 -1.39443e-19)
(0.939892 0.0421366 5.21474e-21)
(1.01865 0.0529912 -1.07706e-19)
(1.08243 0.0627233 2.64032e-19)
(1.13118 0.0708526 0)
(1.16597 0.0771373 -1.60089e-19)
(1.18866 0.081553 7.7952e-20)
(1.20162 0.0842602 6.51695e-20)
(1.2073 0.0854865 0)
(1.20805 0.0856473 5.11058e-20)
(1.20579 0.0846869 -1.74912e-19)
(1.20183 0.0838966 1.64194e-19)
(1.19803 0.0802651 1.01343e-19)
(-0.0050726 0.0042742 -7.88651e-20)
(0.0107121 0.00348378 -8.14168e-20)
(0.0515901 0.000774993 7.39518e-20)
(0.114754 -0.00213946 0)
(0.197797 -0.00365722 0)
(0.29782 -0.00249152 -1.87959e-21)
(0.410855 0.00203217 0)
(0.531789 0.00997496 -3.04586e-19)
(0.654686 0.0208545 2.81352e-19)
(0.773416 0.0337657 -3.45286e-19)
(0.882418 0.0475618 7.80419e-20)
(0.977378 0.061064 0)
(1.05565 0.0732522 1.24294e-19)
(1.11638 0.0833995 -2.28026e-19)
(1.16033 0.0911297 5.40576e-20)
(1.1895 0.0964027 1.31918e-19)
(1.2066 0.0994427 -8.93794e-21)
(1.21464 0.100639 -1.46021e-19)
(1.21644 0.100441 0)
(1.21437 0.0992669 0)
(1.21023 0.0975125 -4.92374e-20)
(1.2052 0.0952043 4.35928e-20)
(1.20001 0.0933091 1.51944e-19)
(1.19511 0.0890507 -1.42645e-19)
(-9.44573e-05 0.00163526 -8.26514e-20)
(0.0294652 -0.00260671 -8.2455e-20)
(0.0879277 -0.00570674 2.32097e-19)
(0.171407 -0.00653261 -1.41077e-19)
(0.276 -0.00391926 1.32792e-19)
(0.396762 0.00294029 2.41266e-19)
(0.527291 0.0140381 -1.69891e-19)
(0.660126 0.0285952 -2.04353e-19)
(0.787635 0.0452747 5.62674e-21)
(0.903088 0.0624744 2.5999e-19)
(1.00156 0.0786459 0)
(1.08043 0.0925623 6.94923e-20)
(1.13937 0.103475 0)
(1.17998 0.111144 -1.09318e-19)
(1.20517 0.115758 1.53107e-19)
(1.21842 0.117795 1.02179e-21)
(1.22318 0.11786 -3.89283e-20)
(1.22247 0.116553 7.07998e-20)
(1.2186 0.114379 6.11118e-20)
(1.21318 0.111705 -5.40994e-20)
(1.20722 0.108784 4.92254e-20)
(1.20126 0.105642 -4.35819e-20)
(1.1955 0.102833 0)
(1.19033 0.0982224 -3.31485e-20)
(0.00697391 -0.00100504 8.26396e-20)
(0.0542402 -0.00807485 8.64095e-20)
(0.133668 -0.010274 -7.7676e-20)
(0.239764 -0.00734366 1.44432e-19)
(0.366395 0.00111387 -1.35943e-19)
(0.505868 0.0150333 1.2256e-19)
(0.649042 0.0333312 -5.87616e-20)
(0.786489 0.0541344 1.53637e-19)
(0.909985 0.0752491 -9.62223e-20)
(1.01374 0.0946422 1.67664e-19)
(1.09501 0.110811 -3.84844e-19)
(1.15395 0.122961 1.40587e-19)
(1.19296 0.130992 -1.20255e-19)
(1.2158 0.135333 1.12956e-19)
(1.22661 0.136711 9.50291e-20)
(1.22927 0.13594 8.16212e-20)
(1.2269 0.133754 -2.27388e-19)
(1.22181 0.130726 1.40246e-19)
(1.21548 0.12725 -6.11136e-20)
(1.2088 0.123567 1.57664e-19)
(1.20224 0.119808 -5.09524e-20)
(1.196 0.115997 -1.21913e-19)
(1.19016 0.112422 1.12191e-19)
(1.1848 0.10757 3.31381e-20)
(0.0164752 -0.00337355 0)
(0.0855317 -0.0120269 5.70707e-22)
(0.18887 -0.011502 1.61204e-19)
(0.318752 -0.00285977 -1.51353e-19)
(0.466065 0.0130472 -1.36248e-19)
(0.61996 0.0348121 2.52909e-19)
(0.768917 0.0599713 -1.173e-19)
(0.902748 0.0855675 1.55214e-19)
(1.01435 0.108894 -3.97165e-21)
(1.1005 0.12803 -8.72293e-20)
(1.16165 0.142058 1.87558e-19)
(1.20093 0.150989 -2.75671e-19)
(1.2229 0.155485 0)
(1.23239 0.156536 -5.29095e-20)
(1.2337 0.155167 -1.39218e-19)
(1.23016 0.152257 4.40781e-20)
(1.2241 0.148464 2.04746e-21)
(1.217 0.144222 -9.22456e-20)
(1.20967 0.139792 7.04978e-21)
(1.20255 0.135315 1.06099e-19)
(1.19583 0.130855 -4.62838e-20)
(1.18954 0.126442 -1.74023e-20)
(1.18365 0.122164 5.42883e-20)
(1.17816 0.117109 0)
(0.0286616 -0.00511732 0)
(0.123449 -0.0134637 4.36778e-20)
(0.252795 -0.00799313 -2.09701e-19)
(0.406074 0.00833067 7.61518e-20)
(0.570688 0.0328227 -7.16715e-20)
(0.732856 0.0623313 -6.51353e-20)
(0.879881 0.0929843 -1.1483e-19)
(1.00264 0.121128 5.75588e-20)
(1.09689 0.144173 4.98456e-20)
(1.16299 0.160917 0)
(1.20466 0.171405 1.11062e-19)
(1.22728 0.176528 -1.63981e-19)
(1.23644 0.177554 1.21809e-19)
(1.23699 0.175759 5.29365e-20)
(1.23259 0.172206 -4.26373e-20)
(1.22573 0.167666 -3.48171e-20)
(1.21791 0.162642 -3.20926e-20)
(1.20997 0.157428 9.77178e-20)
(1.20231 0.152182 0)
(1.19511 0.146984 4.78128e-20)
(1.1884 0.141868 3.9444e-20)
(1.18215 0.136852 -9.87773e-20)
(1.17628 0.131911 -6.64617e-20)
(1.17073 0.126652 6.15164e-20)
(0.0436281 -0.00580867 -4.68255e-20)
(0.167589 -0.0113272 -1.56668e-21)
(0.323825 0.00151674 4.25661e-20)
(0.49836 0.0271917 1.1846e-19)
(0.675144 0.0606329 3.42155e-20)
(0.838522 0.0968016 -6.623e-20)
(0.976493 0.130794 6.05591e-20)
(1.08288 0.158965 -5.29341e-20)
(1.15739 0.179535 9.4215e-20)
(1.20406 0.19244 3.97417e-20)
(1.22909 0.198764 -1.12765e-19)
(1.23899 0.200097 3.29773e-20)
(1.23936 0.198031 5.56115e-20)
(1.23436 0.193874 -2.74794e-20)
(1.22678 0.188564 0)
(1.21825 0.182699 3.99093e-20)
(1.20966 0.176629 6.6698e-20)
(1.20143 0.170537 1.08012e-20)
(1.19372 0.164517 -5.51018e-20)
(1.18657 0.15861 2.27596e-20)
(1.17993 0.152837 0)
(1.17375 0.147196 -1.75742e-20)
(1.16793 0.14163 -1.6438e-20)
(1.16237 0.136118 0)
(0.0612563 -0.00497733 0)
(0.216963 -0.00459987 2.44932e-20)
(0.39952 0.0180133 4.52076e-20)
(0.591528 0.054121 -1.20428e-19)
(0.774292 0.0959581 3.88125e-20)
(0.932081 0.136878 0)
(1.05562 0.171697 5.79604e-20)
(1.143 0.197587 -8.08126e-20)
(1.19808 0.214092 -4.69543e-20)
(1.22784 0.222409 2.11841e-20)
(1.23986 0.224488 -3.32553e-20)
(1.24077 0.22233 8.10818e-20)
(1.23549 0.217588 4.00569e-20)
(1.22727 0.211437 -2.8157e-20)
(1.21802 0.204624 -2.94221e-21)
(1.20874 0.197574 -7.48334e-20)
(1.19988 0.190513 3.39312e-20)
(1.19162 0.183551 -8.43035e-22)
(1.18399 0.176741 0)
(1.17697 0.170107 -2.27834e-20)
(1.17047 0.163655 0)
(1.16441 0.157362 5.05487e-20)
(1.15869 0.151205 -5.98512e-20)
(1.15318 0.145359 2.71542e-20)
(0.0811807 -0.00215568 -1.26695e-20)
(0.27 0.00758008 -6.13838e-20)
(0.47679 0.0420728 6.96911e-20)
(0.681267 0.0889051 4.08949e-20)
(0.863663 0.137713 -1.95891e-20)
(1.01031 0.180979 3.26701e-20)
(1.1163 0.214182 -1.59207e-20)
(1.18442 0.235986 2.63354e-20)
(1.22213 0.247481 0)
(1.23826 0.250988 5.89675e-20)
(1.24077 0.249033 -2.61881e-21)
(1.23568 0.243749 -4.72263e-20)
(1.22699 0.236668 2.00492e-20)
(1.21703 0.228754 -2.23817e-20)
(1.207 0.220556 -8.31127e-21)
(1.19746 0.212359 9.81694e-21)
(1.18859 0.204301 -7.43643e-21)
(1.18046 0.196442 -3.99888e-20)
(1.17301 0.188814 2.44657e-20)
(1.16619 0.181427 4.93412e-21)
(1.15989 0.174273 4.30612e-21)
(1.154 0.167319 3.75887e-21)
(1.14843 0.160605 0)
(1.14302 0.154318 0)
(0.102851 0.00308317 1.26782e-20)
(0.324755 0.0258274 -1.26806e-20)
(0.552343 0.073778 -2.31863e-20)
(0.763659 0.13076 0)
(0.939978 0.184462 -9.69926e-21)
(1.07166 0.227559 -8.67902e-21)
(1.15902 0.257087 -1.48286e-20)
(1.20928 0.273593 0)
(1.23248 0.279661 0)
(1.23826 0.278456 0)
(1.23418 0.27278 0)
(1.22533 0.264688 0)
(1.21473 0.255488 -1.25391e-20)
(1.20394 0.245923 5.69568e-21)
(1.19367 0.236369 9.8111e-21)
(1.18416 0.227005 4.57297e-21)
(1.17548 0.217909 1.11792e-20)
(1.16759 0.209111 0)
(1.16043 0.200626 -2.61657e-21)
(1.1539 0.192455 -2.48539e-21)
(1.1479 0.184574 -4.31297e-21)
(1.1423 0.17696 -3.76487e-21)
(1.13697 0.169717 0)
(1.13178 0.162875 2.62923e-21)
(0.000278211 -0.0443872 9.02871e-21)
(-0.0026593 -0.106792 -9.36925e-21)
(-0.0110215 -0.149707 -1.77304e-20)
(-0.0227683 -0.177363 0)
(-0.036503 -0.193649 -2.38108e-20)
(-0.051331 -0.202021 7.53678e-21)
(-0.0665657 -0.205257 -1.40862e-20)
(-0.0817097 -0.205342 0)
(-0.096437 -0.203489 0)
(-0.110545 -0.200262 0)
(-0.123904 -0.195742 0)
(-0.136421 -0.189694 0)
(-0.148012 -0.18171 2.90024e-22)
(-0.15858 -0.171309 -9.67926e-21)
(-0.168013 -0.158 1.78318e-20)
(-0.176177 -0.141328 2.55372e-20)
(-0.182917 -0.120904 7.59984e-21)
(-0.188065 -0.0964299 0)
(-0.191445 -0.0677276 7.31631e-21)
(-0.192916 -0.0347564 -1.98475e-20)
(-0.19229 0.00232166 -1.20784e-20)
(-0.189409 0.0431867 -1.11988e-20)
(-0.184426 0.0873512 0)
(-0.178337 0.134108 0)
(0.00221055 -0.0397893 -2.68978e-20)
(0.000932746 -0.0955731 4.65549e-20)
(-0.0078583 -0.1339 -1.72262e-20)
(-0.0210408 -0.158518 -3.31072e-20)
(-0.0366262 -0.172978 4.69677e-20)
(-0.0534272 -0.18045 -2.94898e-20)
(-0.0706008 -0.183456 4.18223e-20)
(-0.0875842 -0.183769 2.58825e-20)
(-0.104046 -0.18245 0)
(-0.11981 -0.17997 -2.37704e-20)
(-0.134785 -0.176367 -1.27635e-22)
(-0.148913 -0.171405 2.10967e-20)
(-0.162137 -0.164699 2.90497e-20)
(-0.174382 -0.155809 3.67038e-20)
(-0.185541 -0.144292 -1.78366e-20)
(-0.195477 -0.12974 -4.91353e-20)
(-0.204022 -0.111803 1.43863e-20)
(-0.210982 -0.0902031 -5.52588e-20)
(-0.216138 -0.0647573 0)
(-0.219328 -0.0354027 1.29649e-20)
(-0.220328 -0.00212755 1.20649e-20)
(-0.218789 0.0347826 1.1186e-20)
(-0.214747 0.0751834 0)
(-0.210406 0.118743 0)
(0.00345067 -0.0338246 0)
(0.00319117 -0.0816554 9.03618e-20)
(-0.00594631 -0.114984 -3.41694e-20)
(-0.0200388 -0.136671 3.27007e-20)
(-0.0366604 -0.149661 -9.12596e-20)
(-0.054407 -0.156665 0)
(-0.0723178 -0.159852 -5.42538e-20)
(-0.0897766 -0.160739 2.51705e-20)
(-0.10644 -0.160227 -4.74336e-20)
(-0.122141 -0.158705 2.15584e-20)
(-0.136805 -0.156188 1.26269e-19)
(-0.150391 -0.152457 -5.922e-20)
(-0.162858 -0.147168 -9.30549e-20)
(-0.174141 -0.139931 -3.32595e-20)
(-0.184142 -0.13036 6.40256e-22)
(-0.192729 -0.118101 1.19782e-19)
(-0.199727 -0.102849 -5.58774e-20)
(-0.204931 -0.0843607 2.47136e-21)
(-0.208119 -0.0624515 0)
(-0.208986 -0.0369989 -4.05197e-20)
(-0.207432 -0.00796258 0)
(-0.203064 0.0245855 -3.67615e-20)
(-0.195314 0.0606641 1.28411e-19)
(-0.187171 0.100065 -1.90111e-21)
(0.00385814 -0.0269726 0)
(0.00387696 -0.0660495 -5.59748e-22)
(-0.00551986 -0.094211 3.34207e-20)
(-0.0199643 -0.113155 -3.15405e-20)
(-0.0367866 -0.125028 3.01757e-20)
(-0.0544591 -0.131968 1.68948e-19)
(-0.0719495 -0.135723 -5.3118e-20)
(-0.0886029 -0.13753 -4.94715e-20)
(-0.104058 -0.138125 9.37549e-20)
(-0.118141 -0.13782 -1.31882e-19)
(-0.130773 -0.136619 4.05152e-20)
(-0.141915 -0.134325 3.75767e-20)
(-0.151526 -0.13064 0)
(-0.159542 -0.125225 3.37508e-20)
(-0.165871 -0.11775 0)
(-0.170387 -0.107911 5.41326e-20)
(-0.172927 -0.0954549 -1.00651e-19)
(-0.173287 -0.0801762 2.74519e-20)
(-0.171226 -0.0619188 8.58526e-20)
(-0.166527 -0.0405666 4.04817e-20)
(-0.159037 -0.0160774 0)
(-0.14832 0.0118051 -9.19299e-20)
(-0.133272 0.0433158 3.04993e-20)
(-0.11578 0.0783129 0)
(0.00339007 -0.0197308 0)
(0.00292778 -0.049768 -1.05455e-19)
(-0.00663496 -0.0727876 -3.33505e-20)
(-0.0208686 -0.0892026 -6.27394e-20)
(-0.0370675 -0.100265 5.90811e-20)
(-0.0536821 -0.107478 -5.60362e-20)
(-0.0696615 -0.112138 1.04395e-19)
(-0.0843327 -0.115189 4.9064e-20)
(-0.0973178 -0.117197 -1.383e-19)
(-0.108426 -0.118401 8.52192e-20)
(-0.117566 -0.118792 -1.19828e-19)
(-0.124687 -0.118198 2.56545e-19)
(-0.129743 -0.116359 -1.37771e-19)
(-0.132671 -0.112986 6.17776e-20)
(-0.133386 -0.10779 1.69823e-19)
(-0.131776 -0.100517 -5.7549e-20)
(-0.1277 -0.0909514 -4.98429e-20)
(-0.120989 -0.0789359 -4.6024e-20)
(-0.111438 -0.0643692 0)
(-0.0988251 -0.0472006 -6.59868e-20)
(-0.0829734 -0.0273709 -5.41745e-20)
(-0.0637067 -0.00467404 8.40829e-20)
(-0.0402461 0.021468 9.14324e-20)
(-0.0101902 0.0530286 -8.30494e-20)
(0.00210344 -0.012571 0)
(0.00047214 -0.033757 -1.39083e-19)
(-0.00912956 -0.0518194 -9.54546e-23)
(-0.0225729 -0.0659109 1.24251e-19)
(-0.0373142 -0.0763845 0)
(-0.0518817 -0.0840981 0)
(-0.0652596 -0.0898929 0)
(-0.076782 -0.0944152 -4.82485e-20)
(-0.0860607 -0.0980634 7.59933e-22)
(-0.0928875 -0.100999 8.46306e-20)
(-0.0971535 -0.103194 -1.16722e-19)
(-0.098796 -0.104494 9.47476e-22)
(-0.0977648 -0.104671 0)
(-0.0940051 -0.10347 -6.17514e-20)
(-0.0874501 -0.100637 5.20227e-20)
(-0.0780186 -0.0959463 -1.50826e-19)
(-0.0656149 -0.0892147 1.77486e-19)
(-0.0501273 -0.0803155 3.19515e-20)
(-0.0314233 -0.0691879 -8.81043e-21)
(-0.00934995 -0.0558444 -1.28631e-19)
(0.0162342 -0.0403544 -5.23819e-20)
(0.0454967 -0.0227302 1.60121e-19)
(0.0794444 -0.00224191 -1.01781e-19)
(0.122332 0.0239644 0)
(0.000148171 -0.00591589 6.68204e-20)
(-0.00317159 -0.0188637 6.94152e-20)
(-0.0125995 -0.0322898 -6.58256e-20)
(-0.0246092 -0.0442394 -1.24122e-19)
(-0.0369846 -0.0542392 1.16881e-19)
(-0.0484156 -0.0625352 -1.09685e-19)
(-0.0579671 -0.0695307 1.54731e-19)
(-0.0650019 -0.0755834 -4.79004e-20)
(-0.0691276 -0.0809216 9.01879e-20)
(-0.0701165 -0.0856211 0)
(-0.0678394 -0.0896245 7.5146e-20)
(-0.0622205 -0.092778 -1.42715e-19)
(-0.0532112 -0.0948701 1.28165e-19)
(-0.0407753 -0.0956652 -1.20377e-19)
(-0.0248841 -0.0949299 0)
(-0.00551494 -0.0924537 9.67462e-20)
(0.0173502 -0.088069 1.65838e-19)
(0.0437276 -0.0816645 -1.56995e-19)
(0.0736349 -0.0731997 -6.59334e-20)
(0.107097 -0.0627171 -5.48998e-20)
(0.144116 -0.0503609 1.57784e-19)
(0.184937 -0.0363392 3.80766e-20)
(0.228117 -0.0207402 -3.9355e-20)
(0.288184 -0.00102799 3.11383e-20)
(-0.00224667 -0.000122956 -6.68294e-20)
(-0.00751476 -0.00581618 2.09528e-19)
(-0.0164103 -0.0150546 -6.57382e-20)
(-0.02622 -0.0250274 1.24439e-19)
(-0.0351704 -0.0345678 -1.17179e-19)
(-0.04217 -0.043376 5.45431e-22)
(-0.0463947 -0.0514539 5.18016e-20)
(-0.0472474 -0.0588855 1.91891e-19)
(-0.0443328 -0.0657263 -2.10541e-21)
(-0.0374011 -0.0719555 -8.42127e-20)
(-0.0263028 -0.0774669 0)
(-0.0109579 -0.0820875 -6.83425e-20)
(0.0086613 -0.0856019 1.30666e-19)
(0.0325371 -0.0877773 1.14673e-19)
(0.0606107 -0.0883855 -5.51062e-20)
(0.0927822 -0.0872251 -6.51893e-22)
(0.128913 -0.0841401 -4.24875e-20)
(0.168834 -0.0790356 7.37554e-20)
(0.212353 -0.0718935 6.59127e-20)
(0.259288 -0.0627739 -5.74136e-20)
(0.309149 -0.0519175 4.8751e-20)
(0.363431 -0.0392507 -4.20129e-20)
(0.413855 -0.0262526 0)
(0.493778 -0.00953219 -3.10896e-20)
(-0.00479455 0.00453023 6.77312e-20)
(-0.0119361 0.00479228 -6.99685e-20)
(-0.0197431 -0.0008454 6.68446e-20)
(-0.0264172 -0.0090241 0)
(-0.0306813 -0.0180534 0)
(-0.0316876 -0.0271813 1.11256e-19)
(-0.0287386 -0.0360602 -1.03924e-19)
(-0.0212866 -0.04452 9.59316e-20)
(-0.00894456 -0.0524424 -4.49916e-19)
(0.00854447 -0.059702 1.12765e-21)
(0.0313163 -0.0661225 7.70075e-20)
(0.0593999 -0.0714936 0)
(0.092721 -0.0755806 -1.26309e-19)
(0.131102 -0.0781448 2.32734e-19)
(0.174264 -0.0789649 -1.59726e-19)
(0.221834 -0.0778599 -2.29555e-19)
(0.273359 -0.0747067 9.80058e-21)
(0.328324 -0.0694573 1.51369e-19)
(0.386159 -0.0621582 0)
(0.446447 -0.0528741 0)
(0.50763 -0.0421677 -4.87397e-20)
(0.573652 -0.0291662 4.20028e-20)
(0.627567 -0.0172092 -1.3971e-19)
(0.72107 -0.000201562 1.31092e-19)
(-0.00718915 0.00786823 0)
(-0.0157515 0.012539 0)
(-0.0216782 0.00976628 -2.01384e-19)
(-0.0240781 0.00313785 6.38547e-20)
(-0.0221739 -0.00532026 2.9554e-22)
(-0.0153666 -0.0145099 1.12991e-19)
(-0.0030953 -0.0237923 0)
(0.0151159 -0.0327689 -9.78975e-20)
(0.0395957 -0.0411654 9.03037e-20)
(0.0705249 -0.0487363 -1.66533e-19)
(0.107923 -0.0552291 1.56335e-21)
(0.151614 -0.0603934 1.39368e-19)
(0.201236 -0.0639792 -4.32045e-21)
(0.256238 -0.0657595 1.09639e-19)
(0.315898 -0.0655518 -1.6202e-19)
(0.379348 -0.0632399 0)
(0.445622 -0.0587901 1.61797e-19)
(0.513704 -0.0522616 -2.25357e-19)
(0.58253 -0.0438363 6.49941e-20)
(0.6514 -0.0336272 0)
(0.718021 -0.022522 4.99579e-20)
(0.787065 -0.00920262 1.66726e-19)
(0.839728 0.0019287 -1.56465e-19)
(0.928668 0.0188435 -1.64284e-19)
(-0.00914159 0.00983837 2.09631e-19)
(-0.0182745 0.0172204 -2.8933e-19)
(-0.0212681 0.0164378 7.5909e-23)
(-0.0180412 0.0110264 6.46803e-20)
(-0.00827739 0.00317329 -1.21297e-19)
(0.00837552 -0.00578166 -1.12384e-19)
(0.0323066 -0.0149735 2.10186e-19)
(0.0638411 -0.0238197 -2.96916e-21)
(0.103144 -0.0318988 -1.83821e-19)
(0.150148 -0.0388568 3.35929e-19)
(0.204523 -0.0443884 -4.0451e-21)
(0.265632 -0.0482227 -1.44094e-19)
(0.332542 -0.0501355 0)
(0.404049 -0.0499681 0)
(0.478743 -0.0476474 -5.2563e-20)
(0.555085 -0.0431996 -9.42607e-20)
(0.631505 -0.0367563 -1.62795e-19)
(0.70649 -0.0285547 1.5281e-19)
(0.778645 -0.0189275 -6.50129e-20)
(0.846916 -0.00821365 1.1139e-19)
(0.90971 0.0028586 -5.66679e-20)
(0.969219 0.0148753 8.05766e-20)
(1.0146 0.0245981 -2.01516e-19)
(1.07959 0.0385284 3.3704e-20)
(-0.0104055 0.0105091 7.08311e-20)
(-0.0188482 0.0188778 0)
(-0.0175449 0.0191296 1.3852e-19)
(-0.0070813 0.0145438 -1.30494e-19)
(0.0124494 0.00732636 1.21401e-19)
(0.0411389 -0.00103704 0)
(0.0791257 -0.00952446 0)
(0.126438 -0.0174152 -9.83335e-20)
(0.182845 -0.0241771 2.89081e-21)
(0.247754 -0.0293991 8.67786e-20)
(0.320148 -0.0327675 -7.623e-20)
(0.398585 -0.0340644 1.44792e-19)
(0.481252 -0.0331784 0)
(0.566072 -0.0301166 2.29912e-19)
(0.65085 -0.0250093 -4.22119e-19)
(0.733424 -0.0181054 2.87946e-19)
(0.811823 -0.00975237 1.63659e-19)
(0.884372 -0.00038472 -1.53628e-19)
(0.949807 0.00956211 0)
(1.00723 0.0195136 0)
(1.05634 0.0292202 0)
(1.09724 0.0379931 0)
(1.12865 0.0454629 3.97411e-20)
(1.16175 0.0535445 -1.41446e-19)
(-0.171721 0.18983 -7.01991e-21)
(-0.159765 0.258662 7.04042e-21)
(-0.144814 0.328419 -1.85614e-22)
(-0.127533 0.395666 0)
(-0.108001 0.456928 -5.18469e-21)
(-0.0861161 0.508693 9.73635e-21)
(-0.0609311 0.546894 -2.78575e-22)
(-0.0302687 0.567264 -4.167e-21)
(0.0085017 0.564945 0)
(0.0578326 0.534787 0)
(0.11901 0.473413 -2.42199e-22)
(0.190632 0.380602 -2.50372e-22)
(0.268721 0.260098 -4.27494e-21)
(0.348279 0.117801 3.90391e-21)
(0.425633 -0.0392793 0)
(0.499081 -0.200883 0)
(0.56589 -0.349707 2.91993e-21)
(0.621448 -0.465532 -4.72962e-22)
(0.661746 -0.536304 -2.16513e-21)
(0.685152 -0.564682 -1.02543e-22)
(0.69363 -0.562296 0)
(0.69166 -0.542902 0)
(0.679303 -0.523807 0)
(0.651033 -0.520241 0)
(0.607757 -0.525474 0)
(0.566555 -0.501189 0)
(0.551641 -0.40423 5.54338e-22)
(0.573067 -0.22783 -8.59749e-22)
(0.621264 -0.0127933 0)
(0.680299 0.186099 0)
(0.734805 0.330842 -4.96546e-22)
(0.775853 0.414272 4.82578e-22)
(0.803124 0.446187 1.64772e-22)
(0.817556 0.450912 0)
(0.812097 0.46072 0)
(0.780928 0.482075 2.74424e-22)
(0.73644 0.481689 -2.66763e-22)
(0.705748 0.399445 0)
(0.703261 0.233899 3.84497e-22)
(0.729487 0.0199845 -5.69946e-22)
(0.765974 -0.162919 1.74887e-22)
(0.805796 -0.290123 0)
(0.835747 -0.353099 -1.9229e-22)
(0.839965 -0.384343 1.86981e-22)
(0.810862 -0.412142 0)
(0.76143 -0.391978 0)
(0.727482 -0.327724 -8.01106e-23)
(0.730294 -0.152407 2.28646e-22)
(0.762082 0.00368218 0)
(0.804641 0.165587 0)
(0.823104 0.269041 -5.17254e-23)
(0.80433 0.332486 2.30699e-24)
(0.778307 0.388055 -2.43554e-24)
(0.766629 0.268358 4.32923e-23)
(0.782708 0.201617 0)
(0.807093 -0.0210459 0)
(0.809104 -0.155357 0)
(0.797431 -0.249061 0)
(0.798508 -0.393922 0)
(0.782827 -0.156062 0)
(-0.209218 0.171416 -5.67997e-22)
(-0.196795 0.236585 -2.29701e-20)
(-0.179822 0.302908 1.14468e-21)
(-0.157989 0.367111 2.05019e-20)
(-0.130552 0.425356 2.72075e-22)
(-0.0971077 0.474461 0)
(-0.056715 0.508238 -1.59153e-20)
(-0.00761279 0.523201 3.139e-20)
(0.0513751 0.51445 -1.54817e-20)
(0.120504 0.477928 1.60314e-20)
(0.198706 0.411712 -1.53382e-20)
(0.282732 0.316914 1.6966e-20)
(0.368067 0.197589 -1.65061e-20)
(0.450465 0.0587681 -5.58277e-22)
(0.527683 -0.094258 -1.65229e-20)
(0.59856 -0.251294 1.60559e-20)
(0.659474 -0.393707 -1.25897e-20)
(0.704831 -0.499928 1.1877e-20)
(0.731524 -0.558581 -7.99728e-21)
(0.740378 -0.574832 1.38212e-20)
(0.734927 -0.563105 -5.90461e-21)
(0.720874 -0.536919 -2.65121e-22)
(0.700588 -0.51013 -3.66962e-21)
(0.668442 -0.497515 7.16966e-21)
(0.62069 -0.49843 -3.50193e-21)
(0.569164 -0.481531 2.29477e-22)
(0.538707 -0.402517 5.05902e-21)
(0.545706 -0.245208 6.17014e-22)
(0.585606 -0.04254 -1.00969e-20)
(0.642585 0.15352 9.30594e-21)
(0.700033 0.303207 -4.29113e-21)
(0.747937 0.394618 3.75511e-22)
(0.784301 0.434443 -1.65119e-22)
(0.806654 0.447863 2.72038e-22)
(0.806269 0.467677 0)
(0.779635 0.49659 0)
(0.74167 0.496528 -1.37247e-21)
(0.719666 0.407312 9.5153e-22)
(0.72387 0.231838 1.24257e-21)
(0.75403 0.0106569 1.3346e-22)
(0.789074 -0.175756 -1.69969e-21)
(0.823902 -0.301535 2.97841e-22)
(0.847905 -0.358637 0)
(0.848775 -0.380371 0)
(0.818141 -0.400271 0)
(0.765325 -0.379372 0)
(0.728719 -0.322973 2.6094e-22)
(0.727276 -0.157493 -1.50874e-22)
(0.759379 -0.00723825 0)
(0.800066 0.157265 0)
(0.818617 0.268386 0)
(0.799923 0.337655 -9.00885e-23)
(0.773892 0.392569 -1.95673e-24)
(0.765195 0.267834 -8.42036e-23)
(0.782219 0.19713 0)
(0.812536 -0.023523 0)
(0.814916 -0.154852 6.0953e-23)
(0.803298 -0.247609 1.60081e-22)
(0.803982 -0.39255 0)
(0.785534 -0.154877 0)
(-0.186383 0.148317 -1.18573e-21)
(-0.173427 0.208282 -3.95966e-20)
(-0.154017 0.269719 3.63933e-20)
(-0.127998 0.329912 -3.41012e-20)
(-0.0934553 0.383133 -2.73953e-22)
(-0.0512894 0.426548 0)
(-0.00049625 0.455509 -3.05632e-20)
(0.0614826 0.465879 2.99252e-20)
(0.133197 0.452888 2.39875e-22)
(0.213399 0.41339 4.97559e-22)
(0.299741 0.346485 5.28137e-22)
(0.388407 0.253932 5.39395e-22)
(0.475155 0.139616 -3.72328e-20)
(0.556488 0.00726619 3.67413e-20)
(0.631427 -0.139144 0)
(0.698714 -0.289655 1.03988e-21)
(0.753001 -0.424163 -2.64372e-20)
(0.787541 -0.520503 2.60475e-20)
(0.800296 -0.568578 0)
(0.794922 -0.575407 0)
(0.776816 -0.55716 -1.00526e-20)
(0.751972 -0.527131 1.7886e-20)
(0.724302 -0.495374 -1.45687e-20)
(0.689268 -0.474595 4.06284e-22)
(0.639468 -0.469718 1.27412e-20)
(0.580575 -0.458199 -1.40109e-20)
(0.536 -0.397113 1.49397e-20)
(0.527706 -0.261143 3.46048e-22)
(0.557243 -0.07323 -8.59947e-21)
(0.610115 0.117943 0)
(0.669011 0.271369 0)
(0.722838 0.370392 1.94265e-21)
(0.767573 0.418765 -2.57953e-21)
(0.797351 0.441919 -1.38456e-23)
(0.802229 0.47227 2.19879e-21)
(0.780953 0.50878 -2.13691e-21)
(0.750058 0.509523 0)
(0.736523 0.414681 3.84135e-22)
(0.747293 0.231092 4.12518e-21)
(0.78107 0.00374529 -7.96166e-21)
(0.814624 -0.185288 3.34445e-21)
(0.844258 -0.309948 3.30924e-22)
(0.861943 -0.362401 -2.08732e-21)
(0.859303 -0.375621 1.57939e-21)
(0.827564 -0.388058 2.66342e-22)
(0.771983 -0.366543 2.33642e-22)
(0.733128 -0.318381 -2.61594e-22)
(0.727215 -0.163171 0)
(0.759113 -0.0187419 0)
(0.797414 0.148444 -7.95063e-22)
(0.815942 0.267425 3.93131e-22)
(0.797269 0.342497 -3.53745e-22)
(0.771132 0.397056 5.56112e-22)
(0.765265 0.267253 7.8977e-22)
(0.783217 0.192244 -1.66628e-22)
(0.819418 -0.0262093 3.58226e-22)
(0.822087 -0.154273 -2.99122e-22)
(0.810188 -0.245866 1.48387e-22)
(0.810252 -0.390918 0)
(0.789077 -0.153583 0)
(-0.110739 0.12272 -6.72637e-20)
(-0.097526 0.17645 3.42763e-21)
(-0.0752148 0.231669 6.03557e-20)
(-0.0469936 0.284529 -5.02278e-22)
(-0.0105054 0.331891 0)
(0.0370174 0.369564 0)
(0.0944103 0.394688 -5.7421e-20)
(0.162111 0.401718 -4.55059e-21)
(0.238772 0.386655 8.98622e-20)
(0.322371 0.347137 2.52544e-21)
(0.40993 0.282818 -3.32897e-20)
(0.497658 0.195599 -3.63573e-20)
(0.581814 0.0886465 3.64228e-20)
(0.660186 -0.0356629 0)
(0.732562 -0.17456 -3.58347e-20)
(0.796488 -0.317896 3.27101e-20)
(0.844249 -0.44387 0)
(0.867981 -0.530238 0)
(0.867076 -0.568849 1.6727e-20)
(0.848114 -0.56837 -3.56053e-21)
(0.818651 -0.545648 -1.19945e-20)
(0.784495 -0.513895 -7.97527e-21)
(0.749964 -0.479999 7.90653e-21)
(0.712496 -0.452748 -5.97496e-21)
(0.66297 -0.440428 1.44863e-22)
(0.600434 -0.430794 5.4971e-21)
(0.544072 -0.386215 7.87436e-22)
(0.519984 -0.273674 9.94194e-23)
(0.536933 -0.103751 0)
(0.583382 0.0802701 6.59847e-21)
(0.642142 0.235919 -6.75626e-21)
(0.700734 0.341947 3.37138e-22)
(0.75285 0.39927 0)
(0.789465 0.432784 -2.61395e-22)
(0.799778 0.473839 4.41309e-21)
(0.784483 0.517947 -8.81259e-21)
(0.760931 0.520348 -1.93557e-21)
(0.755674 0.421773 -1.3186e-21)
(0.772645 0.23186 6.14318e-21)
(0.809868 -0.000716768 9.42039e-22)
(0.842295 -0.19164 -6.02004e-21)
(0.86663 -0.315537 5.21673e-21)
(0.877741 -0.364588 -1.11223e-23)
(0.87132 -0.370411 1.23195e-21)
(0.838762 -0.375734 -1.46494e-21)
(0.78103 -0.353439 -1.55659e-21)
(0.740372 -0.313656 4.63253e-22)
(0.729828 -0.169167 8.2558e-22)
(0.761063 -0.0306819 -1.57304e-21)
(0.796585 0.139124 1.14106e-21)
(0.815047 0.2661 -3.74086e-22)
(0.796431 0.346982 3.02642e-22)
(0.770188 0.401563 3.44413e-22)
(0.767011 0.26671 -1.25512e-21)
(0.785776 0.187015 6.60354e-24)
(0.827701 -0.0290893 -4.26778e-22)
(0.830568 -0.153595 0)
(0.818094 -0.24381 -1.44805e-22)
(0.817275 -0.38901 1.55749e-22)
(0.793396 -0.152177 0)
(0.00171886 0.0932435 5.73096e-20)
(0.0141208 0.140711 -1.09771e-19)
(0.035999 0.188856 5.19206e-20)
(0.0655168 0.234243 5.03752e-20)
(0.104084 0.276393 -9.95306e-20)
(0.152619 0.310003 -2.19563e-21)
(0.210961 0.331347 5.03407e-20)
(0.278713 0.336072 5.76272e-20)
(0.354502 0.32083 -5.64717e-20)
(0.436044 0.283619 0)
(0.520314 0.224134 -7.17846e-20)
(0.603887 0.143894 1.45046e-19)
(0.683837 0.0450979 -7.31801e-20)
(0.75907 -0.0704966 0)
(0.829391 -0.201422 0)
(0.890158 -0.336293 1.06942e-21)
(0.930922 -0.452241 -5.46839e-20)
(0.943523 -0.52824 5.31217e-20)
(0.929548 -0.55877 0)
(0.898275 -0.553716 2.65134e-20)
(0.859202 -0.529122 -4.43255e-20)
(0.817769 -0.497495 3.39454e-20)
(0.777452 -0.463895 -2.719e-20)
(0.737623 -0.43291 1.42955e-21)
(0.689762 -0.41311 1.99269e-20)
(0.627319 -0.401608 -9.57127e-21)
(0.562727 -0.369912 -3.53617e-22)
(0.523138 -0.281187 -5.40433e-21)
(0.525449 -0.132385 -2.37845e-22)
(0.563178 0.04156 5.70313e-21)
(0.619897 0.197408 3.49125e-22)
(0.681731 0.309516 -4.13661e-21)
(0.73993 0.375851 7.87351e-21)
(0.782689 0.419973 -4.18959e-21)
(0.798556 0.471704 0)
(0.7897 0.523588 -5.74058e-21)
(0.773626 0.52892 5.71563e-21)
(0.776326 0.428742 -6.78083e-21)
(0.799206 0.234289 8.43431e-21)
(0.839772 -0.00207274 -1.02957e-21)
(0.871456 -0.194736 0)
(0.890636 -0.31814 -6.84982e-22)
(0.895059 -0.365043 1.45445e-21)
(0.884629 -0.364756 0)
(0.851455 -0.363457 2.34799e-21)
(0.792089 -0.340196 -9.79076e-22)
(0.750033 -0.308702 4.07291e-22)
(0.734758 -0.175269 3.28405e-22)
(0.764942 -0.0429346 0)
(0.797428 0.129277 0)
(0.81585 0.264312 -9.99652e-22)
(0.797444 0.351046 1.71359e-21)
(0.771204 0.406115 -1.12061e-21)
(0.770573 0.266296 4.31913e-22)
(0.789952 0.181508 8.95501e-22)
(0.837326 -0.0321517 4.27182e-22)
(0.840293 -0.152782 -7.14548e-22)
(0.826997 -0.241394 0)
(0.825 -0.386796 -2.63238e-22)
(0.798426 -0.150653 -2.22993e-24)
(0.136312 0.0598159 5.07349e-20)
(0.14801 0.102678 -5.0339e-20)
(0.167422 0.144977 3.83584e-22)
(0.195563 0.185219 -3.33811e-22)
(0.232784 0.221771 3.70441e-22)
(0.279228 0.251102 -3.77708e-22)
(0.334791 0.269408 7.3867e-22)
(0.398965 0.27302 0)
(0.470415 0.259025 -8.73454e-22)
(0.546981 0.225537 9.53869e-22)
(0.625956 0.171962 1.03163e-21)
(0.704391 0.0991247 -1.14094e-21)
(0.780626 0.00861462 0)
(0.853751 -0.0987807 0)
(0.9222 -0.221229 1.11378e-21)
(0.978831 -0.345884 0)
(1.01117 -0.450256 -8.96783e-22)
(1.01217 -0.51592 0)
(0.98619 -0.540048 -3.27656e-20)
(0.944553 -0.532974 5.78138e-20)
(0.897797 -0.508886 -4.37884e-20)
(0.851047 -0.478788 1.88844e-20)
(0.806295 -0.446988 1.15425e-20)
(0.764008 -0.414914 -1.12098e-20)
(0.718211 -0.388952 -8.41658e-21)
(0.659058 -0.372693 8.16476e-21)
(0.590818 -0.34892 0)
(0.537713 -0.282239 2.25062e-22)
(0.523761 -0.156982 0)
(0.550161 0.00357389 0)
(0.602665 0.156582 7.3052e-21)
(0.665854 0.273395 -7.52599e-21)
(0.728569 0.348446 3.73932e-22)
(0.776699 0.403114 4.50332e-22)
(0.798134 0.465314 -4.51691e-22)
(0.79596 0.525278 -5.14016e-21)
(0.787366 0.53508 4.99095e-21)
(0.79762 0.435648 -8.76503e-21)
(0.826144 0.23888 7.64476e-21)
(0.869957 -0.000235267 2.11286e-21)
(0.901444 -0.194633 -6.55085e-21)
(0.91586 -0.317759 7.90382e-22)
(0.913616 -0.363726 3.72645e-21)
(0.898977 -0.358736 0)
(0.865326 -0.35136 -9.68673e-22)
(0.804739 -0.326857 1.04696e-21)
(0.761618 -0.303381 -1.40147e-21)
(0.741581 -0.181281 -3.30486e-22)
(0.770399 -0.0554268 0)
(0.799737 0.118833 3.20064e-22)