/*--------------------------------*- C++ -*----------------------------------*\
| =========                 |                                                 |
| \\      /  F ield         | OpenFOAM: The Open Source CFD Toolbox           |
|  \\    /   O peration     | Version:  2512                                  |
|   \\  /    A nd           | Website:  www.openfoam.com                      |
|    \\/     M anipulation  |                                                 |
\*---------------------------------------------------------------------------*/
FoamFile
{
    version     2.0;
    format      ascii;
    arch        "LSB;label=32;scalar=64";
    class       volVectorField;
    location    "164";
    object      U;
}
// * * * * * * * * * * * * * * * * * * * * * * * * * * * * * * * * * * * * * //

dimensions      [0 1 -1 0 0 0 0];

internalField   nonuniform List<vector> 
13248
(
(-0.0121018 0.0123446 9.79741e-20)
(-0.0174205 0.0247241 0)
(-0.00379318 0.0298081 -1.85536e-19)
(0.0267702 0.0290067 1.74768e-19)
(0.0728708 0.0239123 1.64216e-19)
(0.13344 0.0160379 0)
(0.207373 0.00661607 0)
(0.293255 -0.00338514 4.03408e-19)
(0.389116 -0.0132247 -1.02739e-21)
(0.492263 -0.0223655 -3.53931e-19)
(0.59929 -0.0304565 3.27779e-19)
(0.706272 -0.0373138 -2.05186e-19)
(0.809103 -0.042896 0)
(0.903914 -0.0472711 -3.40042e-19)
(0.987471 -0.0505759 6.27877e-19)
(1.05749 -0.0529742 -1.50137e-19)
(1.11279 -0.0546193 -2.48603e-19)
(1.15334 -0.0556354 2.33407e-19)
(1.1801 -0.0560684 0)
(1.19475 -0.0560615 0)
(1.19961 -0.0552032 0)
(1.19633 -0.0550061 0)
(1.1887 -0.0513151 5.6968e-20)
(1.17353 -0.0567618 1.86068e-19)
(-0.0100633 0.00921588 -2.9559e-19)
(-0.00842497 0.0160132 2.01299e-19)
(0.0151056 0.0171324 -1.49447e-21)
(0.0584008 0.0140418 -2.66318e-19)
(0.119875 0.00829508 -1.6404e-19)
(0.198006 0.00134086 -1.5522e-19)
(0.290836 -0.00569018 -2.87729e-19)
(0.395659 -0.0119831 2.71123e-19)
(0.508859 -0.017024 0)
(0.62597 -0.020591 1.46977e-21)
(0.741993 -0.0227272 2.2211e-21)
(0.851898 -0.0236825 2.02404e-19)
(0.951196 -0.0238327 0)
(1.03642 -0.0235874 0)
(1.10546 -0.0233066 2.23252e-19)
(1.15767 -0.0232407 -4.19344e-19)
(1.19375 -0.0235018 2.38796e-19)
(1.21546 -0.024066 -2.24211e-19)
(1.22527 -0.0248002 -9.4665e-20)
(1.22592 -0.0255147 -1.64291e-19)
(1.22007 -0.0258983 -6.25786e-20)
(1.21003 -0.026095 -1.15009e-19)
(1.1978 -0.0241834 1.77632e-19)
(1.18292 -0.0265285 4.83529e-20)
(-0.0070676 0.00616485 0)
(0.00422956 0.00755793 0)
(0.0409219 0.00521059 9.42388e-20)
(0.100407 0.000623992 8.72554e-20)
(0.180501 -0.00468257 -1.53116e-21)
(0.278669 -0.00935251 -1.5872e-19)
(0.391406 -0.0124684 0)
(0.514032 -0.0135676 -1.35046e-19)
(0.640829 -0.0126181 1.25846e-19)
(0.765537 -0.00996545 -5.63373e-22)
(0.882075 -0.0062259 -2.14792e-19)
(0.985305 -0.0021364 -1.94352e-19)
(1.07162 0.00160216 5.70757e-21)
(1.13926 0.00445284 -1.53905e-19)
(1.18827 0.00611686 3.75291e-19)
(1.22022 0.00654706 0)
(1.23774 0.00591032 -2.29677e-19)
(1.24395 0.00451518 1.12779e-19)
(1.24201 0.00274336 9.45873e-20)
(1.23468 0.000937732 0)
(1.22422 -0.000477965 7.31317e-20)
(1.21212 -0.0016632 -2.43303e-19)
(1.19964 -0.0012014 2.28397e-19)
(1.1865 -0.0042273 1.34799e-19)
(-0.00267314 0.00311209 -1.03354e-19)
(0.0215624 -0.000485365 -1.06586e-19)
(0.0750095 -0.00531817 9.70757e-20)
(0.154129 -0.0100461 0)
(0.255515 -0.0133134 0)
(0.374849 -0.0140151 -2.35397e-21)
(0.506323 -0.0116911 0)
(0.642809 -0.00652738 -4.06526e-19)
(0.776573 0.000759923 3.77095e-19)
(0.900296 0.00911177 -4.65592e-19)
(1.00809 0.01737 1.06719e-19)
(1.09619 0.0245174 0)
(1.16325 0.0298522 1.72159e-19)
(1.21007 0.0330644 -3.16759e-19)
(1.2391 0.0342136 7.56027e-20)
(1.25376 0.0336367 1.85833e-19)
(1.2577 0.0318234 -1.2154e-20)
(1.25429 0.029299 -2.03874e-19)
(1.2463 0.0265348 0)
(1.23578 0.0239001 0)
(1.22409 0.0216866 -6.84167e-20)
(1.21207 0.0198367 6.02079e-20)
(1.20034 0.0193144 2.07307e-19)
(1.18834 0.0159486 -1.94677e-19)
(0.00360412 4.83976e-05 -1.07725e-19)
(0.0445448 -0.00784221 -1.07812e-19)
(0.118365 -0.0137346 3.036e-19)
(0.220024 -0.0167879 -1.85233e-19)
(0.344095 -0.0160874 1.74347e-19)
(0.483641 -0.0110916 3.18411e-19)
(0.630013 -0.00215439 -2.24373e-19)
(0.773747 0.0095887 -2.71637e-19)
(0.905976 0.0225436 6.25151e-21)
(1.0198 0.0350423 3.48666e-19)
(1.11116 0.0456935 0)
(1.17903 0.0536123 9.39133e-20)
(1.22495 0.0584869 0)
(1.25225 0.0605026 -1.50303e-19)
(1.26503 0.0601777 2.11173e-19)
(1.26744 0.0581785 2.15242e-21)
(1.26305 0.0551653 -5.37556e-20)
(1.25459 0.051695 9.90446e-20)
(1.24398 0.0481821 8.4593e-20)
(1.23247 0.0449021 -7.48286e-20)
(1.22077 0.0420242 6.83986e-20)
(1.20928 0.0395409 -6.01913e-20)
(1.19823 0.0379337 0)
(1.18738 0.0343032 -4.50659e-20)
(0.0122068 -0.00289835 1.07709e-19)
(0.073925 -0.0139839 1.12409e-19)
(0.17141 -0.0190922 -1.01573e-19)
(0.29746 -0.0183403 1.89283e-19)
(0.443775 -0.0116919 -1.78151e-19)
(0.600163 0.000383832 1.6145e-19)
(0.75519 0.0163477 -7.71911e-20)
(0.898005 0.0339671 2.03987e-19)
(1.02025 0.0509254 -1.27559e-19)
(1.1172 0.0653455 2.24036e-19)
(1.18797 0.0760957 -5.15071e-19)
(1.23474 0.0828427 1.88001e-19)
(1.26165 0.0859019 -1.62974e-19)
(1.27356 0.0859853 1.53088e-19)
(1.2751 0.0839459 1.29922e-19)
(1.27007 0.0805863 1.12355e-19)
(1.26128 0.0765549 -3.12114e-19)
(1.2506 0.0723179 1.92931e-19)
(1.23919 0.0681794 -8.45945e-20)
(1.2277 0.0643206 2.17518e-19)
(1.21646 0.0608371 -7.02793e-20)
(1.20564 0.0577467 -1.67265e-19)
(1.19532 0.0552752 1.5379e-19)
(1.18529 0.0514785 4.50518e-20)
(0.0234707 -0.00545611 0)
(0.110079 -0.0181104 6.76019e-22)
(0.233818 -0.0202159 2.10038e-19)
(0.384632 -0.0134189 -1.97273e-19)
(0.550643 0.00086657 -1.78431e-19)
(0.718316 0.020681 3.31567e-19)
(0.874332 0.0430902 -1.53956e-19)
(1.00819 0.0649356 2.04789e-19)
(1.11391 0.0836542 -4.86331e-21)
(1.19033 0.097731 -1.15413e-19)
(1.2401 0.106747 2.50462e-19)
(1.26815 0.111135 -3.68126e-19)
(1.28014 0.111819 0)
(1.28131 0.109866 -7.12421e-20)
(1.27583 0.106248 -1.88852e-19)
(1.26668 0.10173 5.9556e-20)
(1.25579 0.0968467 2.74835e-21)
(1.24429 0.0919403 -1.26686e-19)
(1.2328 0.0872146 9.40624e-21)
(1.22161 0.0827816 1.45783e-19)
(1.21087 0.0786951 -6.36917e-20)
(1.20061 0.0749836 -2.38117e-20)
(1.19081 0.0716716 7.47261e-20)
(1.18136 0.0676481 0)
(0.0375826 -0.00723212 0)
(0.152897 -0.0192154 5.67847e-20)
(0.304413 -0.0158234 -2.71774e-19)
(0.478618 -0.000895504 9.9089e-20)
(0.659794 0.0220865 -9.32575e-20)
(0.831786 0.0493401 -8.47795e-20)
(0.981126 0.0766659 -1.50296e-19)
(1.09967 0.100506 7.49123e-20)
(1.18532 0.118705 6.5466e-20)
(1.24084 0.130617 0)
(1.27193 0.136753 1.47369e-19)
(1.28514 0.138271 -2.1798e-19)
(1.28651 0.136504 1.62391e-19)
(1.28078 0.132649 7.12794e-20)
(1.27127 0.127628 -5.77222e-20)
(1.26005 0.122076 -4.77289e-20)
(1.2483 0.116391 -4.4201e-20)
(1.23665 0.110806 1.33528e-19)
(1.22538 0.105452 0)
(1.21461 0.100397 6.58367e-20)
(1.20435 0.0956772 5.44863e-20)
(1.1946 0.0913089 -1.36177e-19)
(1.18529 0.0872294 -9.15449e-20)
(1.17633 0.0829689 8.49233e-20)
(0.0545402 -0.00775581 -5.99868e-20)
(0.20171 -0.0162143 -1.6805e-21)
(0.381164 -0.00472875 5.50442e-20)
(0.575627 0.0199732 1.53147e-19)
(0.765995 0.0518411 4.43756e-20)
(0.935084 0.0852778 -8.57401e-20)
(1.07141 0.115353 7.86824e-20)
(1.17088 0.138855 -6.91809e-20)
(1.23579 0.154634 1.23213e-19)
(1.27242 0.163179 5.24858e-20)
(1.28838 0.165897 -1.48409e-19)
(1.29074 0.164461 4.379e-20)
(1.28507 0.160376 7.43411e-20)
(1.27521 0.154793 -3.6631e-20)
(1.26353 0.148492 0)
(1.25137 0.141953 5.41323e-20)
(1.23938 0.135451 9.1122e-20)
(1.22786 0.129138 1.52221e-20)
(1.2169 0.123094 -7.56282e-20)
(1.20654 0.117361 3.15423e-20)
(1.19673 0.111964 0)
(1.18741 0.106897 -2.45477e-20)
(1.17852 0.102085 -2.2789e-20)
(1.16996 0.0974875 0)
(0.0741169 -0.00653152 0)
(0.25526 -0.00809614 3.12911e-20)
(0.4613 0.01395 5.78853e-20)
(0.671414 0.0493786 -1.55091e-19)
(0.864412 0.0893861 4.9766e-20)
(1.02424 0.127022 0)
(1.14334 0.157457 7.50694e-20)
(1.22253 0.178565 -1.04655e-19)
(1.26822 0.190569 -6.12695e-20)
(1.28914 0.195103 2.78286e-20)
(1.29369 0.194264 -4.39637e-20)
(1.2886 0.189985 1.07062e-19)
(1.27853 0.183752 5.35783e-20)
(1.26635 0.176561 -3.73284e-20)
(1.25363 0.16902 -3.59492e-21)
(1.24115 0.161466 -1.01648e-19)
(1.22922 0.154081 4.6242e-20)
(1.21796 0.146958 -1.0429e-21)
(1.20738 0.140146 0)
(1.19743 0.133673 -3.15747e-20)
(1.18806 0.127548 0)
(1.17917 0.121747 7.09497e-20)
(1.1707 0.116239 -8.43871e-20)
(1.16252 0.111211 3.83789e-20)
(0.0958402 -0.00308962 -1.59758e-20)
(0.311743 0.0059448 -7.82422e-20)
(0.541538 0.0406433 8.86541e-20)
(0.761761 0.0869115 5.23116e-20)
(0.951139 0.133494 -2.51031e-20)
(1.09695 0.172964 4.19838e-20)
(1.19687 0.201515 -2.04696e-20)
(1.2566 0.218645 3.40954e-20)
(1.28577 0.226058 0)
(1.29442 0.226347 7.72049e-20)
(1.29084 0.22203 -3.12615e-21)
(1.2809 0.215081 -6.23824e-20)
(1.26826 0.206833 2.6756e-20)
(1.2549 0.198089 -3.02042e-20)
(1.24179 0.18929 -1.15194e-20)
(1.22933 0.18066 1.32549e-20)
(1.21764 0.172312 -1.02826e-20)
(1.20674 0.1643 -5.54819e-20)
(1.19657 0.156654 3.4032e-20)
(1.18706 0.149387 6.992e-21)
(1.17813 0.142493 6.15015e-21)
(1.16968 0.13594 5.40976e-21)
(1.16162 0.129767 0)
(1.15381 0.12418 0)
(0.119069 0.00297744 1.59869e-20)
(0.369056 0.026424 -1.60628e-20)
(0.618542 0.0752636 -2.9469e-20)
(0.843031 0.131627 0)
(1.0235 0.18266 -1.24023e-20)
(1.15237 0.221578 -1.1065e-20)
(1.23298 0.246385 -1.90475e-20)
(1.27528 0.258475 0)
(1.29102 0.26091 0)
(1.29056 0.256969 0)
(1.28148 0.249337 0)
(1.2686 0.239867 0)
(1.25461 0.229677 -1.6817e-20)
(1.2408 0.219376 7.66406e-21)
(1.2277 0.209262 1.33395e-20)
(1.21549 0.199476 6.22216e-21)
(1.20418 0.19008 1.54598e-20)
(1.19371 0.181104 0)
(1.18403 0.172559 -3.72073e-21)
(1.17502 0.164449 -3.50983e-21)
(1.1666 0.15675 -6.15986e-21)
(1.15865 0.149443 -5.41834e-21)
(1.15105 0.142633 0)
(1.1437 0.136379 3.90785e-21)
(-0.00210155 0.00591468 9.07188e-21)
(-0.0092138 0.00223627 -9.43176e-21)
(-0.0216664 -0.0107558 -1.78783e-20)
(-0.0367704 -0.0285291 0)
(-0.0531376 -0.0481121 -2.38674e-20)
(-0.070096 -0.0679254 7.42578e-21)
(-0.087135 -0.0874363 -1.42551e-20)
(-0.103842 -0.106766 0)
(-0.1199 -0.126327 0)
(-0.135061 -0.146555 0)
(-0.149133 -0.167749 0)
(-0.161952 -0.190018 0)
(-0.173371 -0.213277 -1.87328e-22)
(-0.183242 -0.237273 -9.24494e-21)
(-0.191407 -0.261603 1.7717e-20)
(-0.197693 -0.285724 2.47859e-20)
(-0.201918 -0.308958 7.89666e-21)
(-0.203891 -0.330492 0)
(-0.203437 -0.349398 6.75195e-21)
(-0.200423 -0.364666 -1.90343e-20)
(-0.194717 -0.375267 -1.18412e-20)
(-0.186101 -0.380172 -1.10371e-20)
(-0.174522 -0.378349 0)
(-0.161121 -0.369114 0)
(-0.00315376 0.0117512 -2.75009e-20)
(-0.0112103 0.0156249 4.73408e-20)
(-0.0241766 0.0074348 -1.82185e-20)
(-0.0395481 -0.00732597 -3.43055e-20)
(-0.0560391 -0.0251194 4.82701e-20)
(-0.0730338 -0.0440154 -3.06693e-20)
(-0.090045 -0.0632475 4.31004e-20)
(-0.106675 -0.0827798 2.78108e-20)
(-0.122625 -0.102916 0)
(-0.137682 -0.124018 -2.4008e-20)
(-0.151692 -0.146347 -1.66082e-22)
(-0.164542 -0.169995 2.11748e-20)
(-0.176136 -0.194886 3.08662e-20)
(-0.186386 -0.220788 3.83937e-20)
(-0.195203 -0.247327 -1.77572e-20)
(-0.202492 -0.273994 -5.0411e-20)
(-0.208152 -0.300135 1.5901e-20)
(-0.21208 -0.324956 -5.93467e-20)
(-0.214197 -0.347526 0)
(-0.214469 -0.366807 1.26827e-20)
(-0.21282 -0.381695 1.1829e-20)
(-0.208924 -0.391036 1.10258e-20)
(-0.202721 -0.393647 0)
(-0.196565 -0.388723 0)
(-0.00477235 0.0174939 0)
(-0.0141196 0.0290634 9.85024e-20)
(-0.0271442 0.0259365 -3.70832e-20)
(-0.0418846 0.0144334 3.4855e-20)
(-0.0573259 -0.00138074 -1.00348e-19)
(-0.0729763 -0.0192087 0)
(-0.0884073 -0.0380142 -5.99101e-20)
(-0.103249 -0.0575586 2.85666e-20)
(-0.11722 -0.0780032 -5.44745e-20)
(-0.130128 -0.0996249 2.67294e-20)
(-0.141841 -0.122641 1.44561e-19)
(-0.152277 -0.147133 -6.79198e-20)
(-0.161382 -0.173034 -1.05862e-19)
(-0.169122 -0.200138 -4.07183e-20)
(-0.175476 -0.228106 2.61258e-22)
(-0.180436 -0.256465 1.39847e-19)
(-0.184003 -0.284606 -6.54301e-20)
(-0.186184 -0.311773 -8.15262e-22)
(-0.187016 -0.337067 0)
(-0.186589 -0.359445 -5.13397e-20)
(-0.18493 -0.377738 0)
(-0.18164 -0.390679 -4.11998e-20)
(-0.176427 -0.397028 1.53011e-19)
(-0.172914 -0.396065 -2.3437e-21)
(-0.00682096 0.022517 0)
(-0.017697 0.0412634 1.22029e-21)
(-0.0302874 0.0431695 3.88744e-20)
(-0.0434801 0.0350675 -3.70168e-20)
(-0.0566824 0.0214121 3.34052e-20)
(-0.0695966 0.00482892 1.96361e-19)
(-0.0818809 -0.0133649 -6.14788e-20)
(-0.093192 -0.0327084 -5.94623e-20)
(-0.103262 -0.0532125 1.10805e-19)
(-0.111914 -0.0750255 -1.56826e-19)
(-0.119012 -0.0983258 5.02635e-20)
(-0.124477 -0.123168 4.77753e-20)
(-0.128276 -0.149483 0)
(-0.130416 -0.177072 4.07316e-20)
(-0.130937 -0.205611 0)
(-0.12992 -0.234648 7.37522e-20)
(-0.127484 -0.263607 -1.33317e-19)
(-0.123779 -0.291784 3.32774e-20)
(-0.118994 -0.318345 1.14969e-19)
(-0.113379 -0.342312 5.12886e-20)
(-0.107168 -0.362524 0)
(-0.100092 -0.377638 -1.22212e-19)
(-0.0912598 -0.386294 3.9574e-20)
(-0.0839949 -0.387851 0)
(-0.0090678 0.0262852 0)
(-0.021556 0.0510709 -1.24469e-19)
(-0.0332536 0.0576713 -4.02106e-20)
(-0.0440782 0.0529846 -7.49387e-20)
(-0.0539574 0.0416351 7.05666e-20)
(-0.0628296 0.026486 -6.61015e-20)
(-0.0704777 0.0091067 1.2789e-19)
(-0.0766228 -0.00982338 6.04659e-20)
(-0.0809644 -0.0301267 -1.70424e-19)
(-0.0833107 -0.0518735 1.09043e-19)
(-0.0835545 -0.0751375 -1.53407e-19)
(-0.0815779 -0.0999309 3.42732e-19)
(-0.077355 -0.126165 -1.82989e-19)
(-0.0709184 -0.153628 8.73941e-20)
(-0.0623651 -0.181976 2.41992e-19)
(-0.0518658 -0.210743 -7.55641e-20)
(-0.0396689 -0.239347 -7.27101e-20)
(-0.0260973 -0.267101 -6.44536e-20)
(-0.0115376 -0.293229 0)
(0.00356189 -0.316861 -1.01287e-19)
(0.0186668 -0.336996 -8.41315e-20)
(0.0335056 -0.352404 1.27893e-19)
(0.0491848 -0.361431 1.35423e-19)
(0.0669605 -0.362432 -1.2665e-19)
(-0.0112311 0.0284543 0)
(-0.0252263 0.057644 -1.72877e-19)
(-0.0356502 0.0682759 -1.71048e-21)
(-0.0434577 0.0668312 1.53281e-19)
(-0.0491216 0.0578424 0)
(-0.0528401 0.044275 0)
(-0.0545365 0.0278819 0)
(-0.0539904 0.00954615 -6.20109e-20)
(-0.050972 -0.010392 -1.07266e-21)
(-0.0452282 -0.0318723 1.1148e-19)
(-0.0365814 -0.0548574 -1.57585e-19)
(-0.024957 -0.0793167 -2.52601e-22)
(-0.0103308 -0.105119 0)
(0.00723443 -0.132012 -8.73394e-20)
(0.0275736 -0.159606 8.29718e-20)
(0.0504075 -0.187385 -2.31985e-19)
(0.0753361 -0.214714 2.80782e-19)
(0.101844 -0.240863 5.86224e-20)
(0.129322 -0.26504 -1.01186e-20)
(0.157105 -0.286426 -2.14065e-19)
(0.184414 -0.304222 -9.15527e-20)
(0.210553 -0.317521 2.7214e-19)
(0.235356 -0.324797 -1.76044e-19)
(0.266985 -0.322316 0)
(-0.0130421 0.0289245 8.6601e-20)
(-0.0282376 0.0605643 8.69543e-20)
(-0.0370887 0.074244 -8.43221e-20)
(-0.0414221 0.0756145 -1.58104e-19)
(-0.0422023 0.0688682 1.48871e-19)
(-0.0398826 0.0569216 -1.42134e-19)
(-0.0345436 0.04162 2.01541e-19)
(-0.0260504 0.0239953 -6.23246e-20)
(-0.0141847 0.00454529 1.20389e-19)
(0.00127788 -0.0165011 0)
(0.0205251 -0.0390449 1.10407e-19)
(0.0436367 -0.0629701 -2.06486e-19)
(0.0705863 -0.0880837 1.92834e-19)
(0.101225 -0.114074 -1.81113e-19)
(0.135258 -0.140495 0)
(0.172219 -0.166773 1.55608e-19)
(0.211484 -0.192219 2.82509e-19)
(0.252285 -0.216055 -2.64732e-19)
(0.293744 -0.237459 -1.16678e-19)
(0.334951 -0.255611 -9.77463e-20)
(0.374867 -0.269822 2.80262e-19)
(0.413311 -0.279247 7.03754e-20)
(0.446358 -0.283983 -7.30234e-20)
(0.493998 -0.276775 5.44323e-20)
(-0.0143054 0.0278404 -8.66125e-20)
(-0.0302002 0.0598777 2.7235e-19)
(-0.0372137 0.0753461 -8.62036e-20)
(-0.0377544 0.0788174 1.61623e-19)
(-0.0331571 0.073962 -1.5218e-19)
(-0.0240931 0.0635117 6.31871e-22)
(-0.010797 0.0493072 6.86202e-20)
(0.0067683 0.0324717 2.6293e-19)
(0.0287678 0.0136337 1.999e-21)
(0.0553946 -0.00685805 -1.15131e-19)
(0.0867896 -0.0287834 0)
(0.122965 -0.0519351 -1.04865e-19)
(0.163774 -0.0760371 1.95527e-19)
(0.208871 -0.100704 1.81958e-19)
(0.257691 -0.125431 -8.59415e-20)
(0.309443 -0.149596 1.864e-23)
(0.363125 -0.172483 -7.16377e-20)
(0.417584 -0.193319 1.29027e-19)
(0.47157 -0.211331 1.16624e-19)
(0.523931 -0.225758 -1.03335e-19)
(0.573107 -0.23618 8.86806e-20)
(0.620305 -0.241212 -7.61261e-20)
(0.656318 -0.243737 0)
(0.713521 -0.23252 -5.43382e-20)
(-0.0149347 0.0255415 8.99186e-20)
(-0.0308531 0.0560456 -9.14472e-20)
(-0.0357017 0.0718685 8.79031e-20)
(-0.0321349 0.0764654 0)
(-0.0216997 0.0729043 0)
(-0.00522101 0.0636388 1.49372e-19)
(0.0169343 0.0504206 -1.38578e-19)
(0.0446996 0.0344025 1.33417e-19)
(0.0781587 0.0163072 -6.23483e-19)
(0.117412 -0.00340201 -4.11533e-22)
(0.16247 -0.0243895 1.11416e-19)
(0.213152 -0.0463353 0)
(0.269029 -0.068867 -1.95755e-19)
(0.32937 -0.0915239 3.65826e-19)
(0.393138 -0.113749 -2.558e-19)
(0.459011 -0.134905 -3.85727e-19)
(0.525448 -0.154303 9.86959e-21)
(0.590799 -0.171253 2.59594e-19)
(0.653403 -0.185131 0)
(0.711921 -0.195297 0)
(0.764406 -0.201803 -8.86645e-20)
(0.813049 -0.202746 7.61137e-20)
(0.846617 -0.203158 -2.41376e-19)
(0.900337 -0.1893 2.26463e-19)
(-0.0149546 0.0224684 0)
(-0.0300574 0.0498138 0)
(-0.0322104 0.0645338 -2.6539e-19)
(-0.0240213 0.0691274 8.40549e-20)
(-0.00709126 0.0660896 -3.3746e-22)
(0.0176782 0.0575617 1.5012e-19)
(0.0498215 0.0451559 0)
(0.0891591 0.0300089 -1.33133e-19)
(0.135634 0.0129033 1.25089e-19)
(0.189144 -0.00560089 -2.3743e-19)
(0.249399 -0.0250536 8.45578e-24)
(0.315798 -0.0450287 2.09005e-19)
(0.387357 -0.0650713 -1.46094e-21)
(0.462684 -0.0846759 1.78058e-19)
(0.54002 -0.10329 -2.55715e-19)
(0.617333 -0.12034 0)
(0.692472 -0.135265 2.73508e-19)
(0.763345 -0.147564 -3.83614e-19)
(0.828087 -0.156842 1.09959e-19)
(0.885337 -0.162726 0)
(0.933629 -0.165518 8.42412e-20)
(0.974766 -0.163572 2.81313e-19)
(1.0007 -0.162195 -2.64037e-19)
(1.03887 -0.147619 -2.53141e-19)
(-0.0144565 0.0190537 2.79609e-19)
(-0.0277194 0.042035 -3.84252e-19)
(-0.0262795 0.0543563 5.01429e-22)
(-0.0125188 0.0578529 8.55592e-20)
(0.012027 0.0545629 -1.60396e-19)
(0.0464428 0.0463433 -1.49542e-19)
(0.0901788 0.0346567 2.83613e-19)
(0.142888 0.0205967 1.86739e-22)
(0.204235 0.00497759 -2.51402e-19)
(0.273688 -0.0115689 4.73789e-19)
(0.35035 -0.0285145 5.59919e-23)
(0.432844 -0.045377 -2.08722e-19)
(0.519282 -0.0616898 0)
(0.607329 -0.0769959 0)
(0.694356 -0.0908604 -8.33222e-20)
(0.777647 -0.102893 -1.48621e-19)
(0.854655 -0.11277 -2.66386e-19)
(0.923218 -0.120267 2.5007e-19)
(0.981782 -0.125236 -1.10013e-19)
(1.02944 -0.127676 1.83839e-19)
(1.06603 -0.127739 -9.73023e-20)
(1.09269 -0.12485 1.25119e-19)
(1.10704 -0.122535 -3.18693e-19)
(1.12442 -0.109851 5.25096e-20)
(-0.0135141 0.0156231 9.45075e-20)
(-0.0236506 0.0334867 0)
(-0.0171879 0.0424566 1.82908e-19)
(0.00374513 0.044028 -1.72297e-19)
(0.037724 0.0399393 1.6054e-19)
(0.0838261 0.0318309 0)
(0.141348 0.0210318 0)
(0.2096 0.00857928 -1.34246e-19)
(0.287674 -0.00471469 1.8484e-22)
(0.374215 -0.0182076 1.18258e-19)
(0.46728 -0.0313806 -1.09535e-19)
(0.564311 -0.04381 2.07195e-19)
(0.662252 -0.0551537 0)
(0.757773 -0.0651479 3.48589e-19)
(0.847577 -0.073607 -6.45183e-19)
(0.928715 -0.0804221 4.47177e-19)
(0.998872 -0.0855517 2.57985e-19)
(1.05655 -0.0890283 -2.422e-19)
(1.10118 -0.0908812 0)
(1.133 -0.0913528 0)
(1.15329 -0.0902344 0)
(1.16326 -0.0883416 0)
(1.1653 -0.0854397 6.07431e-20)
(1.16488 -0.077846 -1.97613e-19)
(-0.145322 -0.350513 -7.1502e-21)
(-0.117486 -0.314951 7.17498e-21)
(-0.0840501 -0.262587 -2.1045e-22)
(-0.0448347 -0.193932 0)
(-0.00081749 -0.110031 -6.90247e-21)
(0.0467774 -0.0132652 1.33222e-20)
(0.0972695 0.0938968 -2.25722e-22)
(0.149251 0.205742 -6.02892e-21)
(0.201605 0.315486 0)
(0.252994 0.41458 0)
(0.301524 0.495593 -2.31354e-22)
(0.344169 0.553297 -1.94654e-22)
(0.377225 0.587399 -2.72373e-21)
(0.396547 0.603834 2.4882e-21)
(0.399088 0.611896 0)
(0.38767 0.615431 0)
(0.374642 0.604034 1.98646e-21)
(0.377967 0.555257 2.28857e-22)
(0.409644 0.45013 -1.95218e-21)
(0.467195 0.288414 -1.60123e-22)
(0.539037 0.0888903 0)
(0.613508 -0.117608 0)
(0.681019 -0.295919 0)
(0.734083 -0.420269 0)
(0.769181 -0.487001 0)
(0.786181 -0.50964 0)
(0.790102 -0.504974 2.90626e-22)
(0.785518 -0.489488 -4.74399e-22)
(0.768356 -0.483813 0)
(0.731982 -0.495314 0)
(0.684184 -0.495325 -4.23199e-22)
(0.648365 -0.432787 4.11319e-22)
(0.644509 -0.280949 2.43385e-22)
(0.671211 -0.0733452 0)
(0.715825 0.132368 0)
(0.760933 0.283264 3.73665e-22)
(0.801073 0.370223 -3.63214e-22)
(0.829283 0.405022 0)
(0.837248 0.428267 2.181e-22)
(0.814641 0.453161 -3.16907e-22)
(0.771487 0.455289 1.11412e-22)
(0.732513 0.394147 0)
(0.723999 0.238514 -2.86019e-22)
(0.739453 0.0513834 2.78118e-22)
(0.780307 -0.139404 0)
(0.816455 -0.248992 0)
(0.841057 -0.328261 -7.36046e-23)
(0.823845 -0.368078 2.0232e-22)
(0.786169 -0.378824 0)
(0.751976 -0.344506 0)
(0.756625 -0.183393 -5.74639e-23)
(0.780534 -0.060835 5.16821e-24)
(0.817644 0.138941 -4.76178e-24)
(0.813224 0.235079 3.7138e-23)
(0.803359 0.330348 0)
(0.787743 0.375274 0)
(0.798648 0.208383 0)
(0.794613 0.171749 0)
(0.810989 -0.12659 0)
(0.789376 -0.231434 0)
(-0.193461 -0.375243 -6.21114e-22)
(-0.179381 -0.347341 -2.60273e-20)
(-0.158376 -0.301903 2.26746e-22)
(-0.130517 -0.239732 2.42492e-20)
(-0.0953866 -0.161341 3.3877e-22)
(-0.0531082 -0.0685499 0)
(-0.00526729 0.0350923 -2.08976e-20)
(0.0458841 0.145725 4.00822e-20)
(0.0993111 0.257523 -1.91843e-20)
(0.153794 0.359449 1.52077e-20)
(0.207598 0.446365 -1.45495e-20)
(0.25691 0.513516 1.0928e-20)
(0.297391 0.560525 -1.05977e-20)
(0.325108 0.591654 -2.59133e-22)
(0.339319 0.611887 -7.93919e-21)
(0.346289 0.619471 7.71567e-21)
(0.359578 0.601143 -8.47544e-21)
(0.393323 0.537704 7.95758e-21)
(0.451949 0.418085 -1.05564e-20)
(0.527553 0.247575 2.13299e-20)
(0.60889 0.0450999 -1.07411e-20)
(0.686074 -0.160006 -6.72779e-22)
(0.749796 -0.332192 -8.38412e-21)
(0.793716 -0.446607 1.47705e-20)
(0.817097 -0.50186 -6.43648e-21)
(0.822309 -0.514645 2.73197e-22)
(0.81516 -0.503497 3.27119e-21)
(0.801675 -0.482538 -2.45243e-22)
(0.779468 -0.469196 -5.24348e-21)
(0.740091 -0.473315 5.16752e-21)
(0.686934 -0.473297 -2.58591e-21)
(0.641587 -0.421272 3.67066e-22)
(0.627129 -0.285089 -2.43872e-22)
(0.646703 -0.090229 4.45769e-22)
(0.688773 0.110189 0)
(0.736729 0.262131 0)
(0.783063 0.35399 -1.11225e-21)
(0.818479 0.396618 8.40698e-22)
(0.831293 0.430079 6.6128e-22)
(0.812694 0.464126 1.49207e-22)
(0.77483 0.46918 -9.85112e-22)
(0.742472 0.403313 2.8146e-22)
(0.740089 0.239082 0)
(0.75683 0.0439052 0)
(0.796359 -0.150574 0)
(0.82781 -0.258035 0)
(0.85079 -0.32925 3.37096e-22)
(0.831667 -0.360749 -1.30853e-22)
(0.792663 -0.369137 0)
(0.756715 -0.34045 0)
(0.75784 -0.187235 0)
(0.78084 -0.068415 -8.66391e-23)
(0.813458 0.134933 1.55253e-23)
(0.809553 0.236222 -8.33555e-23)
(0.798937 0.332888 0)
(0.784466 0.375925 0)
(0.799094 0.207047 5.97664e-23)
(0.796617 0.170599 1.91397e-22)
(0.817407 -0.12562 0)
(0.794017 -0.229977 0)
(-0.179855 -0.387499 -1.46189e-21)
(-0.183514 -0.368542 -4.70659e-20)
(-0.178603 -0.331811 4.36871e-20)
(-0.167106 -0.278539 -4.09377e-20)
(-0.146788 -0.208261 -3.41139e-22)
(-0.117387 -0.122442 0)
(-0.078456 -0.0243903 -3.45222e-20)
(-0.0311508 0.0819019 3.37005e-20)
(0.0185783 0.193626 2.5973e-22)
(0.070766 0.298093 3.62159e-22)
(0.126209 0.390856 3.19051e-22)
(0.179361 0.467412 3.42391e-22)
(0.226152 0.526688 -1.69089e-20)
(0.263846 0.570205 1.66933e-20)
(0.293821 0.598621 0)
(0.323617 0.606437 4.53226e-22)
(0.364995 0.58029 -1.74845e-20)
(0.426675 0.505861 1.72687e-20)
(0.506998 0.378584 0)
(0.595896 0.206268 0)
(0.683181 0.00612842 -2.38341e-20)
(0.760784 -0.193887 4.47841e-20)
(0.819699 -0.358138 -3.79205e-20)
(0.853734 -0.462875 3.75435e-21)
(0.865025 -0.508502 2.34851e-20)
(0.858829 -0.513616 -1.84096e-20)
(0.841491 -0.497954 1.35904e-20)
(0.819628 -0.473486 -1.18125e-21)
(0.792851 -0.453813 -5.10833e-21)
(0.751784 -0.450555 0)
(0.695071 -0.449777 0)
(0.641232 -0.408267 2.28379e-21)
(0.615813 -0.288867 -2.88076e-21)
(0.627208 -0.108134 -6.62266e-23)
(0.665768 0.0854963 2.92976e-21)
(0.715825 0.237655 -2.84727e-21)
(0.767579 0.33447 0)
(0.809534 0.385628 2.41433e-22)
(0.827102 0.429854 1.97238e-21)
(0.813036 0.473306 -4.00209e-21)
(0.781096 0.481613 1.8114e-21)
(0.75546 0.411986 3.17317e-22)
(0.759153 0.240635 -3.41551e-21)
(0.777224 0.0388411 2.64928e-21)
(0.815035 -0.159232 6.01785e-22)
(0.841315 -0.265423 4.63206e-22)
(0.862225 -0.329381 -3.37939e-22)
(0.841263 -0.353048 0)
(0.801073 -0.359187 0)
(0.763431 -0.336498 -7.50338e-22)
(0.760937 -0.191214 3.70183e-22)
(0.782867 -0.076051 -3.18791e-22)
(0.810971 0.130792 4.6986e-22)
(0.80749 0.237223 5.74107e-22)
(0.795728 0.335146 -1.51575e-22)
(0.782164 0.376362 2.69972e-22)
(0.800659 0.205281 -2.60834e-22)
(0.799885 0.169021 1.50775e-22)
(0.825042 -0.124668 0)
(0.799682 -0.228401 0)
(-0.0974436 -0.382694 -8.71314e-20)
(-0.119514 -0.372453 6.62961e-21)
(-0.132109 -0.34554 7.6027e-20)
(-0.139811 -0.30286 -5.89722e-22)
(-0.138876 -0.243147 0)
(-0.127881 -0.167557 0)
(-0.106283 -0.0778112 -5.17331e-20)
(-0.0711066 0.0218621 2.61961e-21)
(-0.0295425 0.128771 6.72589e-20)
(0.0151881 0.233605 -1.90401e-21)
(0.0671916 0.330418 -1.9043e-20)
(0.1213 0.41461 -1.48597e-20)
(0.173689 0.483567 1.48456e-20)
(0.222552 0.535903 0)
(0.270142 0.568946 -1.38931e-20)
(0.323181 0.575282 1.2625e-20)
(0.39003 0.543117 0)
(0.474187 0.46317 0)
(0.569934 0.335277 2.26435e-20)
(0.667149 0.167054 2.10667e-21)
(0.75814 -0.0272682 -2.26666e-20)
(0.835497 -0.21983 -2.22734e-20)
(0.889093 -0.375401 2.21814e-20)
(0.913179 -0.470922 -1.4588e-20)
(0.912451 -0.508454 3.4217e-21)
(0.895307 -0.507615 1.03454e-20)
(0.868776 -0.48885 8.502e-22)
(0.839149 -0.46268 1.31862e-23)
(0.807903 -0.438465 0)
(0.76614 -0.427884 4.16739e-21)
(0.708083 -0.424681 -4.28611e-21)
(0.647552 -0.392597 3.14055e-22)
(0.611206 -0.291002 0)
(0.613227 -0.126274 -3.84396e-22)
(0.647074 0.0588767 5.06568e-21)
(0.698334 0.210274 -8.73e-21)
(0.754553 0.311928 1.89e-23)
(0.802287 0.372 1.89327e-22)
(0.82453 0.427205 2.9471e-21)
(0.815414 0.480195 4.3636e-22)
(0.789791 0.492247 -4.55548e-21)
(0.770889 0.420241 3.82383e-21)
(0.780562 0.243394 -3.66347e-23)
(0.800056 0.0362634 2.72574e-21)
(0.835964 -0.165306 -3.25349e-21)
(0.856813 -0.271205 -3.11752e-21)
(0.875184 -0.328851 9.22478e-22)
(0.85239 -0.345128 9.45473e-22)
(0.811095 -0.348941 -1.69674e-21)
(0.771783 -0.332438 1.12682e-21)
(0.7656 -0.195191 -3.25389e-22)
(0.786427 -0.083744 3.4177e-22)
(0.81012 0.126472 2.66642e-22)
(0.807017 0.238106 -8.12922e-22)
(0.793774 0.337182 -7.2074e-24)
(0.780924 0.376615 -2.88355e-22)
(0.803379 0.203087 0)
(0.804436 0.167008 -1.38431e-22)
(0.833878 -0.123719 3.84004e-22)
(0.806347 -0.226686 0)
(0.0499882 -0.360712 7.95185e-20)
(0.0124449 -0.356833 -1.46412e-19)
(-0.016416 -0.339431 6.64496e-20)
(-0.0422698 -0.307616 5.14432e-20)
(-0.0622685 -0.259077 -9.52752e-20)
(-0.0731641 -0.196437 4.25899e-21)
(-0.0727581 -0.11862 3.89459e-20)
(-0.0569742 -0.0259898 3.13395e-20)
(-0.0303255 0.0697616 -3.07481e-20)
(0.00210637 0.169795 0)
(0.0456432 0.266836 -2.34949e-20)
(0.0968513 0.355083 4.44936e-20)
(0.152312 0.429947 -2.11999e-20)
(0.21064 0.487638 0)
(0.273662 0.523161 0)
(0.346031 0.52837 4.21738e-22)
(0.432345 0.493622 -3.36815e-20)
(0.531808 0.413825 3.27148e-20)
(0.636523 0.291275 0)
(0.738039 0.131625 4.98613e-20)
(0.831334 -0.0538187 -9.49416e-20)
(0.908106 -0.237585 9.00255e-20)
(0.95617 -0.3836 -7.98258e-20)
(0.970394 -0.470197 6.84696e-21)
(0.958112 -0.501346 4.98298e-20)
(0.930786 -0.496718 -2.13883e-20)
(0.89633 -0.476402 -4.26838e-22)
(0.860012 -0.450124 -4.46754e-21)
(0.824509 -0.423484 6.45568e-22)
(0.78258 -0.406504 3.90276e-21)
(0.725187 -0.399394 2.39657e-22)
(0.66033 -0.374607 -4.08878e-21)
(0.613664 -0.290752 8.50304e-21)
(0.605306 -0.144074 -4.92208e-21)
(0.633083 0.0308711 0)
(0.684332 0.180373 -4.30702e-21)
(0.743828 0.28649 4.11902e-21)
(0.796483 0.355507 -2.84455e-21)
(0.823312 0.421659 3.5342e-21)
(0.819452 0.484344 -4.26056e-22)
(0.800394 0.500926 0)
(0.788075 0.42809 -6.50778e-22)
(0.803558 0.247386 2.25961e-21)
(0.824721 0.0360301 0)
(0.858746 -0.168677 6.01983e-21)
(0.874076 -0.275217 -2.56344e-21)
(0.889458 -0.327606 7.15902e-22)
(0.864846 -0.337013 5.09575e-22)
(0.82247 -0.338397 0)
(0.781442 -0.328177 0)
(0.771495 -0.199093 -8.33056e-22)
(0.791289 -0.0915299 1.24728e-21)
(0.810796 0.121914 -7.01372e-22)
(0.808093 0.238868 2.15737e-22)
(0.793122 0.339048 4.9032e-22)
(0.780834 0.376707 2.88633e-22)
(0.807276 0.20047 -5.99418e-22)
(0.810274 0.164543 0)
(0.84388 -0.122751 -5.59828e-22)
(0.813979 -0.224805 -1.38091e-22)
(0.246297 -0.32408 7.41521e-20)
(0.20083 -0.322573 -7.35016e-20)
(0.158938 -0.31183 4.63631e-22)
(0.120061 -0.288808 -3.17699e-22)
(0.0820299 -0.253847 3.26951e-22)
(0.0489913 -0.205031 -2.75825e-22)
(0.029146 -0.140765 2.80974e-22)
(0.0206264 -0.0630979 0)
(0.0249248 0.020126 -1.65851e-22)
(0.0427704 0.111978 1.41403e-22)
(0.0738951 0.20466 1.27817e-22)
(0.117405 0.292182 -2.72957e-22)
(0.171166 0.368689 0)
(0.233966 0.428613 0)
(0.306547 0.465392 2.35484e-22)
(0.391154 0.470712 0)
(0.489024 0.436888 -4.10316e-22)
(0.596225 0.361794 0)
(0.70426 0.248535 -4.29802e-20)
(0.807229 0.100141 8.90752e-20)
(0.901849 -0.074546 -9.20561e-20)
(0.977468 -0.247815 4.59176e-20)
(1.01952 -0.383396 3.6104e-20)
(1.02406 -0.461573 -3.50583e-20)
(1.00112 -0.488054 -2.21734e-20)
(0.964697 -0.481711 2.13601e-20)
(0.923617 -0.461231 0)
(0.881832 -0.435959 3.10364e-22)
(0.842322 -0.408841 0)
(0.800365 -0.387002 0)
(0.745248 -0.374942 5.79323e-21)
(0.678848 -0.35477 -5.95875e-21)
(0.623335 -0.287401 3.76575e-22)
(0.603947 -0.160123 5.27028e-22)
(0.6242 0.00288548 -4.14699e-22)
(0.673843 0.148457 -3.18826e-21)
(0.735197 0.25828 3.09584e-21)
(0.791826 0.335955 -3.3257e-21)
(0.82313 0.412794 2.86286e-21)
(0.824696 0.485344 8.42802e-22)
(0.812283 0.507508 -4.80134e-21)
(0.806298 0.435533 -1.85991e-21)
(0.827362 0.252576 4.14501e-21)
(0.850554 0.037816 0)
(0.882954 -0.16931 -2.73533e-21)
(0.892824 -0.27735 2.57094e-21)
(0.904793 -0.325648 -3.48434e-21)
(0.878407 -0.328761 -5.12798e-22)
(0.834953 -0.327521 0)
(0.792099 -0.323572 2.61028e-22)
(0.77828 -0.202869 -5.23225e-22)
(0.797177 -0.0994084 -4.02113e-23)
(0.812852 0.11704 -1.41332e-22)
(0.810662 0.239485 4.10524e-22)