/*--------------------------------*- C++ -*----------------------------------*\
| =========                 |                                                 |
| \\      /  F ield         | OpenFOAM: The Open Source CFD Toolbox           |
|  \\    /   O peration     | Version:  2512                                  |
|   \\  /    A nd           | Website:  www.openfoam.com                      |
|    \\/     M anipulation  |                                                 |
\*---------------------------------------------------------------------------*/
FoamFile
{
    version     2.0;
    format      ascii;
    arch        "LSB;label=32;scalar=64";
    class       surfaceScalarField;
    location    "164.25";
    object      phi;
}
// * * * * * * * * * * * * * * * * * * * * * * * * * * * * * * * * * * * * * //

dimensions      [0 3 -1 0 0 0 0];

oriented        oriented;

internalField   nonuniform List<scalar> 
26232
(
0.000198624
0.000899948
-0.00109857
0.000918328
0.0014066
-0.00212631
0.00228186
0.000731099
-0.00209463
0.00441521
-0.00108415
-0.0010492
0.00745247
-0.0040043
0.000967036
0.0115278
-0.00799588
0.00392057
0.0167575
-0.0130147
0.00778499
0.0232162
-0.0189894
0.0125307
0.0309105
-0.025805
0.0181107
0.0397594
-0.0332946
0.0244458
0.049585
-0.0412404
0.0314147
0.0601208
-0.0493878
0.038852
0.0710342
-0.0574678
0.0465545
0.0819624
-0.0652238
0.0542955
0.0925541
-0.0724371
0.0618454
0.102509
-0.0789475
0.0689926
0.11161
-0.0846642
0.075563
0.119742
-0.0895677
0.0814357
0.126894
-0.0936998
0.0865475
0.133146
-0.097154
0.0909023
0.138637
-0.10003
0.0945385
0.143527
-0.102493
0.0976036
0.147794
-0.104441
0.100175
-0.10643
0.10272
0.151504
0.000224108
0.00067584
0.00108057
0.000550137
0.00273951
-0.000927836
0.00536202
-0.00370667
0.00910127
-0.00774354
0.0140852
-0.0129798
0.0203887
-0.0193183
0.0280032
-0.0266038
0.0368133
-0.0346151
0.0465904
-0.0430718
0.0570077
-0.0516577
0.067675
-0.060055
0.0781868
-0.0679797
0.0881744
-0.0752113
0.0973497
-0.0816124
0.105536
-0.0871335
0.112677
-0.0918053
0.11883
-0.0957209
0.124142
-0.0990114
0.128809
-0.101821
0.133064
-0.104285
0.137107
-0.106536
0.141256
-0.10859
-0.110843
0.145669
0.000277194
0.000398646
0.00133287
-0.000505542
0.00337435
-0.00296931
0.00658543
-0.00691775
0.0111156
-0.0122737
0.0170496
-0.0189138
0.0243713
-0.0266399
0.032937
-0.0351696
0.0424709
-0.044149
0.052589
-0.0531899
0.0628487
-0.0619173
0.0728108
-0.0700172
0.0821015
-0.0772703
0.0904583
-0.0835681
0.0977543
-0.0889084
0.103996
-0.0933751
0.1093
-0.0971093
0.113855
-0.100276
0.117883
-0.103039
0.1216
-0.105538
0.125196
-0.107881
0.128817
-0.110157
0.132595
-0.112368
-0.114758
0.13651
0.000361006
3.76402e-05
0.00168251
-0.00182704
0.0041905
-0.00547731
0.00806651
-0.0107938
0.0134187
-0.0176259
0.0202391
-0.0257342
0.0283704
-0.0347713
0.0375009
-0.0443001
0.0471974
-0.0538455
0.05697
-0.0629625
0.0663508
-0.0712981
0.0749645
-0.0786308
0.082575
-0.0848809
0.0891005
-0.0900937
0.0945972
-0.094405
0.0992211
-0.0979991
0.103182
-0.10107
0.106698
-0.103792
0.109966
-0.106307
0.113144
-0.108717
0.116353
-0.11109
0.119672
-0.113477
0.12318
-0.115876
-0.118462
0.126884
0.000472457
-0.000434817
0.00211618
-0.00347077
0.00514949
-0.00851062
0.00971539
-0.0153597
0.015833
-0.0237434
0.0233524
-0.0332536
0.0319433
-0.0433622
0.0411332
-0.05349
0.0503878
-0.0631002
0.0592073
-0.071782
0.0672082
-0.0792991
0.0741712
-0.0855938
0.080046
-0.0907557
0.0849223
-0.0949699
0.0889795
-0.0984622
0.0924341
-0.101454
0.0954959
-0.104132
0.0983422
-0.106639
0.101108
-0.109073
0.10389
-0.111498
0.106753
-0.113953
0.109736
-0.116461
0.112882
-0.119022
-0.121739
0.116159
0.000605366
-0.00104018
0.00260779
-0.00547319
0.00618503
-0.0120879
0.0113974
-0.0205721
0.0181265
-0.0304725
0.0260468
-0.0411739
0.0346604
-0.0519758
0.0433898
-0.0622195
0.0516948
-0.0714051
0.0591696
-0.0792568
0.0655945
-0.085724
0.0709344
-0.0909337
0.0752977
-0.095119
0.0788766
-0.0985488
0.0818895
-0.101475
0.0845382
-0.104102
0.0869861
-0.10658
0.089353
-0.109006
0.0917212
-0.111441
0.0941448
-0.113922
0.0966594
-0.116467
0.0992868
-0.119088
0.102051
-0.121786
-0.124616
0.104927
0.000751945
-0.00179213
0.00312443
-0.00784568
0.00721631
-0.0161797
0.0129594
-0.0263152
0.0200608
-0.0375739
0.0280176
-0.0491307
0.0362133
-0.0601715
0.0440554
-0.0700615
0.0510955
-0.0784451
0.0570911
-0.0852524
0.0620028
-0.0906358
0.0659444
-0.0948753
0.0691139
-0.0982884
0.0717307
-0.101166
0.0739923
-0.103737
0.0760542
-0.106164
0.078027
-0.108552
0.0799845
-0.110963
0.0819737
-0.113431
0.0840245
-0.115973
0.0861563
-0.118599
0.0883807
-0.121313
0.0907097
-0.124115
-0.127028
0.0931219
0.000903743
-0.00269587
0.00362989
-0.0105718
0.00815787
-0.0207077
0.0142522
-0.0324094
0.0214333
-0.044755
0.0290575
-0.0567549
0.0364704
-0.0675843
0.0431564
-0.0767476
0.0488233
-0.084112
0.0534047
-0.0898338
0.0570055
-0.0942366
0.0598241
-0.0976939
0.0620822
-0.100546
0.0639777
-0.103061
0.065664
-0.105423
0.067248
-0.107748
0.0687991
-0.110104
0.0703603
-0.112524
0.0719584
-0.115029
0.0736107
-0.117625
0.0753286
-0.120317
0.07712
-0.123104
0.078992
-0.125987
-0.128967
0.0809311
0.00105148
-0.00374735
0.00408649
-0.0136068
0.00892773
-0.025549
0.0151503
-0.038632
0.0221081
-0.0517129
0.029084
-0.0637308
0.0354719
-0.0739722
0.0408975
-0.0821732
0.0452397
-0.0884543
0.0485772
-0.0931713
0.0511018
-0.0967611
0.0530381
-0.0996301
0.0545892
-0.102098
0.0559119
-0.104384
0.0571144
-0.106626
0.0582651
-0.108899
0.0594053
-0.111244
0.0605601
-0.113679
0.0617453
-0.116214
0.0629715
-0.118851
0.0642462
-0.121591
0.0655748
-0.124433
0.0669608
-0.127373
-0.130403
0.0683968
0.00118491
-0.00493226
0.00445737
-0.0168793
0.00945585
-0.0305474
0.015568
-0.0447442
0.0220306
-0.0581755
0.0281318
-0.0698319
0.0333806
-0.0792211
0.0375668
-0.0863594
0.0407183
-0.0916057
0.0430085
-0.0954615
0.0446633
-0.0984159
0.0458946
-0.100861
0.0468683
-0.103071
0.0476985
-0.105214
0.0484564
-0.107383
0.0491839
-0.109626
0.0499056
-0.111965
0.0506365
-0.11441
0.0513867
-0.116964
0.0521634
-0.119628
0.0529715
-0.1224
0.0538152
-0.125276
0.0546963
-0.128254
-0.13132
0.0556136
0.00129406
-0.00622632
0.00471121
-0.0202964
0.0096933
-0.0355295
0.015468
-0.0505189
0.0212221
-0.0639296
0.0263189
-0.0749287
0.0304173
-0.0833195
0.0334599
-0.089402
0.0355818
-0.0937277
0.0370032
-0.0968829
0.0379461
-0.0993589
0.0385905
-0.101506
0.0390615
-0.103542
0.0394373
-0.10559
0.039763
-0.107709
0.0400638
-0.109927
0.0403547
-0.112256
0.0406452
-0.114701
0.0409423
-0.117261
0.0412513
-0.119937
0.0415757
-0.122724
0.0419177
-0.125618
0.0422777
-0.128614
-0.1317
0.042657
0.00137321
-0.00759953
0.00482902
-0.0237523
0.00961905
-0.0403196
0.0148613
-0.0557612
0.0197632
-0.0688314
0.023811
-0.0789764
0.0268163
-0.0863248
0.028843
-0.0914287
0.0300893
-0.094974
0.0307844
-0.097578
0.0311255
-0.0997
0.0312547
-0.101635
0.0312617
-0.103549
0.0311979
-0.105526
0.0310911
-0.107602
0.0309566
-0.109793
0.0308038
-0.112103
0.0306394
-0.114536
0.0304686
-0.11709
0.0302957
-0.119764
0.0301237
-0.122552
0.0299545
-0.125449
0.0297871
-0.128446
0.0296245
-0.131537
-0.000335781
0.000907404
-0.000571623
-0.00114253
0.00151997
-0.000713222
-0.00230626
0.00134871
-0.000184974
-0.00375029
0.000671377
0.000772647
-0.0054206
-0.000310788
0.0019811
-0.00727708
-0.00147299
0.00332948
-0.00928791
-0.00275733
0.00476815
-0.0114254
-0.00415659
0.00629408
-0.0136641
-0.00569387
0.00793257
-0.0159791
-0.00740495
0.00971998
-0.0183449
-0.00932503
0.0116908
-0.0207335
-0.0114813
0.0138699
-0.0231132
-0.0138894
0.0162692
-0.0254469
-0.0165525
0.0188861
-0.0276904
-0.0194595
0.021703
-0.0297923
-0.0225836
0.0246855
-0.0316931
-0.0258798
0.0277806
-0.0333262
-0.0292817
0.0309148
-0.0346193
-0.0326999
0.033993
-0.0354975
-0.0360209
0.0368991
-0.0358868
-0.0391115
0.0395008
-0.0357191
-0.0418196
0.0416519
-0.0349495
-0.0439672
0.0431977
-0.0453787
-0.033588
0.0440171
-0.000336587
0.00124399
-0.00115808
0.00234147
-0.00235449
0.00254511
-0.00384759
0.00216448
-0.00557901
0.00142063
-0.00750472
0.000452718
-0.0095918
-0.000670255
-0.0118136
-0.00193474
-0.0141495
-0.00335797
-0.0165811
-0.00497344
-0.0190907
-0.00681541
-0.0216598
-0.00891214
-0.024267
-0.0112822
-0.0268869
-0.0139326
-0.0294887
-0.0168577
-0.0320361
-0.0200363
-0.034486
-0.0234298
-0.0367893
-0.0269785
-0.0388904
-0.0305987
-0.040731
-0.0341804
-0.0422537
-0.0375887
-0.0434042
-0.0406691
-0.0441322
-0.0432393
-0.0450839
-0.044427
-0.000303516
0.00154751
-0.00106428
0.00310223
-0.00218832
0.00366915
-0.00360136
0.00357752
-0.00524305
0.00306232
-0.00706552
0.00227519
-0.00903055
0.00129477
-0.0111088
0.000143545
-0.0132809
-0.00118588
-0.0155284
-0.00272601
-0.0178356
-0.00450812
-0.0201874
-0.00656042
-0.0225668
-0.00890279
-0.0249549
-0.0115445
-0.0273302
-0.0144824
-0.0296681
-0.0176983
-0.0319408
-0.0211571
-0.034116
-0.0248033
-0.0361563
-0.0285584
-0.0380199
-0.0323168
-0.0396659
-0.0359428
-0.041057
-0.039278
-0.0421401
-0.0421561
-0.0443275
-0.0428965
-0.000239336
0.00178684
-0.000867914
0.00373081
-0.00181853
0.00461977
-0.00302659
0.00478558
-0.00443181
0.00446754
-0.0059813
0.00382468
-0.00763132
0.00294479
-0.00934781
0.00186004
-0.0110973
0.00056365
-0.0128633
-0.000960072
-0.0146226
-0.0027488
-0.0163554
-0.0048276
-0.0180416
-0.00721659
-0.0196607
-0.00992542
-0.0211924
-0.0129507
-0.0226174
-0.0162734
-0.0239179
-0.0198566
-0.0250776
-0.0236435
-0.0260799
-0.0275561
-0.0269048
-0.0314919
-0.0275291
-0.0353185
-0.0279379
-0.0388691
-0.0281075
-0.0419865
-0.0446339
-0.027801
-0.000152758
0.0019396
-0.000593229
0.00417128
-0.00128736
0.0053139
-0.00218452
0.00568274
-0.00322687
0.00550989
-0.00435707
0.00495488
-0.00552292
0.00411064
-0.00667901
0.00301613
-0.00778788
0.00167252
-0.00880956
6.16061e-05
-0.00971759
-0.00184076
-0.0104789
-0.00406625
-0.011063
-0.00663255
-0.0114401
-0.00954834
-0.0115831
-0.0128076
-0.0114698
-0.0163866
-0.0110849
-0.0202415
-0.0104221
-0.0243064
-0.00948414
-0.028494
-0.00827969
-0.0326964
-0.00681377
-0.0367844
-0.00507921
-0.0406037
-0.00311479
-0.043951
-0.046545
-0.00120364
-5.63664e-05
0.00199597
-0.000276832
0.00439175
-0.000660305
0.00569737
-0.00117194
0.00619437
-0.00175808
0.00609604
-0.0023578
0.0055546
-0.00291003
0.00466287
-0.00335724
0.00346334
-0.00364723
0.00196251
-0.00372841
0.000142789
-0.0035547
-0.00201447
-0.00307978
-0.00454118
-0.00225913
-0.0074532
-0.00105085
-0.0107566
0.000581822
-0.0144403
0.00266761
-0.0184724
0.00522335
-0.0227972
0.00825158
-0.0273346
0.0117385
-0.0319809
0.0156545
-0.0366124
0.0199621
-0.041092
0.0246332
-0.0452748
0.0296104
-0.0489282
-0.052065
0.0351303
3.61235e-05
0.00195985
4.02726e-05
0.0043876
-1.37714e-05
0.00575141
-0.000103783
0.00628438
-0.000180845
0.0061731
-0.000181463
0.00555522
-3.63176e-05
0.00451772
0.000324438
0.00310259
0.000969449
0.0013175
0.0019623
-0.000850066
0.00337029
-0.00342245
0.00525198
-0.00642287
0.00766423
-0.00986545
0.0106568
-0.0137492
0.014269
-0.0180525
0.0185256
-0.022729
0.0234336
-0.0277052
0.0289796
-0.0328807
0.0351304
-0.0381317
0.0418359
-0.0433179
0.049031
-0.0482871
0.0566659
-0.0529097
0.0646745
-0.0569368
-0.0607006
0.0733101
0.00011214
0.00184771
0.000318175
0.00418156
0.000579664
0.00548992
0.000909833
0.00595421
0.00135496
0.00572797
0.00198143
0.00492875
0.00286654
0.00363261
0.00409228
0.00187685
0.00574116
-0.000331385
0.0078948
-0.00300371
0.0106312
-0.00615885
0.0140214
-0.00981305
0.018126
-0.01397
0.0229902
-0.0186134
0.0286384
-0.0237007
0.0350691
-0.0291598
0.0422527
-0.0348887
0.050131
-0.040759
0.0586218
-0.0466226
0.0676261
-0.0523222
0.0770407
-0.0577017
0.0867684
-0.0626374
0.0967325
-0.0669009
-0.071018
0.10705
0.000164275
0.00168343
0.000532701
0.00381314
0.0010697
0.00495293
0.00178962
0.0052343
0.00274057
0.00477702
0.00399398
0.00367533
0.00563604
0.00199055
0.00776066
-0.000247767
0.0104649
-0.00303558
0.0138419
-0.00638077
0.0179773
-0.0102942
0.0229412
-0.0147769
0.0287811
-0.0198099
0.035514
-0.0253464
0.0431207
-0.0313073
0.0515416
-0.0375807
0.0606784
-0.0440255
0.0703999
-0.0504805
0.0805532
-0.0567759
0.0909756
-0.0627446
0.10152
-0.0682462
0.112044
-0.0731615
0.1225
-0.0773563
-0.0812707
0.132752
0.000190923
0.00149251
0.000676164
0.0033279
0.00144041
0.00418868
0.00250966
0.00416504
0.00394118
0.00334549
0.00581617
0.00180035
0.00823209
-0.000425367
0.0112959
-0.00331153
0.015113
-0.00685269
0.0197806
-0.0110484
0.0253756
-0.0158892
0.031943
-0.0213444
0.0394862
-0.027353
0.0479579
-0.0338181
0.0572579
-0.0406073
0.067236
-0.0475588
0.0777024
-0.054492
0.0884439
-0.061222
0.0992438
-0.0675758
0.109904
-0.0734046
0.120263
-0.0786055
0.130195
-0.0830932
0.139708
-0.0868694
-0.0901115
0.148549
0.000197607
0.0012949
0.000763841
0.00276166
0.00171853
0.003234
0.00311041
0.00277316
0.0050145
0.00144141
0.00752741
-0.000712571
0.0107605
-0.0036585
0.0148275
-0.00737848
0.0198325
-0.0118577
0.0258541
-0.01707
0.0329292
-0.0229643
0.041039
-0.0294542
0.0500999
-0.0364139
0.0599621
-0.0436802
0.0704168
-0.051062
0.0812129
-0.0583549
0.0920798
-0.0653589
0.102755
-0.0718971
0.113009
-0.0778299
0.122676
-0.0830711
0.131653
-0.0875834
0.139943
-0.0913824
0.147599
-0.0945257
-0.0969807
0.154468
0.000196328
0.000831683
0.00197105
0.00369501
0.00610345
0.00931144
0.0134379
0.0185902
0.0248431
0.0322189
0.0406693
0.0500672
0.0602077
0.070823
0.0816064
0.092244
0.102448
0.111987
0.120704
0.128536
0.135491
0.141712
0.147361
0.1531
-0.028939
-0.06396
0.059311
-0.0229642
-0.0623799
0.0564052
-0.0157297
-0.057588
0.0503534
-0.00732969
-0.0493078
0.0409079
0.00208814
-0.0372586
0.0278407
0.01238
-0.0214517
0.0111598
0.0230415
-0.00197291
-0.00868859
0.0338846
0.020607
-0.0314501
0.0446354
0.0452942
-0.0560449
0.0552225
0.0701881
-0.0807753
0.0652428
0.093537
-0.103557
0.0740692
0.113523
-0.12235
0.080958
0.12894
-0.135828
0.085109
0.139876
-0.144027
0.0859318
0.147864
-0.148687
0.0838236
0.154654
-0.152546
0.0808511
0.159578
-0.156606
0.0801795
0.157824
-0.157152
0.0842007
0.14228
-0.146301
0.0929632
0.108436
-0.117199
0.104761
0.0573303
-0.0691285
0.117637
-0.00445715
-0.0084186
0.129914
-0.0666859
0.0544087
0.140044
-0.118361
0.108232
0.146956
-0.153039
0.146127
0.150461
-0.171536
0.168031
0.151341
-0.178682
0.177802
0.150264
-0.179143
0.18022
0.146651
-0.178987
0.1826
0.139834
-0.184875
0.191693
0.131341
-0.194431
0.202924
0.124938
-0.190707
0.197109
0.123792
-0.152525
0.153672
0.128246
-0.0782949
0.0738412
0.136127
0.0143231
-0.0222037
0.144761
0.0973965
-0.106031
0.152197
0.1569
-0.164336
0.156968
0.189723
-0.194494
0.157391
0.211519
-0.211942
0.152705
0.234087
-0.229401
0.144888
0.250895
-0.243078
0.138144
0.241036
-0.234292
0.135827
0.174062
-0.171745
0.138817
0.0727155
-0.0757057
0.145094
-0.0503794
0.0441033
0.151438
-0.135384
0.12904
0.153553
-0.197935
0.195819
0.149805
-0.235071
0.238819
0.142905
-0.255518
0.262419
0.138335
-0.259402
0.263972
0.139211
-0.166429
0.165552
0.144112
-0.0853499
0.0804488
0.147479
0.070765
-0.074132
0.146816
0.165146
-0.164483
0.144103
0.255647
-0.252934
0.142465
0.329451
-0.327813
0.142612
0.205872
-0.20602
0.142934
0.190145
-0.190466
0.141566
-0.0702886
0.0716561
-0.206535
0.208469
-0.0422888
-0.0660982
-0.0386272
-0.0660415
-0.0333662
-0.062849
-0.0264085
-0.0562655
-0.017832
-0.0458351
-0.00786012
-0.0314236
0.00352049
-0.0133535
0.0162259
0.00790156
0.0287847
0.0327353
0.0413592
0.0576137
0.0534203
0.0814759
0.0642562
0.102688
0.0730096
0.120186
0.078911
0.133975
0.0817717
0.145003
0.0826157
0.15381
0.0837275
0.158467
0.0875934
0.153958
0.0952564
0.134617
0.105757
0.0979357
0.117423
0.0456646
0.128756
-0.0157904
0.138656
-0.0765857
0.146074
-0.12578
0.1504
-0.157365
0.151684
-0.172819
0.150747
-0.177745
0.148386
-0.176781
0.144051
-0.174653
0.136687
-0.177511
0.127374
-0.185118
0.12002
-0.183353
0.118406
-0.150911
0.123232
-0.0831206
0.132266
0.00528899
0.142477
0.0871851
0.151591
0.147787
0.157768
0.183546
0.159243
0.210045
0.155429
0.237901
0.148445
0.25788
0.142182
0.247299
0.139601
0.176643
0.141559
0.0707577
0.146452
-0.0552719
0.15176
-0.140692
0.153312
-0.199487
0.149333
-0.231092
0.142253
-0.248439
0.137751
-0.254899
0.138786
-0.167464
0.143785
-0.0903491
0.147236
0.0673138
0.146642
0.165741
0.144129
0.25816
0.142551
0.331029
0.142949
0.205475
0.1436
0.189493
0.142361
-0.0690495
-0.204628
-0.0437415
-0.0652532
-0.0432391
-0.066544
-0.0410292
-0.0650589
-0.0368346
-0.0604601
-0.0304804
-0.0521892
-0.021974
-0.0399299
-0.0115918
-0.0237357
0.000435375
-0.00412561
0.0145558
0.0186149
0.0284692
0.0437003
0.0421963
0.0677487
0.0548269
0.0900569
0.065483
0.10953
0.0735866
0.125871
0.0793265
0.139263
0.0839789
0.149157
0.0895247
0.152921
0.0975052
0.145977
0.107852
0.124271
0.119164
0.0866231
0.129959
0.0348696
0.139396
-0.0252277
0.146769
-0.0839586
0.151445
-0.130455
0.153246
-0.159166
0.15248
-0.172054
0.149941
-0.175205
0.146471
-0.173312
0.141655
-0.169836
0.134113
-0.16997
0.124295
-0.1753
0.115991
-0.175049
0.113642
-0.148563
0.118508
-0.0879865
0.12843
-0.00463301
0.14005
0.075566
0.150774
0.137062
0.158384
0.175936
0.161068
0.20736
0.158352
0.240617
0.152347
0.263885
0.146573
0.253072
0.14366
0.179556
0.144487
0.0699305
0.147895
-0.0586791
0.152098
-0.144896
0.153118
-0.200508
0.148988
-0.226961
0.141771
-0.241223
0.137293
-0.250421
0.138432
-0.168603
0.143532
-0.0954487
0.14711
0.0637351
0.146591
0.16626
0.144243
0.260508
0.14272
0.332552
0.143403
0.204792
0.144434
0.188463
0.143338
-0.067954
-0.20275
-0.0316003
-0.0614539
-0.0345046
-0.0636397
-0.0359346
-0.0636289
-0.0354481
-0.0609466
-0.0325975
-0.0550398
-0.027167
-0.0453605
-0.0190462
-0.0318565
-0.00861721
-0.0145546
0.00405474
0.00594298
0.0181619
0.0295931
0.0327467
0.053164
0.0467659
0.0760377
0.0593595
0.0969365
0.0700733
0.115157
0.0792319
0.130105
0.087956
0.140433
0.0976252
0.143252
0.108866
0.134737
0.120905
0.112232
0.13218
0.0753487
0.141759
0.0252904
0.149164
-0.0326327
0.154067
-0.0888609
0.156104
-0.132493
0.155494
-0.158555
0.152853
-0.169413
0.148922
-0.171274
0.144485
-0.168875
0.139329
-0.164681
0.131945
-0.162586
0.122043
-0.165398
0.112944
-0.16595
0.109593
-0.145211
0.114092
-0.0924861
0.124553
-0.015094
0.137415
0.0627043
0.149662
0.124815
0.158732
0.166866
0.162785
0.203307
0.161372
0.24203
0.156471
0.268787
0.151187
0.258356
0.147891
0.182852
0.14753
0.0702915
0.149395
-0.0605439
0.152434
-0.147935
0.152939
-0.201013
0.148724
-0.222746
0.141406
-0.233905
0.136897
-0.245912
0.138099
-0.169805
0.143318
-0.100668
0.147084
0.059969
0.146661
0.166683
0.144448
0.262722
0.142978
0.334022
0.143979
0.203791
0.145435
0.187007
0.144496
-0.0670155
-0.200901
-0.0069694
-0.0556881
-0.0127388
-0.0578703
-0.0175194
-0.0588483
-0.0208438
-0.0576222
-0.0220311
-0.0538525
-0.0208493
-0.0465424
-0.0165907
-0.0361151
-0.00935414
-0.0217912
0.000410689
-0.00382185
0.0134992
0.0165046
0.0276905
0.0389727
0.0422791
0.0614491
0.0563664
0.0828492
0.0694987
0.102025
0.0818543
0.117749
0.094136
0.128151
0.107047
0.130341
0.120503
0.12128
0.133345
0.0993895
0.144191
0.064503
0.152348
0.017134
0.157827
-0.038112
0.160367
-0.0914015
0.159894
-0.132019
0.157025
-0.155687
0.152705
-0.165093
0.147624
-0.166192
0.142399
-0.16365
0.137009
-0.159291
0.130023
-0.155599
0.120473
-0.155848
0.110874
-0.156352
0.106377
-0.140714
0.110098
-0.0962078
0.120648
-0.0256439
0.134516
0.0488368
0.148149
0.111182
0.15869
0.156325
0.164262
0.197734
0.164347
0.241946
0.160659
0.272475
0.155859
0.263156
0.152168
0.186543
0.150602
0.0718571
0.150914
-0.060856
0.152742
-0.149763
0.15274
-0.201012
0.148501
-0.218507
0.14111
-0.226513
0.13651
-0.241312
0.137734
-0.171029
0.143104
-0.106038
0.147134
0.0559396
0.146844
0.166973
0.14475
0.264816
0.143332
0.335439
0.144675
0.202449
0.1466
0.185081
0.14583
-0.0662456
-0.199081
0.0277963
-0.0483541
0.0201943
-0.0502683
0.0126743
-0.0513283
0.00574712
-0.0506951
7.41072e-05
-0.0481794
-0.00267042
-0.0437978
-0.00279422
-0.0359913
0.000260062
-0.0248454
0.00759068
-0.0111525
0.0175165
0.00657878
0.0297954
0.0266938
0.0436399
0.0476046
0.0581546
0.0683346
0.0727648
0.0874147
0.0873275
0.103187
0.102022
0.113457
0.116925
0.115438
0.13145
0.106755
0.144325
0.0865143
0.15444
0.054388
0.161375
0.0101996
0.165117
-0.0418544
0.165455
-0.0917388
0.16266
-0.129225
0.157761
-0.150788
0.15198
-0.159312
0.145985
-0.160197
0.140157
-0.157823
0.134597
-0.153731
0.128145
-0.149147
0.119341
-0.147044
0.109673
-0.146683
0.104059
-0.1351
0.106589
-0.0987376
0.116826
-0.0358807
0.131305
0.0343572
0.146123
0.0963648
0.158114
0.144333
0.165334
0.190515
0.167089
0.24019
0.16472
0.274844
0.160428
0.267448
0.156339
0.190633
0.153618
0.0745778
0.152403
-0.0596413
0.152985
-0.150345
0.152478
-0.200504
0.148276
-0.214305
0.140841
-0.219078
0.136084
-0.236555
0.137284
-0.172229
0.142843
-0.111597
0.147228
0.0515546
0.147131
0.167071
0.145152
0.266795
0.143789
0.336802
0.14549
0.200747
0.147924
0.182647
0.147333
-0.0656543
-0.197289
0.0660259
-0.0410699
0.058479
-0.0427214
0.0505885
-0.0434378
0.0426981
-0.0428047
0.035355
-0.0408363
0.028947
-0.0373899
0.0247599
-0.0318042
0.0236615
-0.023747
0.0256019
-0.0130929
0.0313927
0.000787938
0.0402595
0.017827
0.051876
0.0359881
0.0653861
0.0548245
0.0800612
0.0727396
0.0954028
0.087845
0.111079
0.0977801
0.126644
0.0998734
0.141194
0.0922051
0.153508
0.0742004
0.162743
0.0451525
0.1686
0.00434243
0.170791
-0.0440448
0.169135
-0.0900829
0.164272
-0.124362
0.157621
-0.144137
0.15062
-0.152311
0.143937
-0.153514
0.137705
-0.151591
0.132022
-0.148048
0.126121
-0.143246
0.118347
-0.13927
0.109107
-0.137444
0.102631
-0.128624
0.103722
-0.0998282
0.113093
-0.0452518
0.12775
0.0197003
0.143476
0.0806383
0.156853
0.130957
0.165816
0.181552
0.169404
0.236602
0.16847
0.275778
0.164716
0.271202
0.160248
0.1951
0.156487
0.0783395
0.153806
-0.0569604
0.153127
-0.149666
0.152107
-0.199484
0.148003
-0.210202
0.140561
-0.211636
0.135582
-0.231576
0.136703
-0.17335
0.14248
-0.117374
0.147332
0.0467028
0.147506
0.166897
0.145658
0.268643
0.144352
0.338108
0.146423
0.198677
0.149402
0.179669
0.148996
-0.0652485
-0.195525
0.100186
-0.0342063
0.0932334
-0.0357684
0.0860549
-0.0362594
0.0786797
-0.0354295
0.0712691
-0.0334257
0.0641112
-0.0302319
0.0579336
-0.0256266
0.0535608
-0.0193741
0.0516259
-0.011158
0.0531797
-0.000765787
0.0580047
0.0130019
0.0662876
0.0277052
0.0774393
0.0436728
0.0907271
0.0594518
0.10539
0.0731817
0.12068
0.0824908
0.135749
0.0848037
0.149516
0.0784385
0.160889
0.0628269
0.169201
0.036841
0.174038
-0.000494864
0.174773
-0.0447796
0.171289
-0.0865987
0.164629
-0.117702
0.156548
-0.136057
0.148591
-0.144354
0.141419
-0.146342
0.134971
-0.145143
0.129226
-0.142302
0.123803
-0.137824
0.117182
-0.132648
0.108841
-0.129104
0.101937
-0.121719
0.101502
-0.0993937
0.109564
-0.0533134
0.123858
0.0054064
0.140143
0.0643529
0.154778
0.116322
0.165526
0.170804
0.171061
0.231066
0.17168
0.275159
0.168543
0.27434
0.16378
0.199863
0.159076
0.0830431
0.155059
-0.0529429
0.153122
-0.147729
0.151577
-0.197939
0.147636
-0.206261
0.140237
-0.204238
0.134976
-0.226314
0.135952
-0.174326
0.14196
-0.123382
0.1474
0.0412629
0.14795
0.166346
0.146267
0.270326
0.145025
0.339349
0.147471
0.196231
0.151025
0.176115
0.150809
-0.0650332
-0.193793
0.126307
-0.0277608
0.119899
-0.0293606
0.113448
-0.0298086
0.107049
-0.0290302
0.10079
-0.0271664
0.0947032
-0.0241455
0.0890036
-0.0199271
0.0841384
-0.0145089
0.0807379
-0.00775753
0.0792534
0.000718645
0.08066
0.0115954
0.0853243
0.0230408
0.0932397
0.0357575
0.103953
0.0487386
0.116679
0.0604553
0.130437
0.068733
0.144116
0.071125
0.156543
0.0660111
0.166733
0.0526372
0.17403
0.0295437
0.17775
-0.00421447
0.176991
-0.0440205
0.171797
-0.0814047
0.163618
-0.109523
0.154449
-0.126888
0.14581
-0.135714
0.138324
-0.138856
0.131825
-0.138644
0.126104
-0.136581
0.121062
-0.132781
0.115559
-0.127145
0.108464
-0.122009
0.101663
-0.114919
0.0999001
-0.0976307
0.106295
-0.0597087
0.119686
-0.00798379
0.136101
0.0479376
0.151779
0.100644
0.164296
0.158287
0.171908
0.223455
0.174216
0.272851
0.171763
0.276792
0.166808
0.204818
0.161296
0.0885549
0.156092
-0.0477382
0.152918
-0.144556
0.150828
-0.195849
0.147118
-0.202551
0.139836
-0.196956
0.134252
-0.22073
0.135002
-0.175076
0.141235
-0.129616
0.147387
0.0351107
0.148441
0.165293
0.146977
0.27179
0.14581
0.340517
0.148633
0.193407
0.152784
0.171964
0.152762
-0.0650118
-0.192094
0.142748
-0.0219603
0.136963
-0.0235759
0.131173
-0.0240185
0.125696
-0.0235526
0.120712
-0.0221823
0.116179
-0.0196132
0.112083
-0.0158309
0.108523
-0.0109484
0.105699
-0.00493384
0.103745
0.00267284
0.103841
0.0114997
0.106173
0.0207086
0.111219
0.0307114
0.118953
0.0410042
0.128942
0.0504669
0.140316
0.0573581
0.151923
0.0595186
0.16257
0.0553642
0.171326
0.0438813
0.177418
0.0234509
0.179767
-0.00656295
0.177359
-0.041613
0.170561
-0.0746067
0.161159
-0.10012
0.15124
-0.116969
0.142187
-0.126661
0.134537
-0.131207
0.128113
-0.13222
0.122533
-0.131001
0.117794
-0.128043
0.113263
-0.122613
0.10759
-0.116336
0.101417
-0.108747
0.0987095
-0.0949227
0.103343
-0.0643427
0.115308
-0.0199481
0.131385
0.0318605
0.147811
0.0842184
0.161978
0.144119
0.17167
0.213763
0.175782
0.268739
0.174179
0.278396
0.16917
0.209826
0.163085
0.0946409
0.156857
-0.0415109
0.152489
-0.140187
0.149821
-0.193181
0.146398
-0.199128
0.139336
-0.189895
0.133416
-0.214809
0.133848
-0.175509
0.140253
-0.13602
0.147244
0.0281199
0.148947
0.163589
0.147781
0.272957
0.146705
0.341592
0.149905
0.190208
0.154667
0.167202
0.154843
-0.0651882
-0.190433
0.149573
-0.0170657
0.14449
-0.0184926
0.139403
-0.0189309
0.134827
-0.0189769
0.130909
-0.0182647
0.127672
-0.0163763
0.125141
-0.0132994
0.123348
-0.00915554
0.122434
-0.0040197
0.12229
0.00281719
0.12284
0.0109488
0.124589
0.0189603
0.128197
0.0271033
0.133846
0.0353555
0.141374
0.0429381
0.150194
0.0485388
0.159393
0.0503191
0.167947
0.0468106
0.174954
0.0368741
0.179281
0.019124
0.180066
-0.00734827
0.176
-0.037547
0.167867
-0.0664733
0.157643
-0.0898964
0.147342
-0.106668
0.138134
-0.117453
0.130435
-0.123507
0.124129
-0.125914
0.118749
-0.125621
0.114231
-0.123525
0.110407
-0.118789
0.106107
-0.112036
0.100944
-0.103584
0.0977544
-0.0917329
0.100658
-0.0672467
0.110863
-0.0301529
0.126063
0.016661
0.142839
0.0674421
0.158565
0.128393
0.170488
0.20184
0.176538
0.262688
0.175769
0.279166
0.170832
0.214762
0.164416
0.101058
0.157416
-0.0345108
0.151907
-0.134679
0.148619
-0.189892
0.145488
-0.195998
0.138749
-0.183156
0.132521
-0.208581
0.13253
-0.175518
0.138988
-0.142478
0.146912
0.0201967
0.149433
0.161067
0.148668
0.273721
0.14771
0.342551
0.151286
0.186632
0.156661
0.161827
0.157039
-0.0655661
-0.188819
0.14962
-0.0135856
0.145384
-0.014257
0.141298
-0.0148448
0.137564
-0.0152426
0.134305
-0.015006
0.131763
-0.0138349
0.130099
-0.0116352
0.129306
-0.00836237
0.129271
-0.00398424
0.130281
0.00180693
0.132529
0.00870095
0.135645
0.0158436
0.139585
0.0231634
0.144627
0.0303141
0.150844
0.036721
0.157949
0.0414342
0.165242
0.0430259
0.17188
0.0401719
0.177043
0.0317116
0.17983
0.016337
0.178432
-0.00595074
0.17275
-0.0318646
0.163725
-0.057448
0.15331
-0.0794816
0.143168
-0.0965263
0.134168
-0.108453
0.126581
-0.11592
0.120397
-0.119731
0.115212
-0.120436
0.110826
-0.119139
0.107384
-0.115347
0.104193
-0.108844
0.100211
-0.0996019
0.0969856
-0.0885077
0.098411
-0.0686721
0.106572
-0.0383144
0.120467
0.00276618
0.136927
0.050982
0.153538
0.111783
0.167465
0.187913
0.175719
0.254434
0.176186
0.278699
0.171642
0.219306
0.165192
0.107508
0.157648
-0.0269671
0.151169
-0.1282
0.147292
-0.186015
0.14443
-0.193136
0.138081
-0.176806
0.131604
-0.202104
0.131119
-0.175033
0.137514
-0.148873
0.146386
0.0113247
0.149864
0.15759
0.149612
0.273973
0.148819
0.343345
0.15277
0.18268
0.158753
0.155843
0.159347
-0.0661601
-0.187239
0.184684
-0.00942633
-0.188843
0.181223
-0.010796
0.177764
-0.0113854
0.174144
-0.0116224
0.170446
-0.0113084
0.166821
-0.0102096
0.163387
-0.00820145
0.160244
-0.00521959
0.157512
-0.00125226
0.15549
0.00382963
0.154365
0.00982534
0.154032
0.0161773
0.15466
0.0225347
0.15651
0.0284648
0.159866
0.0333641
0.164934
0.0363665
0.171621
0.0363386
0.179542
0.0322509
0.188045
0.0232087
0.195699
0.00868346
0.200929
-0.0111811
0.202485
-0.0334199
0.200295
-0.0552588
0.195191
-0.0743772
0.188255
-0.0895905
0.180403
-0.100601
0.172261
-0.107778
0.164316
-0.111785
0.15667
-0.11279
0.149207
-0.111676
0.142169
-0.108309
0.135459
-0.102134
0.127936
-0.0920786
0.11963
-0.0802024
0.113552
-0.0625935
0.112861
-0.0376234
0.117767
-0.00214034
0.125111
0.0436384
0.132329
0.104565
0.138201
0.182041
0.143133
0.249502
0.148496
0.273335
0.155969
0.211834
0.163081
0.100395
0.166218
-0.0301037
0.164819
-0.126801
0.161018
-0.182214
0.155717
-0.187835
0.147712
-0.168801
0.138965
-0.193357
0.134341
-0.170409
0.134301
-0.148833
0.136258
0.00936705
0.135641
0.158208
0.13374
0.275873
0.135
0.342085
0.140651
0.177029
0.147475
0.14902
0.147963
-0.0666484
-0.183896
0.194835
-0.00640315
-0.197858
0.191771
-0.00773235
0.188768
-0.00838199
0.185677
-0.00853152
0.182562
-0.00819281
0.179568
-0.00721593
0.176839
-0.00547245
0.174512
-0.00289254
0.172697
0.000562495
0.171614
0.00491299
0.171436
0.0100031
0.1722
0.0154134
0.173973
0.0207612
0.17685
0.0255881
0.180928
0.0292864
0.186221
0.0310731
0.192526
0.0300334
0.19939
0.0253874
0.206086
0.0165124
0.211599
0.00317023
0.214523
-0.0141049
0.214287
-0.0331838
0.210978
-0.0519495
0.205252
-0.0686514
0.197981
-0.0823193
0.189976
-0.0925966
0.181776
-0.0995779
0.173782
-0.103792
0.166145
-0.105153
0.158687
-0.104218
0.15151
-0.101132
0.144873
-0.0954964
0.137928
-0.0851343
0.130056
-0.0723297
0.123438
-0.0559755
0.121526
-0.0357118
0.125325
-0.00593914
0.132517
0.0364464
0.140296
0.0967857
0.14722
0.175117
0.153427
0.243296
0.160152
0.26661
0.168675
0.203311
0.176452
0.0926187
0.179473
-0.0331256
0.177283
-0.12461
0.172391
-0.177323
0.166413
-0.181858
0.157904
-0.160291
0.148561
-0.184014
0.143159
-0.165007
0.142812
-0.148486
0.145142
0.00703686
0.144937
0.158413
0.143302
0.277508
0.144901
0.340486
0.151089
0.170841
0.158603
0.141505
0.158892
-0.0669367
-0.180129
0.205193
-0.0039685
-0.207628
0.20249
-0.00502886
0.199775
-0.00566713