/*--------------------------------*- C++ -*----------------------------------*\
| =========                 |                                                 |
| \\      /  F ield         | OpenFOAM: The Open Source CFD Toolbox           |
|  \\    /   O peration     | Version:  2512                                  |
|   \\  /    A nd           | Website:  www.openfoam.com                      |
|    \\/     M anipulation  |                                                 |
\*---------------------------------------------------------------------------*/
FoamFile
{
    version     2.0;
    format      ascii;
    arch        "LSB;label=32;scalar=64";
    class       volScalarField;
    location    "158";
    object      p;
}
// * * * * * * * * * * * * * * * * * * * * * * * * * * * * * * * * * * * * * //

dimensions      [0 2 -2 0 0 0 0];

internalField   nonuniform List<scalar> 
13248
(
-0.320237
-0.319186
-0.316879
-0.313575
-0.309548
-0.305029
-0.300239
-0.295413
-0.290764
-0.286475
-0.282684
-0.279469
-0.276836
-0.274721
-0.272994
-0.271474
-0.269948
-0.268201
-0.266023
-0.263277
-0.259721
-0.255427
-0.249413
-0.242393
-0.328199
-0.326281
-0.323318
-0.319528
-0.31514
-0.310371
-0.305413
-0.300437
-0.295587
-0.290968
-0.286641
-0.282614
-0.278841
-0.275235
-0.271675
-0.268025
-0.264153
-0.259946
-0.255309
-0.250169
-0.244428
-0.238038
-0.23069
-0.223067
-0.338199
-0.33518
-0.331382
-0.326976
-0.322118
-0.316995
-0.311741
-0.306442
-0.301147
-0.295876
-0.290623
-0.285359
-0.280041
-0.274621
-0.26905
-0.26329
-0.257315
-0.251109
-0.244653
-0.23793
-0.230869
-0.223483
-0.215555
-0.207624
-0.350143
-0.345833
-0.341056
-0.335915
-0.330467
-0.324837
-0.319073
-0.313153
-0.307029
-0.300657
-0.294011
-0.287092
-0.279924
-0.27255
-0.265023
-0.257397
-0.249716
-0.242007
-0.234275
-0.2265
-0.218645
-0.210712
-0.202567
-0.194733
-0.36397
-0.358232
-0.352374
-0.346404
-0.340227
-0.333873
-0.327277
-0.320309
-0.312861
-0.304886
-0.296417
-0.287549
-0.278414
-0.269154
-0.259898
-0.250742
-0.241746
-0.232933
-0.224298
-0.215814
-0.207445
-0.199176
-0.190925
-0.183033
-0.379617
-0.372361
-0.365368
-0.358485
-0.351398
-0.344003
-0.33612
-0.327559
-0.318227
-0.308173
-0.297556
-0.286601
-0.275541
-0.264577
-0.253858
-0.243472
-0.233457
-0.223811
-0.21451
-0.205513
-0.19678
-0.188279
-0.179957
-0.172036
-0.396939
-0.388125
-0.37997
-0.372065
-0.363801
-0.354917
-0.345168
-0.334402
-0.322659
-0.310162
-0.297235
-0.284212
-0.271378
-0.258934
-0.247
-0.235626
-0.22481
-0.214521
-0.204713
-0.195337
-0.186342
-0.177685
-0.169332
-0.161376
-0.415614
-0.405259
-0.39592
-0.386821
-0.37699
-0.366044
-0.353785
-0.340236
-0.325678
-0.310549
-0.295312
-0.280354
-0.265945
-0.25224
-0.2393
-0.22712
-0.215662
-0.204867
-0.194672
-0.185015
-0.175839
-0.167095
-0.158753
-0.1508
-0.435088
-0.423274
-0.412711
-0.402148
-0.390242
-0.37659
-0.361208
-0.344437
-0.326855
-0.309092
-0.291681
-0.274991
-0.259225
-0.244459
-0.230686
-0.217853
-0.205885
-0.1947
-0.18422
-0.174373
-0.165092
-0.156326
-0.148036
-0.140129
-0.454546
-0.441409
-0.429539
-0.417138
-0.402569
-0.385595
-0.366628
-0.346418
-0.325822
-0.305587
-0.286233
-0.268048
-0.251137
-0.235493
-0.221044
-0.207692
-0.195332
-0.183865
-0.173197
-0.163243
-0.153931
-0.145203
-0.136997
-0.129186
-0.472935
-0.458637
-0.445312
-0.430611
-0.412789
-0.392001
-0.3692
-0.345557
-0.322132
-0.29969
-0.278665
-0.259228
-0.241381
-0.225033
-0.210059
-0.196324
-0.183697
-0.172061
-0.161309
-0.151345
-0.142087
-0.133468
-0.125393
-0.117743
-0.489057
-0.4738
-0.458836
-0.441339
-0.419716
-0.394747
-0.368018
-0.341075
-0.315079
-0.290726
-0.268312
-0.247875
-0.22931
-0.212454
-0.197131
-0.183174
-0.170429
-0.158763
-0.148055
-0.1382
-0.129113
-0.120711
-0.112874
-0.105532
-0.334477
-0.336878
-0.338221
-0.33895
-0.339466
-0.339893
-0.340292
-0.340701
-0.341137
-0.341602
-0.342101
-0.342648
-0.343272
-0.344021
-0.344966
-0.3462
-0.347839
-0.350012
-0.352859
-0.356519
-0.361103
-0.366646
-0.373122
-0.380636
-0.329064
-0.330863
-0.331759
-0.33208
-0.332148
-0.332082
-0.33196
-0.331843
-0.331773
-0.331787
-0.33193
-0.332261
-0.332863
-0.333844
-0.335336
-0.337491
-0.340478
-0.344468
-0.349618
-0.356056
-0.363854
-0.372993
-0.383302
-0.394786
-0.324754
-0.325891
-0.326314
-0.326227
-0.325859
-0.325321
-0.324705
-0.324089
-0.323543
-0.323134
-0.322939
-0.323055
-0.323605
-0.324737
-0.326623
-0.329452
-0.333414
-0.338697
-0.345452
-0.353778
-0.363699
-0.375126
-0.387774
-0.401455
-0.321196
-0.32171
-0.321679
-0.321194
-0.320396
-0.319387
-0.31827
-0.317145
-0.316105
-0.315247
-0.314674
-0.31451
-0.314908
-0.316037
-0.318088
-0.321265
-0.325763
-0.331759
-0.339383
-0.348703
-0.359691
-0.372213
-0.386002
-0.400317
-0.318102
-0.318118
-0.317692
-0.316828
-0.315601
-0.314106
-0.312459
-0.31078
-0.30919
-0.307814
-0.306781
-0.306238
-0.306349
-0.307298
-0.309279
-0.312491
-0.317119
-0.323317
-0.331189
-0.340764
-0.351983
-0.364614
-0.378653
-0.39245
-0.315303
-0.314999
-0.314263
-0.313048
-0.31139
-0.309386
-0.307165
-0.304875
-0.302666
-0.300692
-0.299109
-0.298082
-0.297788
-0.298412
-0.300146
-0.303176
-0.307665
-0.313741
-0.321473
-0.330847
-0.341804
-0.353871
-0.367558
-0.380005
-0.31278
-0.312359
-0.311405
-0.309865
-0.307777
-0.305246
-0.302424
-0.299485
-0.296612
-0.29399
-0.291804
-0.29024
-0.289484
-0.289726
-0.291149
-0.293923
-0.298186
-0.304027
-0.311473
-0.320434
-0.330888
-0.342003
-0.354873
-0.365213
-0.310697
-0.310329
-0.309228
-0.307387
-0.30488
-0.301833
-0.29842
-0.294847
-0.29133
-0.288086
-0.285329
-0.283267
-0.2821
-0.282017
-0.28319
-0.285764
-0.28984
-0.295457
-0.302583
-0.310986
-0.320664
-0.33035
-0.341608
-0.348898
-0.309386
-0.309151
-0.307939
-0.305816
-0.302919
-0.299402
-0.295467
-0.291348
-0.287294
-0.283552
-0.280361
-0.277945
-0.276511
-0.276241
-0.277281
-0.279729
-0.283619
-0.288903
-0.295459
-0.302941
-0.31129
-0.319129
-0.327977
-0.332549
-0.309286
-0.309151
-0.307814
-0.30542
-0.30218
-0.29828
-0.293946
-0.289439
-0.285028
-0.280981
-0.27755
-0.274962
-0.273407
-0.273035
-0.273935
-0.276129
-0.279559
-0.284078
-0.289468
-0.295361
-0.301587
-0.307111
-0.312827
-0.314603
-0.310853
-0.31067
-0.309138
-0.30647
-0.302939
-0.298757
-0.294168
-0.289444
-0.28486
-0.280685
-0.277158
-0.274484
-0.272811
-0.272225
-0.272735
-0.274269
-0.276669
-0.279708
-0.283099
-0.286545
-0.289824
-0.292538
-0.295109
-0.294818
-0.314449
-0.313976
-0.312124
-0.309155
-0.305361
-0.300971
-0.296239
-0.291421
-0.286779
-0.282555
-0.278951
-0.27612
-0.274144
-0.273028
-0.272698
-0.273
-0.27371
-0.274567
-0.275278
-0.275625
-0.275349
-0.274552
-0.273395
-0.271695
-0.391027
-0.403724
-0.415656
-0.425109
-0.429992
-0.428118
-0.417387
-0.396593
-0.365587
-0.32605
-0.281772
-0.237822
-0.199
-0.168588
-0.147999
-0.137372
-0.136748
-0.146191
-0.163778
-0.183438
-0.195929
-0.194282
-0.176614
-0.149262
-0.121113
-0.098462
-0.0839184
-0.0773355
-0.0773697
-0.083938
-0.098888
-0.12127
-0.142393
-0.149983
-0.140625
-0.118279
-0.0941881
-0.0758799
-0.0647885
-0.0597124
-0.0620818
-0.0721625
-0.0827828
-0.0850396
-0.0770097
-0.0648342
-0.0550745
-0.0484365
-0.0470146
-0.0500627
-0.0518483
-0.0504203
-0.0466809
-0.0398774
-0.0344829
-0.0283665
-0.0233455
-0.0230419
-0.0192906
-0.00639748
-0.410457
-0.427605
-0.443023
-0.455146
-0.461741
-0.460473
-0.449158
-0.426367
-0.391962
-0.347855
-0.29823
-0.248626
-0.204223
-0.168523
-0.142971
-0.127518
-0.121858
-0.125908
-0.13842
-0.154768
-0.166975
-0.167582
-0.154597
-0.132733
-0.109617
-0.0911312
-0.0800782
-0.0765098
-0.0792545
-0.0886873
-0.106893
-0.132393
-0.155328
-0.161967
-0.151516
-0.126361
-0.0991105
-0.0778554
-0.0642796
-0.0568975
-0.056808
-0.0642637
-0.0730569
-0.0750617
-0.0687026
-0.0593256
-0.0521654
-0.0480804
-0.0489232
-0.0545041
-0.0575363
-0.0556519
-0.0508383
-0.0421392
-0.0353532
-0.0271668
-0.0209903
-0.0198444
-0.0161419
-0.0053473
-0.420718
-0.440704
-0.458153
-0.47196
-0.479732
-0.479049
-0.467573
-0.443759
-0.407401
-0.360489
-0.307451
-0.254106
-0.205843
-0.166249
-0.136672
-0.116936
-0.106467
-0.105106
-0.112261
-0.124689
-0.135884
-0.13883
-0.130239
-0.113897
-0.0959388
-0.0818122
-0.0744468
-0.0740041
-0.0794936
-0.0916992
-0.112846
-0.141086
-0.165669
-0.170892
-0.160593
-0.133066
-0.103044
-0.07916
-0.0633298
-0.0538526
-0.0514825
-0.056429
-0.0634701
-0.0652056
-0.0603744
-0.0536022
-0.0489292
-0.0474402
-0.0506699
-0.0589089
-0.0632274
-0.0607067
-0.0547726
-0.04419
-0.0360827
-0.0259789
-0.0186693
-0.0166669
-0.0130102
-0.0043057
-0.421244
-0.442549
-0.460964
-0.475955
-0.484301
-0.484048
-0.472707
-0.448701
-0.411755
-0.363867
-0.30954
-0.254648
-0.204554
-0.1627
-0.130313
-0.107142
-0.0925187
-0.0861058
-0.0877486
-0.0956206
-0.104832
-0.109164
-0.104635
-0.0935483
-0.0805917
-0.0707844
-0.0670737
-0.0696477
-0.0776909
-0.0923239
-0.115951
-0.146627
-0.173129
-0.176917
-0.167825
-0.138241
-0.105905
-0.0798125
-0.0620335
-0.0507201
-0.0463172
-0.0489484
-0.0543284
-0.0557352
-0.0522087
-0.0477728
-0.0454108
-0.0464894
-0.0521598
-0.0631556
-0.0688148
-0.0654764
-0.0584274
-0.0460007
-0.036655
-0.0248078
-0.0164
-0.0135452
-0.00992285
-0.00328138
-0.413252
-0.434496
-0.453072
-0.467747
-0.476971
-0.476985
-0.465978
-0.442468
-0.40616
-0.359081
-0.305643
-0.25144
-0.201469
-0.158891
-0.124851
-0.0991231
-0.0810439
-0.0702257
-0.0666467
-0.0695602
-0.0758063
-0.0803373
-0.0790372
-0.0725084
-0.0640929
-0.0583289
-0.0579905
-0.0632938
-0.0735634
-0.0901736
-0.115765
-0.148581
-0.177754
-0.187771
-0.173361
-0.141809
-0.107697
-0.0798741
-0.0604949
-0.0476288
-0.0414707
-0.0420161
-0.0458573
-0.0468807
-0.0443739
-0.0419436
-0.0416478
-0.0451912
-0.0532916
-0.0671063
-0.0741562
-0.0698271
-0.061761
-0.0475482
-0.0370571
-0.023656
-0.014198
-0.0105121
-0.00690595
-0.00228257
-0.399463
-0.419491
-0.437677
-0.451959
-0.460432
-0.460091
-0.449415
-0.426901
-0.392307
-0.347656
-0.297055
-0.245509
-0.197393
-0.155474
-0.120843
-0.0934164
-0.0726382
-0.0581239
-0.0498987
-0.0478756
-0.050426
-0.0539796
-0.0547022
-0.0515833
-0.0470381
-0.044818
-0.047395
-0.0550358
-0.0671459
-0.0852426
-0.112182
-0.146662
-0.178507
-0.195992
-0.176368
-0.14364
-0.108429
-0.0793974
-0.0587906
-0.0446622
-0.0370329
-0.0357575
-0.0382127
-0.0388176
-0.0370135
-0.0362145
-0.0376808
-0.0435156
-0.0539647
-0.0706056
-0.0790953
-0.0736477
-0.0647559
-0.0488157
-0.0372742
-0.0225189
-0.0120749
-0.00759691
-0.00398133
-0.00131626
-0.382459
-0.401089
-0.415156
-0.429073
-0.436352
-0.435456
-0.425195
-0.404199
-0.372348
-0.331552
-0.285377
-0.238001
-0.193053
-0.152881
-0.118535
-0.0901568
-0.0674139
-0.0499778
-0.0378614
-0.0312905
-0.0297854
-0.0312102
-0.0325286
-0.0315997
-0.0301969
-0.0308354
-0.0357306
-0.0452129
-0.0587023
-0.0777338
-0.105343
-0.140823
-0.174487
-0.193395
-0.175963
-0.143616
-0.108122
-0.0784237
-0.0569714
-0.0418687
-0.0330419
-0.0302148
-0.0314631
-0.0316564
-0.0302472
-0.0306845
-0.0335668
-0.0414434
-0.0540827
-0.0735053
-0.0835119
-0.0768178
-0.0673924
-0.0497881
-0.0372984
-0.0213875
-0.0100365
-0.00482409
-0.00116571
-0.000388499
-0.361573
-0.372285
-0.387945
-0.400573
-0.406414
-0.405012
-0.395506
-0.376698
-0.348552
-0.312727
-0.272059
-0.229807
-0.188854
-0.151177
-0.117813
-0.0891285
-0.0650873
-0.045498
-0.0303427
-0.0199075
-0.0143738
-0.0128607
-0.0132684
-0.0135538
-0.0143501
-0.0170192
-0.0235385
-0.0342678
-0.0486215
-0.0680671
-0.095704
-0.131459
-0.166229
-0.185122
-0.172341
-0.141745
-0.106812
-0.0769841
-0.0550677
-0.0392766
-0.0295114
-0.0253908
-0.0256042
-0.0254298
-0.0241667
-0.0254551
-0.029372
-0.0389751
-0.0535693
-0.0756826
-0.0873141
-0.0793976
-0.0696666
-0.0504569
-0.0371337
-0.0202684
-0.00808698
-0.00221039
0.00152971
0.000495387
-0.3409
-0.348135
-0.359158
-0.368842
-0.372953
-0.371204
-0.362963
-0.346995
-0.323251
-0.293004
-0.258298
-0.221515
-0.184885
-0.150096
-0.118204
-0.0897689
-0.0650275
-0.0439895
-0.0266464
-0.013216
-0.00410865
0.000679889
0.00213311
0.00185342
1.64286e-05
-0.0038808
-0.0113269
-0.0226638
-0.0373413
-0.0566912
-0.0838681
-0.119385
-0.154753
-0.174685
-0.16615
-0.138252
-0.104669
-0.0752324
-0.0532075
-0.0369862
-0.026492
-0.0212974
-0.0206215
-0.0201254
-0.0188096
-0.0206223
-0.0251734
-0.0361091
-0.0523726
-0.0770478
-0.090415
-0.0855769
-0.0716244
-0.0508337
-0.0367933
-0.0191932
-0.0062489
0.000225913
0.00409928
0.00133133
-0.317074
-0.32034
-0.329159
-0.336347
-0.338789
-0.337238
-0.330791
-0.318068
-0.298979
-0.274338
-0.24546
-0.214
-0.181654
-0.149881
-0.119764
-0.0920182
-0.0670753
-0.0451383
-0.0262744
-0.0106338
0.00138805
0.00936926
0.0133689
0.0141023
0.0125976
0.00826771
0.000527502
-0.0108469
-0.0253944
-0.0443572
-0.070716
-0.105376
-0.140975
-0.162425
-0.157954
-0.133534
-0.102085
-0.0735304
-0.0516709
-0.035203
-0.0240935
-0.0179422
-0.0164792
-0.0157582
-0.014243
-0.0162533
-0.0210245
-0.0329142
-0.0504935
-0.077499
-0.0925175
-0.0887895
-0.0731324
-0.0509457
-0.0362815
-0.0181647
-0.00455411
0.00244257
0.0065394
0.00211613
-0.292891
-0.294137
-0.301227
-0.305807
-0.307111
-0.30626
-0.301794
-0.292373
-0.277811
-0.258461
-0.235055
-0.208661
-0.180512
-0.151822
-0.123661
-0.0968629
-0.072024
-0.0495229
-0.0295485
-0.0122367
0.00211303
0.0130124
0.0200143
0.0232074
0.0228555
0.0190085
0.0117178
0.00092371
-0.0129655
-0.0311391
-0.056575
-0.0907528
-0.126237
-0.148435
-0.148025
-0.127378
-0.0988333
-0.0716741
-0.0502313
-0.0337142
-0.0221454
-0.0151173
-0.0129146
-0.0121563
-0.0105309
-0.012538
-0.0170161
-0.0293078
-0.0478908
-0.077109
-0.0935145
-0.0909735
-0.0740549
-0.0507314
-0.0355471
-0.017051
-0.00295545
0.00442203
0.00883937
0.00284593
-0.270828
-0.27308
-0.27711
-0.278057
-0.277967
-0.277122
-0.273759
-0.266763
-0.25577
-0.24076
-0.222033
-0.200189
-0.176051
-0.150575
-0.124737
-0.0994141
-0.0753139
-0.0529561
-0.032684
-0.0147199
0.000734107
0.0134286
0.0229872
0.0288341
0.0301939
0.027903
0.0214923
0.0116679
-0.00131838
-0.0185806
-0.0426813
-0.0752416
-0.109527
-0.131892
-0.134201
-0.117888
-0.0927389
-0.0675458
-0.0470848
-0.031077
-0.0196275
-0.0121537
-0.0094135
-0.00862529
-0.0071063
-0.00920737
-0.0133684
-0.0256898
-0.0447285
-0.0756108
-0.0933569
-0.0904357
-0.0741299
-0.0499117
-0.0344584
-0.0156155
-0.00129336
0.00632292
0.0110215
0.00351257
-0.253631
-0.263182
-0.263743
-0.261649
-0.259806
-0.257779
-0.253912
-0.246967
-0.236433
-0.222309
-0.204904
-0.184743
-0.162513
-0.139021
-0.115101
-0.0915162
-0.0688872
-0.0476685
-0.0281812
-0.0106491
0.00473779
0.0177907
0.028235
0.0355464
0.0393549
0.0377908
0.0326097
0.0242235
0.0127161
-0.0035521
-0.0279851
-0.0629949
-0.1005
-0.125152
-0.127099
-0.10963
-0.0851562
-0.0613311
-0.0421842
-0.0271403
-0.0163011
-0.00897416
-0.00612796
-0.00505217
-0.00312109
-0.00446868
-0.00825662
-0.0206654
-0.0404436
-0.0736643
-0.0938062
-0.0955107
-0.0739952
-0.0485652
-0.0331162
-0.0140114
0.000329475
0.0082546
0.0130627
0.00411621
-0.230022
-0.244176
-0.24564
-0.241932
-0.23831
-0.235174
-0.230903
-0.224071
-0.214113
-0.201091
-0.185342
-0.167304
-0.147499
-0.126531
-0.105053
-0.0836855
-0.0629664
-0.0433156
-0.025048
-0.00840181
0.00645274
0.0193867
0.030178
0.0382604
0.0425599
0.0427611
0.0391797
0.0325202
0.02269
0.00755143
-0.0170312
-0.0532264
-0.0911196
-0.114121
-0.114573
-0.0980104
-0.0758507
-0.0545078
-0.037231
-0.0234998
-0.0134282
-0.0063189
-0.00340511
-0.00225126
-0.000401568
-0.00154915
-0.00470147
-0.0167626
-0.0367376
-0.0712089
-0.0928592
-0.0928488
-0.0726566
-0.0466743
-0.0312969
-0.0123347
0.00173692
0.00996177
0.0146514
0.00461119
-0.21013
-0.224469
-0.226405
-0.222242
-0.217665
-0.213844
-0.209451
-0.203029
-0.193947
-0.182245
-0.168223
-0.152227
-0.134636
-0.115902
-0.0965443
-0.0770934
-0.058033
-0.039762
-0.0225933
-0.00676919
0.00751789
0.0201112
0.0308348
0.039287
0.0444147
0.04569
0.0433771
0.0380822
0.029438
0.0148004
-0.00992487
-0.0451404
-0.0801953
-0.100561
-0.100533
-0.0858951
-0.0665927
-0.0478343
-0.0323904
-0.0199144
-0.0106228
-0.00382009
-0.000875548
0.000333646
0.00210854
0.00102925
-0.00197141
-0.0138874
-0.0337881
-0.0681205
-0.0903053
-0.0897099
-0.0705003
-0.0443836
-0.0291811
-0.0105972
0.00314119
0.0115523
0.0159999
0.0050628
-0.191834
-0.204827
-0.207036
-0.203192
-0.198403
-0.194249
-0.189835
-0.183838
-0.175587
-0.16506
-0.152516
-0.138254
-0.122576
-0.10583
-0.0884275
-0.0708085
-0.0533888
-0.036528
-0.0205239
-0.00561487
0.00799338
0.0201086
0.0305681
0.0389957
0.0446885
0.0469351
0.0458445
0.0418334
0.0342985
0.0202585
-0.0037887
-0.0366822
-0.0683103
-0.0859678
-0.0857661
-0.0734121
-0.0571399
-0.041066
-0.02752
-0.0163373
-0.00788725
-0.00147447
0.00147534
0.00276923
0.00453075
0.00354665
0.000595998
-0.0111744
-0.030547
-0.0639208
-0.0864122
-0.0857387
-0.0675097
-0.0416974
-0.0267742
-0.00875524
0.004537
0.0129859
0.0171632
0.00548188
-0.173816
-0.18581
-0.188265
-0.184899
-0.180245
-0.176007
-0.171658
-0.166082
-0.15862
-0.149191
-0.138008
-0.125333
-0.11141
-0.0965038
-0.0809298
-0.0650424
-0.0491974
-0.0337193
-0.0188915
-0.00494951
0.00789744
0.0194359
0.0294759
0.0376958
0.0436209
0.0465604
0.0464639
0.0435819
0.037185
0.0242258
0.00183209
-0.0279596
-0.0556491
-0.0705468
-0.0706441
-0.0609177
-0.0478065
-0.0344231
-0.0227553
-0.0128373
-0.00524156
0.000719343
0.00364477
0.00504284
0.00681035
0.00594517
0.00316068
-0.00814744
-0.026515
-0.0585837
-0.0811605
-0.0806849
-0.063622
-0.0386024
-0.0240989
-0.00681187
0.005907
0.0142282
0.0181157
0.0058554
-0.156604
-0.167819
-0.170362
-0.16743
-0.163074
-0.158962
-0.154801
-0.149679
-0.142987
-0.134602
-0.124685
-0.113459
-0.101126
-0.0878903
-0.0739948
-0.0597258
-0.045386
-0.0312645
-0.0176238
-0.00469282
0.00732053
0.0181975
0.0277297
0.0356321
0.0415438
0.0448644
0.0454507
0.0433994
0.0379595
0.0263789
0.00652955
-0.0191434
-0.0423924
-0.0550002
-0.0559327
-0.0489582
-0.0388766
-0.0280326
-0.0181625
-0.00945698
-0.00269888
0.00276355
0.00563026
0.00714366
0.00895112
0.00822414
0.00572105
-0.00478799
-0.0218285
-0.0521802
-0.0744685
-0.0744567
-0.0588398
-0.0351169
-0.0211976
-0.00477304
0.00723845
0.0152504
0.018808
0.00616808
-0.140747
-0.150868
-0.15334
-0.150844
-0.146901
-0.143069
-0.139205
-0.134565
-0.128609
-0.121196
-0.112442
-0.102534
-0.0916416
-0.0799264
-0.0675784
-0.0548263
-0.0419235
-0.0291237
-0.0166656
-0.00476928
0.00636206
0.0165137
0.0254745
0.0329774
0.0387214
0.0422075
0.043233
0.0417461
0.0370684
0.0270985
0.0105106
-0.0104664
-0.0294715
-0.0404116
-0.0424114
-0.0379731
-0.0305805
-0.0220169
-0.0138132
-0.00624633
-0.000277397
0.00466248
0.0074445
0.0090769
0.0109679
0.0104025
0.00823823
-0.0012526
-0.0166738
-0.0447696
-0.0664112
-0.0670974
-0.0532145
-0.0312796
-0.0181246
-0.00265529
0.00852085
0.0160307
0.0191985
0.00641197
-0.125894
-0.13492
-0.137318
-0.135252
-0.131765
-0.128293
-0.124787
-0.12064
-0.11538
-0.108864
-0.101178
-0.0924729
-0.0828928
-0.0725678
-0.0616462
-0.0503102
-0.03877
-0.0272456
-0.0159522
-0.0050971
0.00512542
0.0145095
0.0228456
0.0298859
0.0353698
0.0388845
0.040196
0.0391531
0.0352317
0.027045
0.0138224
-0.00274965
-0.0180936
-0.0277166
-0.0306311
-0.0282576
-0.0230851
-0.0164702
-0.00976032
-0.00324679
0.00200384
0.00642185
0.00910768
0.0108524
0.0128732
0.0124923
0.0106977
0.00240065
-0.0111141
-0.0365243
-0.0572166
-0.0587554
-0.0468534
-0.0271514
-0.0149436
-0.000485887
0.00974589
0.0165593
0.0192661
0.00658691
-0.111941
-0.120079
-0.122411
-0.12072
-0.117676
-0.114588
-0.111465
-0.107808
-0.103204
-0.0975179
-0.0908094
-0.0832041
-0.074821
-0.0657658
-0.0561555
-0.0461357
-0.0358796
-0.0255765
-0.015418
-0.00559429
0.00371085
0.0123025
0.0199818
0.0265186
0.0316821
0.0351338
0.0366412
0.0360142
0.0328848
0.0264015
0.0161131
0.00323758
-0.00901291
-0.0173778
-0.0208049
-0.0199265
-0.0164731
-0.0114548
-0.00604225
-0.000490992
0.00412233
0.00804462
0.0106349
0.012478
0.0146774
0.0145448
0.0131579
0.00621321
-0.00524678
-0.0277523
-0.047237
-0.049691
-0.0399307
-0.0228145
-0.0117225
0.00169605
0.0109116
0.0168475
0.0190185
0.00670039
-0.0991076
-0.106385
-0.108592
-0.107228
-0.104607
-0.101905
-0.0991712
-0.0959885
-0.092
-0.0870773
-0.0812628
-0.0746593
-0.0673659
-0.059469
-0.0510615
-0.04226
-0.033207
-0.0240634
-0.0149979
-0.00618177
0.00221395
0.0100075
0.0170177
0.0230298
0.0278361
0.0311641
0.0328023
0.0325555
0.0301682
0.0251389
0.0172401
0.00736039
-0.00226923
-0.00934968
-0.0128673
-0.0129531
-0.0107606
-0.00700521
-0.00268515
0.0019994
0.00605304
0.00953128
0.0120298
0.0139536
0.0163762
0.0166235
0.0157235
0.0102026
0.000724793
-0.0188729
-0.0369457
-0.0402671
-0.032684
-0.0183681
-0.00852702
0.00383642
0.0120266
0.0169415
0.0185024
0.00676869
-0.087363
-0.0937687
-0.0958196
-0.0947484
-0.0925298
-0.0902047
-0.0878475
-0.0851151
-0.0816965
-0.0774721
-0.0724706
-0.0667765
-0.0604726
-0.0536294
-0.0463216
-0.0386422
-0.0307083
-0.0226553
-0.0146298
-0.00678477
0.00072468
0.00773401
0.0140755
0.0195545
0.0239877
0.027153
0.0288646
0.0289422
0.0272134
0.0233979
0.017424
0.00995245
0.00249885
-0.00332293
-0.006614
-0.00723326
-0.00591785
-0.00313251
0.000295403
0.00421413
0.00777268
0.0108767
0.0132878
0.0152714
0.0179367
0.0187464
0.0184522
0.0143151
0.00650822
-0.0103862
-0.0268929
-0.030919
-0.0254028
-0.0139249
-0.00541545
0.00586664
0.0131004
0.0169247
0.017814
0.0068185
-0.076544
-0.082177
-0.0840916
-0.0832772
-0.0814224
-0.0794479
-0.0774444
-0.0751286
-0.0722307
-0.0686394
-0.0643729
-0.0595005
-0.0540911
-0.0482028
-0.0418953
-0.0352432
-0.0283421
-0.0213054
-0.0142584
-0.00733587
-0.000676299
0.00557325
0.0112606
0.0162135
0.0202715
0.0232502
0.0249925
0.0253454
0.0241947
0.0213957
0.0169667
0.0114077
0.00574107
0.00109388
-0.00178487
-0.00263026
-0.00188805
0.00017236
0.00289223
0.00615166
0.00926763
0.0120646
0.0143955
0.0164224
0.0192886
0.0208016
0.0212327
0.0183337
0.0117186
-0.00278876
-0.0175914
-0.0220789
-0.0183963
-0.00960655
-0.00244089
0.00771092
0.01413
0.016904
0.0170902
0.00688295
-0.0666513
-0.0716128
-0.0733795
-0.072775
-0.0712414
-0.0695875
-0.0679095
-0.065973
-0.0635447
-0.0605225
-0.056916
-0.0527814
-0.0481763
-0.0431484
-0.0377456
-0.0320275
-0.0260717
-0.0199724
-0.0138364
-0.00777983
-0.00192327
0.00360209
0.00866174
0.013107
0.0167975
0.0195795
0.0213249
0.0219089
0.0212554
0.019303
0.0161141
0.0120631
0.00785806
0.00425665
0.0018707
0.00100153
0.00140088
0.00293522
0.00510664
0.00781437
0.0105355
0.0130732
0.0153281
0.0173925
0.0203445
0.0225676
0.0236744
0.0217592
0.0159132
0.00355086
-0.00939449
-0.0140889
-0.0119531
-0.00553558
0.000341556
0.00929501
0.0150876
0.0169825
0.0164693
0.00698673
-0.0576796
-0.0619983
-0.0636055
-0.0631776
-0.0619352
-0.0605741
-0.0591915
-0.0575955
-0.0555859
-0.0530702
-0.0500516
-0.0465751
-0.0426884
-0.0384307
-0.0338404
-0.0289649
-0.0238669
-0.018624
-0.0133258
-0.00807144
-0.00296502
0.00188105
0.00634991
0.010312
0.0136489
0.0162326
0.0179592
0.0187307
0.0184973
0.0172407
0.0150396
0.0121782
0.00916043
0.00645101
0.00457257
0.00380501
0.0040281
0.00519426
0.00694914
0.00920648
0.0115781
0.0138881
0.0160564
0.0181366
0.0210284
0.0234805
0.0252563
0.0240195
0.0187735
0.00846165
-0.00250001
-0.00719236
-0.00630293
-0.00182489
0.00287291
0.0105567
0.0158994
0.0172189
0.0160344
0.00712558
-0.0495341
-0.0532762
-0.0547325
-0.0544539
-0.0534619
-0.0523596
-0.0512404
-0.0499461
-0.0483057
-0.0462364
-0.0437369
-0.0408425
-0.0375926
-0.0340193
-0.0301531
-0.0260314
-0.0217045
-0.0172359
-0.0126997
-0.00817907
-0.00376342
0.000453008
0.00437074
0.00788015
0.0108815
0.0132691
0.0149584
0.0158748
0.0159854
0.0152902
0.0138691
0.0119287
0.00980283
0.00789833
0.00651114
0.0059143
0.0060749
0.00699558
0.00843831
0.0103347
0.0123997
0.0145005
0.0165587
0.0186076
0.0213296
0.0238571
0.0257169
0.0248924
0.0202937
0.0119494
0.00296996
-0.00158586
-0.00157555
0.00143536
0.00509661
0.0114654
0.0164437
0.0175706
0.0157624
0.00725487
-0.0421571
-0.0454016
-0.0467277
-0.0465592
-0.0457786
-0.0449004
-0.04401
-0.0429778
-0.0416587
-0.0399786
-0.0379327
-0.0355487
-0.0328585
-0.0298881
-0.0266618
-0.0232088
-0.019569
-0.0157934
-0.0119428
-0.00808558
-0.00429703
-0.000657809
0.0027511
0.00583998
0.0085272
0.0107218
0.0123568
0.0133755
0.0137555
0.0135054
0.0126978
0.0114775
0.010072
0.00879683
0.00784989
0.00745325
0.00762255
0.00838861
0.00959979
0.0112091
0.0130071
0.014907
0.0168246
0.0187835
0.0212394
0.02357
0.0252069
0.0246156
0.0207334
0.0141602
0.00701464
0.00283952
0.00221731
0.00418217
0.00696972
0.0120398
0.016608
0.0178548
0.0155052
0.0072884
-0.0354994
-0.0382983
-0.0394891
-0.0394203
-0.0388224
-0.0381386
-0.0374471
-0.0366418
-0.0355997
-0.0342559
-0.032603
-0.0306625
-0.02846
-0.0260164
-0.0233505
-0.0204852
-0.0174518
-0.0142902
-0.0110499
-0.00778658
-0.00456262
-0.00144442
0.00150068
0.00420405
0.00659582
0.00860043
0.0101643
0.0112445
0.0118265
0.0119191
0.0115821
0.0109187
0.0100839
0.00930044
0.00872759
0.00853082
0.00874854
0.00942367
0.0104636
0.011845
0.0134106
0.0151113
0.016859
0.0186741
0.0208085
0.0227878
0.0240779
0.0236082
0.0204404
0.0153535
0.00979004
0.00612638
0.00514242
0.00638116
0.00846121
0.0123286
0.0163525
0.0178041
0.0150332
0.00711817
-0.0295119
-0.0319152
-0.0329817
-0.0329887
-0.0325406
-0.0320226
-0.0315028
-0.0308922
-0.0300868
-0.0290305
-0.0277149
-0.0261562
-0.0243748
-0.0223872
-0.020208
-0.0178544
-0.0153506
-0.0127279
-0.0100259
-0.00728898
-0.00456719
-0.00191527
0.000612824
0.00296881
0.00507781
0.0068948
0.00837268
0.00947788
0.0102
0.010544
0.0105593
0.0103145
0.00991876
0.00952307
0.00925683
0.0092423
0.00952488
0.0101501
0.0110638
0.0122623
0.013624
0.0151283
0.0166855
0.0183124
0.0201232
0.0216954
0.0226396
0.0222338
0.0197196
0.0158248
0.0115506
0.0084524
0.00731766
0.00803557
0.00955391
0.0123671
0.0156944
0.0172102
0.0141555
0.00667044
-0.0241302
-0.0261891
-0.0271437
-0.0272141
-0.0268984
-0.0265126
-0.0261316
-0.025684
-0.0250789
-0.0242668
-0.0232383
-0.0220053
-0.020584
-0.0189875
-0.0172269
-0.0153148
-0.0132696
-0.0111156
-0.00888352
-0.00660818
-0.00432952
-0.0020904
6.34144e-05
0.00208822
0.00394047
0.00557842
0.00696052
0.00805826
0.008865
0.00938427
0.00965981
0.0097046
0.00964096
0.00954789
0.00952733
0.00966853
0.0100169
0.010616
0.0114352
0.0124832
0.0136664
0.0149827
0.0163377
0.0177394
0.0191197
0.020432
0.0210992
0.020737
0.0187834
0.0158195
0.0125622
0.0100069
0.00886282
0.0091851
0.0102536
0.0121858
0.0147028
0.0160295
0.0128582
0.00596893
-0.019304
-0.0210645
-0.0219167
-0.0220344
-0.0218272
-0.0215579
-0.02129
-0.020976
-0.0205384
-0.0199314
-0.0191449
-0.0181873
-0.0170714
-0.0158073
-0.0144033
-0.0128686
-0.0112169
-0.00946654
-0.00764078
-0.00576679
-0.00387589
-0.0020009
-0.000179447
0.00155131
0.00316461
0.00462055
0.0058944
0.00695671
0.00780157
0.00842605
0.00885129
0.00913417
0.0093102
0.00944369
0.00961133
0.00987743
0.0102831
0.0108672
0.0116122
0.0125348
0.013562
0.0147011
0.0158598
0.0170469
0.0181511
0.019138
0.0195845
0.0192586
0.017762
0.0155095
0.0130393
0.0109624
0.0098876
0.00989906
0.0105919
0.0118201
0.0134929
0.0144247
0.0113013
0.00512406
-0.014989
-0.0164901
-0.0172491
-0.0174022
-0.0172849
-0.0171169
-0.0169506
-0.0167409
-0.0164353
-0.0159949
-0.0154087
-0.0146815
-0.0138222
-0.0128383
-0.0117356
-0.0105207
-0.0092035
-0.00779749
-0.00632043
-0.00479286
-0.00323849
-0.00168296
-0.000154647
0.00131834
0.00270822
0.00398996
0.00514031
0.00614328
0.00699193
0.00767763
0.00821764
0.00863606
0.00897208
0.00926407
0.0095671
0.00992603
0.0103748
0.0109459
0.0116297
0.0124457
0.0133356
0.0143121
0.0152884
0.0162755
0.0171437
0.0178753
0.018159
0.0178661
0.016728
0.0150146
0.013139
0.0114606
0.0104863
0.0102594
0.0106258
0.0113059
0.0121982
0.0126175
0.00967855
0.00426257
-0.0111378
-0.0124149
-0.0130902
-0.0132691
-0.0132245
-0.0131376
-0.0130531
-0.0129367
-0.012738
-0.0124293
-0.0120067
-0.0114695
-0.0108238
-0.0100739
-0.0092236
-0.00827735
-0.00724215
-0.00612782
-0.00494747
-0.00371616
-0.00245178
-0.00117387
9.61531e-05
0.00133716
0.00252757
0.00364753
0.00467982
0.005607
0.00642047
0.00711985
0.00771513
0.00821611
0.00865229
0.00904746
0.00944024
0.00986121
0.0103365
0.0108918
0.0115212
0.012244
0.0130133
0.0138442
0.0146562
0.0154639
0.0161385
0.0166767
0.0168474
0.0165847
0.01572
0.014412
0.0129782
0.0116159
0.0107414
0.0103434
0.0104234
0.0106835
0.0109215
0.0108159
0.00814091
0.00347666
-0.00770798
-0.00879316
-0.00939388
-0.009591
-0.00960441
-0.00958263
-0.00956402
-0.00952184
-0.00941613
-0.00922109
-0.0089259
-0.00853776
-0.00806637
-0.00750921
-0.00686834
-0.00614596
-0.00534673
-0.00447737
-0.00354733
-0.00256762
-0.0015517
-0.000513994
0.000529857
0.00156385
0.00257143
0.00353621
0.00444452
0.00528361
0.00604737
0.00673069
0.00733984
0.00787914
0.00836841
0.00882193
0.00926619
0.00972132
0.010206
0.0107401
0.0113183
0.0119578
0.0126212
0.0133238
0.0139931
0.0146457
0.0151658
0.0155581
0.0156534
0.0154193
0.0147571
0.0137488
0.01264
0.0115212
0.0107247
0.0102199
0.0100534
0.00999269
0.00973113
0.00921497
0.00678646
0.00281167
-0.00466161
-0.0055826
-0.00611694
-0.00632581
-0.00638501
-0.00641507
-0.00644838
-0.00646428
-0.00643066
-0.00632616
-0.0061436
-0.00588444
-0.00554821
-0.00514332
-0.00467266
-0.00413452
-0.00353075
-0.00286539
-0.00214507
-0.00137772
-0.000573142
0.0002583
0.00110515
0.0019555
0.00279669
0.00361617
0.00440337
0.00514823
0.00584529
0.00648881
0.00708175
0.00762499
0.00813087
0.00860735
0.0090718
0.00953708
0.0100154
0.0105211
0.0110493
0.0116138
0.012184
0.0127743
0.0133227
0.0138447
0.0142433
0.0145258
0.0145714
0.0143629
0.0138473
0.013058
0.0121835
0.0112491
0.010528
0.00994811
0.0095729
0.00926376
0.0086588
0.00783956
0.00564762
0.00227447
-0.00196331
-0.00274425
-0.00321973
-0.00343529
-0.00353006
-0.00360081
-0.00367452
-0.00373535
-0.00375761
-0.00372378
-0.00362747
-0.00346908
-0.00325099
-0.00297519
-0.00264091
-0.00225092
-0.00180675
-0.00130984
-0.000764092
-0.000174867
0.000451047
0.00110637
0.00178269
0.00247132
0.00316303
0.0038483
0.00451882
0.00516656
0.00578677
0.00637401
0.00692887
0.00745024
0.00794509
0.00841721
0.00887712
0.0093326
0.00979079
0.0102614
0.0107393
0.0112354
0.0117233
0.0122159
0.0126631
0.0130768
0.0133806
0.0135801
0.0135922
0.0134044