/*--------------------------------*- C++ -*----------------------------------*\
| =========                 |                                                 |
| \\      /  F ield         | OpenFOAM: The Open Source CFD Toolbox           |
|  \\    /   O peration     | Version:  2512                                  |
|   \\  /    A nd           | Website:  www.openfoam.com                      |
|    \\/     M anipulation  |                                                 |
\*---------------------------------------------------------------------------*/
FoamFile
{
    version     2.0;
    format      ascii;
    arch        "LSB;label=32;scalar=64";
    class       surfaceScalarField;
    location    "158";
    object      phi;
}
// * * * * * * * * * * * * * * * * * * * * * * * * * * * * * * * * * * * * * //

dimensions      [0 3 -1 0 0 0 0];

oriented        oriented;

internalField   nonuniform List<scalar> 
26232
(
-5.38041e-05
0.00102777
-0.00097397
7.854e-05
0.00196426
-0.00209661
0.000636913
0.00197308
-0.00253146
0.00183717
0.00110628
-0.00230655
0.0038837
-0.000625843
-0.00142068
0.00697084
-0.00323309
0.000145942
0.0112794
-0.00672879
0.00242027
0.0169593
-0.0111142
0.00543421
0.0241139
-0.0163619
0.0092073
0.0327781
-0.0224053
0.0137411
0.0429017
-0.0291343
0.0190107
0.0543392
-0.0363982
0.0249607
0.0668508
-0.0440156
0.0315041
0.0801143
-0.0517886
0.038525
0.093748
-0.0595187
0.045885
0.107341
-0.0670237
0.0534309
0.120488
-0.0741514
0.0610044
0.132825
-0.0807919
0.0684544
0.144069
-0.0868814
0.0756377
0.154022
-0.0924208
0.0824674
0.162625
-0.0974099
0.088807
0.169836
-0.10205
0.0948395
0.175616
-0.105974
0.100193
-0.110422
0.106175
0.179862
2.57533e-05
0.00100202
0.000390645
0.00159937
0.00135255
0.00101118
0.00315064
-0.000691799
0.00600969
-0.00348489
0.0101313
-0.00735474
0.0156762
-0.0122736
0.0227388
-0.0181768
0.0313234
-0.0249465
0.0413259
-0.0324078
0.052529
-0.0403374
0.064614
-0.0484831
0.0771871
-0.0565888
0.0898185
-0.06442
0.102086
-0.0717865
0.11362
-0.0785573
0.124137
-0.0846687
0.133469
-0.090124
0.141572
-0.0949838
0.148502
-0.0993515
0.154437
-0.103344
0.159499
-0.107113
0.164141
-0.110616
-0.114484
0.168204
0.000125761
0.00087626
0.000783234
0.000941896
0.00224192
-0.000447512
0.00475378
-0.00320366
0.00854363
-0.00727474
0.0137859
-0.012597
0.0205736
-0.0190613
0.0288871
-0.0264903
0.0385756
-0.034635
0.0493576
-0.0431898
0.0608453
-0.0518251
0.0725887
-0.0602265
0.0841308
-0.0681309
0.0950634
-0.0753526
0.105074
-0.0817968
0.113974
-0.0874581
0.121713
-0.0924076
0.128359
-0.0967697
0.134069
-0.100694
0.13905
-0.104332
0.143508
-0.107802
0.147621
-0.111226
0.151546
-0.114541
-0.118194
0.155256
0.000240491
0.000635768
0.00123415
-5.1766e-05
0.00325518
-0.00246854
0.00655071
-0.00649919
0.0113144
-0.0120384
0.0176473
-0.01893
0.025519
-0.0269329
0.034744
-0.0357153
0.0449878
-0.0448788
0.0558049
-0.0540068
0.0667012
-0.0627214
0.0772062
-0.0707315
0.0869373
-0.077862
0.0956446
-0.0840599
0.103228
-0.0893799
0.109725
-0.093955
0.115277
-0.0979599
0.120083
-0.101576
0.124351
-0.104962
0.12826
-0.108241
0.131954
-0.111496
0.135508
-0.11478
0.139032
-0.118064
-0.121626
0.142463
0.000367239
0.00026853
0.00172909
-0.00141361
0.00435189
-0.00509134
0.00845155
-0.0105989
0.0141485
-0.0177354
0.0214175
-0.0261989
0.0300552
-0.0355707
0.0396876
-0.0453477
0.0498199
-0.0550112
0.0599194
-0.0641063
0.0695035
-0.0723056
0.0782126
-0.0794406
0.0858488
-0.0854982
0.0923777
-0.0905888
0.0978978
-0.0949001
0.102591
-0.0986477
0.106666
-0.102035
0.110319
-0.105228
0.113704
-0.108348
0.116932
-0.111469
0.120071
-0.114635
0.12316
-0.117869
0.126249
-0.121153
-0.124641
0.129265
0.000505878
-0.000237348
0.00225843
-0.00316617
0.00549439
-0.00832729
0.0103621
-0.0154665
0.0168593
-0.0242327
0.0247866
-0.0341262
0.0337466
-0.0445307
0.0432037
-0.0548048
0.0525849
-0.0643924
0.0613881
-0.0729094
0.0692623
-0.0801798
0.0760427
-0.086221
0.0817378
-0.0911933
0.0864834
-0.0953343
0.0904807
-0.0988975
0.0939413
-0.102108
0.0970483
-0.105142
0.0999391
-0.108119
0.102706
-0.111115
0.105407
-0.114169
0.108074
-0.117302
0.110726
-0.120521
0.113388
-0.123815
-0.127264
0.116011
0.000655726
-0.000893074
0.00280858
-0.00531903
0.00663392
-0.0121526
0.012168
-0.0210006
0.0192396
-0.0313042
0.0274509
-0.0423375
0.0362356
-0.0533154
0.0449765
-0.0635456
0.0531358
-0.0725518
0.0603498
-0.0801234
0.0664626
-0.0862925
0.0715034
-0.0912618
0.0756275
-0.0953174
0.0790469
-0.0987537
0.0819727
-0.101823
0.0845804
-0.104716
0.0869975
-0.107559
0.089307
-0.110429
0.0915584
-0.113366
0.0937798
-0.116391
0.0959866
-0.119509
0.0981864
-0.122721
0.100392
-0.12602
-0.129437
0.102565
0.000813198
-0.00170627
0.00335647
-0.0078623
0.00770419
-0.0165003
0.0137357
-0.0270321
0.0210819
-0.0386504
0.029163
-0.0504186
0.0373153
-0.0614677
0.0449462
-0.0711766
0.0516514
-0.079257
0.0572566
-0.0857286
0.0617901
-0.090826
0.0654133
-0.0948851
0.0683443
-0.0982484
0.070796
-0.101205
0.072942
-0.103969
0.0749058
-0.10668
0.0767661
-0.109419
0.0785688
-0.112232
0.0803393
-0.115137
0.0820912
-0.118143
0.0838322
-0.12125
0.0855672
-0.124456
0.0873026
-0.127756
-0.131151
0.0890165
0.000971065
-0.00267734
0.00386938
-0.0107606
0.00862648
-0.0212574
0.0149309
-0.0333366
0.0222184
-0.0459378
0.0297848
-0.057985
0.0369652
-0.0686481
0.043284
-0.0774953
0.048517
-0.08449
0.0526681
-0.0898797
0.0558924
-0.0940503
0.0584106
-0.0974032
0.0604403
-0.100278
0.0621584
-0.102924
0.0636899
-0.105501
0.0651133
-0.108103
0.0664739
-0.11078
0.0677957
-0.113553
0.069092
-0.116433
0.07037
-0.119421
0.0716342
-0.122514
0.0728881
-0.12571
0.0741342
-0.129002
-0.132378
0.075361
0.00111927
-0.0037966
0.00430924
-0.0139506
0.00932259
-0.0262708
0.0156452
-0.0396592
0.0225554
-0.052848
0.029308
-0.0647377
0.0353254
-0.0746655
0.040298
-0.082468
0.0441767
-0.0883687
0.0470943
-0.0927973
0.0492689
-0.0962249
0.0509249
-0.0990593
0.0522477
-0.101601
0.0533686
-0.104044
0.05437
-0.106502
0.0552987
-0.109032
0.0561797
-0.111661
0.057026
-0.1144
0.057845
-0.117252
0.0586411
-0.120217
0.0594174
-0.123291
0.0601766
-0.126469
0.0609197
-0.129745
-0.133102
0.0616435
0.00124697
-0.00504357
0.00464009
-0.0173437
0.00973031
-0.031361
0.0158164
-0.0457452
0.0220849
-0.0591165
0.0278339
-0.0704867
0.0326294
-0.079461
0.0363333
-0.0861718
0.0390326
-0.091068
0.040933
-0.0946977
0.0422652
-0.0975571
0.0432269
-0.100021
0.043961
-0.102335
0.0445578
-0.104641
0.0450689
-0.107013
0.045521
-0.109484
0.0459281
-0.112068
0.0462977
-0.114769
0.0466347
-0.117589
0.0469422
-0.120524
0.0472225
-0.123571
0.0474771
-0.126723
0.0477053
-0.129973
-0.133305
0.047908
0.00134704
-0.00639061
0.0048371
-0.0208338
0.00981527
-0.0363392
0.0154367
-0.0513666
0.0208739
-0.0645537
0.0255332
-0.075146
0.0291434
-0.0830713
0.0317112
-0.0887397
0.033411
-0.0927678
0.0344741
-0.0957607
0.0351128
-0.0981958
0.0354866
-0.100395
0.0356986
-0.102547
0.0358079
-0.104751
0.0358454
-0.107051
0.0358265
-0.109465
0.0357592
-0.112001
0.0356484
-0.114659
0.0354979
-0.117438
0.0353106
-0.120337
0.0350886
-0.123349
0.034833
-0.126468
0.0345424
-0.129683
0.0342203
-0.132983
-0.000286087
0.000148791
0.000137296
-0.000973043
0.00103367
-0.000346716
-0.00196663
0.00232325
-0.00132966
-0.00320484
0.00384368
-0.00260548
-0.00464265
0.00546477
-0.00402696
-0.00624329
0.00711281
-0.00551217
-0.00797268
0.00876495
-0.00703556
-0.00979652
0.0104352
-0.00861133
-0.0116793
0.0121574
-0.0102746
-0.0135839
0.0139693
-0.0120647
-0.0154712
0.0159012
-0.0140138
-0.0172994
0.0179691
-0.0161409
-0.0190217
0.0201721
-0.0184498
-0.0205856
0.0224926
-0.0209286
-0.0219312
0.0248955
-0.0235499
-0.0229902
0.0273287
-0.0262696
-0.0236869
0.0297222
-0.0290255
-0.0239387
0.0319878
-0.031736
-0.0236591
0.0340197
-0.0342993
-0.0227602
0.0356967
-0.0365957
-0.0211572
0.0368891
-0.0384922
-0.0187778
0.0374664
-0.0398458
-0.0155717
0.0373017
-0.0405079
0.036361
-0.0115602
-0.0403725
-0.000218172
0.000366963
-0.000741621
0.00155712
-0.00149587
0.0030775
-0.00243112
0.00477893
-0.00351038
0.00654403
-0.00470076
0.0083032
-0.00596764
0.0100318
-0.0072717
0.0117392
-0.00856834
0.013454
-0.00980836
0.0152093
-0.0109387
0.0170316
-0.0119028
0.0189331
-0.0126401
0.0209094
-0.0130852
0.0229377
-0.0131676
0.0249779
-0.0128115
0.0269725
-0.0119361
0.0288468
-0.0104599
0.0305116
-0.00830096
0.0318608
-0.00538157
0.0327774
-0.00162983
0.0331374
0.0030198
0.0328168
0.00860878
0.0317127
0.0297983
0.0151714
-0.000142404
0.000509367
-0.000482056
0.00189677
-0.000963614
0.00355905
-0.00154771
0.00536303
-0.00220364
0.00719995
-0.0029016
0.00900116
-0.0036069
0.0107371
-0.00427676
0.0124091
-0.00485982
0.014037
-0.00529717
0.0156467
-0.00552398
0.0172584
-0.00547157
0.0188807
-0.00506781
0.0205056
-0.00423775
0.0221077
-0.00290417
0.0236443
-0.000988674
0.025057
0.00158573
0.0262724
0.00489552
0.0272018
0.00900959
0.0277467
0.0139877
0.0277993
0.0198786
0.0272465
0.0267166
0.0259788
0.0345208
0.0239086
0.0209054
0.0434137
-7.25342e-05
0.000581901
-0.000237925
0.00206216
-0.000453812
0.00377494
-0.000686333
0.00559555
-0.000907502
0.00742112
-0.00108885
0.00918251
-0.00119583
0.0108441
-0.00118443
0.0123977
-0.00100001
0.0138526
-0.00057859
0.0152252
0.000150699
0.0165291
0.00126431
0.0177671
0.00284102
0.0189289
0.00496041
0.0199883
0.00770135
0.0209034
0.0111403
0.0216181
0.0153494
0.0220633
0.0203927
0.0221585
0.0263246
0.0218148
0.0331866
0.0209372
0.0410045
0.0194287
0.0498038
0.0171795
0.05954
0.0141723
0.00997919
0.0704662
-2.02729e-05
0.000602174
-4.74612e-05
0.00208935
-4.26912e-05
0.00377017
2.92079e-05
0.00552365
0.000198415
0.00725192
0.000494869
0.00888605
0.000953545
0.0103854
0.00161821
0.011733
0.00254293
0.0129279
0.0037916
0.0139766
0.00543613
0.0148845
0.00755314
0.0156501
0.0102216
0.0162604
0.0135202
0.0166897
0.0175247
0.0168989
0.022306
0.0168368
0.0279278
0.0164414
0.0344451
0.0156413
0.0419018
0.0143581
0.0503323
0.0125067
0.0597529
0.0100081
0.0702136
0.00671874
0.0815783
0.00280764
-0.00278789
0.0943454
7.00634e-06
0.000595167
6.27113e-05
0.00203365
0.000214416
0.00361847
0.000505806
0.00523226
0.000973994
0.00678373
0.00165359
0.00820645
0.00258159
0.00945744
0.00380121
0.0105134
0.00536414
0.011365
0.00733069
0.01201
0.00976845
0.0124468
0.0127499
0.0126686
0.0163498
0.0126605
0.0206425
0.012397
0.0256997
0.0118417
0.0315887
0.0109478
0.0383712
0.00965887
0.0461037
0.00790876
0.0548354
0.00562632
0.0646102
0.002732
0.0754566
-0.00083837
0.0874864
-0.00531103
0.100512
-0.0102178
-0.0174489
0.115173
6.10725e-06
0.00058906
8.30662e-05
0.00195669
0.000296523
0.00340501
0.000704536
0.00482425
0.00135535
0.00613291
0.00229137
0.00727044
0.00355396
0.00819485
0.00518765
0.00887971
0.00724283
0.00930982
0.00977695
0.0094759
0.0128542
0.00936953
0.0165442
0.00897862
0.0209204
0.00828432
0.0260584
0.007259
0.032035
0.00586518
0.0389268
0.00405603
0.0468082
0.00177747
0.0557569
-0.00103999
0.065846
-0.00446277
0.0771518
-0.00857372
0.089708
-0.0133946
0.10364
-0.0192436
0.118696
-0.0252729
-0.0342418
0.135488
-1.92561e-05
0.000608316
2.55359e-05
0.0019119
0.000225922
0.00320462
0.000658692
0.00439148
0.0013865
0.0054051
0.00246295
0.00619399
0.00393793
0.00671986
0.00586238
0.00695526
0.00829181
0.00688039
0.0112885
0.00647916
0.0149228
0.00573531
0.0192725
0.00462891
0.0244229
0.00313387
0.0304651
0.00121684
0.0374954
-0.00116517
0.0456122
-0.00406075
0.0549136
-0.00752392
0.0654869
-0.0116133
0.077407
-0.0163829
0.0907237
-0.0218904
0.10544
-0.0281106
0.121528
-0.0353323
0.138774
-0.0425185
-0.0526819
0.157214
-5.81647e-05
0.000666481
-7.52955e-05
0.00192903
7.14424e-05
0.00305788
0.00048088
0.00398204
0.00123352
0.00465246
0.00239956
0.00502795
0.00404496
0.00507446
0.00623702
0.00476321
0.00904873
0.00406868
0.0125616
0.00296627
0.016867
0.00142994
0.0220654
-0.000569525
0.0282647
-0.00306541
0.0355758
-0.0060943
0.0441058
-0.00969508
0.0539504
-0.0139054
0.065184
-0.0187576
0.0778457
-0.024275
0.091927
-0.0304642
0.107351
-0.0373148
0.12399
-0.0447492
0.14153
-0.0528724
0.15986
-0.0608486
-0.0709583
0.178137
-9.52238e-05
0.000761705
-0.000167356
0.00200116
-6.09868e-05
0.00295151
0.000346878
0.00357418
0.00116104
0.0038383
0.00247626
0.00371272
0.00438509
0.00316564
0.00698365
0.00216464
0.0103753
0.000677068
0.0146713
-0.00132977
0.0199892
-0.00388799
0.0264475
-0.0070278
0.0341574
-0.0107752
0.0432123
-0.0151492
0.0536751
-0.020158
0.0655654
-0.0257957
0.0788464
-0.0320386
0.0934148
-0.0388434
0.109091
-0.0461402
0.125619
-0.0538433
0.142679
-0.061809
0.15978
-0.0699732
0.176776
-0.0778442
-0.0864891
0.192306
-0.000113156
0.00087486
-0.000194369
0.00208237
-5.73691e-05
0.00281451
0.000448512
0.0030683
0.00145828
0.00282853
0.00309962
0.00207139
0.00549986
0.000765401
0.00878996
-0.00112546
0.0131034
-0.00363636
0.018571
-0.00679739
0.0253119
-0.0106289
0.0334208
-0.0151367
0.0429539
-0.0203083
0.0539142
-0.0261095
0.0662398
-0.0324835
0.079795
-0.0393508
0.0943669
-0.0466105
0.10967
-0.0541466
0.125352
-0.0618217
0.141028
-0.06952
0.156276
-0.0770569
0.170727
-0.0844243
0.184116
-0.0912324
-0.0978834
0.19551
-9.91094e-05
-0.000113342
0.000169715
0.000931468
0.00233931
0.00455664
0.00774231
0.0120511
0.017622
0.0245657
0.0329475
0.0427715
0.0539673
0.0663828
0.0797842
0.0938642
0.108258
0.122566
0.136382
0.149329
0.161079
0.171495
0.180455
0.188747
-0.00493404
0.0462156
-0.0528418
0.00251087
0.0405622
-0.0480071
0.0106881
0.0318561
-0.0400333
0.0194158
0.0200254
-0.0287531
0.0284546
0.00500379
-0.0140426
0.03766
-0.0129484
0.00374292
0.0468655
-0.0336458
0.0244404
0.0559285
-0.056302
0.047239
0.0646686
-0.079575
0.0708349
0.0727959
-0.101547
0.0934195
0.0798381
-0.120112
0.11307
0.0852327
-0.13368
0.128285
0.0883945
-0.14175
0.138588
0.0886528
-0.145252
0.144994
0.0856016
-0.146649
0.1497
0.0800948
-0.148573
0.15408
0.0748164
-0.150589
0.155867
0.0732299
-0.147067
0.148653
0.0773716
-0.129704
0.125562
0.0867153
-0.093625
0.0842812
0.0993673
-0.041225
0.0285731
0.113062
0.0191117
-0.0328066
0.125938
0.0767179
-0.0895933
0.136345
0.12246
-0.132867
0.143382
0.152993
-0.16003
0.147284
0.169803
-0.173705
0.148711
0.176816
-0.178243
0.147484
0.180572
-0.179344
0.142947
0.189288
-0.184751
0.135963
0.203328
-0.196344
0.129645
0.207453
-0.201135
0.127322
0.179672
-0.177348
0.130109
0.11072
-0.113508
0.136842
0.0165827
-0.023315
0.144697
-0.0764751
0.0686198
0.15161
-0.145734
0.138821
0.156421
-0.186867
0.182056
0.158178
-0.204001
0.202244
0.155504
-0.215173
0.217846
0.148347
-0.228117
0.235274
0.139595
-0.233251
0.242003
0.133757
-0.209025
0.214862
0.133547
-0.132685
0.132895
0.1388
-0.0333705
0.0281169
0.146415
0.0778112
-0.0854263
0.152314
0.150495
-0.156394
0.152746
0.214084
-0.214516
0.147598
0.25492
-0.249772
0.14097
0.271156
-0.264528
0.138003
0.246935
-0.243969
0.140609
0.126396
-0.129002
0.146047
0.0332525
-0.0386911
0.148592
-0.116307
0.113762
0.146922
-0.189195
0.190864
0.143899
-0.271149
0.274172
0.142562
-0.317171
0.318509
0.142678
-0.181015
0.180899
0.142594
-0.151793
0.151877
0.140931
0.125733
-0.124069
0.226996
-0.225103
0.0224127
0.0389743
0.0300639
0.032911
0.0379799
0.0239402
0.045999
0.0120063
0.0539121
-0.00290932
0.0616421
-0.0206784
0.0690858
-0.0410895
0.0761697
-0.0633858
0.082734
-0.0861394
0.0884743
-0.107287
0.0929655
-0.124603
0.0958008
-0.136515
0.0966984
-0.142647
0.0953112
-0.143865
0.0910365
-0.142375
0.0837962
-0.141333
0.0753832
-0.142176
0.0694845
-0.141168
0.0695959
-0.129815
0.076632
-0.100661
0.088944
-0.0535371
0.103867
0.0041889
0.118785
0.0617993
0.131546
0.109699
0.140936
0.143603
0.146986
0.163754
0.150119
0.173682
0.150136
0.180555
0.14675
0.192674
0.141137
0.208941
0.136128
0.212462
0.134344
0.181456
0.136591
0.108474
0.142025
0.0111479
0.148148
-0.0825981
0.153224
-0.15081
0.156347
-0.18999
0.156907
-0.204561
0.153557
-0.211822
0.145948
-0.220508
0.136719
-0.224021
0.130649
-0.202955
0.13081
-0.132845
0.137058
-0.0396186
0.145793
0.0690759
0.152497
0.143791
0.153484
0.213097
0.148698
0.259705
0.1423
0.277554
0.139137
0.250098
0.14139
0.124143
0.146682
0.0279611
0.149134
-0.118759
0.147326
-0.187387
0.144017
-0.267841
0.142611
-0.315765
0.142525
-0.180929
0.142216
-0.151485
0.140473
0.127476
0.228913
0.050588
0.0318
0.0579681
0.0255309
0.065319
0.0165893
0.0723975
0.00492783
0.0791498
-0.0096616
0.0854093
-0.026938
0.0911583
-0.0468385
0.0963147
-0.0685423
0.100699
-0.090524
0.104015
-0.110603
0.105914
-0.126502
0.106131
-0.136733
0.104653
-0.141169
0.101564
-0.140776
0.0964704
-0.137281
0.0886257
-0.133488
0.0785316
-0.132082
0.0692088
-0.131845
0.0650533
-0.12566
0.0687743
-0.104382
0.0796904
-0.0644532
0.0950895
-0.0112102
0.11155
0.0453391
0.126429
0.0948198
0.138147
0.131885
0.146408
0.155493
0.151363
0.168728
0.152853
0.179065
0.150945
0.194583
0.146942
0.212943
0.143249
0.216156
0.14182
0.182885
0.143249
0.107044
0.147138
0.00725937
0.151414
-0.0868741
0.154646
-0.154042
0.15612
-0.191463
0.155564
-0.204005
0.151718
-0.207976
0.143903
-0.212694
0.134358
-0.214475
0.12803
-0.196628
0.128409
-0.133224
0.13545
-0.0466604
0.145171
0.0593552
0.152677
0.136285
0.154326
0.211448
0.150031
0.264001
0.143927
0.283657
0.140543
0.253483
0.14234
0.122346
0.147429
0.0228724
0.149792
-0.121121
0.147837
-0.185432
0.144194
-0.264199
0.142705
-0.314276
0.142478
-0.180701
0.141994
-0.151001
0.140187
0.129283
0.230846
0.077358
0.0249082
0.0842448
0.0186441
0.0908632
0.00997089
0.0972405
-0.00144948
0.1029
-0.0153216
0.107913
-0.0319507
0.112189
-0.0511146
0.11557
-0.0719235
0.117824
-0.0927775
0.118674
-0.111453
0.117924
-0.125752
0.115567
-0.134376
0.111812
-0.137414
0.107028
-0.135992
0.101262
-0.131515
0.093672
-0.125898
0.0834942
-0.121904
0.0722638
-0.120615
0.0642651
-0.117661
0.0638779
-0.103995
0.0721966
-0.0727719
0.0869136
-0.0259272
0.104296
0.0279568
0.120957
0.0781587
0.134902
0.11794
0.145394
0.145001
0.152277
0.161844
0.155462
0.17588
0.155306
0.194739
0.153089
0.21516
0.150693
0.218552
0.149468
0.18411
0.149884
0.106628
0.152077
0.0050666
0.15444
-0.0892365
0.15587
-0.155472
0.155754
-0.191348
0.154136
-0.202387
0.149924
-0.203764
0.142135
-0.204905
0.132473
-0.204814
0.125879
-0.190033
0.126296
-0.133641
0.13392
-0.0542848
0.144496
0.0487788
0.152817
0.127964
0.155251
0.209015
0.151587
0.267665
0.145855
0.289389
0.142238
0.2571
0.143471
0.121112
0.148275
0.0180686
0.150546
-0.123393
0.148445
-0.18333
0.144425
-0.260178
0.142831
-0.312682
0.142524
-0.180395
0.141915
-0.150392
0.140063
0.131136
0.232782
0.101062
0.0181916
0.107574
0.0121325
0.113654
0.00389032
0.119394
-0.00718911
0.124278
-0.0202056
0.128331
-0.0360038
0.131349
-0.0541322
0.133061
-0.0736358
0.133188
-0.0929048
0.131546
-0.109811
0.128182
-0.122387
0.12341
-0.129604
0.117669
-0.131673
0.111421
-0.129744
0.104997
-0.125091
0.0979356
-0.118837
0.0889079
-0.112876
0.0776714
-0.109378
0.0671761
-0.107166
0.0625277
-0.0993466
0.0670585
-0.0773027
0.0797962
-0.0386649
0.0972013
0.0105517
0.115122
0.0602383
0.131052
0.10201
0.143692
0.132361
0.152562
0.152974
0.157626
0.170815
0.159443
0.192921
0.159163
0.21544
0.158065
0.21965
0.15696
0.185215
0.156337
0.10725
0.156647
0.00475677
0.157143
-0.0897327
0.15684
-0.155169
0.155222
-0.18973
0.152602
-0.199767
0.148126
-0.199288
0.140567
-0.197346
0.130999
-0.195246
0.124163
-0.183197
0.124439
-0.133916
0.132404
-0.0622507
0.143705
0.0374781
0.152861
0.118808
0.15621
0.205666
0.15333
0.270544
0.148066
0.294653
0.144217
0.26095
0.144794
0.120535
0.149197
0.0136648
0.151375
-0.125571
0.14914
-0.181095
0.144704
-0.255743
0.142975
-0.310953
0.142651
-0.18007
0.141965
-0.149706
0.140093
0.133008
0.234704
0.121695
0.0116695
0.127819
0.0060081
0.133844
-0.00213431
0.13894
-0.0122854
0.143155
-0.02442
0.14629
-0.0391388
0.148024
-0.0558663
0.148009
-0.0736208
0.145988
-0.0908837
0.141935
-0.105759
0.136162
-0.116614
0.129268
-0.12271
0.121916
-0.124321
0.114605
-0.122433
0.107673
-0.118159
0.101047
-0.112211
0.0936113
-0.10544
0.0839605
-0.0997273
0.0729647
-0.0961698
0.0649546
-0.0913365
0.064942
-0.0772901
0.0742913
-0.0480142
0.0905422
-0.0056992
0.108962
0.0418182
0.126451
0.0845211
0.141035
0.117777
0.151875
0.142135
0.158936
0.163754
0.162879
0.188978
0.164639
0.213681
0.164907
0.219382
0.163956
0.186166
0.162298
0.108908
0.16076
0.00629448
0.159441
-0.0884136
0.157495
-0.153224
0.154488
-0.186722
0.150929
-0.196209
0.146257
-0.194616
0.139093
-0.190182
0.129831
-0.185984
0.122816
-0.176183
0.122782
-0.133881
0.13084
-0.0703088
0.142722
0.0255956
0.152737
0.108793
0.157135
0.201268
0.155198
0.272481
0.15051
0.299341
0.146448
0.265012
0.146281
0.120703
0.150195
0.0097506
0.15225
-0.127626
0.149905
-0.17875
0.145027
-0.250865
0.143126
-0.309053
0.142841
-0.179785
0.142128
-0.148993
0.140267
0.13487
0.23659
0.141411
0.00574703
0.146985
0.000434148
0.152398
-0.00754748
0.156654
-0.0165418
0.15988
-0.0276452
0.161745
-0.0410045
0.161852
-0.0559726
0.159856
-0.0716251
0.155613
-0.0866408
0.149305
-0.0994509
0.141483
-0.108792
0.132929
-0.114157
0.124419
-0.115811
0.116468
-0.114481
0.109307
-0.110998
0.102985
-0.105889
0.0969254
-0.0993811
0.0895877
-0.0923896
0.0800645
-0.0866466
0.0706152
-0.0818872
0.0663755
-0.0730505
0.0712665
-0.0529052
0.0845858
-0.0190185
0.102571
0.0238331
0.120997
0.0660955
0.137204
0.10157
0.149914
0.129425
0.159009
0.154659
0.16516
0.182828
0.169023
0.209817
0.170701
0.217704
0.170006
0.186861
0.167454
0.111461
0.164346
0.00940234
0.16125
-0.0853179
0.15777
-0.149743
0.153509
-0.182461
0.149083
-0.191782
0.144251
-0.189784
0.137601
-0.183532
0.128837
-0.17722
0.121742
-0.169088
0.121261
-0.133401
0.129157
-0.0782043
0.141468
0.0132843
0.152359
0.0979021
0.157938
0.19569
0.157108
0.273311
0.153115
0.303335
0.148873
0.269253
0.147926
0.121651
0.151229
0.00644774
0.153139
-0.129536
0.150721
-0.176332
0.145385
-0.245529
0.143273
-0.306941
0.14308
-0.179592
0.142387
-0.1483
0.140573
0.136684
0.238412
0.161536
0.00142499
0.166193
-0.0042225
0.169871
-0.0112256
0.172536
-0.0192066
0.17406
-0.0291694
0.174037
-0.0409817
0.172055
-0.0539908
0.167869
-0.0674385
0.161494
-0.0802657
0.153299
-0.0912558
0.143984
-0.0994772
0.134391
-0.104563
0.125265
-0.106684
0.11708
-0.106296
0.109982
-0.103901
0.103955
-0.0998622
0.0988006
-0.0942263
0.0935453
-0.0871343
0.0866154
-0.0797167
0.0780065
-0.0732782
0.0711851
-0.0662291
0.0712266
-0.0529466
0.0802901
-0.0280821
0.0962637
0.00785953
0.114671
0.0476879
0.132025
0.0842153
0.146429
0.115022
0.157527
0.143561
0.165888
0.174466
0.171864
0.203841
0.175007
0.214561
0.174697
0.187171
0.171557
0.114601
0.167109
0.0138505
0.162461
-0.0806698
0.157587
-0.14487
0.15223
-0.177104
0.14702
-0.186573
0.142041
-0.184805
0.135978
-0.177468
0.127873
-0.169116
0.120815
-0.16203
0.119807
-0.132392
0.127295
-0.0856929
0.139869
0.000710103
0.151636
0.0861353
0.158512
0.188814
0.158948
0.272875
0.155776
0.306507
0.151428
0.273601
0.149686
0.123393
0.152272
0.00386165
0.154007
-0.131271
0.151563
-0.173888
0.145768
-0.239733
0.143404
-0.304577
0.143352
-0.17954
0.142723
-0.147671
0.140998
0.138409
0.240134
0.180569
-0.00100717
0.18281
-0.00646388
0.184241
-0.0126564
0.184703
-0.0196688
0.184002
-0.0284683
0.181719
-0.0386985
0.177531
-0.0498033
0.171337
-0.0612446
0.163293
-0.0722217
0.153871
-0.0818337
0.143792
-0.0893983
0.133833
-0.094604
0.124626
-0.0974779
0.116556
-0.0982256
0.109729
-0.0970737
0.10407
-0.0942038
0.0994833
-0.0896392
0.0955972
-0.0832482
0.0912157
-0.0753352
0.085062
-0.0671245
0.07813
-0.0592972
0.0745625
-0.049379
0.0785542
-0.0320738
0.0907853
-0.00437152
0.10773
0.0307429
0.125432
0.0665133
0.141199
0.099255
0.154209
0.130551
0.164806
0.163869
0.172966
0.195681
0.177617
0.20991
0.177807
0.186981
0.174343
0.118064
0.16893
0.0192638
0.162968
-0.0747078
0.156845
-0.138747
0.150556
-0.170815
0.144669
-0.180686
0.139542
-0.179677
0.134104
-0.172031
0.126793
-0.161804
0.119899
-0.155135
0.118329
-0.130822
0.125203
-0.0925666
0.137864
-0.0119511
0.150474
0.0735253
0.158753
0.180535
0.160607
0.271021
0.158386
0.308728
0.154015
0.277972
0.151526
0.125882
0.153284
0.00210361
0.154818
-0.132805
0.152403
-0.171473
0.146163
-0.233493
0.143512
-0.301926
0.143643
-0.179671
0.14312
-0.147148
0.141532
0.139998
0.241717
0.192926
-0.00162649
0.193012
-0.0065502
0.192147
-0.011791
0.190441
-0.0179635
0.187653
-0.0256801
0.183407
-0.0344523
0.177523
-0.0439188
0.17001
-0.0537321
0.161096
-0.0633079
0.15126
-0.0719974
0.141143
-0.0792817
0.13139
-0.0848503
0.1225
-0.0885887
0.114773
-0.0904979
0.108307
-0.0906083
0.103053
-0.0889496
0.0989167
-0.0855027
0.0958086
-0.0801401
0.0932192
-0.0727458
0.089874
-0.0637794
0.0849639
-0.054387
0.08031
-0.0447252
0.0801067
-0.0318704
0.0873463
-0.0116111
0.101064
0.0170249
0.117773
0.0498043
0.134225
0.0828032
0.148893
0.115883
0.161592
0.151171
0.17186
0.185413
0.178157
0.203613
0.179129
0.18601
0.175696
0.121497
0.169792
0.0251672
0.162739
-0.0676548
0.15548
-0.131488
0.148409
-0.163744
0.141976
-0.174253
0.136694
-0.174395
0.131885
-0.167222
0.125486
-0.155405
0.118877
-0.148526
0.116739
-0.128685
0.122812
-0.0986386
0.135414
-0.0245535
0.148796
0.0601434
0.158539
0.170792
0.161932
0.267628
0.1608
0.309859
0.156538
0.282234
0.153369
0.129051
0.154259
0.00121285
0.15554
-0.134086
0.153207
-0.16914
0.146565
-0.226852
0.143596
-0.298957
0.143947
-0.180022
0.143561
-0.146762
0.142163
0.141396
0.243116
0.19516
-0.00127709
0.193848
-0.00523787
0.191564
-0.00950708
0.188546
-0.0149456
0.18451
-0.021644
0.179219
-0.029161
0.172611
-0.0373108
0.164744
-0.045865
0.155854
-0.0544182
0.146365
-0.0625086
0.136799
-0.0697153
0.127657
-0.0757087
0.11933
-0.0802611
0.112056
-0.0832238
0.10594
-0.0844929
0.100994
-0.0840033
0.0971735
-0.0816822
0.094463
-0.0774297
0.0927871
-0.0710698
0.0915096
-0.0625018
0.0893852
-0.0522626
0.086134
-0.0414741
0.0840911
-0.0298275
0.0869721
-0.0144921
0.0961328
0.00786418
0.110115
0.035822
0.125997
0.066921
0.141758
0.100123
0.156541
0.136387
0.169166
0.172787
0.177163
0.195616
0.178851
0.184321
0.175904
0.124445
0.169783
0.0312884
0.162017
-0.0598888
0.153724
-0.123195
0.145994
-0.156014
0.139137
-0.167396
0.133656
-0.168914
0.129377
-0.162943
0.123951
-0.14998
0.117733
-0.142308
0.115014
-0.125966
0.120122
-0.103746
0.132452
-0.036883
0.146509
0.0460858
0.157804
0.159498
0.162871
0.262561
0.162922
0.309808
0.158888
0.286268
0.155198
0.132741
0.155171
0.0012395
0.156166
-0.13508
0.153956
-0.166931
0.146973
-0.219869
0.143674
-0.295657
0.144265
-0.180614
0.14403
-0.146526
0.142881
0.142545
0.244283
0.187967
-0.000497027
0.186061
-0.00333162
0.183543
-0.00698873
0.18032
-0.0117228
0.176104
-0.0174282
0.170858
-0.023915
0.164581
-0.0310339
0.157334
-0.0386178
0.149324
-0.0464077
0.140886
-0.0540709
0.132418
-0.0612479
0.124302
-0.0675921
0.116839
-0.0727985
0.110234
-0.0766186
0.104594
-0.0788526
0.0999602
-0.0793698
0.0963397
-0.0780617
0.0937285
-0.0748185
0.0921918
-0.0695332
0.0916789
-0.061989
0.0914538
-0.0520374
0.0904236
-0.0404439
0.0888702
-0.0282741
0.0891263
-0.0147481
0.0940686
0.00292186
0.10406
0.0258309
0.117545
0.0534353
0.132736
0.0849326
0.148481
0.120642
0.162965
0.158303
0.172834
0.185747
0.176231
0.180924
0.174706
0.12597
0.169414
0.0365801
0.16086
-0.0513347
0.15169
-0.114025
0.143512
-0.147836
0.13639
-0.160274
0.130658
-0.163182
0.126715
-0.159
0.122236
-0.1455
0.1165
-0.136573
0.113192
-0.122658
0.117299
-0.107853
0.129119
-0.0487034
0.143637
0.0315677
0.156307
0.146828
0.163128
0.25574
0.164546
0.30839
0.160969
0.289844
0.156928
0.136783
0.156001
0.00216611
0.156673
-0.135751
0.15463
-0.164888
0.147381
-0.21262
0.143748
-0.292024
0.144589
-0.181455
0.144524
-0.146462
0.143678
0.143391
0.245169
0.209928
0.000171674
-0.210596
0.210028
-0.00343165
0.210039
-0.00699966
0.2097
-0.011384
0.20886
-0.0165883
0.207394
-0.0224493
0.205201
-0.0288406
0.202186
-0.0356031
0.198309
-0.0425305
0.193604
-0.0493663
0.188169
-0.0558126
0.182137
-0.0615602
0.175657
-0.0663189
0.168883
-0.0698436
0.161958
-0.0719285
0.155019
-0.0724304
0.148187
-0.0712292
0.14155
-0.068182
0.135201
-0.0631838
0.129308
-0.0560959
0.123812
-0.0465417
0.118021
-0.0346527
0.111302
-0.0215551
0.104577
-0.00802305
0.0998169
0.00768168
0.0987848
0.026863
0.101685
0.0505348
0.107547
0.0790711
0.115408
0.112782
0.124553
0.149158
0.135452
0.174848
0.150115
0.166261
0.167123
0.108961
0.179538
0.0241651
0.18437
-0.0561662
0.182059
-0.111714
0.175638
-0.141415
0.167274
-0.15191
0.158711
-0.154618
0.151242
-0.151531
0.14364
-0.137898
0.134781
-0.127714
0.127251
-0.115128
0.124849
-0.105451
0.128303
-0.0521573
0.133575
0.0262955
0.137886
0.142518
0.140484
0.253141
0.143116
0.305759
0.146607
0.286353
0.150399
0.13299
0.154117
-0.00155131
0.156153
-0.137788
0.153502
-0.162236
0.145838
-0.204956
0.139334
-0.28552
0.136771
-0.178891
0.133349
-0.14304
0.130757
0.145983
0.245856
0.219774
0.000457569
-0.22006
0.219438
-0.00309539
0.219233
-0.00679455
0.218737
-0.0108887
0.217727
-0.015578
0.216117
-0.0208395
0.213829
-0.0265523
0.210792
-0.0325669
0.206973
-0.0387109
0.202384
-0.0447775
0.197093
-0.0505219
0.191213
-0.0556797
0.184885
-0.0599907
0.178267
-0.063226
0.171521
-0.065182
0.164791
-0.0657005
0.158207
-0.0646455
0.151878
-0.0618527
0.145872
-0.0571786
0.140304
-0.0505279
0.135309
-0.0415461
0.13062
-0.0299642
0.125463
-0.0163979
0.119457
-0.00201689
0.113971
0.0131675
0.11086
0.0299741
0.111546
0.0498491
0.116201
0.0744158
0.124095
0.104887
0.134363
0.13889
0.147761
0.161449
0.165276
0.148747
0.183337
0.0909002
0.19551
0.0119919
0.198758
-0.0594137
0.194865
-0.107821
0.187173
-0.133723
0.178004
-0.142742
0.168799
-0.145413
0.160932
-0.143664
0.153394
-0.130361
0.144631
-0.118951
0.13656
-0.107057
0.133402
-0.102293
0.13644
-0.0551944
0.141968
0.0207668
0.14698
0.137506
0.150557
0.249565
0.154372
0.301943
0.158816
0.281909
0.162871
0.128935
0.166226
-0.00490645
0.167688
-0.13925
0.164607
-0.159155
0.155919
-0.196268
0.148585
-0.278186
0.145723
-0.17603
0.14201
-0.139327
0.139281
0.148713
0.246453
0.228946
0.000488367
-0.228976
0.228667
-0.00281718
0.228283
-0.0064103
0.227628
-0.0102338
0.226521
-0.014471
0.224852
-0.0191698
0.222553
-0.0242537
0.219578
-0.0295914
0.215897
-0.0350307
0.211518
-0.040398
0.206488
-0.0454919
0.200898
-0.0500898
0.19487