/*--------------------------------*- C++ -*----------------------------------*\
| =========                 |                                                 |
| \\      /  F ield         | OpenFOAM: The Open Source CFD Toolbox           |
|  \\    /   O peration     | Version:  2512                                  |
|   \\  /    A nd           | Website:  www.openfoam.com                      |
|    \\/     M anipulation  |                                                 |
\*---------------------------------------------------------------------------*/
FoamFile
{
    version     2.0;
    format      ascii;
    arch        "LSB;label=32;scalar=64";
    class       volScalarField;
    location    "112.5";
    object      p;
}
// * * * * * * * * * * * * * * * * * * * * * * * * * * * * * * * * * * * * * //

dimensions      [0 2 -2 0 0 0 0];

internalField   nonuniform List<scalar> 
13248
(
-0.316499
-0.31581
-0.314368
-0.312289
-0.309624
-0.306337
-0.302359
-0.297617
-0.292054
-0.285649
-0.278425
-0.270458
-0.261876
-0.252849
-0.243576
-0.234263
-0.225103
-0.216262
-0.207862
-0.2
-0.19267
-0.185987
-0.179576
-0.173884
-0.324353
-0.322639
-0.320345
-0.317539
-0.314225
-0.310372
-0.305902
-0.300723
-0.294756
-0.28796
-0.280348
-0.271993
-0.263024
-0.253613
-0.243954
-0.234242
-0.224651
-0.215323
-0.206362
-0.197828
-0.18973
-0.18207
-0.174682
-0.167824
-0.33342
-0.330573
-0.327313
-0.323668
-0.319594
-0.31506
-0.309974
-0.304212
-0.297664
-0.290267
-0.282028
-0.273029
-0.263416
-0.253377
-0.243116
-0.232832
-0.222696
-0.212842
-0.203362
-0.194309
-0.185678
-0.177484
-0.16958
-0.162176
-0.343797
-0.339717
-0.335404
-0.330841
-0.325916
-0.320582
-0.314714
-0.308144
-0.300732
-0.292411
-0.283209
-0.273246
-0.26271
-0.251826
-0.240821
-0.2299
-0.219227
-0.208919
-0.199047
-0.189641
-0.180692
-0.1722
-0.164044
-0.156482
-0.355613
-0.350202
-0.344777
-0.339241
-0.333374
-0.327082
-0.320191
-0.312493
-0.303843
-0.294212
-0.283695
-0.272487
-0.260838
-0.249011
-0.237244
-0.225728
-0.214598
-0.203938
-0.193787
-0.18415
-0.175009
-0.166349
-0.158083
-0.150407
-0.368945
-0.362113
-0.35554
-0.348981
-0.342046
-0.334561
-0.326301
-0.317053
-0.306726
-0.295392
-0.283261
-0.270619
-0.257773
-0.244999
-0.232514
-0.220471
-0.208959
-0.19802
-0.187659
-0.177863
-0.168601
-0.159846
-0.151531
-0.143799
-0.383715
-0.375412
-0.367667
-0.360009
-0.351804
-0.342782
-0.332701
-0.321418
-0.308981
-0.295624
-0.281689
-0.267545
-0.253518
-0.239856
-0.226729
-0.21423
-0.202397
-0.191232
-0.180713
-0.170807
-0.161475
-0.152675
-0.144367
-0.13661
-0.399663
-0.389881
-0.380945
-0.372052
-0.36227
-0.351253
-0.338831
-0.325038
-0.310142
-0.294568
-0.278777
-0.263168
-0.248039
-0.23358
-0.219888
-0.206994
-0.194889
-0.183539
-0.172901
-0.162926
-0.153566
-0.144774
-0.136517
-0.128777
-0.416286
-0.405083
-0.39492
-0.384575
-0.3728
-0.359257
-0.343984
-0.327304
-0.309752
-0.291928
-0.27435
-0.257394
-0.241286
-0.226131
-0.211954
-0.198727
-0.1864
-0.174912
-0.164199
-0.1542
-0.144858
-0.136123
-0.127956
-0.120278
-0.432835
-0.420326
-0.408872
-0.396762
-0.382501
-0.365911
-0.347387
-0.32762
-0.307404
-0.287444
-0.268248
-0.250112
-0.233165
-0.217425
-0.202846
-0.189354
-0.176864
-0.165292
-0.154557
-0.144585
-0.13531
-0.126679
-0.118635
-0.111063
-0.448333
-0.434669
-0.421802
-0.407535
-0.39028
-0.370212
-0.348212
-0.325355
-0.302624
-0.280746
-0.260151
-0.241024
-0.223389
-0.207182
-0.192299
-0.178626
-0.166049
-0.154464
-0.143777
-0.133902
-0.124764
-0.116299
-0.108422
-0.101023
-0.461665
-0.447041
-0.432614
-0.415763
-0.39503
-0.37115
-0.345577
-0.319733
-0.294706
-0.271162
-0.249404
-0.22949
-0.21134
-0.194815
-0.179759
-0.166023
-0.153471
-0.14198
-0.131442
-0.121762
-0.112861
-0.104661
-0.0970517
-0.0899728
-0.346282
-0.348581
-0.349894
-0.35075
-0.351633
-0.352691
-0.353963
-0.355439
-0.357078
-0.358819
-0.360586
-0.362291
-0.363828
-0.36507
-0.36586
-0.36591
-0.36543
-0.363983
-0.36145
-0.357736
-0.352787
-0.346618
-0.339429
-0.331706
-0.334676
-0.337352
-0.338774
-0.339513
-0.340076
-0.340595
-0.341094
-0.341557
-0.341937
-0.342166
-0.34217
-0.341861
-0.341146
-0.339919
-0.33805
-0.335542
-0.332271
-0.328166
-0.323211
-0.317445
-0.310954
-0.303853
-0.296492
-0.289931
-0.324353
-0.327239
-0.328695
-0.329298
-0.329548
-0.329557
-0.329335
-0.328856
-0.328068
-0.326905
-0.325292
-0.32315
-0.320404
-0.316982
-0.312849
-0.307972
-0.302347
-0.296008
-0.289044
-0.28161
-0.273915
-0.266156
-0.258645
-0.252758
-0.315603
-0.318559
-0.319989
-0.320448
-0.320411
-0.319965
-0.319104
-0.317795
-0.315985
-0.313608
-0.310598
-0.306892
-0.302439
-0.297207
-0.291193
-0.284425
-0.276973
-0.268953
-0.260537
-0.251963
-0.243539
-0.235562
-0.228274
-0.222626
-0.308588
-0.311507
-0.312861
-0.313174
-0.312878
-0.312034
-0.310622
-0.308603
-0.305923
-0.302526
-0.298356
-0.293372
-0.287548
-0.28089
-0.273437
-0.265269
-0.256518
-0.247366
-0.238049
-0.22886
-0.220155
-0.212294
-0.205507
-0.200791
-0.303384
-0.306186
-0.307425
-0.307581
-0.307044
-0.305849
-0.303962
-0.30134
-0.297935
-0.293697
-0.288588
-0.282589
-0.275704
-0.267974
-0.259479
-0.250347
-0.240759
-0.230947
-0.221197
-0.211836
-0.203237
-0.195796
-0.189839
-0.185437
-0.300016
-0.302638
-0.303722
-0.303705
-0.302933
-0.301421
-0.299124
-0.295997
-0.291997
-0.287085
-0.281242
-0.274471
-0.266806
-0.258322
-0.249138
-0.239425
-0.229403
-0.219343
-0.209558
-0.200396
-0.192222
-0.185338
-0.18047
-0.17598
-0.298489
-0.300861
-0.301743
-0.301529
-0.300524
-0.298725
-0.296081
-0.292547
-0.288085
-0.282668
-0.276293
-0.268987
-0.260816
-0.251885
-0.24235
-0.232415
-0.222333
-0.212399
-0.202937
-0.194277
-0.186806
-0.180485
-0.176842
-0.1721
-0.298789
-0.30082
-0.30144
-0.300997
-0.299754
-0.297696
-0.294769
-0.290928
-0.286136
-0.280382
-0.273678
-0.266073
-0.257657
-0.248565
-0.23898
-0.229135
-0.219301
-0.209779
-0.200884
-0.192884
-0.186224
-0.180424
-0.177718
-0.173135
-0.300862
-0.302433
-0.302711
-0.301992
-0.300494
-0.298194
-0.295035
-0.290969
-0.285964
-0.280016
-0.273149
-0.265428
-0.256963
-0.247911
-0.238476
-0.228902
-0.219464
-0.210448
-0.202145
-0.194756
-0.188701
-0.183409
-0.180907
-0.176966
-0.304605
-0.305571
-0.305401
-0.304332
-0.302531
-0.299969
-0.296585
-0.292327
-0.287165
-0.281093
-0.274143
-0.26639
-0.257958
-0.249018
-0.23978
-0.230487
-0.221398
-0.212765
-0.204825
-0.197756
-0.191811
-0.186788
-0.183795
-0.180482
-0.309871
-0.310078
-0.30933
-0.307803
-0.305607
-0.302714
-0.299057
-0.294577
-0.289237
-0.283027
-0.27598
-0.268175
-0.259741
-0.250853
-0.241717
-0.23256
-0.223605
-0.215062
-0.207094
-0.19985
-0.193403
-0.187886
-0.183604
-0.180296
-0.322202
-0.310435
-0.299285
-0.289732
-0.283331
-0.281436
-0.284773
-0.293023
-0.304589
-0.316921
-0.326485
-0.329146
-0.321216
-0.300391
-0.267266
-0.226405
-0.184962
-0.149392
-0.123276
-0.107293
-0.100362
-0.101315
-0.110387
-0.128016
-0.150552
-0.168663
-0.172129
-0.158506
-0.134093
-0.10825
-0.0876777
-0.0751192
-0.0698613
-0.0707819
-0.0792938
-0.0964178
-0.116283
-0.126615
-0.11977
-0.10093
-0.0804168
-0.0652177
-0.0555131
-0.0522381
-0.0561973
-0.0636456
-0.066637
-0.0619096
-0.053467
-0.0463138
-0.0403533
-0.038767
-0.0388253
-0.0380512
-0.0367481
-0.0332659
-0.0242307
-0.0170587
-0.00852022
-0.00230395
-0.283888
-0.277775
-0.274313
-0.273057
-0.27562
-0.282817
-0.294648
-0.310108
-0.327195
-0.343123
-0.354364
-0.357125
-0.347845
-0.324356
-0.287388
-0.242003
-0.195968
-0.156113
-0.126022
-0.106212
-0.095539
-0.0927225
-0.0975629
-0.110506
-0.129007
-0.145288
-0.150194
-0.140259
-0.120566
-0.0990826
-0.0822068
-0.0727978
-0.0702258
-0.0736796
-0.0850367
-0.10509
-0.127196
-0.138145
-0.129918
-0.108475
-0.0848863
-0.0668299
-0.0546927
-0.0492095
-0.05069
-0.0562036
-0.0583186
-0.0547383
-0.0485311
-0.0435972
-0.0400388
-0.0404948
-0.0428621
-0.0427591
-0.0411646
-0.0369379
-0.0262661
-0.0179575
-0.00786064
-0.00156539
-0.250215
-0.248278
-0.253129
-0.258009
-0.267491
-0.281553
-0.299526
-0.319946
-0.340612
-0.358654
-0.370808
-0.373721
-0.363829
-0.338865
-0.299657
-0.251558
-0.202656
-0.159955
-0.127011
-0.104164
-0.0901977
-0.0837624
-0.0844123
-0.0925741
-0.106779
-0.120902
-0.126895
-0.120527
-0.105497
-0.0884082
-0.0753391
-0.0691944
-0.0693829
-0.0753957
-0.0894714
-0.112165
-0.136301
-0.147933
-0.138623
-0.114973
-0.0886465
-0.0679668
-0.0535929
-0.0461205
-0.0453385
-0.0490693
-0.0503184
-0.0477105
-0.0434921
-0.0406664
-0.039558
-0.0421862
-0.0469712
-0.0475095
-0.0454034
-0.0404207
-0.0281921
-0.0188107
-0.00723316
-0.000872283
-0.224065
-0.226608
-0.233491
-0.24389
-0.258456
-0.27702
-0.298726
-0.321988
-0.344567
-0.363681
-0.376355
-0.379449
-0.369446
-0.344031
-0.304113
-0.255145
-0.205217
-0.161243
-0.12661
-0.101578
-0.084933
-0.0753357
-0.0721123
-0.0756339
-0.0853683
-0.0968735
-0.103286
-0.1001
-0.0894483
-0.0765933
-0.067269
-0.0643249
-0.0671777
-0.0755881
-0.0920857
-0.117122
-0.143176
-0.155648
-0.145656
-0.120264
-0.0916294
-0.068649
-0.0522803
-0.0430703
-0.0402949
-0.0424224
-0.0428088
-0.0409495
-0.038432
-0.0375591
-0.0389009
-0.0437969
-0.0510983
-0.0522543
-0.0494107
-0.0436761
-0.0299832
-0.0196086
-0.00664139
-0.000225116
-0.204265
-0.209445
-0.218418
-0.231479
-0.248613
-0.269375
-0.292732
-0.317081
-0.340284
-0.359881
-0.372635
-0.375766
-0.365878
-0.340791
-0.301545
-0.253514
-0.204417
-0.160677
-0.125411
-0.0989311
-0.0801905
-0.0679327
-0.0613852
-0.0606619
-0.0659085
-0.0743593
-0.0804623
-0.07979
-0.0729593
-0.0639773
-0.0581617
-0.0581725
-0.0634633
-0.0739921
-0.0925557
-0.119623
-0.147437
-0.160974
-0.150853
-0.124262
-0.0938174
-0.068925
-0.0508321
-0.040138
-0.0356469
-0.0363729
-0.0359241
-0.0345665
-0.0334347
-0.0343102
-0.0380493
-0.0452727
-0.0551723
-0.0569357
-0.05312
-0.0466658
-0.0316147
-0.0203416
-0.00608823
0.000375826
-0.190643
-0.197427
-0.20709
-0.220764
-0.23853
-0.259674
-0.283032
-0.307074
-0.329786
-0.3492
-0.361488
-0.364352
-0.354696
-0.330583
-0.293199
-0.247685
-0.201018
-0.158834
-0.123893
-0.0966301
-0.0763089
-0.0618726
-0.0525346
-0.0482101
-0.049241
-0.0543059
-0.0593641
-0.0603689
-0.0565269
-0.0509238
-0.0482211
-0.0508168
-0.0582428
-0.0705594
-0.0907713
-0.119471
-0.148895
-0.163716
-0.154054
-0.126904
-0.0952009
-0.068832
-0.049305
-0.037372
-0.0314379
-0.0309772
-0.0297556
-0.0286511
-0.0285787
-0.030954
-0.0369815
-0.0465479
-0.0591039
-0.0614939
-0.0565078
-0.049357
-0.0330617
-0.0209965
-0.005574
0.000931722
-0.182784
-0.190304
-0.199209
-0.211937
-0.228937
-0.24913
-0.27124
-0.293922
-0.315414
-0.332397
-0.344451
-0.346932
-0.337651
-0.315095
-0.280633
-0.238922
-0.195904
-0.15628
-0.122444
-0.0949805
-0.0735332
-0.0573511
-0.045716
-0.0384047
-0.0357351
-0.0373684
-0.0407268
-0.0426099
-0.0406718
-0.0379065
-0.0377866
-0.0425015
-0.0516846
-0.0653755
-0.0867333
-0.116618
-0.14749
-0.163744
-0.155176
-0.128157
-0.0957756
-0.0683909
-0.0477355
-0.0347961
-0.0276699
-0.0262313
-0.024343
-0.0232693
-0.0239413
-0.0275268
-0.0356744
-0.0475489
-0.0627916
-0.0658566
-0.0615114
-0.0517365
-0.0343024
-0.0215614
-0.00509511
0.00144599
-0.180082
-0.187485
-0.194456
-0.205091
-0.220257
-0.238437
-0.258274
-0.278675
-0.299085
-0.313695
-0.323464
-0.325133
-0.316374
-0.295974
-0.265322
-0.228324
-0.189734
-0.153319
-0.12116
-0.0940034
-0.0718614
-0.0543468
-0.0408896
-0.0311859
-0.0254356
-0.0238187
-0.0249957
-0.0264071
-0.0260114
-0.0254644
-0.0272787
-0.0335579
-0.0440299
-0.0586501
-0.080634
-0.111166
-0.143237
-0.161111
-0.154248
-0.128019
-0.0955483
-0.0676177
-0.04615
-0.0324231
-0.0243313
-0.0220987
-0.0196698
-0.0184329
-0.0195982
-0.0240658
-0.03411
-0.0482002
-0.0661307
-0.0698505
-0.0644967
-0.0537274
-0.035321
-0.0220333
-0.00465052
0.00192486
-0.181185
-0.18731
-0.191707
-0.199734
-0.212219
-0.227468
-0.244289
-0.26165
-0.2765
-0.291127
-0.299304
-0.300392
-0.292524
-0.274878
-0.248657
-0.21684
-0.183006
-0.150106
-0.11999
-0.0935656
-0.0711531
-0.0527069
-0.0378744
-0.0263294
-0.0181356
-0.013641
-0.0124267
-0.0128359
-0.0131338
-0.0140323
-0.0171048
-0.0243533
-0.0355905
-0.0506151
-0.072674
-0.103428
-0.136437
-0.156041
-0.151361
-0.126581
-0.0946323
-0.0666285
-0.0446566
-0.0303133
-0.0214303
-0.0185588
-0.0157132
-0.0142188
-0.0156162
-0.0206074
-0.0322648
-0.0484339
-0.0690273
-0.0733854
-0.0669534
-0.0553198
-0.0361117
-0.022418
-0.00425239
0.00237545
-0.183316
-0.187017
-0.189184
-0.194787
-0.204009
-0.215666
-0.229227
-0.244947
-0.256336
-0.267148
-0.2738
-0.274705
-0.268247
-0.253859
-0.23235
-0.205771
-0.176679
-0.14737
-0.11952
-0.0941685
-0.0718606
-0.0528143
-0.0369271
-0.0239386
-0.0138019
-0.00684713
-0.00320533
-0.00215545
-0.00256236
-0.00388139
-0.00756856
-0.0152135
-0.0267008
-0.0417453
-0.063492
-0.0938525
-0.127446
-0.14877
-0.146696
-0.124053
-0.0932795
-0.0656604
-0.0434646
-0.0285998
-0.0189865
-0.0155683
-0.0124857
-0.0106246
-0.012036
-0.0171769
-0.0301532
-0.0481842
-0.0713842
-0.0763693
-0.0689756
-0.056502
-0.0366671
-0.0227056
-0.00391243
0.00280291
-0.183672
-0.184801
-0.185878
-0.189368
-0.195207
-0.203231
-0.212934
-0.222893
-0.234
-0.242849
-0.248616
-0.249821
-0.245257
-0.234402
-0.217623
-0.196149
-0.17169
-0.145987
-0.120533
-0.0964537
-0.0744823
-0.0550494
-0.0382902
-0.0241087
-0.0124087
-0.0033896
0.00261421
0.00553318
0.00605567
0.00473802
0.00099451
-0.00645647
-0.0175815
-0.0320325
-0.0530092
-0.0831051
-0.117283
-0.139509
-0.140286
-0.120163
-0.0912535
-0.0644551
-0.0423635
-0.027153
-0.0168552
-0.0129062
-0.00980007
-0.00768741
-0.00902325
-0.0137959
-0.0276955
-0.0474134
-0.073176
-0.0786661
-0.0705495
-0.057227
-0.036934
-0.0228416
-0.00358554
0.00322013
-0.180957
-0.18139
-0.181933
-0.183238
-0.186098
-0.190848
-0.197118
-0.203663
-0.212639
-0.219051
-0.223306
-0.224421
-0.221313
-0.213383
-0.200596
-0.183524
-0.163206
-0.140927
-0.11799
-0.095536
-0.0744235
-0.0552338
-0.0382434
-0.0235402
-0.0110914
-0.000880595
0.00693285
0.0117266
0.013291
0.0120159
0.00839504
0.00138257
-0.00909452
-0.0228018
-0.0426144
-0.0714298
-0.105032
-0.127948
-0.13039
-0.113606
-0.0869902
-0.0613992
-0.0399663
-0.0250058
-0.0144701
-0.0102004
-0.00703884
-0.00489309
-0.00633771
-0.0106401
-0.0251073
-0.0460688
-0.0741896
-0.0802601
-0.0715032
-0.0574251
-0.0367972
-0.0227605
-0.00315212
0.00366927
-0.175163
-0.178185
-0.178176
-0.178156
-0.179876
-0.183598
-0.188699
-0.19453
-0.200287
-0.205134
-0.208114
-0.208204
-0.204554
-0.196676
-0.184563
-0.168715
-0.150009
-0.129536
-0.108403
-0.0875931
-0.0678475
-0.0496835
-0.0333579
-0.0189792
-0.0065609
0.00390944
0.0123925
0.0183543
0.0212099
0.021304
0.0172798
0.0110627
0.001927
-0.0105657
-0.0299341
-0.0600215
-0.0966322
-0.122621
-0.126482
-0.107985
-0.0814587
-0.0567069
-0.0361699
-0.0219054
-0.0117432
-0.00761952
-0.00415502
-0.00159597
-0.00239171
-0.00637941
-0.0215023
-0.0439418
-0.0749818
-0.0821632
-0.0723255
-0.0573144
-0.036326
-0.0225244
-0.0026158
0.00411679
-0.167797
-0.172765
-0.172821
-0.171854
-0.172456
-0.174962
-0.178653
-0.182703
-0.186608
-0.189598
-0.190845
-0.189621
-0.185316
-0.17757
-0.166387
-0.15215
-0.135527
-0.11735
-0.0984849
-0.0797189
-0.0616819
-0.0448449
-0.0294651
-0.0157093
-0.00364441
0.00678293
0.0155953
0.0222119
0.0257451
0.0255874
0.0228979
0.0178803
0.0102073
-0.000988907
-0.0197344
-0.0504101
-0.0881553
-0.114339
-0.116966
-0.0992041
-0.074208
-0.0513196
-0.0323742
-0.0190874
-0.00932773
-0.0052946
-0.0017823
0.000668003
0.000111714
-0.00339908
-0.0186195
-0.0420046
-0.0750167
-0.0831079
-0.0720586
-0.0565242
-0.0354869
-0.0220169
-0.00211477
0.0043588
-0.158637
-0.165033
-0.165547
-0.164105
-0.163753
-0.165134
-0.167641
-0.170411
-0.17276
-0.174135
-0.174041
-0.171975
-0.167476
-0.160245
-0.15023
-0.137659
-0.122996
-0.106866
-0.0899569
-0.072932
-0.0563477
-0.0406514
-0.0261149
-0.0129204
-0.00117938
0.00908726
0.0179224
0.0248971
0.0292132
0.029736
0.027688
0.0235768
0.0168898
0.00632552
-0.0122771
-0.0424532
-0.078518
-0.103367
-0.105735
-0.0894912
-0.0666597
-0.0458512
-0.0285287
-0.0162491
-0.00697481
-0.00306397
0.000442161
0.00277358
0.00228259
-0.0011741
-0.0164977
-0.0403038
-0.0741691
-0.0830534
-0.0711318
-0.0552089
-0.0343674
-0.0213105
-0.00166512
0.00450372
-0.148586
-0.155718
-0.156764
-0.155244
-0.154316
-0.154902
-0.156478
-0.158156
-0.159316
-0.159581
-0.158615
-0.156044
-0.151506
-0.144742
-0.135672
-0.124439
-0.111385
-0.0969983
-0.0818271
-0.066419
-0.0512445
-0.036703
-0.0230613
-0.0105064
0.000825205
0.0108316
0.0195367
0.0266821
0.0318463
0.0329783
0.0319015
0.0289266
0.023291
0.0132937
-0.00499776
-0.0338775
-0.0678147
-0.0913536
-0.0935062
-0.0789869
-0.058645
-0.0401026
-0.0245398
-0.0133895
-0.00469458
-0.000925641
0.00255976
0.00481832
0.00435863
0.000873794
-0.0144471
-0.0381043
-0.0722761
-0.0820333
-0.069582
-0.053366
-0.0329517
-0.02038
-0.00126045
0.00457182
-0.137914
-0.145398
-0.146979
-0.145646
-0.14445
-0.144452
-0.145265
-0.146125
-0.146477
-0.145993
-0.144422
-0.141499
-0.136962
-0.130605
-0.122354
-0.112299
-0.100686
-0.0878801
-0.0743023
-0.0603933
-0.0465479
-0.0331213
-0.020374
-0.00850123
0.00235355
0.0120366
0.0205073
0.0275278
0.0321094
0.0350411
0.0351547
0.0335463
0.0293407
0.0204172
0.00284735
-0.0248125
-0.0567481
-0.0784057
-0.0802983
-0.0678468
-0.0503646
-0.0342509
-0.0205003
-0.0105427
-0.00249707
0.00111363
0.00456883
0.00675753
0.00629882
0.00292407
-0.0120559
-0.0350932
-0.0692309
-0.0798382
-0.0672701
-0.0509548
-0.0312204
-0.0192216
-0.000897766
0.00455567
-0.126878
-0.134551
-0.136584
-0.135528
-0.134239
-0.133844
-0.134122
-0.134419
-0.134215
-0.133215
-0.131239
-0.128116
-0.123665
-0.11773
-0.11024
-0.101243
-0.0909063
-0.079499
-0.0673471
-0.0548069
-0.0422099
-0.0298667
-0.0180208
-0.00687041
0.00343876
0.0127318
0.020913
0.0277992
0.0328302
0.0361286
0.0372133
0.0369146
0.0343138
0.0267968
0.0101212
-0.0162121
-0.0454852
-0.0646903
-0.0665172
-0.0564642
-0.0420519
-0.0284239
-0.0164719
-0.0077299
-0.000389708
0.00304344
0.00646067
0.00859418
0.00809847
0.00497765
-0.00930924
-0.0313135
-0.0648755
-0.076258
-0.064089
-0.0479755
-0.0291768
-0.017835
-0.000570579
0.00444996
-0.115927
-0.123515
-0.125845
-0.125079
-0.123826
-0.12322
-0.123157
-0.123072
-0.122496
-0.121174
-0.118979
-0.115802
-0.111521
-0.106017
-0.0992247
-0.0911659
-0.0819549
-0.0717923
-0.0609297
-0.0496517
-0.0382324
-0.0269392
-0.0159935
-0.00559044
0.00411954
0.012963
0.0208163
0.0275309
0.0327203
0.036296
0.0380703
0.0387429
0.0374174
0.0311825
0.0157891
-0.00833129
-0.0340641
-0.0506066
-0.0526952
-0.0452576
-0.0339459
-0.0227608
-0.012534
-0.00497796
0.0016225
0.00486124
0.00823537
0.0103434
0.00977113
0.00698703
-0.00631503
-0.0268077
-0.0591112
-0.071184
-0.0599835
-0.0444574
-0.0268423
-0.0162275
-0.000269718
0.00426567
-0.10522
-0.112487
-0.114996
-0.114521
-0.113395
-0.112707
-0.112442
-0.112117
-0.111324
-0.109841
-0.107573
-0.104453
-0.100398
-0.0953252
-0.0891781
-0.0819645
-0.0737624
-0.0647197
-0.0550283
-0.0449137
-0.0346006
-0.0243179
-0.0142644
-0.00462473
0.00444876
0.0127916
0.0202707
0.0267525
0.0319314
0.0356702
0.0378611
0.0390445
0.0384074
0.0332125
0.0197862
-0.00105117
-0.0227284
-0.036527
-0.0395079
-0.0346846
-0.0262834
-0.0173862
-0.00876315
-0.00231416
0.00353908
0.00657336
0.00989812
0.0120198
0.01134
0.00893776
-0.00309351
-0.0215973
-0.0519942
-0.0646305
-0.0549504
-0.040458
-0.02426
-0.014416
1.7665e-05
0.00401441
-0.0947861
-0.101667
-0.104275
-0.104064
-0.103104
-0.102425
-0.102051
-0.1016
-0.100707
-0.0991797
-0.0969434
-0.0939591
-0.0901766
-0.0855371
-0.0799968
-0.0735554
-0.0662649
-0.0582336
-0.0496076
-0.0405652
-0.0312903
-0.0219765
-0.0128
-0.00393081
0.00448171
0.0122831
0.0193394
0.0255252
0.0305803
0.0343655
0.0367702
0.0381389
0.0377718
0.0334846
0.0224833
0.0054542
-0.0122483
-0.0240408
-0.0276975
-0.0251485
-0.0192593
-0.0123975
-0.00522743
0.000229445
0.00535734
0.00819084
0.0114572
0.0136415
0.0128648
0.0108896
0.000395229
-0.0157938
-0.043747
-0.0567583
-0.049061
-0.0360649
-0.0214917
-0.0124287
0.000310147
0.00371949
-0.0848027
-0.091239
-0.0938546
-0.093856
-0.0930691
-0.0924436
-0.0920447
-0.0915501
-0.0906432
-0.0891541
-0.0870251
-0.0842364
-0.0807596
-0.0765551
-0.0715892
-0.0658576
-0.0593952
-0.0522815
-0.0446279
-0.0365754
-0.0282733
-0.0198843
-0.0115624
-0.00346135
0.00427615
0.011507
0.0180978
0.0239307
0.0287789
0.0325085
0.0349927
0.0363995
0.0361472
0.0326865
0.0240563
0.0106632
-0.00350069
-0.0135708
-0.0177053
-0.0168889
-0.012999
-0.00786035
-0.00197888
0.00261741
0.00706657
0.00971969
0.0129201
0.0152285
0.0144418
0.0129481
0.00415431
-0.00962345
-0.0347506
-0.0478955
-0.0424728
-0.03139
-0.0186123
-0.0103081
0.00063525
0.00341473
-0.075393
-0.0812964
-0.0838377
-0.0840055
-0.0833888
-0.082848
-0.0824739
-0.0819933
-0.081131
-0.0797387
-0.0777704
-0.0752179
-0.0720677
-0.0682942
-0.0638722
-0.0587964
-0.0530904
-0.0468131
-0.0400494
-0.0329106
-0.0255177
-0.0180065
-0.0105103
-0.00316658
0.00389251
0.0105347
0.0166279
0.0220656
0.0266457
0.0302389
0.0327084
0.0340929
0.0339223
0.0311718
0.0245261
0.014221
0.003072
-0.00542458
-0.00963307
-0.00996526
-0.00755703
-0.00381145
0.00094833
0.00481542
0.00865111
0.0111496
0.014282
0.0167932
0.0161739
0.0152087
0.00812659
-0.00339899
-0.0255298
-0.0385226
-0.035427
-0.0265615
-0.0156995
-0.00811417
0.00102735
0.00314354
-0.0665321
-0.0718831
-0.0743083
-0.0746059
-0.0741482
-0.0737059
-0.0733858
-0.0729546
-0.0721747
-0.0709164
-0.0691415
-0.0668488
-0.0640341
-0.0606821
-0.0567746
-0.0523064
-0.0472938
-0.0417805
-0.0358318
-0.0295354
-0.0229894
-0.0163066
-0.0096017
-0.00299542
0.0033912
0.00943653
0.0150183
0.0200308
0.024296
0.0276917
0.0300776
0.0314108
0.0313225
0.0291597
0.0240822
0.0162694
0.0076302
0.000605389
-0.00332757
-0.00430874
-0.00293252
-0.00026506
0.00353642
0.00679217
0.0100979
0.0124598
0.0155101
0.0182928
0.0180982
0.0177144
0.0121987
0.00249794
-0.0166944
-0.0292138
-0.0282381
-0.0217163
-0.0128258
-0.00592508
0.00151692
0.00295182
-0.0582276
-0.0630542
-0.0653389
-0.0657305
-0.065414
-0.0650776
-0.0648175
-0.0644532
-0.0637765
-0.0626722
-0.0611072
-0.0590839
-0.056604
-0.0536589
-0.0502357
-0.0463301
-0.0419533
-0.0371384
-0.0319355
-0.0264142
-0.0206542
-0.0147484
-0.00879485
-0.00289909
0.002831
0.00828527
0.01335
0.0179201
0.0218417
0.0250011
0.0272584
0.0285332
0.0285427
0.0268792
0.0230423
0.0171948
0.0105999
0.00493523
0.00147744
0.000214363
0.000912185
0.00278067
0.00578196
0.00852297
0.0113896
0.0136306
0.0165616
0.0196029
0.020112
0.0203417
0.0161089
0.0076458
-0.0088062
-0.0205173
-0.0212553
-0.0169942
-0.0100556
-0.00383288
0.00211484
0.00287091
-0.0505333
-0.0548459
-0.0569627
-0.0574139
-0.0572162
-0.056975
-0.0567818
-0.0564956
-0.0559332
-0.0549912
-0.0536407
-0.0518859
-0.0497318
-0.0471741
-0.0442038
-0.0408174
-0.0370228
-0.0328452
-0.0283237
-0.0235135
-0.018479
-0.0132973
-0.00805093
-0.00283132
0.00226679
0.00714435
0.0116963
0.0158215
0.0193893
0.0222934
0.0244017
0.0256234
0.0257466
0.0245244
0.0216797
0.0173612
0.0124112
0.00796884
0.00506094
0.00375725
0.00403812
0.00533907
0.00768988
0.00999794
0.0125002
0.0146311
0.0174072
0.0205975
0.0218864
0.0226306
0.0193611
0.0116855
-0.00223356
-0.0128344
-0.0148063
-0.0125323
-0.00744985
-0.00193248
0.00279994
0.00289943
-0.0434395
-0.0472513
-0.0491854
-0.0496704
-0.0495705
-0.0494092
-0.0492874
-0.0490838
-0.048639
-0.0478593
-0.0467191
-0.0452236
-0.0433794
-0.0411853
-0.0386347
-0.0357249
-0.0324616
-0.0288641
-0.0249628
-0.0208019
-0.0164335
-0.0119214
-0.00733448
-0.00275133
0.00174581
0.00606836
0.0101221
0.0138133
0.0170305
0.019676
0.0216313
0.0228093
0.0230544
0.0222249
0.020178
0.0170523
0.0134087
0.010023
0.00766437
0.0064692
0.00651929
0.00743411
0.00926907
0.0112167
0.0134075
0.0154229
0.0180101
0.0211788
0.022957
0.0240096
0.0214426
0.0144559
0.00288516
-0.00640325
-0.00915476
-0.00846037
-0.00506895
-0.00030916
0.00351009
0.00299453
-0.036907
-0.0402574
-0.042011
-0.0425118
-0.0424926
-0.042406
-0.0423474
-0.0422212
-0.0418878
-0.0412622
-0.0403209
-0.0390691
-0.0375142
-0.0356563
-0.0334908
-0.0310155
-0.0282343
-0.0251622
-0.021823
-0.0182521
-0.0144913
-0.0105934
-0.00661558
-0.00262526
0.00130729
0.00510376
0.00868244
0.0119592
0.0148372
0.0172319
0.0190383
0.0201818
0.0205488
0.0200611
0.0186567
0.0164594
0.0138414
0.0113334
0.00949563
0.00848855
0.00843415
0.0090985
0.0105332
0.0121812
0.0140956
0.0159752
0.0183345
0.0212889
0.023193
0.024213
0.0221867
0.0160368
0.00658895
-0.0013403
-0.00446618
-0.00488729
-0.0029615
0.000976902
0.00413389
0.00307889
-0.0309249
-0.0338561
-0.0354345
-0.0359365
-0.0359813
-0.0359576
-0.0359471
-0.0358989
-0.0356678
-0.0351837
-0.0344253
-0.0333973
-0.032107
-0.0305557
-0.0287399
-0.0266574
-0.0243109
-0.0217119
-0.0188791
-0.0158407
-0.0126303
-0.00929144
-0.00587107
-0.0024265
0.000982516
0.004288
0.00742122
0.0103076
0.0128634
0.0150211
0.0166863
0.0177983
0.0182764
0.0180806
0.0171886
0.01571
0.0138903
0.0120992
0.0107249
0.00993869
0.00986125
0.0103712
0.0115016
0.0128971
0.0145592
0.0162716
0.0183652
0.0209531
0.0227114
0.0234619
0.0218315
0.0166484
0.00904179
0.00239419
-0.00078743
-0.00188857
-0.00115487
0.00192129
0.00454189
0.00306529
-0.0254767
-0.028025
-0.0294356
-0.0299316
-0.0300341
-0.0300781
-0.0301416
-0.0301241
-0.0299694
-0.029607
-0.0290113
-0.0281843
-0.0271322
-0.0258565
-0.0243544
-0.0226238
-0.0206662
-0.0184902
-0.0161104
-0.0135493
-0.0108338
-0.00799928
-0.00508433
-0.00213712
0.000793133
0.00364837
0.00636886
0.00889069
0.0111428
0.013083
0.0146135
0.0156921
0.0162613
0.016305
0.015816
0.0148884
0.0136882
0.0124666
0.0114919
0.0109269
0.0108747
0.0112947
0.0121974
0.0133769
0.0148041
0.0163183
0.0181175
0.020215
0.0217181
0.022151
0.020779
0.0165527
0.010494
0.00498038
0.0019491
0.000503126
0.000337673
0.00257
0.00465356
0.00290267
-0.0205249
-0.022728
-0.0239809
-0.0244611
-0.0246027
-0.024688
-0.0247812
-0.0248235
-0.02475
-0.0245
-0.0240515
-0.0234045
-0.0225645
-0.0215339
-0.0203104
-0.0188919
-0.0172791
-0.0154783
-0.0135007
-0.0113642
-0.00908991
-0.0067067
-0.00424558
-0.00174627
0.000750932
0.00319649
0.00554105
0.00773395
0.00973124
0.0114406
0.0128372
0.0138755
0.0145118
0.014741
0.0145619
0.0140542
0.0133294
0.0125493
0.0119062
0.0115457
0.0115435
0.0119138
0.0126467
0.0136388
0.0148471
0.0161465
0.0176445
0.0192354
0.0204302
0.0205962
0.0193898
0.0160015
0.0112145
0.00665005
0.00363386
0.00229919
0.00152576
0.00296771
0.00446737
0.00259983
-0.0160375
-0.0179351
-0.0190437
-0.0195042
-0.0196769
-0.0197999
-0.0199313
-0.0200253
-0.0200075
-0.0198479
-0.0195252
-0.0190352
-0.0183814
-0.0175657
-0.0165867
-0.0154423
-0.0141324
-0.0126616
-0.0110381
-0.00927604
-0.00739193
-0.00540883
-0.00335149
-0.00125232
0.000855921
0.0029323
0.00493673
0.00682461
0.00855323
0.0100765
0.0113523
0.012345
0.0130221
0.0133873
0.0134397
0.0132435
0.0128578
0.012428
0.0120558
0.011873
0.0119299
0.0122728
0.0128787
0.0137075
0.0147142
0.0157927
0.0170008
0.0181665
0.0190318
0.0189945
0.0179074
0.0151974
0.0114337
0.00768456
0.00498151
0.00359974
0.00243898
0.00317068
0.00406633
0.00221769
-0.0119868
-0.0136149
-0.0145923
-0.0150301
-0.0152257
-0.0153775
-0.0155357
-0.0156627
-0.0157035
-0.0156216
-0.0154059
-0.015052
-0.0145601
-0.0139312
-0.0131645
-0.0122584
-0.0112121
-0.0100288
-0.00871433
-0.00727963
-0.00573751
-0.00410619
-0.00240507
-0.00066014
0.00110216
0.00284918
0.00454905
0.00616277
0.00765366
0.00899624
0.0101477
0.0110854
0.0117786
0.0122342
0.0124526
0.0124934
0.0123509
0.0121749
0.0120134
0.0119758
0.0120894
0.0124152
0.0129247
0.0136107
0.0144334
0.0152993
0.0162407
0.0170621
0.0176359
0.0174516
0.0164649
0.0142826
0.0113164
0.00826217
0.0058363
0.00447356
0.00311368
0.00323771
0.0035727
0.00183134
-0.00834233
-0.00973412
-0.0105937
-0.0110079
-0.0112202
-0.011395
-0.0115749
-0.0117304
-0.0118154
-0.0117995
-0.0116717
-0.0114321
-0.0110789
-0.0106108
-0.0100269
-0.00932576
-0.0085066
-0.0075713
-0.00652412
-0.00537317
-0.00412822
-0.00280342
-0.00141373
2.03453e-05
0.00147816
0.00293342
0.00436
0.00572878
0.00701014
0.00817657
0.00920398
0.0100735
0.0107614
0.011268
0.0115897
0.011757
0.0118266
0.0118388
0.0118365
0.0119101
0.0120714
0.0123827
0.0128162
0.0133779
0.0140367
0.0147097
0.0154166
0.0159631
0.0163012
0.0160179
0.0151226
0.0133477
0.0109858
0.00850821
0.00632911
0.00500417
0.00358626
0.00322611
0.00308956
0.00149002
-0.00507337
-0.0062601
-0.00701525
-0.00740612
-0.00763021
-0.00782263
-0.00801948
-0.00819709
-0.00831826
-0.00835688
-0.00830278
-0.00815589
-0.00791755
-0.00758581
-0.00715788
-0.00663166
-0.00600629
-0.00528306
-0.00446489
-0.0035576
-0.0025685
-0.00150837
-0.000388671
0.00077482
0.00196605
0.00316453
0.00435012
0.00549977
0.00659034
0.00759984
0.00850552
0.00929663
0.00995315
0.0104811
0.0108691
0.0111452
0.0113264
0.0114628
0.0115718
0.0117233
0.011919
0.012214
0.0125846
0.0130391
0.0135554
0.0140602
0.0145681
0.0149018
0.0150584
0.0147136
0.0139017
0.0124433
0.0105296
0.00851453
0.00656664
0.00527709
0.0038883
0.00317899
0.00267414
0.00121347
-0.00215187
-0.00316178
-0.00382511
-0.00419332
-0.00442523
-0.00463072
-0.00483993
-0.00503435
-0.00518393
-0.00526721
-0.00527472
-0.00520497
-0.00506054
-0.00484123
-0.0045437
-0.00416488
-0.00370332
-0.00315965
-0.00253578
-0.00183581
-0.00106507
-0.000231628
0.000655927
0.00158576
0.00254567
0.00352002
0.00449321
0.00544719
0.00636411
0.00722738
0.00801876
0.00872889
0.00934296
0.00985987
0.0102745
0.0106065
0.0108595
0.0110735
0.0112542
0.0114542
0.0116698
0.0119448
0.0122608
0.0126235
0.0130186
0.0133817
0.0137259
0.0138993
0.0139195
0.0135423
0.0128028
0.0115911
0.0100096
0.00835176
0.00662754
0.00537005
0.00404972
0.00311924
0.00234066
0.00100502
0.000449037
-0.000409248
-0.000992359
-0.00133902
-0.00157555
-0.00179031
-0.00200814
-0.0022147
-0.00238598
-0.00250454
-0.00256245
-0.00255773
-0.00249049
-0.00236207
-0.0021712
-0.00191464
-0.00159002
-0.00119716
-0.000736924
-0.000211949
0.000373939
0.00101488
0.00170452
0.00243413
0.0031946
0.0039742
0.0047611
0.00554158
0.00630188
0.00702911
0.00770936
0.00833419
0.00889104
0.00937996
0.00979362
0.0101461
0.0104352
0.0106903
0.0109107
0.0111346
0.0113561
0.0116068
0.0118737
0.0121578
0.0124513