/*--------------------------------*- C++ -*----------------------------------*\
| =========                 |                                                 |
| \\      /  F ield         | OpenFOAM: The Open Source CFD Toolbox           |
|  \\    /   O peration     | Version:  2512                                  |
|   \\  /    A nd           | Website:  www.openfoam.com                      |
|    \\/     M anipulation  |                                                 |
\*---------------------------------------------------------------------------*/
FoamFile
{
    version     2.0;
    format      ascii;
    arch        "LSB;label=32;scalar=64";
    class       surfaceScalarField;
    location    "112.5";
    object      phi;
}
// * * * * * * * * * * * * * * * * * * * * * * * * * * * * * * * * * * * * * //

dimensions      [0 3 -1 0 0 0 0];

oriented        oriented;

internalField   nonuniform List<scalar> 
26232
(
-2.19996e-05
0.00083318
-0.00081118
0.000102004
0.00140603
-0.00153003
0.000562389
0.001093
-0.00155339
0.0015486
-2.77329e-05
-0.000958479
0.00324776
-0.00192528
0.000226126
0.00584107
-0.00458978
0.00199646
0.00949486
-0.00801812
0.00436433
0.0143496
-0.012197
0.00734228
0.0205051
-0.0170897
0.0109342
0.0280055
-0.0226268
0.0151263
0.0368277
-0.0287036
0.0198814
0.0468754
-0.0351845
0.0251368
0.0579814
-0.0419127
0.0308067
0.0699171
-0.0487229
0.0367872
0.0824098
-0.0554561
0.0429634
0.0951627
-0.0619717
0.0492188
0.107879
-0.0681585
0.0554425
0.120281
-0.0739408
0.0615382
0.132136
-0.0792797
0.0674251
0.143261
-0.0841831
0.0730584
0.153542
-0.0886616
0.0783807
0.162911
-0.0928512
0.0834814
0.171354
-0.096618
0.0881754
-0.100566
0.0933152
0.178604
6.40394e-05
0.000769141
0.000445908
0.00102416
0.0013467
0.000192214
0.00296934
-0.00165038
0.00551163
-0.00446757
0.00915544
-0.00823359
0.0140489
-0.0129116
0.0202864
-0.0184346
0.0278889
-0.0246922
0.0367897
-0.0315277
0.0468317
-0.0387455
0.0577751
-0.0461279
0.0693188
-0.0534563
0.0811284
-0.0605325
0.0928689
-0.0671966
0.104236
-0.073339
0.114983
-0.0789057
0.12494
-0.0838969
0.13402
-0.0883598
0.142216
-0.0923797
0.149609
-0.0960539
0.156287
-0.0995297
0.162457
-0.102788
-0.106308
0.168199
0.000153968
0.000615172
0.000815181
0.000362946
0.00219849
-0.00119109
0.00451636
-0.00396825
0.00796518
-0.00791639
0.0127031
-0.0129715
0.0188225
-0.019031
0.0263243
-0.0259364
0.035101
-0.0334688
0.044936
-0.0413627
0.0555218
-0.0493312
0.066493
-0.0570992
0.0774701
-0.0644334
0.0881026
-0.071165
0.098107
-0.077201
0.107293
-0.0825248
0.115573
-0.0871862
0.122962
-0.0912854
0.129553
-0.0949515
0.135498
-0.0983242
0.140971
-0.101527
0.146131
-0.104689
0.151148
-0.107805
-0.11122
0.15606
0.000251109
0.000364063
0.00121597
-0.000601917
0.00312112
-0.00309624
0.00617789
-0.00702502
0.0105579
-0.0122964
0.0163587
-0.0187722
0.0235691
-0.0262415
0.0320485
-0.0344157
0.041528
-0.0429483
0.0516391
-0.0514738
0.0619627
-0.0596548
0.0720872
-0.0672236
0.0816627
-0.074009
0.0904418
-0.079944
0.0982984
-0.0850576
0.105226
-0.0894524
0.111316
-0.0932767
0.116726
-0.0966953
0.121639
-0.0998646
0.126232
-0.102916
0.130652
-0.105948
0.134997
-0.109034
0.139358
-0.112167
-0.115567
0.143705
0.000359875
4.18825e-06
0.00165588
-0.00189792
0.00411602
-0.00555638
0.00792952
-0.0108385
0.0132081
-0.017575
0.0199417
-0.0255059
0.0279694
-0.0342692
0.0369807
-0.043427
0.0465539
-0.0525215
0.0562218
-0.0611418
0.0655466
-0.0689796
0.0741837
-0.0758607
0.0819212
-0.0817465
0.0886899
-0.0867128
0.0945453
-0.090913
0.0996303
-0.0945374
0.104131
-0.0977775
0.108236
-0.1008
0.112107
-0.103736
0.115864
-0.106674
0.119588
-0.109672
0.123319
-0.112765
0.127097
-0.115944
-0.119347
0.130877
0.000483162
-0.000478973
0.00213644
-0.00355121
0.00516846
-0.0085884
0.00971394
-0.015384
0.0157801
-0.0236412
0.0232044
-0.0329301
0.0316495
-0.0427143
0.0406491
-0.0524267
0.0496902
-0.0615626
0.058306
-0.0697575
0.0661502
-0.0768238
0.0730361
-0.0827466
0.0789351
-0.0876455
0.0839442
-0.0917219
0.0882361
-0.0952049
0.0920088
-0.0983101
0.0954457
-0.101214
0.0986931
-0.104048
0.101854
-0.106896
0.104993
-0.109813
0.108147
-0.112826
0.111331
-0.115949
0.114566
-0.119179
-0.122587
0.117806
0.000620914
-0.00109989
0.00264743
-0.00557772
0.00623833
-0.0121793
0.0114324
-0.0205781
0.018088
-0.0302968
0.0258626
-0.0407047
0.0342564
-0.0511082
0.0427101
-0.0608803
0.0507179
-0.0695704
0.0579167
-0.0769563
0.0641261
-0.0830332
0.0693388
-0.0879593
0.0736755
-0.0919823
0.0773252
-0.0953715
0.0804901
-0.0983698
0.0833482
-0.101168
0.0860354
-0.103902
0.0886442
-0.106657
0.0912314
-0.109484
0.0938284
-0.11241
0.0964509
-0.115448
0.0991039
-0.118602
0.101794
-0.121869
-0.125279
0.104486
0.000768676
-0.00186856
0.00316554
-0.00797459
0.00726125
-0.016275
0.0129556
-0.0262724
0.0199274
-0.0372686
0.0276614
-0.0484387
0.0355529
-0.0589996
0.0430431
-0.0683706
0.0497298
-0.0762571
0.0554152
-0.0826416
0.0600927
-0.0877107
0.063892
-0.0917586
0.0670102
-0.0951005
0.0696528
-0.0980141
0.0719958
-0.100713
0.0741703
-0.103343
0.0762636
-0.105995
0.078328
-0.108721
0.0803925
-0.111548
0.0824715
-0.114489
0.0845709
-0.117547
0.0866918
-0.120723
0.0888354
-0.124013
-0.127421
0.0909772
0.000918752
-0.00278732
0.00365757
-0.0107134
0.00815863
-0.0207761
0.0141484
-0.0322622
0.0211226
-0.0442428
0.0284392
-0.0557553
0.0354737
-0.0660341
0.0417582
-0.0746551
0.0470495
-0.0815484
0.051319
-0.0869111
0.0546913
-0.091083
0.0573664
-0.0944337
0.0595541
-0.0972881
0.0614326
-0.0998927
0.0631334
-0.102414
0.0647423
-0.104952
0.0663105
-0.107563
0.0678658
-0.110276
0.0694222
-0.113104
0.0709863
-0.116053
0.0725603
-0.119121
0.0741439
-0.122307
0.075736
-0.125605
-0.129006
0.0773215
0.00106104
-0.00384836
0.0040855
-0.0137379
0.00885172
-0.0255423
0.0148975
-0.0383079
0.0215647
-0.05091
0.0281577
-0.0623483
0.0341169
-0.0719933
0.0391212
-0.0796594
0.0430928
-0.08552
0.0461347
-0.089953
0.0484436
-0.0933919
0.0502343
-0.0962244
0.0516917
-0.0987456
0.0529523
-0.101153
0.0541047
-0.103566
0.0552012
-0.106048
0.0562701
-0.108632
0.0573259
-0.111332
0.0583756
-0.114154
0.0594224
-0.1171
0.0604668
-0.120166
0.0615082
-0.123348
0.062544
-0.126641
-0.130029
0.0635668
0.00118491
-0.00503327
0.00441348
-0.0169664
0.00927642
-0.0304052
0.0151329
-0.0441644
0.0212275
-0.0570047
0.0268904
-0.0680111
0.0316869
-0.0767899
0.0354566
-0.0834291
0.0382581
-0.0883214
0.0402742
-0.0919692
0.0417235
-0.0948413
0.0428012
-0.0973021
0.0436534
-0.0995978
0.0443759
-0.101876
0.0450248
-0.104215
0.0456303
-0.106654
0.0462079
-0.10921
0.0467654
-0.111889
0.0473067
-0.114696
0.0478337
-0.117627
0.0483462
-0.120678
0.048843
-0.123845
0.0493205
-0.127118
-0.130485
0.049776
0.00128327
-0.00631654
0.00461606
-0.0202992
0.00939472
-0.0351839
0.0148365
-0.0496061
0.0201604
-0.0623286
0.0247876
-0.0726383
0.0284339
-0.0804362
0.031081
-0.0860762
0.0328794
-0.0901199
0.0340456
-0.0931353
0.0347863
-0.095582
0.0352624
-0.0977782
0.035581
-0.0999164
0.0358055
-0.1021
0.03597
-0.104379
0.0360915
-0.106775
0.0361787
-0.109297
0.036236
-0.111947
0.0362663
-0.114726
0.036271
-0.117631
0.0362501
-0.120657
0.0362025
-0.123797
0.0361245
-0.12704
0.0360161
-0.130376
-0.000255458
-0.00233234
0.00258779
-0.000911221
-0.00543606
0.00609182
-0.00189741
-0.0074282
0.00841439
-0.00315574
-0.00856225
0.00982058
-0.00463725
-0.00906554
0.0105471
-0.00630304
-0.00913005
0.0107958
-0.00812363
-0.00890107
0.0107217
-0.0100769
-0.00847299
0.0104262
-0.0121452
-0.00789259
0.00996097
-0.0143132
-0.00716755
0.00933555
-0.016565
-0.00627742
0.00852914
-0.0188822
-0.0051844
0.00750165
-0.0212429
-0.00384211
0.00620279
-0.0236199
-0.00220126
0.00457823
-0.0259745
-0.000213725
0.00256836
-0.0282596
0.00214996
0.000135178
-0.0304518
0.00492897
-0.00273681
-0.0324806
0.00814458
-0.00611578
-0.034285
0.0118016
-0.00999721
-0.0358015
0.0158876
-0.0143711
-0.0369685
0.0203695
-0.0192025
-0.037731
0.0251935
-0.024431
-0.038056
0.0303009
-0.0299759
0.0356414
-0.0379832
-0.0357142
-0.000311373
-0.00202096
-0.00107912
-0.00466831
-0.00219759
-0.00630973
-0.00358621
-0.00717363
-0.00518405
-0.00746769
-0.00694718
-0.00736692
-0.00884486
-0.00700339
-0.010855
-0.00646286
-0.0129596
-0.005788
-0.0151409
-0.00498625
-0.0173783
-0.00403995
-0.0196466
-0.00291613
-0.0219149
-0.00157377
-0.0241415
2.52981e-05
-0.0262748
0.00191952
-0.0282644
0.00413961
-0.0300432
0.00670774
-0.0315339
0.00963527
-0.0326519
0.0129197
-0.0333084
0.0165441
-0.033416
0.0204771
-0.0328951
0.0246726
-0.0316745
0.0290803
0.0336841
-0.0297172
-0.00034449
-0.00167647
-0.00117249
-0.00384031
-0.00235073
-0.00513149
-0.00377986
-0.0057445
-0.00538725
-0.0058603
-0.00712181
-0.00563236
-0.00894807
-0.00517713
-0.0108399
-0.00457106
-0.0127746
-0.00385331
-0.0147282
-0.00303258
-0.0166724
-0.0020958
-0.0185717
-0.00101683
-0.0203812
0.000235735
-0.0220491
0.00169325
-0.0235129
0.00338323
-0.0246996
0.00532633
-0.0255261
0.00753425
-0.0258985
0.0100077
-0.0257136
0.0127348
-0.0248603
0.0156908
-0.0232249
0.0188417
-0.0206998
0.0221475
-0.017185
0.0255655
0.0291462
-0.0126471
-0.000357972
-0.0013185
-0.00120302
-0.00299526
-0.00238207
-0.00395244
-0.00378051
-0.00434606
-0.00531438
-0.00432643
-0.00692378
-0.00402297
-0.00856561
-0.0035353
-0.0102064
-0.00293028
-0.0118157
-0.002244
-0.0133611
-0.00148721
-0.0148043
-0.000652608
-0.0160989
0.000277828
-0.0171896
0.00132641
-0.0180112
0.00251491
-0.0184888
0.00386081
-0.0185373
0.0053748
-0.0180618
0.00705874
-0.0169579
0.00890383
-0.0151122
0.0108891
-0.0124021
0.0129807
-0.00869716
0.0151368
-0.00386143
0.0173118
0.00222599
0.0194781
0.0216928
0.00967933
-0.000357227
-0.000961274
-0.00118805
-0.00216443
-0.00232629
-0.0028142
-0.00364551
-0.00302685
-0.00505141
-0.00292053
-0.00647456
-0.00259982
-0.00786266
-0.0021472
-0.00917303
-0.00161992
-0.010366
-0.00105107
-0.0113995
-0.000453705
-0.0122257
0.000173674
-0.0127888
0.000840875
-0.0130236
0.0015612
-0.0128557
0.00234705
-0.0122018
0.00320684
-0.0109697
0.0041427
-0.0090594
0.00514848
-0.00636402
0.00620846
-0.00277091
0.00729599
0.00183682
0.00837294
0.00758648
0.00938712
0.0146128
0.0102854
0.0230637
0.0110272
0.011492
0.0332645
-0.000347455
-0.000613819
-0.00114367
-0.00136822
-0.00221448
-0.0017434
-0.00342492
-0.0018164
-0.00467198
-0.00167348
-0.00587704
-0.00139475
-0.00697828
-0.00104596
-0.00792324
-0.000674958
-0.00866254
-0.000311767
-0.00914491
2.86627e-05
-0.00931354
0.000342309
-0.00910431
0.000631641
-0.00844507
0.000901967
-0.00725528
0.00115725
-0.00544673
0.00139829
-0.00292473
0.0016207
0.00041085
0.0018129
0.00466451
0.0019548
0.00994375
0.00201675
0.0163581
0.0019586
0.024017
0.00172824
0.0330538
0.0012486
0.043523
0.000558017
-0.00101398
0.056029
-0.000331583
-0.000282236
-0.00107843
-0.000621367
-0.00206212
-0.00075971
-0.00314203
-0.000736492
-0.00420798
-0.000607525
-0.00517288
-0.000429849
-0.00596527
-0.000253576
-0.00652241
-0.000117817
-0.00678448
-4.96975e-05
-0.00668992
-6.58897e-05
-0.00617244
-0.000175176
-0.00515842
-0.000382376
-0.00356902
-0.000687437
-0.00131667
-0.0010951
0.00169142
-0.0016098
0.00555312
-0.00224099
0.0103695
-0.00300344
0.016243
-0.0039187
0.023276
-0.00501631
0.0315697
-0.00633508
0.0412102
-0.00791225
0.0523428
-0.00988397
0.0648325
-0.0119317
-0.0157304
0.0795489
-0.000309259
2.70223e-05
-0.000990331
5.97047e-05
-0.00186323
0.000113188
-0.00278342
0.000183696
-0.00363413
0.000243184
-0.0043192
0.000255227
-0.00475605
0.000183272
-0.00486913
-4.73811e-06
-0.00458481
-0.000334011
-0.00382763
-0.000823077
-0.00251698
-0.00148582
-0.000567331
-0.00233202
0.00211456
-0.00336932
0.005625
-0.00460554
0.0100643
-0.00604911
0.0155338
-0.00771051
0.0221336
-0.00960321
0.0299594
-0.0117446
0.0390993
-0.0141561
0.0496345
-0.0168703
0.0616051
-0.0198829
0.0751462
-0.023425
0.0899537
-0.0267393
-0.0326139
0.106837
-0.000277464
0.000304486
-0.000868718
0.000650959
-0.00159399
0.000838455
-0.00230493
0.000894643
-0.00287678
0.000815033
-0.00320152
0.000579966
-0.00318132
0.000163076
-0.00272298
-0.000463082
-0.00173408
-0.00132291
-0.000118457
-0.0024387
0.00222311
-0.00382739
0.00539326
-0.00550217
0.00949648
-0.00747255
0.0146358
-0.00974482
0.0209093
-0.0123226
0.0284063
-0.0152075
0.0372031
-0.0184
0.0473589
-0.0219004
0.0589106
-0.0257078
0.0718735
-0.0298332
0.0862117
-0.0342212
0.10193
-0.0391432
0.118757
-0.0435667
-0.0507902
0.136934
-0.000232657
0.000537143
-0.000700735
0.00111904
-0.00122546
0.00136318
-0.00165313
0.00132231
-0.00184778
0.00100968
-0.00168516
0.000417349
-0.00104733
-0.000474757
0.000180688
-0.0016911
0.00211544
-0.00325766
0.00487281
-0.00519607
0.00856751
-0.00752209
0.0133091
-0.0102438
0.0191971
-0.0133605
0.026315
-0.0168627
0.0347249
-0.0207326
0.0444625
-0.024945
0.0555324
-0.02947
0.0679063
-0.0342743
0.0815204
-0.0393219
0.0962737
-0.0445865
0.112037
-0.0499846
0.128595
-0.0557006
0.145877
-0.0608495
-0.0681728
0.16326
-0.000173271
0.000710414
-0.000479136
0.0014249
-0.000739359
0.0016234
-0.000792355
0.00137531
-0.000487486
0.000704808
0.000319007
-0.000389144
0.00176687
-0.00192262
0.00399391
-0.00391813
0.00713294
-0.00639669
0.0113084
-0.00937148
0.0166295
-0.0128432
0.0231829
-0.0167972
0.0310244
-0.021202
0.0401722
-0.0260106
0.0506025
-0.0311628
0.062247
-0.0365895
0.0749938
-0.0422168
0.088691
-0.0479716
0.103152
-0.0537825
0.118162
-0.0595965
0.133508
-0.0653309
0.148873
-0.0710653
0.164328
-0.0763044
-0.0825571
0.178712
-0.000100766
-0.000205895
-0.000135881
0.000280949
0.00121188
0.0028192
0.00526091
0.00868505
0.0132226
0.0189775
0.0260156
0.0343552
0.04396
0.0547366
0.0665372
0.0791664
0.092392
0.105959
0.119601
0.133063
0.146113
0.158529
0.1704
0.181158
-0.0355782
0.054723
-0.0571281
-0.0322917
0.064302
-0.0675885
-0.0279497
0.0732267
-0.0775686
-0.0223289
0.0807185
-0.0863393
-0.0152129
0.0859631
-0.0930791
-0.00642885
0.0880196
-0.0968036
0.00408185
0.0859431
-0.0964538
0.0161527
0.0789331
-0.091004
0.029254
0.0664548
-0.0795561
0.0429346
0.0484224
-0.0621029
0.0565941
0.0250174
-0.0386769
0.069666
-0.00314315
-0.00992872
0.0822249
-0.0353226
0.0227637
0.094
-0.0698334
0.0580582
0.104584
-0.103071
0.0924867
0.113234
-0.130513
0.121863
0.119234
-0.149034
0.143034
0.122401
-0.158458
0.15529
0.123086
-0.160735
0.16005
0.121337
-0.158875
0.160624
0.116636
-0.157334
0.162034
0.109316
-0.16001
0.167331
0.101946
-0.164338
0.171708
0.0984226
-0.158616
0.16214
0.101112
-0.129227
0.126537
0.109454
-0.0729847
0.0646425
0.120988
-0.00101543
-0.0105183
0.132863
0.0698291
-0.0817036
0.142702
0.125932
-0.135771
0.149413
0.16303
-0.169741
0.153244
0.182313
-0.186144
0.154216
0.190733
-0.191705
0.151463
0.199221
-0.196467
0.144993
0.215436
-0.208966
0.137348
0.22773
-0.220086
0.132395
0.209788
-0.204835
0.132351
0.145482
-0.145438
0.136798
0.0441732
-0.0486197
0.143572
-0.0586108
0.0518365
0.150391
-0.141893
0.135075
0.155298
-0.188338
0.183431
0.155963
-0.215945
0.21528
0.15109
-0.230802
0.235674
0.14262
-0.245694
0.254164
0.135345
-0.235324
0.242599
0.133471
-0.172727
0.174601
0.137845
-0.0776134
0.073239
0.145047
0.0491488
-0.0563513
0.150138
0.128069
-0.13316
0.149447
0.219086
-0.218395
0.144247
0.25989
-0.25469
0.13956
0.281263
-0.276576
0.139385
0.240409
-0.240235
0.142943
0.0982468
-0.101804
0.145809
0.0212488
-0.0241156
0.144818
-0.17279
0.173781
0.142701
-0.224654
0.226771
0.141242
-0.299809
0.301268
0.139881
-0.302264
0.303625
-0.0339336
0.0356764
-0.0253678
0.0503736
-0.0198951
0.0588293
-0.0132182
0.0665497
-0.00514595
0.0726463
0.00434143
0.0764757
0.015181
0.07718
0.0271835
0.0739407
0.0400075
0.0661091
0.0531488
0.0533135
0.066057
0.0355142
0.0782956
0.0127788
0.0895393
-0.0143869
0.0998333
-0.0456166
0.109034
-0.0790342
0.116734
-0.110771
0.122329
-0.136107
0.125356
-0.152061
0.12583
-0.158932
0.124313
-0.159217
0.121156
-0.155718
0.115749
-0.151927
0.107629
-0.151891
0.0985895
-0.155299
0.0927442
-0.152771
0.0936361
-0.130119
0.101528
-0.0808769
0.113962
-0.013449
0.127478
0.0563135
0.139282
0.114127
0.148035
0.154277
0.153695
0.176653
0.156033
0.188395
0.154322
0.200932
0.148936
0.220822
0.142386
0.234281
0.138027
0.214147
0.137686
0.145823
0.141092
0.0407674
0.146315
-0.063834
0.151448
-0.147026
0.154985
-0.191875
0.154868
-0.215828
0.149624
-0.225558
0.140822
-0.236891
0.133359
-0.227861
0.131684
-0.171053
0.136751
-0.0826799
0.144634
0.0412658
0.150186
0.122517
0.14982
0.219452
0.144755
0.264955
0.140096
0.285922
0.139754
0.240751
0.143435
0.0945663
0.14649
0.0181939
0.145441
-0.171742
0.143212
-0.222425
0.141632
-0.29823
0.140183
-0.300814
-0.0321221
-0.00686189
0.0445885
0.000200833
0.0517666
0.00868835
0.0580622
0.0182984
0.0630363
0.0289891
0.0657849
0.0406045
0.0655646
0.052849
0.0616962
0.065311
0.0536472
0.0775102
0.0411143
0.0889951
0.0240293
0.0993602
0.00241367
0.108549
-0.023576
0.116521
-0.0535881
0.123137
-0.0856509
0.127965
-0.115599
0.130539
-0.138681
0.130719
-0.15224
0.128773
-0.156987
0.125362
-0.155806
0.121037
-0.151393
0.115284
-0.146174
0.107011
-0.143618
0.0969591
-0.145247
0.0889837
-0.144796
0.0876636
-0.128799
0.094483
-0.0876963
0.107199
-0.026165
0.121979
0.0415334
0.135579
0.100527
0.146352
0.143505
0.153877
0.169128
0.157708
0.184564
0.157296
0.201344
0.153253
0.224866
0.147891
0.239642
0.144013
0.218024
0.143187
0.146649
0.145386
0.0385691
0.148999
-0.0674474
0.152425
-0.150452
0.154597
-0.194047
0.153784
-0.215015
0.148352
-0.220126
0.139389
-0.227928
0.131777
-0.22025
0.130202
-0.169477
0.1358
-0.0882785
0.144263
0.0328033
0.150293
0.116487
0.150328
0.219416
0.14545
0.269833
0.140815
0.290557
0.140267
0.241299
0.144045
0.0907884
0.147308
0.0149308
0.1462
-0.170634
0.143819
-0.220044
0.142118
-0.296529
0.140618
-0.299315
-0.0302698
0.0167567
0.0375111
0.0248422
0.043681
0.0339128
0.0489915
0.044023
0.0529261
0.0549645
0.0548435
0.0664436
0.0540855
0.0781048
0.050035
0.0895419
0.04221
0.100338
0.0303187
0.1101
0.0142668
0.118676
-0.00616213
0.125905
-0.0308049
0.131762
-0.0594452
0.135981
-0.0898699
0.13808
-0.117698
0.137764
-0.138366
0.135266
-0.149742
0.131181
-0.152901
0.126188
-0.150813
0.120886
-0.146091
0.115009
-0.140297
0.107177
-0.135786
0.0969841
-0.135054
0.0873758
-0.135187
0.0835462
-0.124969
0.0885006
-0.0926507
0.100753
-0.0384174
0.116359
0.0259269
0.131541
0.0853457
0.144265
0.130781
0.153671
0.159721
0.159128
0.179107
0.160256
0.200216
0.15778
0.227343
0.153662
0.24376
0.1502
0.221487
0.148742
0.148106
0.149558
0.0377535
0.151569
-0.0694582
0.153313
-0.152196
0.154129
-0.194863
0.152672
-0.213557
0.147203
-0.214657
0.138252
-0.218976
0.130539
-0.212537
0.128963
-0.167901
0.13493
-0.094246
0.143892
0.0238413
0.150436
0.109943
0.150966
0.218886
0.146349
0.27445
0.141745
0.295161
0.140948
0.242097
0.144766
0.0869703
0.14826
0.0114372
0.14709
-0.169464
0.144521
-0.217475
0.142693
-0.294701
0.141174
-0.297795
-0.0284043
0.0408982
0.0298775
0.0493014
0.0352778
0.0585289
0.039764
0.0685502
0.0429048
0.0791304
0.0442632
0.089945
0.0432709
0.100636
0.0393435
0.11083
0.0320164
0.120197
0.0209518
0.128473
0.00599038
0.135544
-0.0132324
0.141214
-0.0364755
0.145265
-0.0634955
0.14723
-0.0918356
0.146672
-0.117139
0.143616
-0.13531
0.138713
-0.144839
0.132848
-0.147036
0.12668
-0.144646
0.120665
-0.140075
0.114759
-0.134391
0.107713
-0.12874
0.0982207
-0.125561
0.0878306
-0.124797
0.0815525
-0.118691
0.0839215
-0.0950197
0.0948521
-0.049348
0.11069
0.0100894
0.127121
0.0689138
0.141644
0.116258
0.152897
0.148467
0.160095
0.171909
0.162977
0.197334
0.162265
0.228055
0.159479
0.246545
0.156361
0.224605
0.15416
0.150307
0.153559
0.0383547
0.153958
-0.0698572
0.154078
-0.152316
0.153561
-0.194346
0.151497
-0.211494
0.146117
-0.209277
0.137335
-0.210194
0.129575
-0.204777
0.1279
-0.166226
0.134077
-0.100424
0.14347
0.0144486
0.150577
0.102836
0.151712
0.217751
0.147456
0.278705
0.142911
0.299706
0.141813
0.243195
0.145602
0.0831805
0.149325
0.00771424
0.148098
-0.168237
0.145314
-0.214691
0.143352
-0.292739
0.141837
-0.29628
-0.0265538
0.0635502
0.0223563
0.0716877
0.0271403
0.080538
0.0309138
0.0900346
0.0334082
0.0999064
0.0343914
0.109835
0.0333423
0.119491
0.0296875
0.128539
0.0229686
0.136657
0.0128338
0.143932
-0.00128492
0.149775
-0.019075
0.154143
-0.0408438
0.156537
-0.065889
0.156352
-0.0916511
0.153306
-0.114093
0.147822
-0.129826
0.140915
-0.137932
0.133666
-0.139787
0.126709
-0.137688
0.120273
-0.13364
0.11438
-0.128499
0.108194
-0.122554
0.100041
-0.117408
0.0899294
-0.114685
0.0817913
-0.110553
0.0811373
-0.0943657
0.0897945
-0.0580053
0.105102
-0.00521835
0.122294
0.0517222
0.138341
0.100211
0.151344
0.135465
0.160353
0.1629
0.165163
0.192524
0.166387
0.226831
0.165035
0.247898
0.162285
0.227354
0.159293
0.153299
0.157249
0.0403989
0.156085
-0.0686934
0.154672
-0.150903
0.15286
-0.192535
0.150212
-0.208846
0.145019
-0.204084
0.136546
-0.201722
0.128796
-0.197027
0.126937
-0.164367
0.13317
-0.106656
0.142935
0.00468353
0.150666
0.0951054
0.152529
0.215888
0.148757
0.282478
0.144316
0.304147
0.142875
0.244636
0.146546
0.0795097
0.150486
0.00377392
0.149212
-0.166962
0.146191
-0.21167
0.144085
-0.290633
0.142592
-0.294787
-0.0247473
0.0858193
0.0160859
0.0928304
0.0201291
0.100653
0.0230908
0.109132
0.0249298
0.117959
0.0255642
0.126841
0.02446
0.135465
0.0210636
0.143534
0.0148998
0.15069
0.00567764
0.156952
-0.00754697
0.161742
-0.0238649
0.164771
-0.0438731
0.165396
-0.0665134
0.163038
-0.0892932
0.157697
-0.108752
0.150184
-0.122312
0.14176
-0.129508
0.133555
-0.131583
0.126147
-0.13028
0.119571
-0.127064
0.113749
-0.122677
0.108274
-0.117079
0.101706
-0.110841
0.0928912
-0.10587
0.0839817
-0.101643
0.0804094
-0.0907934
0.0860694
-0.0636652
0.0997213
-0.0188703
0.117083
0.0343605
0.134252
0.0830419
0.148822
0.120895
0.159644
0.152078
0.166501
0.185667
0.169812
0.22352
0.170025
0.247685
0.167748
0.229631
0.164009
0.157039
0.160496
0.0439113
0.157866
-0.0660634
0.155039
-0.148076
0.151993
-0.189488
0.14877
-0.205623
0.143835
-0.199149
0.135792
-0.193678
0.128109
-0.189344
0.125991
-0.162249
0.13213
-0.112796
0.142217
-0.00540322
0.150638
0.0866843
0.153368
0.213157
0.15022
0.285626
0.145954
0.308413
0.144131
0.246459
0.147601
0.0760397
0.151715
-0.000340666
0.150414
-0.165661
0.147147
-0.208403
0.144886
-0.288372
0.143427
-0.293328
-0.0230149
0.110748
0.0121753
0.115714
0.0151628
0.121713
0.0170922
0.128465
0.018177
0.135681
0.0183486
0.143098
0.0170431
0.150379
0.0137829
0.157153
0.00812566
0.163352
-0.000521605
0.168241
-0.0124361
0.17164
-0.0272642
0.17295
-0.045183
0.171528
-0.0650915
0.166986
-0.0847509
0.159657
-0.101424
0.150627
-0.113282
0.141234
-0.120115
0.132509
-0.122858
0.124923
-0.122694
0.118415
-0.120556
0.112762
-0.117023
0.107788
-0.112105
0.102639
-0.105692
0.0957447
-0.098976
0.0873817
-0.0932803
0.0817188
-0.0851305
0.0839232
-0.0658697
0.0949669
-0.029914
0.111594
0.0177338
0.129328
0.0653074
0.145195
0.105028
0.15776
0.139513
0.166694
0.176733
0.172157
0.218058
0.174045
0.245796
0.17239
0.231286
0.168077
0.161352
0.163245
0.0487436
0.159218
-0.0620367
0.155115
-0.143973
0.150916
-0.185289
0.147119
-0.201826
0.142492
-0.194522
0.134982
-0.186168
0.127417
-0.181779
0.124981
-0.159813
0.130887
-0.118701
0.141247
-0.0157636
0.150421
0.0775103
0.154162
0.209416
0.151795
0.287993
0.147794
0.312414
0.145568
0.248685
0.148736
0.0728712
0.153006
-0.00461022
0.151686
-0.164342
0.148171
-0.204888
0.145743
-0.285944
0.144327
-0.291912
-0.021389
0.138343
0.0107665
0.140991
0.0125145
0.144704
0.0133796
0.149175
0.0137056
0.154224
0.0132995
0.159621
0.0116458
0.16503
0.00837448
0.169951
0.00320404
0.174437
-0.00500701
0.177464
-0.0154629
0.178884
-0.0286849
0.178056
-0.0443547
0.174444
-0.0614799
0.167927
-0.0782336
0.15911
-0.0926059
0.149173
-0.103345
0.139356
-0.110297
0.1305
-0.114003
0.122946
-0.115139
0.116616
-0.114226
0.111227
-0.111634
0.106625
-0.107502
0.102502
-0.101569
0.0975981
-0.0940724
0.090895
-0.0865772
0.0845252
-0.0787606
0.0835668
-0.0649112
0.0912223
-0.0375695
0.106039
0.00291665
0.123597
0.0477499
0.140367
0.0882577
0.154511
0.125369
0.165518
0.165726
0.173243
0.210332
0.176917
0.242122
0.175976
0.232228
0.171274
0.166054
0.165332
0.054685
0.160032
-0.0567366
0.154803
-0.138744
0.149565
-0.180051
0.145187
-0.197449
0.140901
-0.190235
0.13403
-0.179297
0.126637
-0.174386
0.123828
-0.157004
0.129373
-0.124246
0.139956
-0.0263474
0.149934
0.0675323
0.154835
0.204515
0.153417
0.289411
0.149792
0.31604
0.147165
0.251312
0.149943
0.0700936
0.154324
-0.0089914
0.153007
-0.163026
0.149251
-0.201132
0.146642
-0.283335
0.145276
-0.290545
-0.0199055
0.16308
0.0109468
0.164007
0.0115868
0.165704
0.0116825
0.168017
0.011393
0.170886
0.0104302
0.174068
0.00846364
0.177274
0.00516882
0.180197
0.000281258
0.182261
-0.00707108
0.183109
-0.0163108
0.182271
-0.0278471
0.179249
-0.0413323
0.173693
-0.0559245
0.165724
-0.0702645
0.156074
-0.0829561
0.145843
-0.0931143
0.136054
-0.100508
0.127348
-0.105297
0.119961
-0.107752
0.11385
-0.108115
0.108781
-0.106566
0.104543
-0.103264
0.101091
-0.0981178
0.0978074
-0.0907885
0.0933012
-0.082071
0.0877339
-0.0731933
0.0847705
-0.0619479
0.0888411
-0.04164
0.100805
-0.00904686
0.117219
0.0313354
0.134328
0.0711487
0.149781
0.109916
0.162716
0.152791
0.172614
0.200434
0.178161
0.236575
0.178199
0.23219
0.173394
0.170859
0.166685
0.0613934
0.160258
-0.0503088
0.154042
-0.132528
0.147895
-0.173904
0.142936
-0.19249
0.138991
-0.18629
0.132872
-0.173179
0.125722
-0.167236
0.122482
-0.153764
0.127519
-0.129283
0.138289
-0.037117
0.149101
0.0567196
0.155296
0.198321
0.154995
0.289712
0.151882
0.319153
0.148895
0.254299
0.1512
0.0677887
0.155641
-0.013433
0.154356
-0.161741
0.150372
-0.197148
0.147569
-0.280532
0.146261
-0.289237
-0.0186039
0.178127
0.0115312
0.178239
0.0114749
0.178732
0.0111896
0.179665
0.0104608
0.180987
0.00910785
0.182469
0.00698141
0.183771
0.00386707
0.184716
-0.0006638
0.184832
-0.00718755
0.183743
-0.0152216
0.181042
-0.0251458
0.176368
-0.0366584
0.169581
-0.0491375
0.160959
-0.061642
0.151217
-0.0732149
0.141264
-0.083161
0.131875
-0.0911193
0.123527
-0.0969488
0.116399
-0.100624
0.11049
-0.102206
0.105681
-0.101757
0.101761
-0.0993437
0.0987008
-0.0950572
0.0964156
-0.0885033
0.0939053
-0.0795608
0.0901406
-0.0694285
0.0867466
-0.0585539
0.0879004
-0.0427938
0.0963645
-0.017511
0.110552
0.0171479
0.12718
0.054521
0.143581
0.0935145
0.158442
0.13793
0.17071
0.188167
0.178254
0.229031
0.179212
0.231231
0.174558
0.175514
0.167377
0.068574
0.160066
-0.0429979
0.152975
-0.125436
0.146058
-0.166987
0.140514
-0.186946
0.136819
-0.182596
0.131526
-0.167886
0.124695
-0.160405
0.120963
-0.150031
0.125329
-0.133649
0.136172
-0.0479595
0.147828
0.0450632
0.155476
0.190673
0.156459
0.288729
0.153987
0.321625
0.150707
0.257579
0.152507
0.0659895
0.156931
-0.0178575
0.15572
-0.16053
0.151519
-0.192947
0.148512
-0.277526
0.147272
-0.287997
-0.017526
0.181025
0.0116649
0.180917
0.011582
0.181065
0.0110421
0.181407
0.010119
0.181839
0.00867586
0.182267
0.00655335
0.182589
0.00354517
0.182474
-0.000548871
0.18131
-0.00602407
0.179055
-0.0129667
0.175357
-0.0214472
0.17001
-0.0313113
0.163019
-0.0421472
0.154712
-0.0533345
0.145683
-0.0641862
0.136603
-0.0740805
0.12802
-0.0825364
0.120287
-0.0892161
0.113566
-0.0939037
0.107892
-0.0965317
0.103248
-0.0971135
0.0995115
-0.095607
0.0965991
-0.0921448
0.0946656
-0.0865697
0.0933751
-0.0782702
0.0914816
-0.0675351
0.0888825
-0.0559547
0.0883494
-0.0422607
0.0931984
-0.0223601
0.104315
0.00603149
0.119266
0.03957
0.135525
0.0772555
0.151513
0.121942
0.165899
0.173781
0.175675
0.219255
0.178184
0.228723
0.174395
0.179303
0.167519
0.0754502
0.159434
-0.0349128
0.151632
-0.117635
0.144182
-0.159536
0.138106
-0.180871
0.134511
-0.179
0.130038
-0.163413
0.123596
-0.153963
0.119328
-0.145763
0.122949
-0.137271
0.133722
-0.0587319
0.146101
0.0326839
0.155213
0.181561
0.157649
0.286293
0.156019
0.323255
0.152564
0.261034
0.153845
0.0647083
0.158164
-0.0221762
0.157079
-0.159444
0.152665
-0.188533
0.149469
-0.274329
0.148304
-0.286832
-0.0167156
0.197702
0.0118648
-0.197902
0.198101
0.0111828
0.198697
0.0104463
0.19956
0.00925604
0.20072
0.00751562
0.202135
0.00513863
0.203648
0.00203214
0.205216
-0.00211656
0.20656
-0.00736834
0.207444
-0.0138506
0.207548
-0.0215516
0.206569
-0.0303325
0.204301
-0.039879
0.200701
-0.0497345
0.195891
-0.0593764
0.190095
-0.0682846
0.183568
-0.0760088
0.176558
-0.0822065
0.169296
-0.086642
0.161968
-0.0892037
0.154739
-0.0898841
0.147704
-0.0885721
0.140851
-0.0852913
0.134299
-0.0800177
0.128214
-0.0721855
0.12198
-0.0613013
0.114679
-0.0486535
0.107212
-0.034794
0.102655
-0.0178027
0.103103
0.0055834
0.108013
0.0346595
0.115101
0.0701675
0.122433
0.11461
0.129683
0.166532
0.137323
0.211614
0.147126
0.21892
0.159585
0.166844
0.170465
0.0645699
0.175996
-0.0404436
0.175338
-0.116977
0.169798
-0.153995
0.162143
-0.173216
0.155117
-0.171974
0.147584
-0.155879
0.13851
-0.14489
0.130882
-0.138135
0.128413
-0.134802
0.131238
-0.061557
0.135122
0.0288001
0.137504
0.179179
0.138039
0.285757
0.139078
0.322216
0.141734
0.258378
0.146854
0.0595886
0.152609
-0.0279317
0.151672
-0.158507
0.146067
-0.182928
0.14105
-0.269313
0.136834
-0.282616
-0.0142799
0.209724
0.0115397
-0.209398
0.210311
0.0105955
0.211198
0.00955952
0.212265
0.00818898
0.213447
0.00633291
0.214695
0.00389119
0.21597
0.000756792
0.2171
-0.0032464
0.217907
-0.00817562
0.218167
-0.0141102
0.217652
-0.0210362
0.216153
-0.0288337
0.213534
-0.0372601
0.209762
-0.0459623
0.20491
-0.0545242
0.199136
-0.0625116
0.192657
-0.0695295
0.185709
-0.0752586
0.17853
-0.0794629
0.171313
-0.0819864
0.164203
-0.0827737
0.157313
-0.0816822
0.150659
-0.0786381
0.144253
-0.0736116
0.138327
-0.0662592
0.132749
-0.0557235
0.126604
-0.042508
0.119672
-0.0278624
0.113845
-0.0119754
0.112065
0.00736302
0.115094
0.0316303
0.121589
0.0636731
0.129615
0.106584
0.138164
0.157983
0.147501
0.202277
0.159535
0.206886
0.173706
0.152672
0.185254
0.0530221
0.190123
-0.0453121
0.18836
-0.115214
0.181676
-0.147311
0.172954
-0.164494
0.165233
-0.164253
0.157549
-0.148194
0.148346
-0.135687
0.140093
-0.129882
0.136988
-0.131697
0.139511
-0.0640794
0.143749
0.024562
0.146863
0.176065
0.148323
0.284298
0.150364
0.320175
0.153415
0.255326
0.158411
0.0545929