/*--------------------------------*- C++ -*----------------------------------*\
| =========                 |                                                 |
| \\      /  F ield         | OpenFOAM: The Open Source CFD Toolbox           |
|  \\    /   O peration     | Version:  2512                                  |
|   \\  /    A nd           | Website:  www.openfoam.com                      |
|    \\/     M anipulation  |                                                 |
\*---------------------------------------------------------------------------*/
FoamFile
{
    version     2.0;
    format      ascii;
    arch        "LSB;label=32;scalar=64";
    class       volScalarField;
    location    "109";
    object      p;
}
// * * * * * * * * * * * * * * * * * * * * * * * * * * * * * * * * * * * * * //

dimensions      [0 2 -2 0 0 0 0];

internalField   nonuniform List<scalar> 
13248
(
-0.357424
-0.355839
-0.353001
-0.349221
-0.344859
-0.340277
-0.335817
-0.331791
-0.328438
-0.325904
-0.324228
-0.323329
-0.323019
-0.32302
-0.322992
-0.322577
-0.321436
-0.319288
-0.31592
-0.311237
-0.305047
-0.297511
-0.287441
-0.275713
-0.365755
-0.363399
-0.359975
-0.355757
-0.351061
-0.34622
-0.341526
-0.337207
-0.333408
-0.330178
-0.327463
-0.325116
-0.322917
-0.320604
-0.317911
-0.314601
-0.310492
-0.305466
-0.299461
-0.292451
-0.284399
-0.275303
-0.264869
-0.253948
-0.376327
-0.372929
-0.36873
-0.363953
-0.358829
-0.353634
-0.348573
-0.34376
-0.339227
-0.334921
-0.330728
-0.326488
-0.322027
-0.317183
-0.311829
-0.305884
-0.299315
-0.292122
-0.284316
-0.275916
-0.266888
-0.257291
-0.246916
-0.236398
-0.389037
-0.384371
-0.379239
-0.373781
-0.3681
-0.362379
-0.356703
-0.351053
-0.345348
-0.339479
-0.333337
-0.326832
-0.319911
-0.312559
-0.304794
-0.296659
-0.288199
-0.279453
-0.270446
-0.261182
-0.251652
-0.241893
-0.231792
-0.22195
-0.403772
-0.397675
-0.391492
-0.385241
-0.378837
-0.372332
-0.365668
-0.358703
-0.351296
-0.343362
-0.334888
-0.325924
-0.316569
-0.306941
-0.297151
-0.287292
-0.277424
-0.267573
-0.257745
-0.247929
-0.238107
-0.228285
-0.2184
-0.208828
-0.420406
-0.412775
-0.40547
-0.398315
-0.390965
-0.383303
-0.375139
-0.366269
-0.356595
-0.346158
-0.335112
-0.323672
-0.312059
-0.300463
-0.289021
-0.277816
-0.26688
-0.25621
-0.245785
-0.235575
-0.225551
-0.215697
-0.205976
-0.196625
-0.438726
-0.429523
-0.421054
-0.412851
-0.404234
-0.394906
-0.384612
-0.373209
-0.360765
-0.34753
-0.333847
-0.320059
-0.306445
-0.293196
-0.28042
-0.268154
-0.25639
-0.245094
-0.234221
-0.223723
-0.213561
-0.203698
-0.194114
-0.1849
-0.458352
-0.447603
-0.437933
-0.428468
-0.418136
-0.406514
-0.393415
-0.378912
-0.363343
-0.347199
-0.330972
-0.315057
-0.299718
-0.285095
-0.271234
-0.258118
-0.2457
-0.233916
-0.222702
-0.211998
-0.20175
-0.191914
-0.182469
-0.173396
-0.478678
-0.466471
-0.455542
-0.444502
-0.431893
-0.417296
-0.400778
-0.382771
-0.363934
-0.344956
-0.326396
-0.308623
-0.291828
-0.276071
-0.261328
-0.247533
-0.234602
-0.222449
-0.210992
-0.200157
-0.189881
-0.180114
-0.170821
-0.161899
-0.498837
-0.485314
-0.47302
-0.459988
-0.444478
-0.426279
-0.405907
-0.384232
-0.362203
-0.340619
-0.320012
-0.300663
-0.282661
-0.265979
-0.25053
-0.236205
-0.222889
-0.210475
-0.198867
-0.187978
-0.177734
-0.168079
-0.158952
-0.150215
-0.517727
-0.503053
-0.489222
-0.473702
-0.454682
-0.432404
-0.407973
-0.382696
-0.357719
-0.333841
-0.311499
-0.290849
-0.271872
-0.254461
-0.238474
-0.223764
-0.210192
-0.197634
-0.185977
-0.175122
-0.164988
-0.155504
-0.146573
-0.138073
-0.534112
-0.518487
-0.502911
-0.484383
-0.461304
-0.43461
-0.406073
-0.377377
-0.349754
-0.323916
-0.300151
-0.278475
-0.258763
-0.240834
-0.224497
-0.209573
-0.1959
-0.183336
-0.171757
-0.161053
-0.151136
-0.141921
-0.133285
-0.125158
-0.339081
-0.340624
-0.341511
-0.342063
-0.34262
-0.343338
-0.344312
-0.345603
-0.347247
-0.349274
-0.351717
-0.354616
-0.358019
-0.36198
-0.366546
-0.371756
-0.377628
-0.384146
-0.391251
-0.398831
-0.406705
-0.414596
-0.422154
-0.42911
-0.340997
-0.341701
-0.342065
-0.342266
-0.342546
-0.343062
-0.343927
-0.345221
-0.347005
-0.349334
-0.352269
-0.35588
-0.360249
-0.365458
-0.371584
-0.378685
-0.386786
-0.395864
-0.405828
-0.416513
-0.42767
-0.43889
-0.449648
-0.459493
-0.342988
-0.342871
-0.342703
-0.342511
-0.342467
-0.342709
-0.34337
-0.344552
-0.346337
-0.348799
-0.352021
-0.356091
-0.361107
-0.367172
-0.374371
-0.382767
-0.392382
-0.403173
-0.415022
-0.427709
-0.44091
-0.454167
-0.466837
-0.478203
-0.344636
-0.3438
-0.343118
-0.342528
-0.342087
-0.341952
-0.342274
-0.343177
-0.344765
-0.347132
-0.350372
-0.354585
-0.359876
-0.366345
-0.374078
-0.383128
-0.393501
-0.405131
-0.417869
-0.431459
-0.445529
-0.459566
-0.473058
-0.484718
-0.345687
-0.344316
-0.343191
-0.342178
-0.341276
-0.34065
-0.340477
-0.34091
-0.342077
-0.344094
-0.347066
-0.351099
-0.356294
-0.362745
-0.370523
-0.379664
-0.390149
-0.401889
-0.414699
-0.428286
-0.442246
-0.45584
-0.468858
-0.478733
-0.34607
-0.344393
-0.342921
-0.341486
-0.340069
-0.338849
-0.338035
-0.337814
-0.338349
-0.33978
-0.34223
-0.345807
-0.35061
-0.356719
-0.364187
-0.373028
-0.383196
-0.394572
-0.406934
-0.419923
-0.43317
-0.445752
-0.457957
-0.465946
-0.345899
-0.344154
-0.34244
-0.340603
-0.338641
-0.336759
-0.335201
-0.334197
-0.333949
-0.33463
-0.336384
-0.339329
-0.34356
-0.349147
-0.356121
-0.364469
-0.374101
-0.384859
-0.396491
-0.408555
-0.420712
-0.431644
-0.442313
-0.447653
-0.345469
-0.343855
-0.341993
-0.339782
-0.337277
-0.334718
-0.332387
-0.330558
-0.329479
-0.329357
-0.330363
-0.332628
-0.336246
-0.341272
-0.347701
-0.355485
-0.364492
-0.374469
-0.385084
-0.395777
-0.406232
-0.414886
-0.423007
-0.425014
-0.345232
-0.343864
-0.341908
-0.339355
-0.336343
-0.333153
-0.330105
-0.327516
-0.325675
-0.324824
-0.325158
-0.326814
-0.329877
-0.334371
-0.340252
-0.347382
-0.355533
-0.364363
-0.373451
-0.382163
-0.39014
-0.39591
-0.400563
-0.399087
-0.345757
-0.344629
-0.342583
-0.339716
-0.336261
-0.332539
-0.328906
-0.325712
-0.323276
-0.321861
-0.321669
-0.322829
-0.32539
-0.329312
-0.334463
-0.340608
-0.347411
-0.354445
-0.361228
-0.367186
-0.371964
-0.374552
-0.375621
-0.371192
-0.347645
-0.34663
-0.344435
-0.341269
-0.337446
-0.33332
-0.329269
-0.325657
-0.322811
-0.32099
-0.320376
-0.321053
-0.323003
-0.326099
-0.330106
-0.334687
-0.339424
-0.343854
-0.347504
-0.349982
-0.351044
-0.350397
-0.348583
-0.342722
-0.351426
-0.350278
-0.347826
-0.344354
-0.340225
-0.335808
-0.331486
-0.327608
-0.324478
-0.32232
-0.321258
-0.321303
-0.32235
-0.324178
-0.326468
-0.328827
-0.330824
-0.332045
-0.332106
-0.330788
-0.327879
-0.323642
-0.318412
-0.312024
-0.436606
-0.441822
-0.442012
-0.435594
-0.421518
-0.399278
-0.369306
-0.333531
-0.29445
-0.255721
-0.220996
-0.19319
-0.1744
-0.166062
-0.168618
-0.180396
-0.196596
-0.209772
-0.212278
-0.200154
-0.175491
-0.145466
-0.117764
-0.0971745
-0.085199
-0.0811025
-0.0836324
-0.0932435
-0.111632
-0.136417
-0.157676
-0.163303
-0.150108
-0.125147
-0.099146
-0.0793867
-0.0675416
-0.0619968
-0.063252
-0.0728291
-0.0863435
-0.0937586
-0.0884691
-0.0755872
-0.0630594
-0.0539756
-0.0496676
-0.0512156
-0.0565097
-0.0596239
-0.0556148
-0.0495868
-0.0427671
-0.0354723
-0.0316759
-0.0284143
-0.0255999
-0.0251302
-0.019194
-0.00459937
-0.470639
-0.477783
-0.478692
-0.472102
-0.456514
-0.431262
-0.396912
-0.355455
-0.310101
-0.264847
-0.223588
-0.189391
-0.164257
-0.149341
-0.145194
-0.150944
-0.162994
-0.174845
-0.179119
-0.171027
-0.152276
-0.128381
-0.106083
-0.0899945
-0.0818157
-0.0809668
-0.0864807
-0.0993472
-0.121347
-0.149388
-0.17242
-0.177317
-0.161593
-0.133304
-0.104058
-0.081377
-0.0669949
-0.0591787
-0.0579836
-0.0647841
-0.0760654
-0.0825688
-0.0784975
-0.0681833
-0.0587101
-0.0523287
-0.050443
-0.0546852
-0.0621029
-0.0664844
-0.0614086
-0.0535458
-0.0448567
-0.0355363
-0.0302561
-0.0251194
-0.0219778
-0.0214076
-0.0163363
-0.00392382
-0.492044
-0.500494
-0.501781
-0.495007
-0.47847
-0.45124
-0.413856
-0.368406
-0.318364
-0.267991
-0.221468
-0.182017
-0.151547
-0.130971
-0.120668
-0.120333
-0.127643
-0.137426
-0.142935
-0.138826
-0.1262
-0.108586
-0.0919027
-0.0805694
-0.0763788
-0.0788473
-0.0873233
-0.103239
-0.128382
-0.159182
-0.183813
-0.188537
-0.170815
-0.139787
-0.107791
-0.0825875
-0.0659437
-0.0560703
-0.0526078
-0.0567311
-0.0658135
-0.0714073
-0.0684628
-0.0605743
-0.0540245
-0.0502979
-0.0509133
-0.057971
-0.0676032
-0.0732588
-0.0670636
-0.0572522
-0.0467119
-0.0354912
-0.0288627
-0.0219273
-0.0184173
-0.0176782
-0.0134735
-0.00325175
-0.500591
-0.508948
-0.51054
-0.503913
-0.487105
-0.459002
-0.420122
-0.37258
-0.319916
-0.266529
-0.216674
-0.173541
-0.138944
-0.113658
-0.0979562
-0.0917408
-0.0937782
-0.100523
-0.10629
-0.105319
-0.0985721
-0.0869078
-0.0757189
-0.0691176
-0.0688216
-0.0744202
-0.0855605
-0.104044
-0.131768
-0.164931
-0.191201
-0.196339
-0.177463
-0.144417
-0.110271
-0.0830449
-0.0645005
-0.0528349
-0.047357
-0.0489993
-0.0559632
-0.0606174
-0.0586375
-0.0529261
-0.0490851
-0.0478929
-0.0510005
-0.0609224
-0.0728347
-0.0797874
-0.0724851
-0.0606582
-0.0483042
-0.0353269
-0.0275001
-0.018862
-0.0149488
-0.0139799
-0.0106302
-0.00258984
-0.491939
-0.502525
-0.505195
-0.499457
-0.483107
-0.455164
-0.416384
-0.368854
-0.315975
-0.262
-0.210999
-0.165986
-0.128648
-0.099671
-0.0793002
-0.0676223
-0.0641694
-0.0669002
-0.0718293
-0.0747496
-0.0708099
-0.0642295
-0.0580776
-0.0558522
-0.0590809
-0.0674358
-0.0808078
-0.101308
-0.131037
-0.166187
-0.194148
-0.200368
-0.181338
-0.147159
-0.111545
-0.0828327
-0.0627839
-0.0496223
-0.0424199
-0.0418215
-0.0467954
-0.0504962
-0.04927
-0.0453971
-0.0439668
-0.04511
-0.05062
-0.0633884
-0.0775965
-0.0858779
-0.077568
-0.0637185
-0.0496154
-0.0350366
-0.0261691
-0.0159437
-0.0116002
-0.0103478
-0.00782938
-0.00194446
-0.477578
-0.485619
-0.488374
-0.483627
-0.468128
-0.441255
-0.404093
-0.358558
-0.307724
-0.255479
-0.205482
-0.160426
-0.121849
-0.0903767
-0.0662445
-0.0496778
-0.0407614
-0.0386847
-0.0409954
-0.0439797
-0.0437132
-0.0415056
-0.0396579
-0.0411436
-0.0473421
-0.0579827
-0.0731137
-0.0950599
-0.126152
-0.162856
-0.192557
-0.200485
-0.182353
-0.148003
-0.111677
-0.0820308
-0.060884
-0.0465297
-0.0379025
-0.0353543
-0.0385111
-0.0412793
-0.0405974
-0.038133
-0.0387401
-0.0419578
-0.0497052
-0.0652199
-0.0816876
-0.0913475
-0.0821995
-0.0663947
-0.0506315
-0.0346124
-0.0248615
-0.0131884
-0.00839341
-0.00681299
-0.00509037
-0.00132143
-0.455975
-0.460288
-0.46266
-0.458766
-0.444362
-0.419422
-0.385265
-0.343436
-0.296519
-0.247875
-0.200633
-0.157094
-0.118638
-0.0858955
-0.0591168
-0.038568
-0.0246368
-0.0174003
-0.0158143
-0.0173965
-0.0188721
-0.0196806
-0.0211885
-0.025584
-0.0340702
-0.0464306
-0.0627985
-0.0856137
-0.117444
-0.155239
-0.18671
-0.196759
-0.180487
-0.146987
-0.110747
-0.0807107
-0.0588628
-0.0436144
-0.0338527
-0.0296546
-0.0311991
-0.0331043
-0.0327181
-0.0312649
-0.0334925
-0.038471
-0.0482094
-0.066286
-0.0849379
-0.0960244
-0.086259
-0.0686505
-0.0513437
-0.0340506
-0.0235654
-0.010602
-0.00534387
-0.00340308
-0.0024281
-0.000726611
-0.428391
-0.428652
-0.430534
-0.427357
-0.414305
-0.392154
-0.362178
-0.325338
-0.283654
-0.239877
-0.196565
-0.155656
-0.118392
-0.0854469
-0.057149
-0.0337733
-0.0157611
-0.00364155
0.00253285
0.0038965
0.00265174
0.000527896
-0.00332285
-0.00976708
-0.0197919
-0.0332602
-0.050365
-0.0735717
-0.105588
-0.143999
-0.17708
-0.189464
-0.175887
-0.144192
-0.108816
-0.0789218
-0.0567555
-0.0409065
-0.0302874
-0.0247346
-0.0248746
-0.0260042
-0.0256748
-0.0249107
-0.0283237
-0.034706
-0.0461216
-0.0664929
-0.0872019
-0.0997503
-0.0896485
-0.0704604
-0.0517535
-0.0333565
-0.0222848
-0.00818927
-0.00245808
-0.000141407
0.000146623
-0.000166398
-0.396794
-0.393313
-0.395047
-0.392432
-0.380978
-0.362333
-0.337278
-0.306091
-0.270264
-0.231927
-0.193099
-0.155414
-0.120035
-0.0876969
-0.0588519
-0.0338184
-0.0129806
0.00309328
0.0137846
0.0190877
0.0201092
0.0182953
0.0133991
0.00586607
-0.0049605
-0.0189512
-0.0363536
-0.0596127
-0.0915182
-0.130174
-0.164468
-0.179125
-0.168912
-0.139843
-0.106081
-0.0768387
-0.0547023
-0.0385157
-0.0272742
-0.0206202
-0.0195406
-0.019978
-0.0195843
-0.019147
-0.023342
-0.0307358
-0.0434278
-0.0657926
-0.0883756
-0.102417
-0.09231
-0.071827
-0.0518934
-0.0325505
-0.021044
-0.00598537
0.000259019
0.00295411
0.00262746
0.000352526
-0.363747
-0.358272
-0.360226
-0.357726
-0.348005
-0.333198
-0.31317
-0.287632
-0.257628
-0.224706
-0.190399
-0.156098
-0.122923
-0.0916927
-0.0629932
-0.0372155
-0.0146934
0.0041308
0.0185553
0.0279448
0.0323929
0.0329718
0.0283412
0.0208721
0.00994177
-0.00410087
-0.0215016
-0.0446377
-0.0761142
-0.114545
-0.149713
-0.166251
-0.16012
-0.134405
-0.103
-0.0748876
-0.0530358
-0.0366828
-0.0249636
-0.0173578
-0.0151748
-0.0150234
-0.0145116
-0.0140136
-0.0186167
-0.0266463
-0.040227
-0.0641639
-0.0883771
-0.103956
-0.0941878
-0.0727732
-0.0518142
-0.0316593
-0.0198322
-0.00404136
0.00278321
0.00586051
0.00501199
0.000822824
-0.333091
-0.328197
-0.329915
-0.326782
-0.318776
-0.30764
-0.292256
-0.272016
-0.247541
-0.219824
-0.189963
-0.159096
-0.128284
-0.0984232
-0.070188
-0.0440524
-0.0204651
0.00017349
0.0173772
0.0304209
0.0387422
0.0441662
0.0403518
0.0344352
0.024351
0.0108692
-0.00617249
-0.0290466
-0.0603309
-0.0987706
-0.134155
-0.152378
-0.149602
-0.127664
-0.0993648
-0.0728927
-0.0515503
-0.0351848
-0.023155
-0.0147343
-0.0115124
-0.0108856
-0.0104283
-0.00972425
-0.0143481
-0.0224776
-0.03639
-0.0616413
-0.0873503
-0.10432
-0.0950688
-0.0731944
-0.05143
-0.0306262
-0.0185312
-0.00226647
0.00510682
0.00853447
0.00730054
0.00123798
-0.306318
-0.304943
-0.304539
-0.299303
-0.292039
-0.283233
-0.271234
-0.2553
-0.235592
-0.212622
-0.187104
-0.159885
-0.131861
-0.103903
-0.0767769
-0.0511079
-0.0274216
-0.00614588
0.0123073
0.0273732
0.0381027
0.0402541
0.0478215
0.0447582
0.0364665
0.0242144
0.00797874
-0.014182
-0.0445179
-0.0818421
-0.116758
-0.131699
-0.135034
-0.117393
-0.0926667
-0.0684307
-0.0481907
-0.0323644
-0.0205722
-0.0118524
-0.00791953
-0.00687474
-0.00666231
-0.00771163
-0.0106109
-0.0186325
-0.0323861
-0.0582615
-0.0850045
-0.103511
-0.0946619
-0.0727481
-0.0503728
-0.0292001
-0.0169797
-0.00033561
0.00738065
0.0110344
0.00947824
0.00158405
-0.281816
-0.291699
-0.288476
-0.280519
-0.272111
-0.262993
-0.25149
-0.23661
-0.218294
-0.197017
-0.173448
-0.148318
-0.122383
-0.0963822
-0.0709808
-0.046731
-0.0241032
-0.00349713
0.0147505
0.0302445
0.0425291
0.0527382
0.0556596
0.0546494
0.0485621
0.0380128
0.0229316
0.000973857
-0.0309786
-0.0715936
-0.109694
-0.136223
-0.126509
-0.107801
-0.084182
-0.0616019
-0.0428424
-0.0280771
-0.0169721
-0.00851319
-0.00443311
-0.00302319
-0.00263256
-0.00301347
-0.00543433
-0.0130972
-0.0267938
-0.0539067
-0.082717
-0.10346
-0.0948924
-0.0718353
-0.048763
-0.0274224
-0.0153632
0.00173023
0.00961073
0.0135847
0.0115347
0.00185247
-0.255744
-0.269032
-0.266503
-0.257381
-0.247963
-0.238765
-0.228054
-0.214527
-0.197972
-0.178839
-0.157743
-0.135276
-0.112013
-0.0885315
-0.0653914
-0.0430941
-0.0220803
-0.00271617
0.0147018
0.0299189
0.0426815
0.0523442
0.0573992
0.0581268
0.0539296
0.0451731
0.0315173
0.0101341
-0.0223016
-0.0632154
-0.0997871
-0.119162
-0.112391
-0.0951078
-0.0742093
-0.0543216
-0.0375472
-0.0241007
-0.0138513
-0.00577308
-0.00161864
-2.63016e-05
0.000250851
-3.10528e-05
-0.00200053
-0.00901845
-0.0223215
-0.0499167
-0.0799299
-0.101577
-0.0932134
-0.0697316
-0.0465931
-0.0253796
-0.0135408
0.00358379
0.0113846
0.0157763
0.013217
0.00208313
-0.231674
-0.24525
-0.243811
-0.235036
-0.225551
-0.216657
-0.20689
-0.194836
-0.180124
-0.163102
-0.144308
-0.12423
-0.103323
-0.0820564
-0.0609191
-0.0403734
-0.0208331
-0.00265059
0.0138797
0.0285259
0.0411669
0.050608
0.0564533
0.0581116
0.055076
0.0474601
0.0346662
0.013746
-0.0175964
-0.0551797
-0.0868848
-0.102159
-0.0971158
-0.082361
-0.0645568
-0.0473407
-0.0324652
-0.02025
-0.0108266
-0.00319055
0.000952146
0.00270166
0.00290318
0.00286322
0.000906655
-0.00592119
-0.0190537
-0.046483
-0.0762532
-0.0979334
-0.0902603
-0.0669113
-0.0440265
-0.0231318
-0.0115749
0.00535563
0.0130631
0.0177986
0.0146969
0.00231638
-0.20995
-0.222327
-0.221756
-0.214001
-0.205025
-0.196553
-0.187583
-0.176797
-0.163713
-0.148558
-0.131799
-0.113862
-0.0951221
-0.0759586
-0.0567788
-0.0379889
-0.0199676
-0.0030502
0.0124663
0.0263071
0.0379993
0.0475308
0.0537025
0.0559956
0.0538442
0.0471504
0.0352228
0.0155147
-0.013009
-0.0457414
-0.0725328
-0.0849907
-0.0815366
-0.0696466
-0.0549415
-0.0403822
-0.027428
-0.0164607
-0.00788824
-0.000762495
0.00330183
0.00521409
0.00547302
0.00564989
0.00375814
-0.00299261
-0.0158933
-0.0424984
-0.0713605
-0.0930008
-0.0861962
-0.0633867
-0.0410364
-0.0206797
-0.00944646
0.00704073
0.0146582
0.019645
0.0160419
0.00255328
-0.189287
-0.200653
-0.200749
-0.194074
-0.185845
-0.177927
-0.169714
-0.160084
-0.148506
-0.135093
-0.120228
-0.104283
-0.0875699
-0.0703928
-0.0530873
-0.0360072
-0.0195004
-0.0038877
0.0105353
0.0234808
0.0345596
0.0435585
0.0497133
0.0523759
0.0509447
0.0451838
0.034474
0.0169267
-0.00773041
-0.035297
-0.0574918
-0.0679943
-0.0662456
-0.0573608
-0.0456964
-0.0336721
-0.0225702
-0.0128124
-0.00506734
0.00151044
0.0054415
0.00750199
0.00790127
0.00823746
0.00658483
7.57927e-05
-0.0121987
-0.037523
-0.065349
-0.0867212
-0.0808939
-0.0590916
-0.037629
-0.0180398
-0.00718084
0.00863248
0.0161294
0.0212765
0.0172425
0.00278599
-0.170003
-0.180502
-0.180992
-0.175262
-0.167878
-0.160649
-0.153227
-0.144683
-0.134496
-0.122693
-0.109575
-0.0954603
-0.0806162
-0.0652925
-0.0497665
-0.0343434
-0.0193377
-0.00505126
0.00823264
0.0202258
0.030582
0.039
0.0449434
0.0477934
0.0469851
0.042209
0.032983
0.018079
-0.00233549
-0.0247615
-0.0428776
-0.052149
-0.0520881
-0.04599
-0.0370617
-0.0273182
-0.017943
-0.009344
-0.00238614
0.00362728
0.00738167
0.00955413
0.0101682
0.0106649
0.00937235
0.00331242
-0.00798443
-0.031745
-0.0582698
-0.0790361
-0.0743456
-0.054031
-0.0338338
-0.0152407
-0.00480817
0.0101248
0.0174489
0.0226482
0.0182481
0.00301157
-0.15242
-0.161824
-0.162512
-0.157631
-0.151125
-0.14466
-0.138045
-0.130517
-0.121598
-0.111264
-0.0997444
-0.0873108
-0.0741919
-0.0605965
-0.0467543
-0.0329252
-0.0193882
-0.00642157
0.00570527
0.0167108
0.0262793
0.0340944
0.039734
0.0426703
0.0424112
0.0386259
0.0309864
0.0188307
0.00253929
-0.0152482
-0.0299139
-0.038329
-0.0396261
-0.0358144
-0.0291912
-0.0214195
-0.0136054
-0.00609814
0.000127141
0.00558609
0.00913814
0.0113817
0.012273
0.0129671
0.0121047
0.00664121
-0.00348107
-0.0253332
-0.0501838
-0.070075
-0.0666465
-0.048257
-0.0296971
-0.0123214
-0.00236784
0.0115176
0.0185984
0.0237181
0.0190093
0.00323638
-0.136137
-0.144492
-0.145344
-0.141243
-0.135584
-0.129887
-0.124062
-0.11748
-0.109716
-0.100718
-0.0906605
-0.0797701
-0.0682422
-0.0562527
-0.043992
-0.0316801
-0.0195615
-0.00788888
0.0030846
0.0130925
0.0218478
0.0290471
0.0343408
0.037296
0.0375077
0.0346743
0.0286074
0.0190154
0.00630881
-0.00761516
-0.0193447
-0.026933
-0.0290741
-0.0269586
-0.0221748
-0.0160467
-0.00960036
-0.00310408
0.00244702
0.00738575
0.0107266
0.0130058
0.0142123
0.0151708
0.0147684
0.0100186
0.00123027
-0.0183657
-0.0412905
-0.0600913
-0.0579813
-0.041879
-0.0252847
-0.00932875
9.35642e-05
0.0128202
0.0195705
0.0244572
0.0194992
0.00347554
-0.121033
-0.128536
-0.129521
-0.126101
-0.12122
-0.116256
-0.111182
-0.105478
-0.0987669
-0.0909818
-0.0822569
-0.0727781
-0.0627118
-0.052206
-0.0414196
-0.0305387
-0.0197749
-0.0093544
0.0004912
0.00951548
0.0174584
0.0240419
0.0289726
0.0319003
0.0325075
0.0305452
0.0259087
0.018505
0.00872745
-0.00207836
-0.0115263
-0.0179375
-0.0204002
-0.0194242
-0.0160388
-0.0112407
-0.00595957
-0.000382059
0.00455068
0.00902017
0.0121572
0.0144464
0.0159762
0.0172916
0.0173844
0.0134956
0.0061622
-0.0110126
-0.0319167
-0.0494441
-0.0486329
-0.0350683
-0.0206819
-0.00631419
0.0025252
0.0140525
0.0203747
0.0248613
0.0197224
0.00375282
-0.107264
-0.113942
-0.114984
-0.112149
-0.107977
-0.103697
-0.0993269
-0.0944305
-0.0886756
-0.0819884
-0.0744711
-0.066277
-0.0575463
-0.048404
-0.0389827
-0.029439
-0.0199545
-0.0107286
-0.00196834
0.00610484
0.0132567
0.0192392
0.023805
0.0266744
0.0276014
0.0263893
0.0229841
0.0173936
0.00997953
0.00168835
-0.00597332
-0.0110269
-0.0134246
-0.0131344
-0.0107661
-0.00701872
-0.00270449
0.00205624
0.00642248
0.0104751
0.0134334
0.0157197
0.017548
0.0193063
0.0200015
0.0171532
0.0112669
-0.00358819
-0.0225085
-0.0385966
-0.0389677
-0.0280506
-0.0159915
-0.00333043
0.00487625
0.0152442
0.0210447
0.0249594
0.0197225
0.00410162
-0.0947313
-0.100594
-0.101648
-0.0993311
-0.0958043
-0.0921546
-0.0884298
-0.0842675
-0.079375
-0.0736759
-0.0672472
-0.0602152
-0.052698
-0.0448003
-0.0366328
-0.0283265
-0.0200356
-0.0119335
-0.00420189
0.00296581
0.00936112
0.0147667
0.0189745
0.0217613
0.0229378
0.0223536
0.0199871
0.0158954
0.0103996
0.00418358
-0.0016632
-0.00576201
-0.00790586
-0.00797314
-0.00631227
-0.0033764
0.000153446
0.00420501
0.00805707
0.0117331
0.0145471
0.016837
0.0189126
0.02113
0.022596
0.0209516
0.0163595
0.0034662
-0.0135843
-0.028054
-0.0293972
-0.0210881
-0.0113319
-0.000429451
0.00710134
0.0164238
0.0216388
0.0248208
0.0195918
0.00456272
-0.0832554
-0.0884068
-0.0894714
-0.0876077
-0.0846549
-0.0815726
-0.0784301
-0.0749267
-0.0708053
-0.0659891
-0.0605353
-0.0545475
-0.0481246
-0.0413545
-0.0343286
-0.0271559
-0.0199661
-0.0129066
-0.0061354
0.000180534
0.00586079
0.0107196
0.0145816
0.0172682
0.0186351
0.0185694
0.0170681
0.0142041
0.0102549
0.00572519
0.00138997
-0.00182125
-0.00360924
-0.00381165
-0.00261631
-0.000292558
0.00261366
0.0060616
0.00945588
0.0127844
0.0154796
0.0177913
0.0200601
0.0226525
0.0249149
0.0245208
0.0209825
0.00965084
-0.00557498
-0.018268
-0.0203305
-0.0144533
-0.0068355
0.00233544
0.00916311
0.0175988
0.0222246
0.0245539
0.0194658
0.00517177
-0.0728166
-0.0773463
-0.0783958
-0.0769137
-0.0744655
-0.0718901
-0.0692675
-0.0663491
-0.0629108
-0.0588775
-0.0542904
-0.0492339
-0.0437906
-0.0380334
-0.0320378
-0.025893
-0.0197068
-0.013604
-0.00771811
-0.0021931
0.00281925
0.00716529
0.0106971
0.0132701
0.0147738
0.0151258
0.0143318
0.0124641
0.00975318
0.00657237
0.00346372
0.0010628
-0.000323504
-0.00051768
0.00039282
0.00226669
0.00468595
0.00762801
0.0106221
0.0136281
0.0162122
0.0185484
0.0209556
0.0237916
0.0266237
0.0272129
0.0244761
0.0145624
0.00126942
-0.00959562
-0.0121341
-0.00839291
-0.00264034
0.00490792
0.011028
0.0187332
0.0228558
0.0242895
0.019485
0.00593232
-0.0633936
-0.067345
-0.0683452
-0.0671795
-0.0651713
-0.0630459
-0.0608846
-0.0584814
-0.0556427
-0.0522976
-0.0484746
-0.0442418
-0.0396678
-0.0348125
-0.0297375
-0.0245154
-0.0192349
-0.0139991
-0.00892021
-0.00412095
0.000275763
0.00414509
0.00736164
0.00980794
0.0113994
0.0120755
0.0118462
0.0107748
0.00904227
0.00693491
0.00480872
0.00311882
0.0021361
0.00203561
0.00279109
0.00434346
0.00638829
0.00891198
0.0115591
0.0142694
0.0167327
0.0190653
0.0215293
0.0244554
0.0274407
0.0285438
0.0264061
0.0180159
0.00679803
-0.00231389
-0.00509473
-0.00308692
0.00112962
0.00723496
0.0126628
0.0197313
0.0235275
0.0241596
0.0197282
0.0067789
-0.0548627
-0.0582899
-0.0592382
-0.0583464
-0.0567211
-0.0549877
-0.0532285
-0.0512737
-0.0489565
-0.0462108
-0.0430554
-0.0395448
-0.035735
-0.0316753
-0.0274154
-0.0230133
-0.018541
-0.0140825
-0.00973295
-0.00559045
-0.00175471
0.00167357
0.00458787
0.00689514
0.00852884
0.00944415
0.00965122
0.00920218
0.00823411
0.00695985
0.00561754
0.0045322
0.00393045
0.00396787
0.00465632
0.00598532
0.00774533
0.00992654
0.0122713
0.0147139
0.0170365
0.0193157
0.0217334
0.0245808
0.0273244
0.0285264
0.0268456
0.0200605
0.010927
0.00342267
0.000628391
0.00137682
0.00438624
0.00927516
0.0140356
0.020452
0.0241247
0.0242416
0.0201523
0.00756016
-0.0471529
-0.050131
-0.0510319
-0.0503559
-0.0490559
-0.0476593
-0.0462464
-0.044678
-0.0428099
-0.0405814
-0.0380041
-0.0351209
-0.0319774
-0.0286131
-0.0250678
-0.0213875
-0.0176295
-0.0138615
-0.0101607
-0.00660744
-0.00328055
-0.000260206
0.00236602
0.00452291
0.00615788
0.00723739
0.0077686
0.00779139
0.00740725
0.00674778
0.00603769
0.00545694
0.00519682
0.00538761
0.00606451
0.00724243
0.00878649
0.0106886
0.0127685
0.0149672
0.0171247
0.0192974
0.0215646
0.0239799
0.0264641
0.0275505
0.0262093
0.0209338
0.0137287
0.00766273
0.00504468
0.00499773
0.00708991
0.0109953
0.0151217
0.0207704
0.0244349
0.0244405
0.0205454
0.00808408
-0.0402159
-0.0427954
-0.0436414
-0.0431584
-0.0421204
-0.0410074
-0.0398887
-0.0386492
-0.0371646
-0.0353785
-0.0332969
-0.0309534
-0.0283848
-0.0256229
-0.0226985
-0.0196476
-0.0165152
-0.0133545
-0.010227
-0.00719674
-0.00432811
-0.0016823
0.000667872
0.00266468
0.00426615
0.00544424
0.00620179
0.0065704
0.00662642
0.00645157
0.00620551
0.00602442
0.00605323
0.00639233
0.00708814
0.00816524
0.00954426
0.0112194
0.0130653
0.0150379
0.0170129
0.019034
0.021107
0.0231826
0.0251718
0.026048
0.0249569
0.0209726
0.0154325
0.0106273
0.0083051
0.00783536
0.00924742
0.0123594
0.0158984
0.020646
0.0242464
0.0244127
0.0205334
0.00820857
-0.0339813
-0.0362035
-0.0369885
-0.0366594
-0.0358627
-0.0349857
-0.0341114
-0.0331459
-0.0319837
-0.0305727
-0.0289131
-0.0270302
-0.0249534
-0.022708
-0.0203182
-0.0178109
-0.015221
-0.0125895
-0.00996427
-0.00739474
-0.00492776
-0.00263421
-0.000548048
0.00128066
0.00281771
0.00403922
0.00494494
0.00555839
0.0059172
0.00610023
0.00620743
0.00633681
0.00659852
0.00706786
0.00779417
0.00880322
0.0100535
0.011542
0.0131808
0.0149425
0.0167238
0.0185603
0.0204221
0.0221398
0.023667
0.0243314
0.0234391
0.0204925
0.0163216
0.0125932
0.0106155
0.00997274
0.0108927
0.0133373
0.0163278
0.0201067
0.023444
0.0237704
0.0197694
0.00790652
-0.0283789
-0.03029
-0.0310156
-0.0308116
-0.0302125
-0.0295465
-0.0288762
-0.0281332
-0.0272376
-0.0261393
-0.0248346
-0.0233413
-0.0216821
-0.0198761
-0.0179421
-0.0159004
-0.0137772
-0.0116032
-0.00941564
-0.00725484
-0.00516013
-0.00317699
-0.00133526
0.000322428
0.00177071
0.00298944
0.00397324
0.00473096
0.00531235
0.00574737
0.00611258
0.0064732
0.00691366
0.00748814
0.00824387
0.00920383
0.0103499
0.011682
0.0131374
0.0147005
0.0162826
0.0179137
0.0195988
0.0209401
0.0220938
0.0225885
0.0218686
0.019726
0.016645
0.0138032
0.0121677
0.0114956
0.0120713
0.0139238
0.016386
0.0192176
0.0220311
0.0222982
0.0182022
0.00725906
-0.0233565
-0.0249978
-0.025665
-0.0255602
-0.0251231
-0.0246297
-0.0241379
-0.0235896
-0.0229088
-0.0220623
-0.0210494
-0.019881
-0.0185722
-0.0171367
-0.0155885
-0.0139422
-0.0122172
-0.0104365
-0.0086287
-0.00682422
-0.00505525
-0.00334835
-0.00174411
-0.000266247
0.00107978
0.00226015
0.0032731
0.00412208
0.00483407
0.00543364
0.00597387
0.00649637
0.00706483
0.0077162
0.00849247
0.00941164
0.0104693
0.0116674
0.0129594
0.0143368
0.0157177
0.017097
0.0183027
0.0196284
0.0205405
0.0209175
0.0203552
0.0188208
0.0165812
0.0144488
0.0131287
0.0124909
0.0128315
0.0141463
0.0160958
0.0180847
0.0199954
0.0201516
0.0160931
0.00640115
-0.0188639
-0.0202693
-0.0208792
-0.0208519
-0.0205473
-0.0201951
-0.0198464
-0.0194546
-0.0189596
-0.0183282
-0.0175541
-0.0166498
-0.015629
-0.0145023
-0.0132774
-0.0119645
-0.0105773
-0.00913201
-0.00765012
-0.00615363
-0.00466596
-0.00321006
-0.00181111
-0.000488386
0.000723652
0.00182869
0.00282238
0.00370228
0.00448288
0.00517904
0.00582764
0.00645398
0.00710515
0.00780484
0.00858837
0.00946826
0.010447
0.0115272
0.0126739
0.0138831
0.0150835
0.0162722
0.0173463
0.0183724
0.0190729
0.0193673
0.0189457
0.0178605
0.0162529
0.0146776
0.01364
0.0130476
0.0132196
0.0140648
0.015515
0.016818
0.0178939
0.0176943
0.0138011
0.00546941
-0.0148493
-0.01605
-0.0166055
-0.0166384
-0.0164412
-0.0162036
-0.0159705
-0.015705
-0.0153576
-0.0148995
-0.014325
-0.0136418
-0.0128597
-0.011986
-0.0110286
-0.00999447
-0.00889183
-0.00773142
-0.00652888
-0.0052979
-0.0040592
-0.00283135
-0.00163223
-0.000477936
0.000614888
0.00163708
0.00258442
0.00345414
0.0042553
0.00499528
0.00569928
0.00638168
0.00707646
0.00779773
0.00857339
0.00941142
0.0103167
0.0112909
0.0123084
0.0133674
0.0144077
0.0154301
0.0163441
0.0171687
0.017713
0.0179521
0.0176499
0.0168919
0.0157487
0.0145977
0.0138151
0.0132479
0.0132844
0.0137446
0.0147185
0.0154751
0.0158283
0.0152307
0.0115999
0.00457021
-0.0112678
-0.0122921
-0.0127965
-0.0128751
-0.0127638
-0.0126187
-0.0124781
-0.0123133
-0.0120838
-0.0117649
-0.011351
-0.010847
-0.0102599
-0.00959529
-0.00885775
-0.00805204
-0.00718671
-0.0062712
-0.00531606
-0.00430582
-0.00328233
-0.0022552
-0.00123674
-0.000238979
0.000726255
0.00165031
0.00252891
0.00335844
0.00414365
0.00488706
0.00560518
0.00630532
0.00701112
0.00773017
0.00848312
0.00927434
0.0101087
0.0109868
0.0118885
0.0128137
0.0137124
0.0145879
0.0153572
0.0160327
0.0164662
0.0166683
0.0164627
0.0159376
0.0151263
0.0142803
0.0137648
0.0130887
0.0130748
0.0132455
0.0137862
0.0141076
0.013898
0.0129474
0.0096341
0.00376562
-0.00807987
-0.00895206
-0.00940861
-0.00952079
-0.00947765
-0.00940613
-0.00933891
-0.0092536
-0.0091172
-0.00890909
-0.00862374
-0.00826408
-0.00783511
-0.00734053
-0.00678303
-0.006165
-0.0054902
-0.00476325
-0.00398899
-0.0031997
-0.00237418
-0.00153001
-0.000677915
0.000172303
0.00101084
0.00183014
0.0026259
0.00339418
0.00413691
0.00485375
0.00555474
0.00624275
0.00693344
0.00763005
0.00834706
0.00908592
0.00985013
0.0106394
0.0114372
0.0122442
0.013019
0.0137666
0.0144135
0.0149736
0.0153286
0.0155051
0.0153746
0.0150099
0.014423
0.0137357
0.0130349
0.0127453
0.0126668
0.012621
0.0127863
0.0127586
0.0121543
0.0109398
0.00795501
0.0030802
-0.0052485
-0.0059899
-0.00640212
-0.00653838
-0.00654862
-0.00653513
-0.00652534
-0.00650199
-0.00643851
-0.00631772
-0.00613442
-0.00589027
-0.00558869
-0.00523209
-0.00482197
-0.00435952
-0.00384696
-0.00328774
-0.00268741
-0.00205276
-0.00139165
-0.000705515
-1.96971e-06
0.000711733
0.00142818
0.00214103
0.0028461
0.0035396
0.00422172
0.0048906
0.00555174
0.00620525
0.00686085
0.00751896
0.00818883
0.00887012
0.00956419
0.0102703
0.0109748
0.0116776
0.0123444
0.0129817
0.0135274
0.0139951