/*--------------------------------*- C++ -*----------------------------------*\
| =========                 |                                                 |
| \\      /  F ield         | OpenFOAM: The Open Source CFD Toolbox           |
|  \\    /   O peration     | Version:  2512                                  |
|   \\  /    A nd           | Website:  www.openfoam.com                      |
|    \\/     M anipulation  |                                                 |
\*---------------------------------------------------------------------------*/
FoamFile
{
    version     2.0;
    format      ascii;
    arch        "LSB;label=32;scalar=64";
    class       volVectorField;
    location    "59";
    object      U;
}
// * * * * * * * * * * * * * * * * * * * * * * * * * * * * * * * * * * * * * //

dimensions      [0 1 -1 0 0 0 0];

internalField   nonuniform List<vector> 
13248
(
(-0.0127721 0.0116175 6.83321e-20)
(-0.0246942 0.025096 0)
(-0.0233913 0.0327362 -1.2914e-19)
(-0.00939437 0.0364825 1.21652e-19)
(0.0169046 0.0378411 1.13717e-19)
(0.0551907 0.0379786 0)
(0.105143 0.0377835 0)
(0.166329 0.0379274 2.73642e-19)
(0.238061 0.0388964 -1.13397e-21)
(0.319268 0.0409983 -2.39455e-19)
(0.408399 0.0443615 2.23247e-19)
(0.503408 0.0489345 -1.39632e-19)
(0.601809 0.0544969 0)
(0.700812 0.0606832 -2.44849e-19)
(0.797509 0.0670223 4.59338e-19)
(0.889078 0.0729855 -1.08909e-19)
(0.972988 0.0780471 -2.00708e-19)
(1.04718 0.0817103 1.88415e-19)
(1.11019 0.0836649 0)
(1.16121 0.0833733 0)
(1.20035 0.0815815 0)
(1.22747 0.0754679 0)
(1.24524 0.0724086 6.16043e-20)
(1.25202 0.0531662 2.29689e-19)
(-0.0127768 0.0103509 -2.06329e-19)
(-0.0207976 0.0205544 1.40667e-19)
(-0.0120862 0.0253605 -1.29618e-21)
(0.0123242 0.027012 -1.85792e-19)
(0.0517552 0.0272194 -1.13595e-19)
(0.105605 0.0272868 -1.07379e-19)
(0.173103 0.0281533 -1.97037e-19)
(0.253102 0.0304561 1.86419e-19)
(0.343896 0.0345573 0)
(0.443126 0.0405488 6.23041e-22)
(0.547801 0.0482588 1.36115e-21)
(0.654461 0.0572773 1.39807e-19)
(0.759434 0.067007 0)
(0.859143 0.0767361 0)
(0.950415 0.0857246 1.6917e-19)
(1.03073 0.0932903 -3.17835e-19)
(1.0984 0.0988836 1.94365e-19)
(1.15267 0.102139 -1.82475e-19)
(1.19366 0.102899 -8.20171e-20)
(1.22234 0.101196 -1.53001e-19)
(1.24016 0.0973289 -6.59872e-20)
(1.24932 0.091263 -1.25073e-19)
(1.25127 0.085276 1.7965e-19)
(1.24906 0.0743199 5.2611e-20)
(-0.0118363 0.00869861 0)
(-0.0135548 0.0154121 0)
(0.00550709 0.0178167 6.57116e-20)
(0.043628 0.0182522 6.04788e-20)
(0.0995995 0.0185282 -1.53238e-21)
(0.172168 0.0200108 -1.10993e-19)
(0.259598 0.0235869 0)
(0.359411 0.0297078 -9.26936e-20)
(0.468273 0.0384167 8.73392e-20)
(0.582086 0.049373 7.55704e-22)
(0.696278 0.0619081 -1.49909e-19)
(0.806235 0.0751229 -1.38547e-19)
(0.907768 0.0880164 1.54275e-21)
(0.997514 0.0996231 -1.1758e-19)
(1.07322 0.109137 2.79808e-19)
(1.13386 0.115999 0)
(1.17962 0.119945 -1.87706e-19)
(1.21168 0.12099 9.06766e-20)
(1.23201 0.119422 8.19459e-20)
(1.24293 0.115594 0)
(1.24692 0.110291 6.91102e-20)
(1.24608 0.10331 -2.41706e-19)
(1.24212 0.0973949 2.26901e-19)
(1.23744 0.0870599 1.47343e-19)
(-0.00953139 0.00661255 -7.29873e-20)
(-0.00195168 0.00970607 -7.54943e-20)
(0.0307568 0.0103677 6.82303e-20)
(0.0859588 0.0107742 0)
(0.161537 0.0126645 0)
(0.255029 0.0173059 -2.45617e-21)
(0.36306 0.0253215 0)
(0.481167 0.0367171 -2.83991e-19)
(0.603968 0.0509466 2.64177e-19)
(0.725624 0.0670196 -3.26586e-19)
(0.840496 0.0836699 7.50751e-20)
(0.943802 0.0995648 0)
(1.03212 0.11351 1.2717e-19)
(1.10364 0.12461 -2.36505e-19)
(1.15818 0.132361 5.61852e-20)
(1.19695 0.13666 1.48253e-19)
(1.22218 0.13775 -4.50704e-21)
(1.23661 0.136115 -1.66534e-19)
(1.24308 0.13236 0)
(1.24414 0.1271 0)
(1.24183 0.120943 -6.21224e-20)
(1.23754 0.114055 5.64455e-20)
(1.23225 0.108021 2.07201e-19)
(1.22671 0.0989361 -1.94506e-19)
(-0.00544384 0.0041596 -7.70161e-20)
(0.0149686 0.00374239 -7.67054e-20)
(0.0648101 0.00362731 2.15722e-19)
(0.140223 0.00551901 -1.30813e-19)
(0.237633 0.0108327 1.23132e-19)
(0.352658 0.0204616 2.2366e-19)
(0.479579 0.0344354 -1.58182e-19)
(0.611536 0.0519805 -1.9303e-19)
(0.741208 0.0717159 3.37996e-21)
(0.861758 0.0919292 2.47385e-19)
(0.967729 0.110896 0)
(1.05565 0.127174 6.90532e-20)
(1.12424 0.139798 0)
(1.17419 0.148358 -1.14698e-19)
(1.20775 0.152952 1.61456e-19)
(1.228 0.154061 1.49318e-21)
(1.2383 0.152374 -4.33885e-20)
(1.24175 0.148632 8.21604e-20)
(1.24086 0.14351 7.16354e-20)
(1.23745 0.137538 -6.50191e-20)
(1.23268 0.131144 6.21086e-20)
(1.22723 0.124432 -5.64325e-20)
(1.2214 0.118352 0)
(1.21581 0.110111 -4.37685e-20)
(0.000815657 0.00152668 7.70051e-20)
(0.0380095 -0.00187782 8.09058e-20)
(0.108422 -0.00140596 -7.22982e-20)
(0.206541 0.00380046 1.34729e-19)
(0.326641 0.0144663 -1.26811e-19)
(0.46167 0.030705 1.14778e-19)
(0.603123 0.0515436 -5.51352e-20)
(0.741916 0.0751384 1.44916e-19)
(0.86971 0.0992186 -9.12947e-20)
(0.980135 0.121569 1.62956e-19)
(1.06954 0.140439 -3.77191e-19)
(1.1371 0.154777 1.3915e-19)
(1.18437 0.164281 -1.23304e-19)
(1.21451 0.169268 1.15818e-19)
(1.23141 0.17046 1.01743e-19)
(1.23889 0.168745 9.06273e-20)
(1.24024 0.164984 -2.52566e-19)
(1.23793 0.159896 1.5727e-19)
(1.23364 0.154012 -7.16389e-20)
(1.22839 0.147699 1.89677e-19)
(1.22272 0.14119 -6.10951e-20)
(1.21691 0.134591 -1.52625e-19)
(1.2111 0.128398 1.41475e-19)
(1.2055 0.120774 4.37543e-20)
(0.00958118 -0.000990172 0)
(0.0677135 -0.00629482 7.28455e-22)
(0.161761 -0.00343683 1.51463e-19)
(0.284006 0.00712894 -1.42011e-19)
(0.425822 0.0249385 -1.28136e-19)
(0.576974 0.0488304 2.38276e-19)
(0.726329 0.0764707 -1.10715e-19)
(0.863597 0.104885 1.481e-19)
(0.981055 0.131196 -2.87933e-21)
(1.07454 0.153215 -8.43368e-20)
(1.14347 0.169735 1.85615e-19)
(1.19015 0.180536 -2.74815e-19)
(1.21861 0.186154 0)
(1.23346 0.187563 -5.48509e-20)
(1.23903 0.185857 -1.47968e-19)
(1.23881 0.182031 4.64092e-20)
(1.23532 0.176869 1.50157e-21)
(1.23019 0.170923 -1.05836e-19)
(1.22437 0.164554 5.21309e-21)
(1.21835 0.157984 1.2307e-19)
(1.21235 0.151351 -5.59473e-20)
(1.20647 0.144745 -2.19804e-20)
(1.20068 0.138362 6.63165e-20)
(1.1951 0.131173 0)
(0.0210944 -0.00300388 0)
(0.104243 -0.00846653 4.10899e-20)
(0.224231 -0.00103672 -1.97835e-19)
(0.370532 0.0169427 7.19618e-20)
(0.531042 0.043221 -6.77277e-20)
(0.69239 0.0749033 -6.2053e-20)
(0.841824 0.108185 -1.09911e-19)
(0.969597 0.139278 5.46899e-20)
(1.07044 0.165311 4.77039e-20)
(1.14367 0.184764 0)
(1.19211 0.197423 1.1051e-19)
(1.22062 0.204032 -1.65519e-19)
(1.23462 0.205835 1.23337e-19)
(1.23899 0.20417 5.48794e-20)
(1.23759 0.200209 -4.57371e-20)
(1.23307 0.194838 -3.89349e-20)
(1.22712 0.188662 -3.67124e-20)
(1.22066 0.182062 1.08383e-19)
(1.21418 0.175265 0)
(1.20787 0.168406 5.60202e-20)
(1.20179 0.161567 4.82413e-20)
(1.19593 0.154814 -1.18523e-19)
(1.19023 0.148178 -8.30203e-20)
(1.1847 0.141266 7.66053e-20)
(0.0354567 -0.00406045 -4.45108e-20)
(0.147267 -0.00727173 -1.76053e-21)
(0.294367 0.00715544 4.03003e-20)
(0.462917 0.0343304 1.12807e-19)
(0.637232 0.0696284 3.29332e-20)
(0.801673 0.108198 -6.36067e-20)
(0.943641 0.14506 5.80647e-20)
(1.0559 0.176292 -5.1057e-20)
(1.13699 0.199761 9.20032e-20)
(1.18999 0.215102 3.94934e-20)
(1.22053 0.223228 -1.12114e-19)
(1.23491 0.225687 3.3224e-20)
(1.2388 0.224127 5.7291e-20)
(1.23653 0.219962 -2.80946e-20)
(1.2311 0.21424 0)
(1.2243 0.20766 4.28075e-20)
(1.21713 0.200645 7.33067e-20)
(1.21007 0.193441 1.31745e-20)
(1.20331 0.186185 -6.16658e-20)
(1.19691 0.178959 2.61468e-20)
(1.19084 0.171818 0)
(1.18504 0.164795 -2.09782e-20)
(1.17943 0.157862 -2.0176e-20)
(1.17396 0.151057 0)
(0.0525755 -0.00367099 0)
(0.195884 -0.00162873 2.33465e-20)
(0.369843 0.022238 4.32077e-20)
(0.557136 0.0598285 -1.15221e-19)
(0.739121 0.103752 3.7269e-20)
(0.89956 0.147391 0)
(1.0281 0.185306 5.63526e-20)
(1.12153 0.214278 -7.8755e-20)
(1.18264 0.233493 -4.60194e-20)
(1.21768 0.243925 2.08354e-20)
(1.234 0.247458 -3.38073e-20)
(1.23823 0.246136 8.18447e-20)
(1.2355 0.241718 4.14253e-20)
(1.22926 0.235496 -2.85654e-20)
(1.22161 0.228313 -2.4471e-21)
(1.21365 0.220673 -8.00777e-20)
(1.20592 0.212855 3.65996e-20)
(1.19861 0.205008 -9.63758e-22)
(1.19177 0.197217 0)
(1.18539 0.189534 -2.61742e-20)
(1.1794 0.181994 0)
(1.17371 0.174597 6.05849e-20)
(1.16824 0.167337 -7.25813e-20)
(1.16286 0.160478 3.32599e-20)
(0.0721204 -0.00135066 -1.22357e-20)
(0.248596 0.00938966 -5.89354e-20)
(0.447629 0.0448974 6.71246e-20)
(0.648811 0.0933402 3.9472e-20)
(0.831974 0.144569 -1.88082e-20)
(0.982415 0.190876 3.18084e-20)
(1.09381 0.227319 -1.54038e-20)
(1.16767 0.252121 2.57901e-20)
(1.21057 0.266074 0)
(1.23094 0.271377 5.89884e-20)
(1.2367 0.270583 -2.29555e-21)
(1.23406 0.265927 -4.78771e-20)
(1.22723 0.259063 2.06345e-20)
(1.21875 0.251067 -2.3476e-20)
(1.20994 0.242566 -9.08783e-21)
(1.20145 0.2339 1.03585e-20)
(1.19349 0.225243 -8.09724e-21)
(1.18613 0.216686 -4.44312e-20)
(1.17935 0.208279 2.72553e-20)
(1.17308 0.200059 5.6492e-21)
(1.16724 0.192037 5.02171e-21)
(1.16171 0.184197 4.46827e-21)
(1.1564 0.176599 0)
(1.15115 0.169516 0)
(0.0935755 0.00334853 1.22441e-20)
(0.303511 0.0264688 -1.2238e-20)
(0.524419 0.0753184 -2.23862e-20)
(0.733872 0.134163 0)
(0.912214 0.190656 -9.35946e-21)
(1.04835 0.237053 -8.4718e-21)
(1.14107 0.269858 -1.45337e-20)
(1.19646 0.289199 0)
(1.22394 0.29745 0)
(1.23301 0.297758 0)
(1.23135 0.293017 0)
(1.2243 0.285415 0)
(1.21508 0.276382 -1.29875e-20)
(1.20542 0.266754 5.92288e-21)
(1.19611 0.25697 1.03791e-20)
(1.18745 0.247245 4.86991e-21)
(1.1795 0.237684 1.21461e-20)
(1.17226 0.228338 0)
(1.16565 0.219238 -2.97098e-21)
(1.1596 0.210404 -2.86887e-21)
(1.154 0.201829 -5.02972e-21)
(1.14874 0.193499 -4.47542e-21)
(1.14367 0.185553 0)
(1.13865 0.17809 3.29321e-21)
(-0.00149749 0.0161105 7.47273e-21)
(-0.00623527 0.0404796 -7.74193e-21)
(-0.0141735 0.0589075 -1.46435e-20)
(-0.0238016 0.072456 0)
(-0.0342458 0.0820984 -1.95541e-20)
(-0.0450283 0.0887691 6.12514e-21)
(-0.0557972 0.0933156 -1.16041e-20)
(-0.0662952 0.0964433 0)
(-0.0763499 0.0986858 0)
(-0.0858508 0.100399 0)
(-0.0947296 0.101778 0)
(-0.102945 0.102885 0)
(-0.110472 0.103682 -4.00582e-23)
(-0.117293 0.104067 -7.62814e-21)
(-0.12339 0.103893 1.45288e-20)
(-0.128745 0.102993 2.0509e-20)
(-0.133337 0.10119 6.5613e-21)
(-0.137145 0.0983091 0)
(-0.140153 0.0941844 5.68692e-21)
(-0.142361 0.0886719 -1.62378e-20)
(-0.14379 0.0816584 -1.02943e-20)
(-0.144506 0.073057 -9.72321e-21)
(-0.144675 0.062788 0)
(-0.144558 0.0508359 0)
(-0.00255832 0.0187116 -2.25089e-20)
(-0.00834389 0.0468681 3.87398e-20)
(-0.0161778 0.0680117 -1.46998e-20)
(-0.0250274 0.083444 -2.7753e-20)
(-0.0342848 0.0943048 3.91677e-20)
(-0.0436151 0.10166 -2.46974e-20)
(-0.0527618 0.10647 3.48299e-20)
(-0.0615277 0.109539 2.20214e-20)
(-0.0697722 0.111482 0)
(-0.0773969 0.112724 -1.9508e-20)
(-0.0843339 0.113508 -1.50352e-22)
(-0.090536 0.113935 1.72105e-20)
(-0.0959691 0.113991 2.46546e-20)
(-0.100606 0.113581 3.10769e-20)
(-0.10442 0.112566 -1.43294e-20)
(-0.107385 0.110773 -4.12731e-20)
(-0.109465 0.108024 1.3334e-20)
(-0.110623 0.104141 -4.9711e-20)
(-0.110814 0.0989659 0)
(-0.109996 0.0923807 1.08836e-20)
(-0.10814 0.084323 1.02794e-20)
(-0.105241 0.0748072 9.70902e-21)
(-0.101315 0.0639842 0)
(-0.0965125 0.052247 0)
(-0.00380895 0.0204218 0)
(-0.0108836 0.0513001 7.84761e-20)
(-0.0186693 0.0745912 -2.9575e-20)
(-0.0266329 0.0916465 2.78556e-20)
(-0.0344471 0.103654 -7.90769e-20)
(-0.0419325 0.111733 0)
(-0.048941 0.116901 -4.68932e-20)
(-0.0553483 0.120025 2.21056e-20)
(-0.0610545 0.12178 -4.18127e-20)
(-0.0659796 0.12265 1.98883e-20)
(-0.0700576 0.12293 1.1175e-19)
(-0.0732333 0.122762 -5.25244e-20)
(-0.075459 0.122162 -8.30586e-20)
(-0.0766916 0.121057 -3.2026e-20)
(-0.0768887 0.119316 -5.03475e-22)
(-0.0760054 0.116767 1.12614e-19)
(-0.0739907 0.113223 -5.31183e-20)
(-0.0707852 0.108494 -5.44349e-22)
(-0.0663161 0.102405 0)
(-0.0605024 0.0948238 -4.62627e-20)
(-0.0532673 0.0856947 0)
(-0.0444908 0.0750951 -4.12122e-20)
(-0.033849 0.0633887 1.57047e-19)
(-0.0214364 0.05143 1.12824e-21)
(-0.0051105 0.0212026 0)
(-0.0135978 0.0536255 3.0627e-22)
(-0.0214108 0.0783677 2.99789e-20)
(-0.0284635 0.0966588 -2.82815e-20)
(-0.0346866 0.10963 2.63644e-20)
(-0.04005 0.11838 1.50149e-19)
(-0.0445173 0.123932 -4.70786e-20)
(-0.0480442 0.127172 -4.45582e-20)
(-0.0505794 0.128814 8.38147e-20)
(-0.0520682 0.129383 -1.18801e-19)
(-0.0524506 0.129221 3.7337e-20)
(-0.0516635 0.128513 3.54527e-20)
(-0.0496427 0.127312 0)
(-0.0463234 0.125573 3.15223e-20)
(-0.0416398 0.123183 0)
(-0.0355231 0.119979 5.73065e-20)
(-0.0278991 0.115773 -1.09121e-19)
(-0.0186912 0.110359 2.41503e-20)
(-0.00781073 0.103537 9.74836e-20)
(0.00484268 0.0951293 4.6213e-20)
(0.0193518 0.0850239 0)
(0.0358466 0.0732588 -1.27427e-19)
(0.0549248 0.0602874 3.94778e-20)
(0.0771699 0.0473766 0)
(-0.00634164 0.0211205 0)
(-0.0162536 0.0539066 -9.56379e-20)
(-0.0241831 0.0793064 -3.02077e-20)
(-0.0303772 0.0983101 -5.67049e-20)
(-0.0349683 0.111919 5.33924e-20)
(-0.0380538 0.121158 -5.01289e-20)
(-0.0397022 0.127009 9.48541e-20)
(-0.0399521 0.130342 4.47704e-20)
(-0.0388053 0.13188 -1.26114e-19)
(-0.0362379 0.132169 7.9726e-20)
(-0.0322053 0.131586 -1.12691e-19)
(-0.026638 0.130351 2.49174e-19)
(-0.0194553 0.128556 -1.34016e-19)
(-0.0105676 0.126192 6.38429e-20)
(0.000120698 0.12317 1.82366e-19)
(0.0127093 0.119351 -5.58144e-20)
(0.0273012 0.114559 -5.33025e-20)
(0.0440001 0.108592 -5.1253e-20)
(0.0629103 0.101243 0)
(0.0841404 0.0923081 -9.56164e-20)
(0.107766 0.0816139 -9.27505e-20)
(0.133849 0.0690833 1.27982e-19)
(0.162794 0.0551053 1.65257e-19)
(0.198027 0.0412587 -1.55892e-19)
(-0.00742258 0.0203363 0)
(-0.0186817 0.0524011 -1.29072e-19)
(-0.0268147 0.0776122 -1.56888e-22)
(-0.0322457 0.0966805 1.14234e-19)
(-0.0352364 0.11045 0)
(-0.0359797 0.119845 0)
(-0.0346336 0.125775 0)
(-0.0313114 0.129067 -4.48731e-20)
(-0.0260749 0.130423 -2.60752e-22)
(-0.0189353 0.130388 7.95374e-20)
(-0.0098616 0.129357 -1.1336e-19)
(0.00121499 0.127575 -3.40238e-22)
(0.0143909 0.125167 0)
(0.0297827 0.122154 -6.38127e-20)
(0.0475204 0.118482 6.14633e-20)
(0.0677413 0.11404 -1.72173e-19)
(0.0905861 0.108676 2.20195e-19)
(0.116191 0.102215 5.48866e-20)
(0.144673 0.0944699 3.29041e-21)
(0.176146 0.0852576 -1.88927e-19)
(0.210639 0.0744068 -9.07854e-20)
(0.248394 0.0617788 3.04783e-19)
(0.287885 0.0474484 -2.05453e-19)
(0.340148 0.0333791 0)
(-0.00833589 0.0190767 6.3429e-20)
(-0.0208051 0.0495192 6.46831e-20)
(-0.0291876 0.0737017 -6.13152e-20)
(-0.0339294 0.0921005 -1.14802e-19)
(-0.0353462 0.105425 1.08092e-19)
(-0.033692 0.114501 -1.01458e-19)
(-0.0291925 0.120157 1.43202e-19)
(-0.0220235 0.12316 -4.48893e-20)
(-0.0122953 0.124168 8.44568e-20)
(-5.0554e-05 0.12371 0)
(0.0147308 0.122177 7.55803e-20)
(0.0321226 0.119827 -1.41478e-19)
(0.0522413 0.116806 1.35072e-19)
(0.0752339 0.113164 -1.26861e-19)
(0.101269 0.108875 0)
(0.13052 0.103863 1.14859e-19)
(0.163154 0.0980108 2.20227e-19)
(0.199322 0.0911809 -2.07001e-19)
(0.239132 0.0832264 -9.90245e-20)
(0.282677 0.074014 -9.69461e-20)
(0.329613 0.0633761 2.70362e-19)
(0.381322 0.051446 8.74046e-20)
(0.430972 0.037456 -8.07515e-20)
(0.503842 0.0244333 7.69535e-20)
(-0.00912111 0.0175922 -6.34377e-20)
(-0.0226262 0.0457509 1.96466e-19)
(-0.0312071 0.0681353 -6.19131e-20)
(-0.0352126 0.0851094 1.15424e-19)
(-0.0349531 0.0973146 -1.08677e-19)
(-0.030712 0.105508 2.53667e-22)
(-0.0227562 0.11045 4.79472e-20)
(-0.0112988 0.112841 1.79628e-19)
(0.00352419 0.113292 1.39884e-22)
(0.0216606 0.112299 -7.95029e-20)
(0.043137 0.110237 0)
(0.0680478 0.107367 -7.10573e-20)
(0.0965383 0.103847 1.33348e-19)
(0.128782 0.0997485 1.27341e-19)
(0.164968 0.0950806 -5.974e-20)
(0.205274 0.0897991 -4.69327e-22)
(0.24983 0.0838239 -5.45109e-20)
(0.298694 0.0770583 1.02813e-19)
(0.351794 0.0693922 9.90053e-20)
(0.409154 0.0608001 -9.44103e-20)
(0.469382 0.0509403 8.86963e-20)
(0.536219 0.0407879 -8.41668e-20)
(0.594267 0.0278619 0)
(0.686987 0.017619 -7.68771e-20)
(-0.00985694 0.0161098 6.42242e-20)
(-0.0241799 0.0415704 -6.57363e-20)
(-0.0327269 0.0615174 6.22254e-20)
(-0.0356966 0.076377 0)
(-0.0333614 0.086816 0)
(-0.0260081 0.0935745 1.02304e-19)
(-0.0139116 0.0973685 -9.59418e-20)
(0.00271472 0.0988501 8.96691e-20)
(0.0237469 0.0985835 -4.21645e-19)
(0.0491555 0.097031 -2.1363e-23)
(0.0789957 0.0945493 7.44528e-20)
(0.113386 0.0913951 0)
(0.152478 0.0877358 -1.33402e-19)
(0.196427 0.0836642 2.51612e-19)
(0.245336 0.0792098 -1.7847e-19)
(0.299226 0.0743506 -2.84383e-19)
(0.357998 0.0690373 -2.69158e-21)
(0.421393 0.0632088 2.01679e-19)
(0.488861 0.0567582 0)
(0.56016 0.0498304 0)
(0.632421 0.0416774 -8.86915e-20)
(0.711438 0.0344218 8.4161e-20)
(0.774621 0.0232764 -3.159e-19)
(0.877931 0.0175249 2.96147e-19)
(-0.0106211 0.0147835 0)
(-0.0254507 0.0373397 0)
(-0.0334423 0.0543883 -1.86936e-19)
(-0.0346733 0.0666019 5.94494e-20)
(-0.0293752 0.0747733 6.47687e-22)
(-0.0178175 0.0796838 1.03311e-19)
(-0.000246974 0.0820446 0)
(0.0231631 0.0824822 -8.99347e-20)
(0.0523335 0.0815306 8.42937e-20)
(0.08727 0.079628 -1.57972e-19)
(0.128034 0.0771164 -9.33197e-23)
(0.174699 0.0742468 1.40284e-19)
(0.227292 0.0711864 6.9814e-22)
(0.285742 0.068028 1.26157e-19)
(0.349822 0.0647983 -1.7649e-19)
(0.419094 0.0614744 0)
(0.492888 0.0579918 2.13391e-19)
(0.570296 0.0542676 -3.01763e-19)
(0.650054 0.0501452 9.44207e-20)
(0.731242 0.0457824 0)
(0.810365 0.0402325 8.43086e-20)
(0.892331 0.0359893 3.24819e-19)
(0.955399 0.0269957 -3.04836e-19)
(1.05125 0.0254797 -3.56453e-19)
(-0.0114368 0.0136566 1.95918e-19)
(-0.0262714 0.0332341 -2.69105e-19)
(-0.0327833 0.0471306 7.23918e-22)
(-0.0310324 0.0564117 5.97029e-20)
(-0.0212355 0.0620793 -1.10916e-19)
(-0.00363271 0.065012 -1.029e-19)
(0.0215783 0.0659565 1.92147e-19)
(0.0542747 0.0655433 -1.22394e-21)
(0.0943987 0.0642971 -1.68975e-19)
(0.141914 0.0626404 3.16002e-19)
(0.196736 0.0608965 1.21944e-22)
(0.258662 0.0592923 -1.3939e-19)
(0.327289 0.0579615 0)
(0.401958 0.0569491 0)
(0.481715 0.056218 -5.88018e-20)
(0.565301 0.0556586 -1.09894e-19)
(0.651183 0.0551057 -2.09901e-19)
(0.737606 0.0543427 1.97026e-19)
(0.822663 0.0531562 -9.44616e-20)
(0.904562 0.051344 1.76379e-19)
(0.980723 0.0484891 -8.39894e-20)
(1.05256 0.0455883 1.56147e-19)
(1.10779 0.0387339 -3.63735e-19)
(1.17803 0.0380468 6.99316e-20)
(-0.0122204 0.0126528 6.60051e-20)
(-0.0262379 0.0292181 0)
(-0.0298455 0.0399224 1.27339e-19)
(-0.023246 0.0462906 -1.19958e-19)
(-0.00669355 0.0495791 1.1102e-19)
(0.0195827 0.0508024 0)
(0.0554021 0.0507731 0)
(0.100612 0.0501446 -9.01783e-20)
(0.15502 0.0494359 8.89001e-22)
(0.218295 0.04904 7.9553e-20)
(0.289871 0.0492263 -7.41185e-20)
(0.368851 0.0501389 1.39325e-19)
(0.453967 0.0517967 0)
(0.543568 0.0540991 2.46737e-19)
(0.63567 0.0568386 -4.6401e-19)
(0.728047 0.05972 3.28098e-19)
(0.818356 0.0623966 2.05743e-19)
(0.904267 0.0644604 -1.93131e-19)
(0.983673 0.0656411 0)
(1.05463 0.0653025 0)
(1.11599 0.0639435 0)
(1.16685 0.0598186 0)
(1.20552 0.0551362 7.11274e-20)
(1.24265 0.0491556 -2.57378e-19)
(-0.144241 0.035088 -5.96091e-21)
(-0.145869 0.011477 5.99898e-21)
(-0.146563 -0.0171739 -1.89601e-22)
(-0.146413 -0.0506065 0)
(-0.145387 -0.0885899 -5.40004e-21)
(-0.143353 -0.130565 1.04049e-20)
(-0.140229 -0.175591 -1.28161e-22)
(-0.135982 -0.222285 -4.74739e-21)
(-0.13062 -0.268816 0)
(-0.124161 -0.312984 0)
(-0.11652 -0.352287 -2.41229e-22)
(-0.107249 -0.383895 -2.2116e-22)
(-0.0954173 -0.404587 -3.43539e-21)
(-0.0796781 -0.410786 3.14111e-21)
(-0.0583001 -0.398879 0)
(-0.0292947 -0.365441 0)
(0.00804133 -0.308241 3.02317e-21)
(0.0533036 -0.22661 9.75686e-23)
(0.105372 -0.122904 -2.77675e-21)
(0.161408 -0.00307469 -1.69119e-22)
(0.219425 0.123101 0)
(0.277639 0.245439 0)
(0.332534 0.350832 0)
(0.379393 0.429406 0)
(0.412692 0.479458 0)
(0.425658 0.509939 0)
(0.413005 0.534353 4.289e-22)
(0.381008 0.553602 -6.99547e-22)
(0.353725 0.543681 0)
(0.358074 0.47119 0)
(0.398683 0.325976 -7.59199e-22)
(0.462487 0.129642 7.3781e-22)
(0.53536 -0.078043 3.91684e-22)
(0.604602 -0.255724 0)
(0.657303 -0.380062 0)
(0.688128 -0.447431 3.85628e-22)
(0.704955 -0.465216 -3.74847e-22)
(0.701977 -0.463221 0)
(0.659903 -0.475123 2.66125e-22)
(0.592056 -0.483119 -3.82971e-22)
(0.541569 -0.42541 1.38188e-22)
(0.537465 -0.2718 0)
(0.572123 -0.0625424 -3.39404e-22)
(0.623014 0.136613 3.30027e-22)
(0.668689 0.276934 0)
(0.70941 0.346461 0)
(0.723746 0.370155 -8.26694e-23)
(0.692549 0.387543 2.32816e-22)
(0.630402 0.381868 0)
(0.598571 0.308738 0)
(0.613312 0.167052 -6.84578e-23)
(0.665735 0.00563778 -1.05939e-23)
(0.712251 -0.111613 -1.06779e-23)
(0.761843 -0.186059 3.71834e-23)
(0.782047 -0.195776 0)
(0.792751 -0.198907 0)
(0.763026 -0.17305 0)
(0.744866 -0.139768 0)
(0.73264 -0.0960348 0)
(0.78566 -0.00461822 0)
(-0.0908474 0.0376894 -6.23371e-22)
(-0.0905555 0.0132423 -2.59318e-20)
(-0.0889267 -0.0161297 1.43057e-22)
(-0.0866227 -0.0504316 2.41774e-20)
(-0.083807 -0.089382 3.83754e-22)
(-0.0805326 -0.132373 0)
(-0.0769571 -0.178389 -2.0912e-20)
(-0.0733397 -0.225964 4.05461e-20)
(-0.0700474 -0.273231 -1.96257e-20)
(-0.0675329 -0.317994 1.68245e-20)
(-0.066151 -0.357905 -1.6112e-20)
(-0.0657201 -0.3905 1.36302e-20)
(-0.0653916 -0.412884 -1.32661e-20)
(-0.0637613 -0.421843 -3.60892e-22)
(-0.0585678 -0.414184 -1.09559e-20)
(-0.0468179 -0.386396 1.06472e-20)
(-0.0259061 -0.335686 -1.0411e-20)
(0.00550345 -0.260276 9.82674e-21)
(0.0469472 -0.162086 -1.04092e-20)
(0.0954596 -0.0439835 1.99958e-20)
(0.149966 0.0810281 -9.60041e-21)
(0.208167 0.204875 -4.98342e-22)
(0.265305 0.314687 -7.27806e-21)
(0.316093 0.40146 1.33483e-20)
(0.353676 0.463593 -6.09865e-21)
(0.370939 0.508425 3.05725e-22)
(0.365799 0.54437 4.87306e-21)
(0.34966 0.565456 4.542e-22)
(0.347188 0.545729 -1.0224e-20)
(0.376842 0.458939 1.14962e-20)
(0.435022 0.302903 -6.01909e-21)
(0.508497 0.100603 8.90335e-22)
(0.584756 -0.108601 -3.92457e-22)
(0.652159 -0.282333 7.33481e-22)
(0.699809 -0.39808 0)
(0.721893 -0.4571 0)
(0.72824 -0.467894 -1.24425e-21)
(0.721083 -0.454988 9.40992e-22)
(0.679774 -0.454869 7.29835e-22)
(0.608282 -0.460792 1.84453e-22)
(0.547707 -0.414103 -1.10302e-21)
(0.532072 -0.275629 2.66716e-22)
(0.557995 -0.0765631 0)
(0.605084 0.119899 0)
(0.653505 0.261916 0)
(0.698263 0.337496 0)
(0.710967 0.372628 3.52672e-22)
(0.676108 0.400208 -1.52565e-22)
(0.617562 0.393916 0)
(0.594939 0.310551 0)
(0.619504 0.158576 0)
(0.678464 -0.00656434 -1.30536e-22)
(0.726497 -0.122859 1.29863e-23)
(0.775391 -0.194055 -8.4187e-23)
(0.792703 -0.199598 0)
(0.809194 -0.197374 0)
(0.780042 -0.168209 1.23619e-23)
(0.760001 -0.136175 1.516e-23)
(0.737463 -0.0985347 0)
(0.778143 -0.00919488 0)
(-0.00995494 0.0377774 1.32327e-21)
(-0.00669723 0.0143191 -5.49633e-20)
(-0.00130444 -0.0151524 5.50761e-20)
(0.00437314 -0.0496379 -5.14755e-20)
(0.0101706 -0.0887148 -3.86338e-22)
(0.015852 -0.131806 0)
(0.0210576 -0.177841 -4.60152e-20)
(0.0252564 -0.225274 4.50881e-20)
(0.0277437 -0.272209 3.05637e-22)
(0.0276325 -0.316519 5.8149e-22)
(0.0240342 -0.355988 5.18957e-22)
(0.016763 -0.388364 4.53489e-22)
(0.00643176 -0.411367 -2.44843e-20)
(-0.00597106 -0.422386 2.41585e-20)
(-0.0180602 -0.418774 0)
(-0.0259038 -0.397341 5.33937e-22)
(-0.0253623 -0.354275 -1.73197e-20)
(-0.0134413 -0.287342 1.71222e-20)
(0.0128746 -0.197743 0)
(0.0491829 -0.0849482 0)
(0.0950223 0.0371642 -1.57363e-20)
(0.149543 0.161554 2.98481e-20)
(0.205858 0.275448 -2.62779e-20)
(0.258053 0.370614 1.3768e-21)
(0.29858 0.444865 2.06947e-20)
(0.321429 0.502658 -1.9616e-20)
(0.327841 0.546979 1.81571e-20)
(0.331898 0.566975 4.46788e-22)
(0.355108 0.537881 -9.97684e-21)
(0.40715 0.440757 0)
(0.479814 0.278453 0)
(0.561011 0.0738232 5.50205e-21)
(0.63915 -0.134777 -7.14175e-21)
(0.702907 -0.303994 3.76758e-23)
(0.744241 -0.411408 4.26948e-21)
(0.758035 -0.462392 -4.1491e-21)
(0.753666 -0.468016 0)
(0.74106 -0.446804 2.69555e-22)
(0.701338 -0.434907 1.94404e-21)
(0.628274 -0.437216 -3.7482e-21)
(0.558631 -0.400907 1.65695e-21)
(0.531582 -0.278311 1.78086e-22)
(0.548498 -0.09051 -2.54687e-21)
(0.591815 0.102018 2.01228e-21)
(0.642568 0.245376 4.21242e-22)
(0.689285 0.328198 3.80388e-22)
(0.699094 0.375738 -3.53585e-22)
(0.66134 0.412777 0)
(0.607627 0.404618 0)
(0.594392 0.310716 -1.4496e-21)
(0.628444 0.148944 6.95236e-22)
(0.693335 -0.0190912 -6.72686e-22)
(0.742897 -0.133834 7.83556e-22)
(0.79052 -0.201443 6.85551e-22)
(0.803649 -0.203569 -1.52398e-22)
(0.824287 -0.196581 1.44073e-22)
(0.796485 -0.163514 -7.18656e-23)
(0.777281 -0.13167 1.54099e-23)
(0.746203 -0.0989517 0)
(0.773638 -0.01259 0)
(0.0947651 0.0340533 -1.18353e-19)
(0.102688 0.0123598 -4.87662e-22)
(0.111412 -0.0164086 1.12886e-19)
(0.121319 -0.050357 -8.53301e-22)
(0.130978 -0.0887886 0)
(0.139905 -0.131113 0)
(0.147641 -0.176216 -9.74017e-20)
(0.153434 -0.222446 3.64689e-21)
(0.15627 -0.267841 1.28558e-19)
(0.154958 -0.310268 -3.71315e-21)
(0.14831 -0.347513 -3.60499e-20)
(0.135604 -0.377557 -2.68547e-20)
(0.116928 -0.398963 2.69892e-20)
(0.0926646 -0.410504 0)
(0.0644895 -0.410161 -1.73988e-20)
(0.0370347 -0.394856 1.59113e-20)
(0.0155789 -0.360442 0)
(0.00410334 -0.303659 0)
(0.00962447 -0.224237 1.26689e-20)
(0.0286081 -0.122218 4.5044e-23)
(0.0602868 -0.00539793 -1.15695e-20)
(0.105966 0.117235 -1.15935e-20)
(0.157487 0.234169 1.14385e-20)
(0.208567 0.337005 -9.8617e-21)
(0.25148 0.422066 5.99747e-22)
(0.281713 0.490342 8.704e-21)
(0.302787 0.539979 1.08246e-21)
(0.328827 0.557381 1.46495e-23)
(0.376 0.52098 0)
(0.446798 0.418138 1.43162e-20)
(0.531001 0.253924 -1.48609e-20)
(0.61794 0.0498648 9.60982e-22)
(0.696875 -0.156326 0)
(0.756068 -0.320883 -7.80084e-22)
(0.78992 -0.420724 8.80846e-21)
(0.795806 -0.463907 -1.41207e-20)
(0.781117 -0.465509 8.48462e-22)
(0.761559 -0.43883 9.79653e-22)
(0.723529 -0.416027 3.18752e-21)
(0.651315 -0.41267 3.79723e-22)
(0.574144 -0.385341 -3.10429e-21)
(0.536106 -0.279375 2.56884e-21)
(0.544287 -0.104264 8.49354e-23)
(0.583769 0.083142 1.68143e-21)
(0.635745 0.22777 -2.05744e-21)
(0.682208 0.318946 -2.5557e-21)
(0.688322 0.379386 7.26226e-22)
(0.648592 0.424945 1.41127e-21)
(0.60069 0.413889 -2.87928e-21)
(0.596901 0.309441 2.2023e-21)
(0.640009 0.138438 -6.87885e-22)
(0.710018 -0.0318265 8.70135e-22)
(0.760997 -0.1445 7.04509e-22)
(0.807013 -0.208088 -1.09778e-21)
(0.815281 -0.207395 7.03921e-23)
(0.83811 -0.196395 -1.39822e-22)
(0.811887 -0.159273 0)
(0.795776 -0.126702 -1.56895e-23)
(0.758397 -0.0974581 -6.61494e-24)
(0.772657 -0.0147638 0)
(0.219234 0.0281154 1.2288e-19)
(0.232045 0.00679286 -2.41964e-19)
(0.24399 -0.0207294 1.17557e-19)
(0.257642 -0.0534672 1.16307e-19)
(0.271169 -0.0905808 -2.26203e-19)
(0.283489 -0.131472 2.92913e-21)
(0.293999 -0.174972 1.04835e-19)
(0.301798 -0.219294 9.30194e-20)
(0.305679 -0.262309 -9.10843e-20)
(0.304362 -0.301691 0)
(0.296522 -0.33519 -6.50533e-20)
(0.280964 -0.361085 1.18403e-19)
(0.25692 -0.378583 -5.36385e-20)
(0.224183 -0.387763 0)
(0.183888 -0.387815 0)
(0.140035 -0.376427 4.62516e-22)
(0.0982512 -0.350516 -2.11593e-20)
(0.0628564 -0.306043 2.05572e-20)
(0.0432459 -0.23863 0)
(0.0405089 -0.151188 1.74562e-20)
(0.0530913 -0.0434928 -3.31754e-20)
(0.0841753 0.0742958 3.22504e-20)
(0.126594 0.192001 -3.1726e-20)
(0.173683 0.300294 3.5364e-23)
(0.218103 0.393651 2.9943e-20)
(0.256491 0.469601 -1.49425e-20)
(0.293123 0.522336 -5.26257e-22)
(0.340122 0.537237 -9.81714e-21)
(0.407786 0.496684 -2.52014e-21)
(0.493308 0.392724 1.2264e-20)
(0.585865 0.230463 9.64885e-22)
(0.676973 0.0292749 -1.62352e-20)
(0.756372 -0.172995 3.03763e-20)
(0.810629 -0.332502 -1.58523e-20)
(0.83601 -0.425645 0)
(0.83411 -0.461683 -7.47052e-21)
(0.810203 -0.460058 7.02357e-21)
(0.782643 -0.430696 -2.97491e-21)
(0.745719 -0.398832 3.73354e-21)
(0.676648 -0.388127 -2.76456e-22)
(0.593962 -0.367664 0)
(0.545362 -0.278633 -2.88517e-22)
(0.545381 -0.117679 1.0324e-21)
(0.58094 0.0635494 0)
(0.632596 0.209544 3.4961e-21)
(0.676766 0.309926 -1.37276e-21)
(0.67884 0.38331 6.95911e-22)
(0.638123 0.4364 7.13144e-22)
(0.596778 0.421708 0)
(0.602427 0.306921 0)
(0.654166 0.127304 -2.47995e-21)
(0.728371 -0.0446343 3.76536e-21)
(0.780424 -0.154816 -1.94161e-21)
(0.824525 -0.21393 5.58255e-22)
(0.827859 -0.210822 6.52442e-22)
(0.85087 -0.196604 1.39953e-22)
(0.82598 -0.155679 -1.16958e-22)
(0.814549 -0.121706 0)
(0.773384 -0.0943602 3.37826e-24)
(0.775581 -0.0157762 2.36996e-23)
(0.361713 0.0205464 1.26018e-19)
(0.377966 -0.000804169 -1.25282e-19)
(0.392526 -0.0276189 9.52657e-22)
(0.408431 -0.0588149 -9.30599e-22)
(0.42447 -0.0939445 9.03167e-22)
(0.439099 -0.132738 -8.66634e-22)
(0.4515 -0.173952 1.63902e-21)
(0.460673 -0.215707 0)
(0.465312 -0.255804 -1.39331e-21)
(0.464071 -0.291795 1.24414e-21)
(0.455647 -0.321363 1.0832e-21)
(0.438828 -0.342773 -9.33907e-22)
(0.412572 -0.355331 0)
(0.376082 -0.35953 0)
(0.329459 -0.356188 4.58132e-22)
(0.274856 -0.345209 0)
(0.216884 -0.325138 -2.43085e-22)
(0.161125 -0.292135 0)
(0.116874 -0.238798 -1.035e-20)
(0.0894416 -0.167025 1.96606e-20)
(0.0799357 -0.0729096 -1.88693e-20)
(0.0918234 0.0360992 9.29213e-21)
(0.12055 0.150736 9.98018e-21)
(0.160176 0.260897 -9.69215e-21)
(0.204117 0.359318 -1.18515e-20)
(0.249469 0.440228 1.15427e-20)
(0.299933 0.494727 0)
(0.364487 0.508242 5.18988e-22)
(0.44803 0.466975 0)
(0.543988 0.366055 0)
(0.642053 0.209063 3.12984e-20)
(0.736116 0.0129228 -3.23176e-20)
(0.815812 -0.18479 2.00183e-21)
(0.865401 -0.338817 1.68453e-21)
(0.881853 -0.426187 -1.30771e-21)
(0.87205 -0.456175 -6.55947e-21)
(0.840357 -0.451798 6.36927e-21)
(0.804365 -0.422052 -3.72704e-21)
(0.767287 -0.383633 3.15476e-21)
(0.703234 -0.36441 5.13852e-22)
(0.617671 -0.34808 -1.97848e-21)
(0.558839 -0.275847 -4.05127e-22)
(0.551006 -0.130575 1.47252e-21)
(0.582565 0.043495 0)
(0.63237 0.191 -1.23182e-21)
(0.672683 0.301109 2.00716e-21)
(0.670792 0.387163 -2.60082e-21)
(0.630094 0.446888 -7.17722e-22)
(0.595858 0.428119 0)
(0.61092 0.303319 9.33518e-22)
(0.670935 0.115832 -1.84086e-21)
(0.748384 -0.05731 5.14739e-23)
(0.80092 -0.164691 -6.72148e-22)
(0.842669 -0.218962 7.29479e-22)
(0.841468 -0.213666 -6.77456e-22)
(0.862836 -0.196955 0)
(0.838709 -0.152807 1.17011e-22)
(0.832752 -0.117052 0)