/*--------------------------------*- C++ -*----------------------------------*\
| =========                 |                                                 |
| \\      /  F ield         | OpenFOAM: The Open Source CFD Toolbox           |
|  \\    /   O peration     | Version:  2512                                  |
|   \\  /    A nd           | Website:  www.openfoam.com                      |
|    \\/     M anipulation  |                                                 |
\*---------------------------------------------------------------------------*/
FoamFile
{
    version     2.0;
    format      ascii;
    arch        "LSB;label=32;scalar=64";
    class       volVectorField;
    location    "175.75";
    object      U;
}
// * * * * * * * * * * * * * * * * * * * * * * * * * * * * * * * * * * * * * //

dimensions      [0 1 -1 0 0 0 0];

internalField   nonuniform List<vector> 
13248
(
(-0.0119876 0.0122615 9.69671e-20)
(-0.0171137 0.024356 0)
(-0.00349862 0.0290608 -1.837e-19)
(0.0267928 0.0278659 1.7304e-19)
(0.0723488 0.022421 1.62643e-19)
(0.132112 0.014274 0)
(0.205004 0.00467547 0)
(0.289652 -0.00539859 3.9937e-19)
(0.384137 -0.0152036 -1.19501e-21)
(0.485839 -0.0241994 -3.50067e-19)
(0.591439 -0.032031 3.2362e-19)
(0.69711 -0.0385115 -2.02537e-19)
(0.798846 -0.0435993 0)
(0.892865 -0.0473671 -3.34134e-19)
(0.975997 -0.049963 6.16464e-19)
(1.04598 -0.0515693 -1.47304e-19)
(1.10164 -0.0523639 -2.43074e-19)
(1.14287 -0.0524994 2.28214e-19)
(1.17057 -0.0520516 0)
(1.18633 -0.0511887 0)
(1.19238 -0.0495344 0)
(1.19031 -0.048547 0)
(1.18386 -0.0443225 5.54007e-20)
(1.16996 -0.048608 1.80581e-19)
(-0.00993588 0.00914201 -2.9257e-19)
(-0.00819334 0.0158059 1.99275e-19)
(0.015212 0.0167595 -1.44899e-21)
(0.0581159 0.0134879 -2.63686e-19)
(0.118923 0.00757013 -1.62468e-19)
(0.196128 0.000476803 -1.53711e-19)
(0.287812 -0.00664505 -2.84904e-19)
(0.391337 -0.012968 2.6843e-19)
(0.503177 -0.0179668 0)
(0.618971 -0.0214081 1.5542e-21)
(0.73383 -0.0233242 2.42363e-21)
(0.842825 -0.0239572 1.99832e-19)
(0.941538 -0.023681 0)
(1.02654 -0.0229113 0)
(1.09572 -0.0220231 2.19207e-19)
(1.14838 -0.0212892 -4.11702e-19)
(1.18513 -0.020849 2.33936e-19)
(1.20768 -0.020708 -2.19648e-19)
(1.21838 -0.0207597 -9.26533e-20)
(1.21992 -0.0208388 -1.60387e-19)
(1.21491 -0.0206472 -6.10113e-20)
(1.20566 -0.0203529 -1.11997e-19)
(1.19416 -0.0180661 1.73248e-19)
(1.18002 -0.02001 4.71578e-20)
(-0.00693078 0.00608779 0)
(0.00436169 0.00743435 0)
(0.0407643 0.00505089 9.3308e-20)
(0.0996733 0.00041801 8.64107e-20)
(0.178917 -0.00494266 -1.50873e-21)
(0.276003 -0.00966358 -1.57105e-19)
(0.3875 -0.0128129 0)
(0.508834 -0.0139109 -1.3368e-19)
(0.634411 -0.0129069 1.2448e-19)
(0.758088 -0.0101283 -5.71971e-22)
(0.873882 -0.00617668 -2.12183e-19)
(0.976711 -0.00178213 -1.91725e-19)
(1.06298 0.00235136 5.80961e-21)
(1.13088 0.00567331 -1.5133e-19)
(1.18038 0.007863 3.6936e-19)
(1.21298 0.00884679 0)
(1.2312 0.00876482 -2.25366e-19)
(1.2381 0.00790257 1.10648e-19)
(1.2368 0.0066242 9.25767e-20)
(1.23004 0.00526229 0)
(1.22011 0.0042301 7.14414e-20)
(1.20852 0.00337855 -2.37768e-19)
(1.19652 0.00406891 2.232e-19)
(1.18394 0.00137394 1.31702e-19)
(-0.00254871 0.00303936 -1.02294e-19)
(0.0215463 -0.000551487 -1.05484e-19)
(0.0745065 -0.00535089 9.60906e-20)
(0.152835 -0.0100531 0)
(0.253178 -0.0133111 0)
(0.371302 -0.0140145 -2.27781e-21)
(0.501518 -0.0116876 0)
(0.636838 -0.00649393 -4.02148e-19)
(0.769659 0.000874034 3.72926e-19)
(0.892754 0.00937701 -4.60302e-19)
(1.00027 0.0178672 1.05424e-19)
(1.08845 0.0253254 0)
(1.15584 0.0310364 1.69739e-19)
(1.20316 0.0346685 -3.12173e-19)
(1.23279 0.0362564 7.44857e-20)
(1.24804 0.0361143 1.82687e-19)
(1.25252 0.0347146 -1.21395e-20)
(1.24958 0.0325719 -2.00424e-19)
(1.24201 0.0301525 0)
(1.23186 0.0278235 0)
(1.22055 0.0258773 -6.7086e-20)
(1.2089 0.0242525 5.90065e-20)
(1.19756 0.0238972 2.02904e-19)
(1.186 0.0207482 -1.90539e-19)
(0.00368622 -6.80778e-06 -1.06597e-19)
(0.0443227 -0.00785241 -1.06681e-19)
(0.117447 -0.0136803 3.00428e-19)
(0.218105 -0.0166802 -1.83299e-19)
(0.340978 -0.0159464 1.72528e-19)
(0.479263 -0.0109304 3.15074e-19)
(0.624471 -0.00196486 -2.21982e-19)
(0.767284 0.00984099 -2.68603e-19)
(0.898935 0.0229165 6.27277e-21)
(1.01255 0.0356057 3.44671e-19)
(1.10404 0.0465158 0)
(1.17228 0.054747 9.27256e-20)
(1.21872 0.0599658 0)
(1.24656 0.0623345 -1.48141e-19)
(1.25986 0.0623527 2.08085e-19)
(1.26271 0.0606753 2.07837e-21)
(1.25869 0.0579575 -5.29007e-20)
(1.25055 0.0547556 9.73154e-20)
(1.24024 0.0514856 8.31393e-20)
(1.22901 0.0484238 -7.34994e-20)
(1.2176 0.0457385 6.70682e-20)
(1.20642 0.0434198 -5.89902e-20)
(1.19569 0.0419426 0)
(1.1852 0.0384651 -4.41879e-20)
(0.0122166 -0.00292646 1.06581e-19)
(0.0734435 -0.0139371 1.11212e-19)
(0.170026 -0.0189743 -1.00505e-19)
(0.294901 -0.0181711 1.87261e-19)
(0.439931 -0.0114905 -1.76248e-19)
(0.595108 0.000613834 1.59696e-19)
(0.749169 0.0166301 -7.63481e-20)
(0.891382 0.0343519 2.01723e-19)
(1.01342 0.0514765 -1.26125e-19)
(1.11051 0.0661242 2.2137e-19)
(1.18165 0.077147 -5.08831e-19)
(1.22892 0.0841882 1.8569e-19)
(1.25634 0.0875416 -1.60789e-19)
(1.26872 0.0879036 1.51036e-19)
(1.27065 0.0861199 1.28023e-19)
(1.26594 0.0829924 1.10596e-19)
(1.25741 0.0791721 -3.07261e-19)
(1.24698 0.0751283 1.89872e-19)
(1.23579 0.0711669 -8.31407e-20)
(1.22453 0.067469 2.13688e-19)
(1.21354 0.0641286 -6.90426e-20)
(1.20298 0.0611596 -1.64215e-19)
(1.19293 0.0587864 1.50966e-19)
(1.1832 0.0550931 4.41741e-20)
(0.023383 -0.00545513 0)
(0.109297 -0.0180156 6.57353e-22)
(0.231945 -0.0200613 2.07756e-19)
(0.381464 -0.0132335 -1.95141e-19)
(0.546189 0.00107112 -1.76474e-19)
(0.712793 0.0209211 3.27915e-19)
(0.868111 0.043412 -1.52252e-19)
(1.00169 0.0654025 2.02471e-19)
(1.1075 0.0843271 -4.83735e-21)
(1.18427 0.0986517 -1.14072e-19)
(1.23452 0.107931 2.47391e-19)
(1.26306 0.112577 -3.63556e-19)
(1.2755 0.113498 0)
(1.27703 0.111756 -7.02862e-20)
(1.27184 0.108326 -1.86179e-19)
(1.26293 0.103977 5.87342e-20)
(1.25224 0.0992476 2.72687e-21)
(1.24094 0.0944847 -1.24643e-19)
(1.22964 0.0898923 9.33515e-21)
(1.21866 0.0855814 1.43394e-19)
(1.20814 0.0816038 -6.25801e-20)
(1.19811 0.0779854 -2.33896e-20)
(1.18856 0.0747517 7.34312e-20)
(1.17937 0.0708008 0)
(0.0373786 -0.00720743 0)
(0.151789 -0.019094 5.61673e-20)
(0.302057 -0.0156689 -2.68815e-19)
(0.474909 -0.000740306 9.7995e-20)
(0.654879 0.0222479 -9.22281e-20)
(0.826015 0.0495506 -8.38291e-20)
(0.974938 0.0769927 -1.48595e-19)
(1.09348 0.101017 7.40778e-20)
(1.17941 0.119446 6.47225e-20)
(1.23538 0.131605 0)
(1.26694 0.137979 1.45566e-19)
(1.28058 0.139711 -2.15242e-19)
(1.28231 0.138128 1.60331e-19)
(1.27686 0.134432 7.03228e-20)
(1.26757 0.129551 -5.6902e-20)
(1.25654 0.124126 -4.69942e-20)
(1.24497 0.118559 -4.34908e-20)
(1.23349 0.113085 1.315e-19)
(1.2224 0.107836 0)
(1.21182 0.102876 6.4754e-20)
(1.20176 0.0982411 5.35408e-20)
(1.19222 0.0939455 -1.33868e-19)
(1.18313 0.0899268 -8.99235e-20)
(1.17439 0.085715 8.34241e-20)
(0.0542078 -0.00771818 -5.93367e-20)
(0.200271 -0.0160975 -1.65739e-21)
(0.378359 -0.00461758 5.444e-20)
(0.571477 0.0200532 1.51439e-19)
(0.760785 0.0519221 4.38706e-20)
(0.929255 0.0854306 -8.47706e-20)
(1.06541 0.115657 7.77933e-20)
(1.16506 0.139371 -6.83904e-20)
(1.23037 0.155386 1.21779e-19)
(1.26745 0.164161 5.18501e-20)
(1.28383 0.167085 -1.46617e-19)
(1.28655 0.165821 4.32427e-20)
(1.28116 0.16188 7.33676e-20)
(1.27152 0.15642 -3.61595e-20)
(1.26003 0.150227 0)
(1.24804 0.143787 5.33601e-20)
(1.23621 0.13738 8.97652e-20)
(1.22485 0.131156 1.49535e-20)
(1.21407 0.125196 -7.44672e-20)
(1.20388 0.11954 3.10364e-20)
(1.19425 0.114212 0)
(1.18512 0.109204 -2.41328e-20)
(1.17643 0.10444 -2.2393e-20)
(1.16808 0.0998775 0)
(0.0736508 -0.00649498 0)
(0.253502 -0.00801967 3.09514e-20)
(0.458104 0.0139738 5.72458e-20)
(0.66694 0.0493444 -1.53354e-19)
(0.85906 0.0893587 4.92078e-20)
(1.01849 0.127095 0)
(1.13762 0.157711 7.42089e-20)
(1.2171 0.179043 -1.03452e-19)
(1.26321 0.191277 -6.05541e-20)
(1.28455 0.196017 2.74997e-20)
(1.28946 0.195351 -4.34084e-20)
(1.28466 0.191212 1.05728e-19)
(1.27481 0.185093 5.28713e-20)
(1.26282 0.178001 -3.68573e-20)
(1.25027 0.170548 -3.5702e-21)
(1.23795 0.163078 -1.00203e-19)
(1.22618 0.155772 4.55739e-20)
(1.21507 0.148724 -1.02872e-21)
(1.20465 0.141982 0)
(1.19487 0.135573 -3.10683e-20)
(1.18567 0.129505 0)
(1.17696 0.123753 6.97409e-20)
(1.16866 0.118284 -8.29266e-20)
(1.16066 0.113282 3.77059e-20)
(0.0952418 -0.00306963 -1.58016e-20)
(0.309695 0.00594533 -7.73757e-20)
(0.538028 0.0405405 8.76684e-20)
(0.757083 0.086733 5.17224e-20)
(0.945773 0.133338 -2.48216e-20)
(1.09138 0.172937 4.15048e-20)
(1.19146 0.201689 -2.02376e-20)
(1.25153 0.219046 3.37008e-20)
(1.2811 0.226673 0)
(1.29011 0.227142 7.62668e-20)
(1.28684 0.222971 -3.10251e-21)
(1.27715 0.216137 -6.15972e-20)
(1.2647 0.207985 2.64054e-20)
(1.25151 0.199325 -2.97897e-20)
(1.23856 0.190603 -1.1345e-20)
(1.22625 0.182046 1.30717e-20)
(1.21471 0.173767 -1.01283e-20)
(1.20395 0.165821 -5.46264e-20)
(1.19393 0.158237 3.35036e-20)
(1.18459 0.151026 6.877e-21)
(1.17582 0.144181 6.04602e-21)
(1.16753 0.137669 5.31559e-21)
(1.15963 0.131529 0)
(1.15198 0.125964 0)
(0.118345 0.00296538 1.58125e-20)
(0.366761 0.0263166 -1.58852e-20)
(0.614804 0.0750035 -2.91399e-20)
(0.838259 0.131284 0)
(1.01822 0.18236 -1.22627e-20)
(1.14702 0.221431 -1.09392e-20)
(1.22787 0.24645 -1.88285e-20)
(1.27053 0.25876 0)
(1.28663 0.26139 0)
(1.28648 0.257608 0)
(1.27766 0.250101 0)
(1.26499 0.240731 0)
(1.25117 0.230626 -1.65917e-20)
(1.23752 0.2204 7.56005e-21)
(1.22457 0.210357 1.31515e-20)
(1.21251 0.200638 6.1338e-21)
(1.20134 0.191306 1.52282e-20)
(1.19102 0.182389 0)
(1.18148 0.173901 -3.65968e-21)
(1.17263 0.165841 -3.45196e-21)
(1.16435 0.158187 -6.05557e-21)
(1.15655 0.150917 -5.32402e-21)
(1.14911 0.144134 0)
(1.1419 0.137902 3.83397e-21)
(-0.00190747 0.000804772 9.03765e-21)
(-0.00870284 -0.0097496 -9.39671e-21)
(-0.020866 -0.0272298 -1.78114e-20)
(-0.0357394 -0.0477017 0)
(-0.0519361 -0.0686985 -2.37842e-20)
(-0.0687638 -0.089058 7.40737e-21)
(-0.0856864 -0.108563 -1.41929e-20)
(-0.102268 -0.127544 0)
(-0.118174 -0.146527 0)
(-0.133147 -0.165987 0)
(-0.146991 -0.186217 0)
(-0.159543 -0.20729 0)
(-0.17066 -0.22908 -1.50759e-22)
(-0.180197 -0.251288 -9.2337e-21)
(-0.188 -0.273471 1.76467e-20)
(-0.193904 -0.295054 2.47525e-20)
(-0.197728 -0.315339 7.84747e-21)
(-0.199288 -0.333506 0)
(-0.198412 -0.348634 6.8112e-21)
(-0.194969 -0.359743 -1.91343e-20)
(-0.188836 -0.365853 -1.19119e-20)
(-0.179797 -0.366004 -1.11322e-20)
(-0.167809 -0.359247 0)
(-0.154052 -0.345011 0)
(-0.00270496 0.00667916 -2.73672e-20)
(-0.010249 0.00370823 4.71315e-20)
(-0.0230244 -0.0089587 -1.80949e-20)
(-0.038409 -0.0264162 -3.41199e-20)
(-0.0550407 -0.0456326 4.80319e-20)
(-0.0722485 -0.0650998 -3.04891e-20)
(-0.0895015 -0.0843714 4.28689e-20)
(-0.106371 -0.103618 2.75902e-20)
(-0.122541 -0.123252 0)
(-0.137791 -0.143672 -2.38779e-20)
(-0.151965 -0.165125 -1.49733e-22)
(-0.164951 -0.187668 2.10727e-20)
(-0.176659 -0.211178 3.05934e-20)
(-0.187004 -0.23538 3.80866e-20)
(-0.195895 -0.259859 -1.76797e-20)
(-0.20324 -0.284075 -5.00953e-20)
(-0.208935 -0.307356 1.57252e-20)
(-0.212873 -0.328899 -5.88118e-20)
(-0.214969 -0.347782 0)
(-0.215186 -0.362994 1.27274e-20)
(-0.213438 -0.373477 1.18999e-20)
(-0.209393 -0.378141 1.11211e-20)
(-0.203006 -0.375869 0)
(-0.196726 -0.365964 0)
(-0.00410855 0.0126884 0)
(-0.0127867 0.0176654 9.76895e-20)
(-0.0257375 0.0101478 -3.67861e-20)
(-0.0407424 -0.00404922 3.46073e-20)
(-0.0566381 -0.0213275 -9.95023e-20)
(-0.0728496 -0.0397958 0)
(-0.0888911 -0.0587211 -5.93611e-20)
(-0.104355 -0.0780686 2.82702e-20)
(-0.118944 -0.0981109 -5.38558e-20)
(-0.132458 -0.119158 2.63196e-20)
(-0.14477 -0.141413 1.42753e-19)
(-0.155802 -0.164921 -6.70545e-20)
(-0.165505 -0.189573 -1.04457e-19)
(-0.173847 -0.21512 -3.99676e-20)
(-0.180807 -0.241185 3.13657e-22)
(-0.186369 -0.267267 1.37639e-19)
(-0.190525 -0.292738 -6.43775e-20)
(-0.193266 -0.316833 -5.14956e-22)
(-0.19461 -0.338656 0)
(-0.19463 -0.357186 -5.02259e-20)
(-0.193323 -0.37129 0)
(-0.19025 -0.379754 -4.09921e-20)
(-0.185162 -0.381398 1.5117e-19)
(-0.181877 -0.375626 -2.12104e-21)
(-0.00601079 0.0181862 0)
(-0.0161123 0.0308018 1.13226e-21)
(-0.0287424 0.0284821 3.8457e-20)
(-0.0424289 0.0176989 -3.66055e-20)
(-0.0563788 0.00251769 3.31183e-20)
(-0.0701761 -0.0147988 1.94246e-19)
(-0.0834093 -0.033219 -6.08163e-20)
(-0.0957092 -0.052476 -5.87227e-20)
(-0.106793 -0.0726736 1.09441e-19)
(-0.116462 -0.0940239 -1.54697e-19)
(-0.124594 -0.116676 4.95032e-20)
(-0.131122 -0.140658 4.69505e-20)
(-0.136021 -0.165862 0)
(-0.139301 -0.192053 4.00495e-20)
(-0.141001 -0.218873 0)
(-0.141193 -0.245853 7.19623e-20)
(-0.139979 -0.272402 -1.3007e-19)
(-0.137481 -0.297816 3.27314e-20)
(-0.133853 -0.321267 1.12021e-19)
(-0.129304 -0.341789 5.01777e-20)
(-0.124001 -0.358242 0)
(-0.117584 -0.369303 -1.19065e-19)
(-0.109184 -0.373657 3.86888e-20)
(-0.102645 -0.370769 0)
(-0.00819806 0.0225899 0)
(-0.0198632 0.0418884 -1.23041e-19)
(-0.0316907 0.0445138 -3.97635e-20)
(-0.0431847 0.0371866 -7.40836e-20)
(-0.0540394 0.0242501 6.9762e-20)
(-0.0640653 0.00826616 -6.53627e-20)
(-0.0729594 -0.00945347 1.26258e-19)
(-0.0803821 -0.028401 5.96213e-20)
(-0.0860596 -0.0485141 -1.68136e-19)
(-0.0897941 -0.0698804 1.073e-19)
(-0.0914412 -0.0925819 -1.50857e-19)
(-0.0909264 -0.116613 3.36269e-19)
(-0.0882331 -0.141849 -1.79479e-19)
(-0.0833998 -0.168046 8.54141e-20)
(-0.0765242 -0.194838 2.3593e-19)
(-0.0677698 -0.221749 -7.40568e-20)
(-0.057367 -0.248198 -7.08643e-20)
(-0.0456065 -0.273513 -6.2716e-20)
(-0.0328289 -0.296945 0)
(-0.0194249 -0.317656 -9.76273e-20)
(-0.00584325 -0.33466 -8.07181e-20)
(0.0077964 -0.346708 1.23186e-19)
(0.0228107 -0.352162 1.3023e-19)
(0.0393207 -0.349637 -1.2146e-19)
(-0.0103915 0.0254876 0)
(-0.0235711 0.049971 -1.70693e-19)
(-0.0341765 0.0569698 -1.69251e-21)
(-0.042753 0.0529774 1.51425e-19)
(-0.0495324 0.0423648 0)
(-0.0545765 0.0278707 0)
(-0.0577188 0.0110385 0)
(-0.0586908 -0.00741104 -6.10727e-20)
(-0.0572125 -0.0272368 -9.22978e-22)
(-0.0530572 -0.0483933 1.09752e-19)
(-0.0460735 -0.0708815 -1.5466e-19)
(-0.0361725 -0.0946426 -1.27292e-22)
(-0.0233451 -0.119515 0)
(-0.00766507 -0.14522 -8.53618e-20)
(0.0106993 -0.171353 8.05814e-20)
(0.0314761 -0.197393 -2.25646e-19)
(0.0542858 -0.22272 2.72002e-19)
(0.0786469 -0.246635 5.60154e-20)
(0.103992 -0.2684 -1.04434e-20)
(0.129716 -0.287259 -2.05933e-19)
(0.155127 -0.302459 -8.75422e-20)
(0.179572 -0.313132 2.59332e-19)
(0.203182 -0.317707 -1.67249e-19)
(0.233454 -0.312564 0)
(-0.0123083 0.0267012 8.54172e-20)
(-0.0267445 0.0544935 8.58408e-20)
(-0.0357819 0.0649693 -8.32879e-20)
(-0.0408955 0.0639589 -1.56188e-19)
(-0.0428268 0.0556041 1.47068e-19)
(-0.0418917 0.0426742 -1.40352e-19)
(-0.0380753 0.0268551 1.99021e-19)
(-0.0311849 0.00904733 -6.13627e-20)
(-0.0209696 -0.0103333 1.18706e-19)
(-0.00719363 -0.0311154 0)
(0.0103067 -0.0531993 1.0834e-19)
(0.031608 -0.0764554 -2.02823e-19)
(0.0566761 -0.100668 1.88587e-19)
(0.0853523 -0.125504 -1.77125e-19)
(0.117341 -0.150508 0)
(0.152192 -0.175104 1.51229e-19)
(0.189309 -0.198622 2.73255e-19)
(0.227969 -0.220323 -2.56053e-19)
(0.267356 -0.239442 -1.12317e-19)
(0.306629 -0.25523 -9.33496e-20)
(0.344847 -0.267072 2.6816e-19)
(0.381777 -0.274252 6.64726e-20)
(0.41413 -0.276645 -6.93274e-20)
(0.460647 -0.267324 5.11956e-20)
(-0.0137236 0.0263001 -8.54286e-20)
(-0.0289514 0.0553548 2.68963e-19)
(-0.0361169 0.0681258 -8.51196e-20)
(-0.0373639 0.0694663 1.59721e-19)
(-0.0338508 0.0630878 -1.50391e-19)
(-0.0261185 0.0516502 7.03456e-22)
(-0.0143045 0.0368863 6.78344e-20)
(0.00168946 0.0198183 2.59574e-19)
(0.0220651 0.00100528 1.71703e-21)
(0.0470288 -0.0192462 -1.135e-19)
(0.0767084 -0.040729 0)
(0.111109 -0.0632244 -1.02817e-19)
(0.150074 -0.0864413 1.91814e-19)
(0.193257 -0.10998 1.7767e-19)
(0.240102 -0.133329 -8.3974e-20)
(0.289843 -0.155873 9.93748e-23)
(0.341532 -0.176919 -6.94195e-20)
(0.394079 -0.195737 1.24765e-19)
(0.446322 -0.211609 1.12264e-19)
(0.497191 -0.223845 -9.91084e-20)
(0.545261 -0.232069 8.48239e-20)
(0.591666 -0.235058 -7.25072e-20)
(0.627624 -0.235457 0)
(0.685291 -0.222477 -5.11012e-20)
(-0.0145186 0.0245672 8.87598e-20)
(-0.0298746 0.0528973 -9.03096e-20)
(-0.034813 0.0665708 8.6902e-20)
(-0.0318257 0.0693601 0)
(-0.0223286 0.0644399 0)
(-0.00704004 0.0542487 1.4781e-19)
(0.0137623 0.0404773 -1.37031e-19)
(0.0400741 0.0242101 1.318e-19)
(0.072013 0.00611851 -6.15655e-19)
(0.109694 -0.0133696 -2.70676e-22)
(0.153119 -0.0339288 1.09793e-19)
(0.202103 -0.0552353 0)
(0.25621 -0.0769082 -1.91852e-19)
(0.314722 -0.0984804 3.58098e-19)
(0.376629 -0.119397 -2.49926e-19)
(0.44066 -0.139035 -3.75087e-19)
(0.505351 -0.156736 1.04239e-20)
(0.569144 -0.171853 2.51852e-19)
(0.630483 -0.183814 0)
(0.688121 -0.192045 0)
(0.740206 -0.19663 -8.48067e-20)
(0.789011 -0.195788 7.24936e-20)
(0.823124 -0.194403 -2.28665e-19)
(0.878843 -0.179104 2.14553e-19)
(-0.0146836 0.0219143 0)
(-0.0293315 0.0477807 0)
(-0.0315036 0.0608934 -2.62449e-19)
(-0.0237449 0.0640556 8.31194e-20)
(-0.00757418 0.0598901 -3.63458e-22)
(0.0161858 0.0505617 1.48658e-19)
(0.0471427 0.0376594 0)
(0.0851701 0.0222812 -1.31729e-19)
(0.130241 0.00517552 1.23574e-19)
(0.182265 -0.0131209 -2.34377e-19)
(0.240952 -0.0321674 1.75984e-22)
(0.305704 -0.0515387 2.05529e-19)
(0.375553 -0.0707782 -1.83837e-21)
(0.449142 -0.0893817 1.73905e-19)
(0.524769 -0.106807 -2.50396e-19)
(0.600486 -0.122499 0)
(0.674242 -0.135929 2.6563e-19)
(0.74405 -0.146636 -3.72247e-19)
(0.80814 -0.154272 1.06468e-19)
(0.865232 -0.15851 0)
(0.913868 -0.159698 8.11048e-20)
(0.955992 -0.156241 2.68948e-19)
(0.983069 -0.153374 -2.52429e-19)
(1.02401 -0.137687 -2.40746e-19)
(-0.0142861 0.0187705 2.76434e-19)
(-0.0271915 0.0408194 -3.80025e-19)
(-0.0257201 0.0520314 4.27699e-22)
(-0.0122635 0.0544848 8.46726e-20)
(0.0116792 0.0503373 -1.58829e-19)
(0.0452429 0.041488 -1.48037e-19)
(0.0879296 0.029401 2.80768e-19)
(0.139433 0.0151543 -2.33884e-23)
(0.199442 -0.000455614 -2.48754e-19)
(0.267443 -0.0168105 4.68002e-19)
(0.342557 -0.0333889 -3.44768e-22)
(0.423434 -0.0497111 -2.05818e-19)
(0.508234 -0.0653129 0)
(0.594695 -0.0797435 0)
(0.680277 -0.0925805 -8.15299e-20)
(0.762367 -0.103454 -1.45311e-19)
(0.838517 -0.11207 -2.59292e-19)
(0.906649 -0.118236 2.4341e-19)
(0.96526 -0.121844 -1.06519e-19)
(1.01346 -0.122921 1.77604e-19)
(1.05104 -0.121675 -9.4117e-20)
(1.07916 -0.117524 1.19871e-19)
(1.09504 -0.114004 -3.06374e-19)
(1.11498 -0.100443 5.00816e-20)
(-0.0133928 0.0154842 9.34613e-20)
(-0.0232569 0.0328077 0)
(-0.0167551 0.0410844 1.81066e-19)
(0.0039353 0.0419697 -1.70563e-19)
(0.037393 0.0372941 1.58971e-19)
(0.0827202 0.0287416 0)
(0.139246 0.0176555 0)
(0.206314 0.00507336 -1.32868e-19)
(0.283048 -0.00819867 3.76178e-22)
(0.368127 -0.0215227 1.17053e-19)
(0.459659 -0.0343822 -1.08033e-19)
(0.555152 -0.0463545 2.04442e-19)
(0.651636 -0.0570997 0)
(0.745878 -0.0663606 3.42157e-19)
(0.834679 -0.0739635 -6.32658e-19)
(0.915176 -0.0798183 4.37772e-19)
(0.985113 -0.0839084 2.51696e-19)
(1.04301 -0.0862948 -2.36294e-19)
(1.0883 -0.0870402 0)
(1.12114 -0.0864091 0)
(1.14273 -0.0842457 0)
(1.15421 -0.0813072 0)
(1.15776 -0.0775267 5.84688e-20)
(1.15914 -0.0690572 -1.9043e-19)
(-0.138009 -0.320701 -7.3167e-21)
(-0.109541 -0.278345 7.34125e-21)
(-0.0760484 -0.219836 -2.14416e-22)
(-0.037119 -0.145979 0)
(0.00617773 -0.0582812 -6.96305e-21)
(0.0527982 0.0406165 1.33809e-20)
(0.102004 0.147892 -2.882e-22)
(0.15238 0.256764 -5.96807e-21)
(0.202827 0.360426 0)
(0.251685 0.450645 0)
(0.296684 0.521219 -2.22544e-22)
(0.334457 0.569099 -1.87509e-22)
(0.360977 0.596561 -2.65203e-21)
(0.372462 0.610847 2.42301e-21)
(0.368614 0.61856 0)
(0.357173 0.616558 0)
(0.353839 0.588188 2.12384e-21)
(0.37411 0.512225 2.60369e-22)
(0.422297 0.379273 -2.10133e-21)
(0.490061 0.198751 -1.68216e-22)
(0.565387 -0.00597062 0)
(0.638484 -0.202788 0)
(0.700881 -0.359346 0)
(0.746782 -0.458332 0)
(0.774235 -0.504434 0)
(0.785015 -0.513679 0)
(0.785194 -0.502122 2.82742e-22)
(0.776572 -0.487546 -4.59005e-22)
(0.752522 -0.488641 0)
(0.710036 -0.501062 0)
(0.663824 -0.483902 -4.58243e-22)
(0.638655 -0.389473 4.45377e-22)
(0.647755 -0.210865 2.5633e-22)
(0.683169 0.0026258 0)
(0.730512 0.194579 0)
(0.774345 0.322593 3.52674e-22)
(0.811331 0.389391 -3.42811e-22)
(0.834153 0.414314 0)
(0.833462 0.437697 2.17458e-22)
(0.802852 0.460193 -3.18373e-22)
(0.758231 0.447943 1.1774e-22)
(0.725865 0.361541 0)
(0.726104 0.186773 -2.89278e-22)
(0.747818 -0.00285453 2.81286e-22)
(0.790891 -0.180756 0)
(0.824691 -0.27346 0)
(0.841499 -0.344363 -7.12451e-23)
(0.816233 -0.37617 1.96246e-22)
(0.77667 -0.376935 0)
(0.747707 -0.3212 0)
(0.759768 -0.148242 -5.77092e-23)
(0.786964 -0.0240234 5.32366e-24)
(0.820837 0.171923 -4.95356e-24)
(0.811474 0.255494 3.69252e-23)
(0.800222 0.344399 0)
(0.786832 0.363429 0)
(0.799842 0.186672 0)
(0.79615 0.141207 0)
(0.811776 -0.163346 0)
(0.789512 -0.240729 0)
(-0.193589 -0.346796 -6.2576e-22)
(-0.177794 -0.311806 -2.63973e-20)
(-0.155722 -0.259857 2.2873e-22)
(-0.126918 -0.192017 2.45976e-20)
(-0.0912898 -0.109371 3.41241e-22)
(-0.0486727 -0.0140695 0)
(-0.00128904 0.0900241 -2.07079e-20)
(0.0486396 0.198551 3.95417e-20)
(0.100661 0.304845 -1.88344e-20)
(0.15293 0.398878 1.47113e-20)
(0.203291 0.476733 -1.4076e-20)
(0.247627 0.535499 1.06227e-20)
(0.281832 0.576586 -1.03031e-20)
(0.303596 0.604163 -2.59337e-22)
(0.315695 0.619633 -8.20044e-21)
(0.328144 0.615454 7.96947e-21)
(0.354947 0.575305 -9.16384e-21)
(0.405328 0.484192 8.60096e-21)
(0.476458 0.339847 -1.12212e-20)
(0.55771 0.153999 2.23191e-20)
(0.639011 -0.0511427 -1.10773e-20)
(0.711777 -0.24394 -6.55103e-22)
(0.767755 -0.392332 -7.81369e-21)
(0.802843 -0.480242 1.36652e-20)
(0.81817 -0.515014 -5.90098e-21)
(0.817247 -0.515648 2.50517e-22)
(0.80687 -0.498475 3.11785e-21)
(0.790684 -0.477805 -1.46274e-22)
(0.762769 -0.470687 -5.25334e-21)
(0.716873 -0.477607 5.36782e-21)
(0.66359 -0.4645 -2.73244e-21)
(0.62775 -0.383657 3.96403e-22)
(0.626822 -0.220647 -2.56847e-22)
(0.656697 -0.0174464 4.52116e-22)
(0.703244 0.171729 0)
(0.751388 0.3025 0)
(0.795243 0.375237 -1.06721e-21)
(0.824968 0.408863 8.02843e-22)
(0.828616 0.442608 6.69718e-22)
(0.80228 0.472928 1.82918e-22)
(0.763583 0.461265 -1.03011e-21)
(0.737981 0.368494 3.00245e-22)
(0.743574 0.184906 0)
(0.765483 -0.0119169 0)
(0.806374 -0.192101 0)
(0.835439 -0.281011 0)
(0.850959 -0.343131 3.19945e-22)
(0.823661 -0.367426 -1.27071e-22)
(0.782704 -0.367648 0)
(0.751673 -0.318801 0)
(0.760328 -0.153505 0)
(0.786563 -0.0316231 -8.64775e-23)
(0.816208 0.168835 1.50756e-23)
(0.80782 0.25735 -8.25936e-23)
(0.795795 0.346869 0)
(0.78396 0.363641 0)
(0.800795 0.185092 6.24315e-23)
(0.79878 0.140123 2.00048e-22)
(0.818464 -0.162236 0)
(0.794145 -0.239281 0)
(-0.18896 -0.361665 -1.22167e-21)
(-0.19004 -0.335536 -4.6906e-20)
(-0.183072 -0.291938 4.38638e-20)
(-0.16941 -0.2325 -4.11093e-20)
(-0.147117 -0.157393 -3.43631e-22)
(-0.115905 -0.0683383 0)
(-0.0758227 0.0303057 -3.42082e-20)
(-0.0290111 0.13574 3.33928e-20)
(0.0195402 0.243844 2.54186e-22)
(0.0702557 0.341073 3.52365e-22)
(0.123007 0.426078 3.10439e-22)
(0.172257 0.495123 3.32547e-22)
(0.214835 0.547951 -1.68609e-20)
(0.250177 0.585181 1.66469e-20)
(0.282679 0.604151 0)
(0.321814 0.595428 4.89306e-22)
(0.377594 0.545282 -1.91109e-20)
(0.453066 0.444828 1.8874e-20)
(0.541151 0.296492 0)
(0.631482 0.111811 0)
(0.716035 -0.089116 -2.36822e-20)
(0.786776 -0.275252 4.36999e-20)
(0.835323 -0.414567 -3.58239e-20)
(0.858989 -0.492464 3.7039e-21)
(0.862096 -0.518108 2.14398e-20)
(0.850178 -0.512283 -1.68588e-20)
(0.830096 -0.491492 1.26488e-20)
(0.806757 -0.4666 -9.66893e-22)
(0.775713 -0.452135 -4.95651e-21)
(0.728054 -0.453119 0)
(0.669392 -0.443346 0)
(0.623477 -0.376586 2.42917e-21)
(0.611862 -0.230618 -3.07368e-21)
(0.634954 -0.0392245 -6.50744e-23)
(0.679687 0.145951 2.84086e-21)
(0.731474 0.278913 -2.76086e-21)
(0.781438 0.357912 0)
(0.817521 0.400984 2.35484e-22)
(0.825634 0.445532 2.01094e-21)
(0.804196 0.483897 -4.16001e-21)
(0.77194 0.473313 1.91e-21)
(0.753092 0.375305 3.40266e-22)
(0.763983 0.184406 -3.4659e-21)
(0.786099 -0.018503 2.67511e-21)
(0.824378 -0.201012 5.75997e-22)
(0.848211 -0.287093 4.36824e-22)
(0.862103 -0.341158 -3.20745e-22)
(0.832923 -0.358359 0)
(0.790734 -0.358153 0)
(0.757688 -0.316568 -7.49649e-22)
(0.762799 -0.158908 3.71222e-22)
(0.787899 -0.039313 -3.19176e-22)
(0.81329 0.165578 4.72279e-22)
(0.805742 0.259048 5.81444e-22)
(0.792534 0.349064 -1.51745e-22)
(0.782086 0.36362 2.79678e-22)
(0.802909 0.18307 -2.72703e-22)
(0.802698 0.138651 1.57998e-22)
(0.826351 -0.161089 0)
(0.799777 -0.2377 0)
(-0.11619 -0.360654 -8.52526e-20)
(-0.135317 -0.34353 6.06085e-21)
(-0.144938 -0.309555 7.47755e-20)
(-0.149407 -0.260152 -5.89087e-22)
(-0.144992 -0.195172 0)
(-0.130946 -0.115397 0)
(-0.106117 -0.0236697 -5.14117e-20)
(-0.0684834 0.0757732 2.763e-21)
(-0.0276267 0.180988 6.64265e-20)
(0.0162129 0.279246 -1.99658e-21)
(0.0678316 0.369429 -1.85618e-20)
(0.120306 0.446264 -1.47512e-20)
(0.17152 0.507468 1.47373e-20)
(0.221731 0.550624 0)
(0.275173 0.5705 -1.49688e-20)
(0.338967 0.557532 1.35881e-20)
(0.418624 0.501433 0)
(0.512399 0.39833 0)
(0.611356 0.252843 2.40881e-20)
(0.70689 0.0743827 1.39279e-21)
(0.793012 -0.119746 -2.33283e-20)
(0.861183 -0.297933 -2.1307e-20)
(0.902154 -0.427975 2.11862e-20)
(0.914459 -0.496821 -1.33094e-20)
(0.905547 -0.515118 3.16233e-21)
(0.88338 -0.50445 9.39601e-21)
(0.854605 -0.481537 7.84803e-22)
(0.824459 -0.454416 1.63798e-23)
(0.790554 -0.433931 0)
(0.742691 -0.428219 4.27994e-21)
(0.681029 -0.419932 -4.40491e-21)
(0.62624 -0.366811 3.37895e-22)
(0.60334 -0.239483 0)
(0.618421 -0.0620656 -3.91989e-22)
(0.660229 0.117759 4.95119e-21)
(0.714684 0.252213 -8.48681e-21)
(0.769813 0.337595 -4.01564e-23)
(0.811646 0.390518 9.75515e-23)
(0.824358 0.446001 2.95568e-21)
(0.808272 0.492595 4.55407e-22)
(0.782757 0.483878 -4.89045e-21)
(0.770534 0.382088 4.10725e-21)
(0.786654 0.185574 -3.86847e-23)
(0.809133 -0.0224531 2.64907e-21)
(0.844606 -0.207429 -3.15309e-21)
(0.862869 -0.291795 -2.9311e-21)
(0.87473 -0.33866 8.70177e-22)
(0.843753 -0.349093 9.04873e-22)
(0.800436 -0.348368 -1.6408e-21)
(0.765406 -0.314283 1.10904e-21)
(0.766883 -0.164332 -3.26846e-22)
(0.790813 -0.0470964 3.38509e-22)
(0.81203 0.162111 2.68227e-22)
(0.80523 0.260619 -8.30556e-22)
(0.790499 0.351044 -7.52495e-24)
(0.781303 0.363391 -3.04213e-22)
(0.806215 0.180608 0)
(0.807916 0.136797 -1.46377e-22)
(0.835412 -0.15989 3.88751e-22)
(0.806384 -0.235968 0)
(0.0222616 -0.34297 7.63129e-20)
(-0.012771 -0.333089 -1.40737e-19)
(-0.0380408 -0.308873 6.39985e-20)
(-0.0603481 -0.269835 5.01135e-20)
(-0.0755716 -0.216266 -9.30719e-20)
(-0.0810362 -0.148295 4.08488e-21)
(-0.0759804 -0.0662391 3.82532e-20)
(-0.0548913 0.0260993 3.084e-20)
(-0.0266992 0.120518 -3.02605e-20)
(0.00652716 0.216339 0)
(0.052716 0.30776 -2.34064e-20)
(0.105182 0.388563 4.48044e-20)
(0.162561 0.454462 -2.15753e-20)
(0.225029 0.500784 0)
(0.295445 0.520844 0)
(0.37794 0.50579 4.67661e-22)
(0.474023 0.448547 -3.77835e-20)
(0.578689 0.348776 3.66984e-20)
(0.683005 0.211216 0)
(0.780897 0.0420571 5.13134e-20)
(0.867776 -0.143063 -9.58269e-20)
(0.933209 -0.311831 8.76506e-20)
(0.966457 -0.432083 -7.52621e-20)
(0.967691 -0.492788 6.82639e-21)
(0.947376 -0.505848 4.5311e-20)
(0.915961 -0.492361 -1.93868e-20)
(0.879862 -0.468756 -3.92456e-22)
(0.843677 -0.441273 -4.21419e-21)
(0.807031 -0.416742 5.00036e-22)
(0.760016 -0.40436 3.78567e-21)
(0.6978 -0.395449 2.49183e-22)
(0.636121 -0.354279 -4.341e-21)
(0.601814 -0.246293 8.94174e-21)
(0.607587 -0.0847395 -5.12476e-21)
(0.645152 0.0877628 0)
(0.701021 0.222735 -4.18561e-21)
(0.760177 0.314313 4.00676e-21)
(0.807078 0.377137 -2.89931e-21)
(0.824499 0.443508 3.60177e-21)
(0.814087 0.498633 -4.53986e-22)
(0.795428 0.492839 0)
(0.789635 0.389015 -7.00188e-22)
(0.810853 0.188346 2.3425e-21)
(0.833999 -0.0237835 0)
(0.866683 -0.211198 5.7186e-21)
(0.879193 -0.294973 -2.45143e-21)
(0.888632 -0.335611 6.69949e-22)
(0.855941 -0.33966 4.76342e-22)
(0.811526 -0.33828 0)
(0.774477 -0.311843 0)
(0.772251 -0.169714 -8.30537e-22)
(0.795093 -0.0550057 1.2518e-21)
(0.812336 0.158381 -7.1328e-22)
(0.806262 0.262072 2.19643e-22)
(0.789755 0.352862 5.11699e-22)
(0.781701 0.362974 3.04506e-22)
(0.810726 0.177708 -6.35248e-22)
(0.814433 0.134549 0)
(0.845608 -0.158611 -5.69002e-22)
(0.813928 -0.234057 -1.30082e-22)
(0.213019 -0.309914 7.00383e-20)
(0.168165 -0.303539 -6.94077e-20)
(0.130031 -0.287068 4.42625e-22)
(0.0938182 -0.258942 -2.97963e-22)
(0.0600842 -0.21814 3.16621e-22)
(0.0352393 -0.163167 -2.68122e-22)
(0.0209158 -0.0947857 2.64956e-22)
(0.0191398 -0.0148612 0)
(0.0295451 0.0677105 -1.69882e-22)
(0.0512866 0.157482 1.46904e-22)
(0.0874943 0.245427 1.39752e-22)
(0.135269 0.325757 -2.80421e-22)
(0.193637 0.392719 0)
(0.262358 0.440115 0)
(0.342578 0.460498 2.87148e-22)
(0.435638 0.445872 0)
(0.539929 0.391578 -4.80179e-22)
(0.648568 0.299285 0)
(0.753813 0.172624 -4.58983e-20)
(0.852496 0.0145855 9.33487e-20)
(0.939701 -0.159637 -9.29716e-20)
(1.00164 -0.317534 4.55009e-20)
(1.02678 -0.427676 3.35403e-20)
(1.01749 -0.481323 -3.257e-20)
(0.986857 -0.491172 -2.00913e-20)
(0.947375 -0.476794 1.93544e-20)
(0.905351 -0.453633 0)
(0.86407 -0.427154 2.85295e-22)
(0.824685 -0.40069 0)
(0.779056 -0.382413 0)
(0.718565 -0.370886 5.97361e-21)
(0.652705 -0.339014 -6.13238e-21)
(0.607739 -0.250139 3.96472e-22)
(0.602965 -0.106438 5.41781e-22)
(0.634618 0.0566282 -4.07261e-22)
(0.690396 0.190855 -3.12113e-21)
(0.752275 0.288086 3.03062e-21)
(0.803513 0.36056 -3.42382e-21)
(0.825701 0.437602 2.95386e-21)
(0.821127 0.501665 9.0253e-22)
(0.809302 0.500078 -5.2008e-21)
(0.809615 0.396107 -1.85771e-21)
(0.835773 0.192719 4.40786e-21)
(0.86011 -0.0224711 0)
(0.890203 -0.212221 -2.61738e-21)
(0.896919 -0.296535 2.39101e-21)
(0.903559 -0.332042 -3.24647e-21)
(0.869255 -0.330111 -4.79355e-22)
(0.823733 -0.327832 0)
(0.784568 -0.309104 2.58317e-22)
(0.778561 -0.175013 -5.09702e-22)
(0.800485 -0.0631231 -4.08205e-23)