/*--------------------------------*- C++ -*----------------------------------*\
| =========                 |                                                 |
| \\      /  F ield         | OpenFOAM: The Open Source CFD Toolbox           |
|  \\    /   O peration     | Version:  2512                                  |
|   \\  /    A nd           | Website:  www.openfoam.com                      |
|    \\/     M anipulation  |                                                 |
\*---------------------------------------------------------------------------*/
FoamFile
{
    version     2.0;
    format      ascii;
    arch        "LSB;label=32;scalar=64";
    class       volVectorField;
    location    "50";
    object      U;
}
// * * * * * * * * * * * * * * * * * * * * * * * * * * * * * * * * * * * * * //

dimensions      [0 1 -1 0 0 0 0];

internalField   nonuniform List<vector> 
13248
(
(-0.0118978 0.0108877 5.91467e-20)
(-0.0226268 0.0226238 0)
(-0.0214559 0.0282014 -1.11952e-19)
(-0.00915372 0.0298116 1.05462e-19)
(0.0137948 0.0291366 9.88208e-20)
(0.0470543 0.0274587 0)
(0.0903522 0.0257432 0)
(0.143352 0.0247154 2.37262e-19)
(0.205528 0.0248921 -1.65892e-21)
(0.276055 0.0266234 -2.06369e-19)
(0.353735 0.0300997 1.89868e-19)
(0.436976 0.0353561 -1.18557e-19)
(0.523835 0.0422785 0)
(0.61212 0.0506167 -1.99864e-19)
(0.699531 0.0600075 3.72044e-19)
(0.78381 0.0700061 -8.77621e-20)
(0.862896 0.0801275 -1.56321e-19)
(0.93505 0.0898688 1.46743e-19)
(0.998973 0.0988268 0)
(1.05375 0.106424 0)
(1.09939 0.112933 0)
(1.13483 0.116511 0)
(1.16409 0.120968 4.65256e-20)
(1.18071 0.117298 1.73553e-19)
(-0.0118624 0.00973821 -1.78754e-19)
(-0.0192245 0.0190421 1.21999e-19)
(-0.0114178 0.0229141 -1.03229e-21)
(0.0103556 0.0235763 -1.613e-19)
(0.0453346 0.0227724 -9.87142e-20)
(0.0929173 0.0218554 -9.33245e-20)
(0.152432 0.0218213 -1.71089e-19)
(0.222962 0.0233625 1.61777e-19)
(0.303169 0.0269116 0)
(0.391205 0.0326564 1.00656e-21)
(0.484705 0.0405479 2.2161e-21)
(0.580899 0.0503179 1.18778e-19)
(0.676792 0.0615134 0)
(0.769402 0.0735474 0)
(0.856001 0.0857632 1.36737e-19)
(0.934319 0.0975017 -2.56726e-19)
(1.00269 0.108166 1.53836e-19)
(1.06016 0.117271 -1.44419e-19)
(1.10644 0.124482 -6.45003e-20)
(1.14198 0.129592 -1.17975e-19)
(1.16752 0.132695 -5.08974e-20)
(1.1849 0.133412 -9.59148e-20)
(1.19486 0.133614 1.38615e-19)
(1.19953 0.128901 4.10281e-20)
(-0.0109069 0.00813135 0)
(-0.0126773 0.0144842 0)
(0.00434885 0.0166737 5.70664e-20)
(0.0384329 0.0168526 5.25586e-20)
(0.0883815 0.016763 -1.32864e-21)
(0.153064 0.0177685 -9.63197e-20)
(0.231037 0.0207997 0)
(0.320308 0.0263919 -8.03444e-20)
(0.418214 0.0347138 7.53119e-20)
(0.521448 0.0455867 5.68105e-22)
(0.626247 0.0585233 -1.27894e-19)
(0.728715 0.0727981 -1.16748e-19)
(0.825181 0.0875454 2.31051e-21)
(0.912542 0.10187 -9.6199e-20)
(0.988516 0.114954 2.30862e-19)
(1.05178 0.126144 0)
(1.10201 0.135005 -1.50775e-19)
(1.13974 0.141338 7.26785e-20)
(1.16628 0.145186 6.44379e-20)
(1.18336 0.146713 0)
(1.19306 0.146401 5.37283e-20)
(1.19736 0.144234 -1.89919e-19)
(1.19777 0.141878 1.78281e-19)
(1.19752 0.136402 1.17233e-19)
(-0.00871937 0.00612207 -6.34435e-20)
(-0.00214205 0.00922791 -6.56123e-20)
(0.0270982 0.0100798 5.92555e-20)
(0.0765555 0.0106102 0)
(0.144322 0.0124461 0)
(0.228308 0.0168356 -2.00588e-21)
(0.325742 0.0244676 0)
(0.432991 0.0354874 -2.4516e-19)
(0.545624 0.0495436 2.27478e-19)
(0.658726 0.0658634 -2.80468e-19)
(0.767386 0.0833789 6.40407e-20)
(0.867231 0.100893 0)
(0.954878 0.117258 1.06587e-19)
(1.02821 0.13152 -1.97461e-19)
(1.08647 0.143031 4.67661e-20)
(1.13015 0.151483 1.21114e-19)
(1.16072 0.156891 -4.71382e-21)
(1.18033 0.159534 -1.3626e-19)
(1.19143 0.159863 0)
(1.19642 0.158386 0)
(1.19742 0.155689 -5.00289e-20)
(1.19605 0.15193 4.54102e-20)
(1.19361 0.148473 1.6595e-19)
(1.19093 0.142659 -1.55767e-19)
(-0.00494839 0.00381429 -6.70309e-20)
(0.0132421 0.00370065 -6.66601e-20)
(0.0579674 0.00395795 1.87467e-19)
(0.125809 0.00608081 -1.13522e-19)
(0.213697 0.0113901 1.06859e-19)
(0.317982 0.0207926 1.93773e-19)
(0.433937 0.0344482 -1.36892e-19)
(0.555827 0.0518003 -1.66269e-19)
(0.677386 0.0717186 3.42896e-21)
(0.792526 0.0927102 2.1237e-19)
(0.896098 0.113183 0)
(0.984464 0.131705 5.86716e-20)
(1.05578 0.147208 0)
(1.10997 0.15909 -9.59058e-20)
(1.14842 0.167223 1.34711e-19)
(1.1735 0.171874 9.55637e-22)
(1.18811 0.173574 -3.58505e-20)
(1.19513 0.172979 6.69328e-20)
(1.19713 0.170738 5.86568e-20)
(1.19612 0.167408 -5.30675e-20)
(1.19353 0.163444 5.00168e-20)
(1.19028 0.159003 -4.53991e-20)
(1.18676 0.154899 0)
(1.18376 0.149052 -3.56879e-20)
(0.000771629 0.00138035 6.70214e-20)
(0.0342609 -0.00148918 7.04057e-20)
(0.0977921 -0.000628781 -6.28199e-20)
(0.18659 0.00471288 1.16882e-19)
(0.295819 0.0152459 -1.10016e-19)
(0.419587 0.0311864 9.92838e-20)
(0.550715 0.0517896 -4.77139e-20)
(0.681349 0.0754965 1.24903e-19)
(0.803977 0.100282 -7.86335e-20)
(0.912481 0.124061 1.39464e-19)
(1.00288 0.145061 -3.22213e-19)
(1.0736 0.162079 1.1872e-19)
(1.12525 0.174581 -1.04107e-19)
(1.1601 0.182644 9.77831e-20)
(1.18137 0.186798 8.50133e-20)
(1.19255 0.18782 7.50864e-20)
(1.19684 0.18654 -2.09536e-19)
(1.19685 0.183704 1.30133e-19)
(1.19449 0.179897 -5.86586e-20)
(1.19099 0.175528 1.5519e-19)
(1.18709 0.170866 -4.99526e-20)
(1.18315 0.166007 -1.2494e-19)
(1.17936 0.161394 1.15817e-19)
(1.17601 0.155566 3.56752e-20)
(0.00878267 -0.000926298 0)
(0.0615042 -0.00554939 6.152e-22)
(0.146899 -0.00242798 1.31574e-19)
(0.258336 0.0080318 -1.23385e-19)
(0.388526 0.0254919 -1.10998e-19)
(0.528783 0.0490275 2.06242e-19)
(0.669439 0.0766291 -9.57517e-20)
(0.801207 0.105611 1.27628e-19)
(0.916646 0.13324 -2.67381e-21)
(1.01117 0.157282 -7.24687e-20)
(1.08332 0.176333 1.58457e-19)
(1.13433 0.189902 -2.34373e-19)
(1.16729 0.198274 0)
(1.18621 0.202245 -4.63822e-20)
(1.19512 0.202832 -1.24287e-19)
(1.1975 0.201036 3.91155e-20)
(1.19604 0.197693 1.33918e-21)
(1.19259 0.193422 -8.75915e-20)
(1.18828 0.188634 4.64683e-21)
(1.18376 0.18358 1.01696e-19)
(1.17934 0.178402 -4.59304e-20)
(1.17516 0.173173 -1.81943e-20)
(1.17124 0.168084 5.47234e-20)
(1.16771 0.162238 0)
(0.0193534 -0.00276762 0)
(0.0952322 -0.00753188 3.57258e-20)
(0.204911 -9.56359e-05 -1.72179e-19)
(0.339348 0.0174488 6.24628e-20)
(0.488209 0.0431672 -5.8789e-20)
(0.639889 0.0745451 -5.37611e-20)
(0.782926 0.108138 -9.49407e-20)
(0.908024 0.140347 4.73913e-20)
(1.00951 0.168256 4.11467e-20)
(1.0857 0.190112 0)
(1.13829 0.205389 9.45121e-20)
(1.17114 0.214555 -1.4121e-19)
(1.18901 0.218675 1.05055e-19)
(1.19654 0.219027 4.64051e-20)
(1.19758 0.216804 -3.84464e-20)
(1.19496 0.212963 -3.2405e-20)
(1.19055 0.208181 -3.0389e-20)
(1.18547 0.202896 9.03484e-20)
(1.18033 0.197366 0)
(1.17542 0.191734 4.63621e-20)
(1.17083 0.186081 3.98021e-20)
(1.16658 0.180455 -9.78969e-20)
(1.16261 0.174888 -6.85465e-20)
(1.15896 0.169002 6.32701e-20)
(0.0326243 -0.00373271 -3.89077e-20)
(0.135251 -0.00639916 -1.58918e-21)
(0.270626 0.00766016 3.50823e-20)
(0.426806 0.0340482 9.80579e-20)
(0.590185 0.0686677 2.85166e-20)
(0.746818 0.107142 -5.51662e-20)
(0.884896 0.14478 5.02936e-20)
(0.996925 0.177654 -4.40866e-20)
(1.08044 0.203381 7.93192e-20)
(1.13728 0.221241 3.38464e-20)
(1.17199 0.231825 -9.62237e-20)
(1.19015 0.236482 2.83661e-20)
(1.19713 0.236792 4.86552e-20)
(1.19727 0.234198 -2.39068e-20)
(1.19368 0.229824 0)
(1.18839 0.22445 3.59554e-20)
(1.18254 0.218562 6.12716e-20)
(1.17674 0.212443 1.07985e-20)
(1.17126 0.206245 -5.13686e-20)
(1.16621 0.20005 2.16772e-20)
(1.16157 0.193902 0)
(1.1573 0.187823 -1.73278e-20)
(1.15331 0.181782 -1.66651e-20)
(1.14956 0.175778 0)
(0.0485517 -0.00336505 0)
(0.180819 -0.00112359 2.04255e-20)
(0.341994 0.0219143 3.77203e-20)
(0.517001 0.0584103 -1.00245e-19)
(0.689356 0.101682 3.24694e-20)
(0.844127 0.145576 0)
(0.971046 0.184757 4.87964e-20)
(1.06601 0.215775 -6.81841e-20)
(1.13047 0.237417 -3.96959e-20)
(1.16947 0.250276 1.79151e-20)
(1.18952 0.255983 -2.88962e-20)
(1.19686 0.256491 7.0039e-20)
(1.19656 0.253575 3.51636e-20)
(1.1922 0.248607 -2.43884e-20)
(1.18606 0.242521 -2.22524e-21)
(1.17941 0.235887 -6.72995e-20)
(1.1729 0.22903 3.06946e-20)
(1.16681 0.22212 -8.24688e-22)
(1.16123 0.215244 0)
(1.15616 0.208451 -2.16999e-20)
(1.15154 0.201764 0)
(1.1473 0.195176 4.99962e-20)
(1.14334 0.188667 -5.98472e-20)
(1.13955 0.182456 2.74096e-20)
(0.0668633 -0.00120026 -1.07437e-20)
(0.230613 0.00920372 -5.15147e-20)
(0.416228 0.0433806 5.8687e-20)
(0.605745 0.0905213 3.43944e-20)
(0.780937 0.141276 -1.63883e-20)
(0.927778 0.188264 2.76306e-20)
(1.03933 0.226401 -1.3385e-20)
(1.11578 0.253489 2.23213e-20)
(1.16231 0.269861 0)
(1.18635 0.277385 5.07107e-20)
(1.19528 0.278464 -2.0888e-21)
(1.19515 0.275326 -4.09452e-20)
(1.19028 0.2697 1.75402e-20)
(1.18335 0.262753 -1.98225e-20)
(1.17588 0.255195 -7.55739e-21)
(1.1686 0.247415 8.7407e-21)
(1.16183 0.239615 -6.74462e-21)
(1.15567 0.231895 -3.69191e-20)
(1.15012 0.224304 2.26218e-20)
(1.14512 0.21687 4.64831e-21)
(1.1406 0.209599 4.11857e-21)
(1.13645 0.202467 3.65476e-21)
(1.13256 0.195509 0)
(1.12877 0.188979 0)
(0.0871037 0.00320091 1.07511e-20)
(0.282896 0.0252835 -1.07196e-20)
(0.4902 0.0723103 -1.95693e-20)
(0.689015 0.129773 0)
(0.861145 0.186084 -8.15559e-21)
(0.995448 0.233586 -7.38234e-21)
(1.08954 0.268399 -1.26198e-20)
(1.148 0.290115 0)
(1.17901 0.300668 0)
(1.19131 0.30296 0)
(1.19229 0.299829 0)
(1.18731 0.293515 0)
(1.17973 0.285547 -1.1007e-20)
(1.17144 0.276848 5.01007e-21)
(1.16337 0.267918 8.72718e-21)
(1.15588 0.25901 4.09156e-21)
(1.1491 0.25024 1.01174e-20)
(1.14303 0.241663 0)
(1.13763 0.233309 -2.44102e-21)
(1.13281 0.225188 -2.36395e-21)
(1.12847 0.217291 -4.12514e-21)
(1.12451 0.209591 -3.66061e-21)
(1.12076 0.202199 0)
(1.11709 0.195233 2.66758e-21)
(-0.000846966 -0.00867895 6.70908e-21)
(-0.00498457 -0.0199052 -6.96619e-21)
(-0.0129834 -0.0268108 -1.31933e-20)
(-0.0229837 -0.0304881 0)
(-0.0339326 -0.0318584 -1.76795e-20)
(-0.0452745 -0.0316648 5.56627e-21)
(-0.0566234 -0.0304605 -1.0457e-20)
(-0.0677138 -0.0286179 0)
(-0.0783785 -0.0263539 0)
(-0.0885164 -0.0237622 0)
(-0.0980668 -0.0208485 0)
(-0.106992 -0.0175638 0)
(-0.115264 -0.0138306 5.79448e-23)
(-0.122859 -0.00956288 -6.8541e-21)
(-0.129751 -0.00467806 1.27437e-20)
(-0.135909 0.00089594 1.79759e-20)
(-0.14131 0.00721777 5.52123e-21)
(-0.145932 0.0143245 0)
(-0.14976 0.0222379 4.95636e-21)
(-0.152808 0.0309649 -1.38009e-20)
(-0.155117 0.0404947 -8.54411e-21)
(-0.156747 0.0508147 -7.97614e-21)
(-0.157849 0.0619386 0)
(-0.158878 0.0738919 0)
(-0.00064668 -0.00516446 -2.0108e-20)
(-0.00458054 -0.0116226 3.47344e-20)
(-0.0124901 -0.0154266 -1.30161e-20)
(-0.0224306 -0.0171815 -2.48348e-20)
(-0.0332916 -0.0174743 3.51412e-20)
(-0.0444805 -0.0168077 -2.20876e-20)
(-0.0555889 -0.0155535 3.12293e-20)
(-0.0663386 -0.0139524 1.95035e-20)
(-0.0765565 -0.0121297 0)
(-0.0861387 -0.0101186 -1.74033e-20)
(-0.0950228 -0.00788829 1.35597e-23)
(-0.103169 -0.00537028 1.53899e-20)
(-0.110545 -0.00247938 2.14757e-20)
(-0.117125 0.000871493 2.687e-20)
(-0.122877 0.00476282 -1.2797e-20)
(-0.127766 0.00926472 -3.55643e-20)
(-0.131757 0.0144361 1.08554e-20)
(-0.134818 0.0203322 -4.10721e-20)
(-0.136922 0.0270044 0)
(-0.138071 0.0345064 9.13591e-21)
(-0.138284 0.0428973 8.53265e-21)
(-0.137558 0.0522482 7.96525e-21)
(-0.135948 0.0626746 0)
(-0.134243 0.0743142 0)
(-0.000846048 -0.00171086 0)
(-0.0049921 -0.00351748 6.89832e-20)
(-0.012867 -0.00433765 -2.60414e-20)
(-0.0225731 -0.00429334 2.47328e-20)
(-0.0330161 -0.00363194 -6.96798e-20)
(-0.0436065 -0.00260916 0)
(-0.0539392 -0.00141331 -4.127e-20)
(-0.0637404 -0.000153542 1.93315e-20)
(-0.0728408 0.00113427 -3.63754e-20)
(-0.08114 0.00247354 1.69263e-20)
(-0.0885774 0.00392808 9.63112e-20)
(-0.0951131 0.005583 -4.52226e-20)
(-0.100716 0.00752912 -7.06688e-20)
(-0.105355 0.0098527 -2.60831e-20)
(-0.108995 0.0126304 2.30402e-22)
(-0.111597 0.0159284 9.24663e-20)
(-0.113116 0.0198059 -4.32925e-20)
(-0.113504 0.0243216 4.5062e-22)
(-0.112711 0.0295426 0)
(-0.110707 0.0355563 -3.44866e-20)
(-0.10748 0.042484 0)
(-0.102957 0.0504944 -3.04147e-20)
(-0.0969692 0.0598406 1.12571e-19)
(-0.0904676 0.0708615 -1.776e-22)
(-0.00141206 0.00149671 0)
(-0.00616564 0.00400223 -2.70235e-23)
(-0.0140826 0.00592624 2.60103e-20)
(-0.0234187 0.00758424 -2.4553e-20)
(-0.0331584 0.00905017 2.31539e-20)
(-0.0427513 0.0103065 1.30805e-19)
(-0.0518205 0.0113426 -4.10419e-20)
(-0.0601129 0.0121757 -3.85122e-20)
(-0.0674732 0.0128551 7.25027e-20)
(-0.0738099 0.0134574 -1.02032e-19)
(-0.0790679 0.0140769 3.18128e-20)
(-0.0832102 0.0148138 2.97277e-20)
(-0.086206 0.0157636 0)
(-0.0880239 0.0170114 2.62659e-20)
(-0.0886278 0.0186285 0)
(-0.0879753 0.0206739 4.51174e-20)
(-0.0860167 0.0231977 -8.42816e-20)
(-0.0826938 0.0262492 2.06295e-20)
(-0.0779395 0.0298886 7.35996e-20)
(-0.0716909 0.0342058 3.44542e-20)
(-0.0639155 0.0393471 0)
(-0.0545259 0.0455754 -8.80577e-20)
(-0.0430663 0.0534186 2.78987e-20)
(-0.0298126 0.0637327 0)
(-0.00228726 0.00432633 0)
(-0.00799442 0.0106315 -8.25534e-20)
(-0.0160391 0.0149531 -2.61446e-20)
(-0.0249008 0.0179761 -4.90825e-20)
(-0.0336894 0.0200621 4.62174e-20)
(-0.0419245 0.0214135 -4.35591e-20)
(-0.0492783 0.0221846 8.17701e-20)
(-0.0555325 0.022511 3.83573e-20)
(-0.0605541 0.022521 -1.08323e-19)
(-0.0642652 0.022341 6.74653e-20)
(-0.0666178 0.022094 -9.49779e-20)
(-0.0675775 0.0218946 2.06692e-19)
(-0.0671139 0.0218442 -1.10908e-19)
(-0.0651938 0.0220281 5.13839e-20)
(-0.061779 0.0225147 1.43642e-19)
(-0.0568249 0.0233562 -4.59078e-20)
(-0.0502796 0.0245921 -4.22164e-20)
(-0.0420822 0.0262546 -3.93713e-20)
(-0.0321597 0.0283782 0)
(-0.0204346 0.0310152 -6.61122e-20)
(-0.00685094 0.0342701 -6.04307e-20)
(0.0087185 0.038416 8.67144e-20)
(0.026999 0.0442396 1.0575e-19)
(0.0480843 0.053238 -9.89936e-20)
(-0.00340376 0.00670408 0)
(-0.0103376 0.0161781 -1.10461e-19)
(-0.0185779 0.022462 -1.77673e-22)
(-0.0268641 0.0265394 9.82055e-20)
(-0.0344617 0.029021 0)
(-0.0409821 0.0303054 0)
(-0.0461632 0.0306963 0)
(-0.0498314 0.0304365 -3.82378e-20)
(-0.051881 0.0297267 2.51495e-22)
(-0.0522479 0.0287393 6.74625e-20)
(-0.050889 0.0276246 -9.42645e-20)
(-0.0477687 0.0265121 2.9554e-22)
(-0.0428507 0.0255115 0)
(-0.0360944 0.0247123 -5.13634e-20)
(-0.0274535 0.0241849 4.69009e-20)
(-0.0168765 0.0239819 -1.3302e-19)
(-0.00430718 0.0241399 1.6391e-19)
(0.0103147 0.0246815 3.63661e-20)
(0.0270557 0.0256188 -1.92406e-21)
(0.0459862 0.0269587 -1.31622e-19)
(0.0671483 0.0287181 -5.99985e-20)
(0.0906033 0.0310201 1.94545e-19)
(0.117051 0.0345898 -1.29147e-19)
(0.149152 0.0416003 0)
(-0.00469309 0.00860637 5.37906e-20)
(-0.0130313 0.0205517 5.52654e-20)
(-0.0214775 0.0282967 -5.24867e-20)
(-0.0290406 0.0330652 -9.85685e-20)
(-0.0351569 0.0356812 9.28125e-20)
(-0.0395437 0.0367163 -8.70794e-20)
(-0.0420133 0.0366063 1.22894e-19)
(-0.0424399 0.0356893 -3.81416e-20)
(-0.0407433 0.0342315 7.19852e-20)
(-0.0368676 0.0324478 0)
(-0.030766 0.0305152 6.22621e-20)
(-0.0223907 0.0285804 -1.17379e-19)
(-0.0116896 0.0267645 1.08704e-19)
(0.0013956 0.0251666 -1.021e-19)
(0.0169272 0.0238663 0)
(0.0349677 0.0229252 8.77637e-20)
(0.0555757 0.0223886 1.61255e-19)
(0.0788026 0.022286 -1.51712e-19)
(0.104689 0.0226304 -6.94014e-20)
(0.133262 0.023417 -6.37608e-20)
(0.164497 0.0246157 1.8002e-19)
(0.198488 0.0262014 5.36579e-20)
(0.234288 0.0283895 -5.11965e-20)
(0.282401 0.0341205 4.63886e-20)
(-0.00609103 0.0100451 -5.37979e-20)
(-0.0158905 0.0237379 1.67764e-19)
(-0.0244407 0.0324019 -5.27762e-20)
(-0.0310161 0.0374638 9.90779e-20)
(-0.0352284 0.0399327 -9.32914e-20)
(-0.0369048 0.0405323 3.676e-22)
(-0.0359315 0.0398142 4.12201e-20)
(-0.0322247 0.038201 1.53479e-19)
(-0.0257188 0.0360181 -7.89584e-22)
(-0.0163533 0.0335211 -6.7549e-20)
(-0.0040636 0.0309149 0)
(0.0112216 0.0283668 -5.78572e-20)
(0.0295784 0.0260145 1.09311e-19)
(0.0510822 0.0239724 1.00628e-19)
(0.0758001 0.0223345 -4.76007e-20)
(0.103783 0.0211777 -2.31493e-22)
(0.135054 0.0205624 -4.05154e-20)
(0.169603 0.0205316 7.45138e-20)
(0.207373 0.0211103 6.93889e-20)
(0.24828 0.0223106 -6.41263e-20)
(0.291955 0.0240629 5.87501e-20)
(0.339415 0.0265694 -5.4169e-20)
(0.384387 0.0287794 0)
(0.453297 0.0354621 -4.63287e-20)
(-0.00753452 0.0110473 5.4593e-20)
(-0.0186977 0.0257624 -5.60972e-20)
(-0.0270724 0.0347893 5.33899e-20)
(-0.0321939 0.039739 0)
(-0.0338465 0.0417868 0)
(-0.0319625 0.0417915 8.82996e-20)
(-0.0264911 0.040407 -8.25931e-20)
(-0.0173757 0.0381311 7.67469e-20)
(-0.00455005 0.0353446 -3.60288e-19)
(0.0120645 0.0323438 4.38096e-22)
(0.0325559 0.0293649 6.27371e-20)
(0.0570127 0.0265999 0)
(0.0855105 0.0242077 -1.08051e-19)
(0.118097 0.0223203 2.0181e-19)
(0.154774 0.0210465 -1.41116e-19)
(0.195484 0.0204734 -2.15877e-19)
(0.240094 0.0206659 2.3118e-21)
(0.288388 0.0216662 1.49405e-19)
(0.340046 0.0234857 0)
(0.394807 0.0261758 0)
(0.451343 0.0294064 -5.87445e-20)
(0.512994 0.0342613 5.41625e-20)
(0.564613 0.0374242 -1.97386e-19)
(0.653102 0.0472058 1.8526e-19)
(-0.00895153 0.0116357 0)
(-0.0211817 0.0266562 0)
(-0.0288517 0.0355013 -1.60652e-19)
(-0.0317617 0.0399594 5.10536e-20)
(-0.029863 0.0413584 4.17362e-22)
(-0.0231803 0.0406789 8.94728e-20)
(-0.0117108 0.0386676 0)
(0.00458986 0.0358908 -7.76675e-20)
(0.0257945 0.032783 7.21896e-20)
(0.0519892 0.0296826 -1.34443e-19)
(0.0832507 0.026859 5.36987e-22)
(0.119619 0.0245301 1.16253e-19)
(0.161069 0.0228721 -1.21225e-21)
(0.207479 0.0220241 9.89604e-20)
(0.258614 0.0220899 -1.41456e-19)
(0.314106 0.023137 0)
(0.373451 0.0251955 1.5898e-19)
(0.436019 0.0282594 -2.23408e-19)
(0.501016 0.0322562 6.82172e-20)
(0.567902 0.0372682 0)
(0.634242 0.0425212 5.81431e-20)
(0.705202 0.0500266 2.13885e-19)
(0.759591 0.0543522 -2.00723e-19)
(0.855356 0.0671382 -2.30734e-19)
(-0.0102468 0.0118159 1.67983e-19)
(-0.0229907 0.0264329 -2.31308e-19)
(-0.0291074 0.034591 3.71719e-22)
(-0.0286786 0.0382475 5.15208e-20)
(-0.0218184 0.0388678 -9.61064e-20)
(-0.00863143 0.0375456 -8.90247e-20)
(0.0108431 0.035114 1.66382e-19)
(0.0366288 0.0322013 -1.72324e-21)
(0.06877 0.0292934 -1.45941e-19)
(0.107285 0.0267677 2.70095e-19)
(0.152118 0.0249191 -1.45467e-21)
(0.203088 0.0239743 -1.17702e-19)
(0.259848 0.0240984 0)
(0.321856 0.025396 0)
(0.388368 0.0279104 -4.67154e-20)
(0.458447 0.0316227 -8.62388e-20)
(0.530994 0.036453 -1.5844e-19)
(0.604795 0.0422646 1.48723e-19)
(0.678547 0.0488512 -6.8241e-20)
(0.751185 0.056122 1.24617e-19)
(0.820407 0.0632935 -6.01238e-20)
(0.889666 0.0719366 1.04917e-19)
(0.942248 0.077106 -2.49022e-19)
(1.02524 0.0898129 4.57464e-20)
(-0.0112862 0.0115726 5.67146e-20)
(-0.0236639 0.0250876 0)
(-0.0269916 0.0321278 1.10157e-19)
(-0.0216671 0.0347925 -1.03773e-19)
(-0.00797218 0.0346673 9.61934e-20)
(0.0139069 0.0329522 0)
(0.0438675 0.0305459 0)
(0.0818359 0.0281346 -7.80539e-20)
(0.127707 0.0262437 1.45579e-21)
(0.181246 0.0252657 6.88795e-20)
(0.242011 0.0254835 -6.25775e-20)
(0.309303 0.0270796 1.18077e-19)
(0.382129 0.0301376 0)
(0.459219 0.0346427 2.00125e-19)
(0.539065 0.0404852 -3.7294e-19)
(0.619995 0.0474669 2.60009e-19)
(0.700265 0.055318 1.57659e-19)
(0.778152 0.0636992 -1.47994e-19)
(0.852092 0.0722877 0)
(0.92062 0.080612 0)
(0.982758 0.0885187 0)
(1.0382 0.0955531 0)
(1.08267 0.100946 4.93136e-20)
(1.13569 0.108404 -1.82875e-19)
(-0.160677 0.0885512 -4.97088e-21)
(-0.162714 0.106293 4.99392e-21)
(-0.163681 0.124711 -1.48246e-22)
(-0.16372 0.143254 0)
(-0.16275 0.161247 -4.51468e-21)
(-0.160667 0.177877 8.77714e-21)
(-0.157393 0.192168 1.01345e-23)
(-0.15283 0.202978 -4.157e-21)
(-0.14684 0.209019 0)
(-0.139306 0.209023 0)
(-0.130079 0.201538 -2.55101e-22)
(-0.118952 0.18519 -2.5482e-22)
(-0.105703 0.158741 -4.223e-21)
(-0.0902108 0.121308 3.85668e-21)
(-0.0720079 0.0721241 0)
(-0.0514174 0.0125836 0)
(-0.0288962 -0.0563878 3.61719e-21)
(-0.00521484 -0.131466 -1.17937e-22)
(0.0184378 -0.208487 -3.0908e-21)
(0.0401961 -0.282516 -1.89655e-22)
(0.0567715 -0.348919 0)
(0.0652801 -0.40425 0)
(0.0642836 -0.446568 0)
(0.0559782 -0.473766 0)
(0.0478192 -0.480222 0)
(0.0509443 -0.455892 0)
(0.0747634 -0.391279 6.07193e-22)
(0.120559 -0.28573 -9.36086e-22)
(0.181875 -0.149203 0)
(0.25019 0.000891653 0)
(0.319268 0.144767 -6.7976e-22)
(0.382853 0.263038 6.60621e-22)
(0.434382 0.343998 2.40117e-22)
(0.468512 0.387666 0)
(0.475656 0.407613 0)
(0.444379 0.422092 2.49385e-22)
(0.385508 0.428046 -2.42423e-22)
(0.343726 0.392355 0)
(0.358063 0.289251 2.6422e-22)
(0.42136 0.138852 -4.0182e-22)
(0.503515 -0.0128833 1.31351e-22)
(0.58183 -0.132044 0)
(0.642629 -0.206385 -1.19482e-22)
(0.684374 -0.238484 1.1618e-22)
(0.706767 -0.239031 0)
(0.708003 -0.22354 0)
(0.682179 -0.203232 -4.46091e-25)
(0.648493 -0.17571 -6.32063e-24)
(0.630092 -0.132764 0)
(0.647387 -0.0747982 0)
(0.68353 -0.0163168 1.33803e-24)
(0.731006 0.0326619 1.92202e-24)
(0.763672 0.0613213 -1.55153e-24)
(0.792689 0.0787449 -6.09858e-24)
(0.797822 0.0779358 0)
(0.808304 0.0756311 0)
(0.803316 0.058885 0)
(0.818633 0.0432248 0)
(0.821089 0.0246748 0)
(0.848328 0.000255414 0)
(-0.134143 0.0889421 -4.63469e-22)
(-0.134388 0.105804 -1.9277e-20)
(-0.133143 0.123251 1.59001e-22)
(-0.130721 0.140829 1.79427e-20)
(-0.12703 0.157855 2.75398e-22)
(-0.121921 0.173532 0)
(-0.115288 0.186888 -1.69906e-20)
(-0.107031 0.196747 3.38732e-20)
(-0.0968724 0.20169 -1.68837e-20)
(-0.0847139 0.200648 1.70171e-20)
(-0.070465 0.192025 -1.62851e-20)
(-0.053969 0.174422 1.6877e-20)
(-0.0351134 0.146591 -1.64245e-20)
(-0.0142845 0.107655 -5.48448e-22)
(0.00912746 0.0573469 -1.70281e-20)
(0.0347871 -0.0036882 1.65479e-20)
(0.0614744 -0.073348 -1.59065e-20)
(0.0884929 -0.148659 1.49642e-20)
(0.114357 -0.224587 -1.37535e-20)
(0.136878 -0.296031 2.53268e-20)
(0.152705 -0.357724 -1.16385e-20)
(0.158088 -0.406461 -5.88883e-22)
(0.150042 -0.441929 -7.26683e-21)
(0.1285 -0.464716 1.32193e-20)
(0.0993874 -0.472512 -5.98385e-21)
(0.0750473 -0.456605 2.94235e-22)
(0.0700052 -0.405133 5.3406e-21)
(0.0918809 -0.311497 4.98791e-22)
(0.138268 -0.182032 -1.06122e-20)
(0.199387 -0.0343351 1.05003e-20)
(0.266038 0.110313 -5.08443e-21)
(0.330223 0.233129 5.07301e-22)
(0.384348 0.32211 -2.40625e-22)
(0.419868 0.377629 3.66851e-22)
(0.424715 0.412837 0)
(0.393306 0.43967 0)
(0.347668 0.44497 -1.12373e-21)
(0.333403 0.394125 7.82422e-22)
(0.37415 0.273003 9.35334e-22)
(0.452986 0.112363 1.20803e-22)
(0.541992 -0.0410174 -1.31201e-21)
(0.62139 -0.155788 2.36026e-22)
(0.679564 -0.223247 0)
(0.716418 -0.2488 0)
(0.735321 -0.243339 0)
(0.7387 -0.221038 0)
(0.717672 -0.195141 -1.10473e-24)
(0.682157 -0.167427 6.76106e-24)
(0.650924 -0.130418 0)
(0.650268 -0.0797262 0)
(0.671937 -0.0255019 0)
(0.711018 0.0234085 1.12975e-23)
(0.740695 0.0542542 4.01392e-24)
(0.768926 0.0747103 9.99384e-24)
(0.777039 0.0759749 0)
(0.790824 0.0745246 0)
(0.793858 0.0572773 -7.54585e-24)
(0.814533 0.0408285 -1.55058e-23)
(0.82412 0.0214498 0)
(0.854719 -0.00255297 0)
(-0.0871481 0.0855335 2.72783e-22)
(-0.0855952 0.101548 -3.76381e-20)
(-0.0819486 0.11808 3.73031e-20)
(-0.0768601 0.134682 -3.48906e-20)
(-0.0702761 0.150735 -2.77282e-22)
(-0.0620089 0.165457 0)
(-0.051958 0.17786 -3.51446e-20)
(-0.0401625 0.186763 3.4442e-20)
(-0.0261149 0.190926 2.66825e-22)
(-0.00954151 0.189078 5.48472e-22)
(0.00933312 0.179619 5.57152e-22)
(0.0306241 0.161161 5.44152e-22)
(0.0543294 0.132479 -3.67875e-20)
(0.0801294 0.0926521 3.63021e-20)
(0.107876 0.0420511 0)
(0.137176 -0.0194377 1.14723e-21)
(0.167016 -0.0891615 -3.42149e-20)
(0.196291 -0.163938 3.37415e-20)
(0.223457 -0.238656 0)
(0.246224 -0.307402 0)
(0.261325 -0.364389 -2.20823e-20)
(0.264917 -0.406064 3.95241e-20)
(0.253302 -0.432816 -3.12874e-20)
(0.22408 -0.44799 2.71283e-21)
(0.179794 -0.453427 2.03711e-20)
(0.130939 -0.443504 -1.80016e-20)
(0.0952071 -0.405942 1.59169e-20)
(0.0870944 -0.328765 -5.95888e-24)
(0.11123 -0.211669 -8.10437e-21)
(0.159478 -0.0696249 0)
(0.220209 0.0747774 0)
(0.282699 0.201861 2.63933e-21)
(0.336761 0.299554 -3.47268e-21)
(0.371273 0.368108 -3.05675e-23)
(0.37497 0.418061 2.46348e-21)
(0.349532 0.453635 -2.39413e-21)
(0.324043 0.454092 0)
(0.338146 0.387783 3.11152e-22)
(0.401118 0.252083 3.31193e-21)
(0.492059 0.0845568 -6.44554e-21)
(0.585511 -0.0685665 2.70464e-21)
(0.663908 -0.178065 2.82795e-22)
(0.718143 -0.238308 -1.49433e-21)
(0.749405 -0.257539 1.10423e-21)
(0.763075 -0.247325 1.16369e-22)
(0.766094 -0.219823 4.25523e-23)
(0.750191 -0.188334 1.10749e-24)
(0.717471 -0.158283 0)
(0.679274 -0.124823 0)
(0.663274 -0.0807685 1.50175e-22)
(0.66959 -0.0317693 -6.40427e-23)
(0.697745 0.0157043 5.95583e-23)
(0.722702 0.0477366 -7.35084e-23)
(0.749228 0.0704457 -9.82911e-23)
(0.761021 0.0732486 2.14452e-23)
(0.778852 0.0721515 -3.98454e-23)
(0.790804 0.0542668 3.11397e-23)
(0.816592 0.037224 -9.3878e-24)
(0.832823 0.0172936 0)
(0.865427 -0.00561552 0)
(-0.0222456 0.0779896 -7.5699e-20)
(-0.0193391 0.093348 4.23906e-22)
(-0.0136413 0.10884 7.13826e-20)
(-0.00613329 0.124402 -5.59546e-22)
(0.00316937 0.139524 0)
(0.0143738 0.153356 0)
(0.0275826 0.164867 -7.09981e-20)
(0.0428502 0.172909 -3.11643e-21)
(0.0604785 0.176513 1.05655e-19)
(0.0807453 0.1741 1.09889e-21)
(0.10352 0.164204 -3.62016e-20)
(0.128815 0.145463 -3.69334e-20)
(0.156483 0.116676 3.70308e-20)
(0.186154 0.0769497 0)
(0.217317 0.0263342 -3.87441e-20)
(0.249492 -0.0346028 3.52854e-20)
(0.281717 -0.103623 0)
(0.31254 -0.177413 0)
(0.340316 -0.250701 3.01638e-20)
(0.362601 -0.316996 -3.14887e-21)
(0.376265 -0.36978 -2.46784e-20)
(0.378001 -0.404736 -1.82038e-20)
(0.364562 -0.422235 1.80428e-20)
(0.332565 -0.427345 -1.09661e-20)
(0.281024 -0.42593 2.38038e-21)
(0.215534 -0.417343 7.97158e-21)
(0.152432 -0.391334 7.64434e-22)
(0.111392 -0.332757 1.39692e-22)
(0.105838 -0.233535 0)
(0.133761 -0.102407 6.46991e-21)
(0.183178 0.039482 -6.62343e-21)
(0.24022 0.170169 4.27834e-22)
(0.291604 0.276934 0)
(0.324595 0.358537 -3.40529e-22)
(0.330587 0.421128 4.91164e-21)
(0.317408 0.461556 -9.31602e-21)
(0.316135 0.454815 -1.46849e-21)
(0.356536 0.37484 -8.74832e-22)
(0.437572 0.228353 5.42789e-21)
(0.537767 0.056844 7.79415e-22)
(0.633384 -0.0947069 -5.09561e-21)
(0.708655 -0.198393 4.42903e-21)
(0.757473 -0.251425 -2.41388e-23)
(0.782733 -0.264553 7.05351e-22)
(0.790467 -0.250465 -8.02447e-22)
(0.790826 -0.219446 -1.9963e-22)
(0.778747 -0.183274 8.60169e-23)
(0.751555 -0.149642 -1.7743e-22)
(0.712191 -0.117285 3.71575e-22)
(0.685324 -0.0784051 -2.7813e-22)
(0.677386 -0.0348724 6.04666e-23)
(0.693227 0.00996832 -7.93069e-23)
(0.71214 0.0420289 -7.32518e-23)
(0.736169 0.0659656 1.58699e-22)
(0.751994 0.0696275 -2.8486e-24)
(0.774123 0.0684023 3.80327e-23)
(0.794877 0.0498697 0)
(0.824876 0.0325521 1.32591e-23)
(0.846565 0.0124288 -4.2843e-24)
(0.879568 -0.00879398 0)
(0.0588778 0.0668647 7.48729e-20)
(0.0631165 0.0817957 -1.46434e-19)
(0.0695869 0.0961993 7.07518e-20)
(0.0787452 0.110625 7.10207e-20)
(0.090047 0.124769 -1.40175e-19)
(0.103435 0.137758 -1.46948e-21)
(0.119043 0.148518 6.92029e-20)
(0.137006 0.15592 7.21451e-20)
(0.157493 0.158943 -7.0678e-20)
(0.180698 0.156167 0)
(0.206563 0.146209 -7.70165e-20)
(0.234988 0.127696 1.53606e-19)
(0.265722 0.0994192 -7.6523e-20)
(0.298327 0.0604372 0)
(0.332309 0.0103838 0)
(0.366887 -0.0488231 1.21675e-21)
(0.400977 -0.116368 -7.50619e-20)
(0.43294 -0.188599 7.29143e-20)
(0.460863 -0.260045 0)
(0.482016 -0.323759 5.54864e-20)
(0.493303 -0.37265 -9.64925e-20)
(0.491966 -0.40196 7.81783e-20)
(0.476055 -0.411675 -6.17467e-20)
(0.443301 -0.406828 6.33946e-21)
(0.391112 -0.395575 3.35684e-20)
(0.319398 -0.382658 -1.39858e-20)
(0.238351 -0.362886 -3.2652e-22)
(0.167624 -0.321145 -3.46627e-21)
(0.128238 -0.243028 -3.05945e-22)
(0.128139 -0.128283 3.8491e-21)
(0.159123 0.00672186 3.41164e-22)
(0.205764 0.139075 -4.6089e-21)
(0.252036 0.253929 9.03154e-21)
(0.284193 0.347146 -4.92083e-21)
(0.29643 0.419566 0)
(0.300157 0.461833 -5.9839e-21)
(0.323874 0.447647 5.91111e-21)
(0.386854 0.357045 -6.35438e-21)
(0.482314 0.203169 7.91607e-21)
(0.589141 0.0299933 -9.39545e-22)
(0.684648 -0.118799 0)
(0.754918 -0.216249 -6.03423e-22)
(0.796843 -0.26235 1.20451e-21)
(0.81564 -0.26979 0)
(0.817476 -0.252443 9.50233e-22)
(0.813708 -0.219341 -4.92726e-22)
(0.803324 -0.17993 -1.79911e-23)
(0.78235 -0.142479 -8.77364e-23)
(0.746453 -0.109225 0)
(0.714156 -0.0735827 0)
(0.69502 -0.0350185 2.87557e-22)
(0.698765 0.00638074 -4.43827e-22)
(0.710999 0.0373122 2.32849e-22)
(0.731924 0.0613234 -7.15857e-23)
(0.751602 0.0651039 -1.07256e-22)
(0.777661 0.0633478 -3.80689e-23)
(0.806065 0.044279 4.5363e-23)
(0.838838 0.0270797 0)
(0.864304 0.00715484 1.08699e-23)
(0.896054 -0.0119318 2.32085e-24)
(0.161163 0.0548786 7.47761e-20)
(0.164915 0.0689773 -7.42191e-20)
(0.169813 0.0820554 5.64011e-22)
(0.178421 0.0949564 -5.46122e-22)
(0.189987 0.107783 5.5054e-22)
(0.204012 0.11972 -5.49687e-22)
(0.220557 0.129636 1.09297e-21)
(0.239825 0.136413 0)
(0.261939 0.138995 -1.13095e-21)
(0.286982 0.1361 1.15876e-21)
(0.314881 0.126378 1.1898e-21)
(0.345458 0.108499 -1.22444e-21)
(0.378347 0.0812643 0)
(0.412865 0.0436638 0)
(0.449345 -0.0044194 1.26798e-21)
(0.486104 -0.0616741 0)
(0.521439 -0.127208 -1.21641e-21)
(0.554187 -0.197172 0)
(0.581876 -0.266098 -6.1633e-20)
(0.601331 -0.326759 1.14718e-19)
(0.609295 -0.371849 -9.64082e-20)
(0.603515 -0.39661 4.35531e-20)
(0.58349 -0.400699 2.6119e-20)
(0.549146 -0.388244 -2.53653e-20)
(0.499043 -0.367217 -1.27334e-20)
(0.429712 -0.345768 1.22237e-20)
(0.343211 -0.325296 0)
(0.253026 -0.294957 7.33041e-23)
(0.182282 -0.237433 0)
(0.149339 -0.143364 0)
(0.154886 -0.0209951 5.11596e-21)
(0.185467 0.109435 -5.13297e-21)
(0.223861 0.229753 3.07525e-22)
(0.255735 0.332055 5.03028e-22)
(0.276915 0.411616 -4.54396e-22)
(0.299394 0.454132 -5.48244e-21)
(0.346034 0.433845 5.3229e-21)
(0.427237 0.336025 -8.77338e-21)
(0.533886 0.177709 7.65381e-21)
(0.64497 0.00423108 1.96088e-21)
(0.738283 -0.140262 -5.92405e-21)
(0.801903 -0.231174 8.27811e-22)
(0.83569 -0.270851 3.30627e-21)
(0.847493 -0.273278 0)
(0.84376 -0.253192 -5.35329e-22)
(0.835359 -0.219031 6.32705e-23)
(0.824572 -0.17793 -1.51366e-22)
(0.808846 -0.137269 8.82923e-23)
(0.779195 -0.10189 0)
(0.74671 -0.0675305 -1.21138e-22)