/*--------------------------------*- C++ -*----------------------------------*\
| =========                 |                                                 |
| \\      /  F ield         | OpenFOAM: The Open Source CFD Toolbox           |
|  \\    /   O peration     | Version:  2512                                  |
|   \\  /    A nd           | Website:  www.openfoam.com                      |
|    \\/     M anipulation  |                                                 |
\*---------------------------------------------------------------------------*/
FoamFile
{
    version     2.0;
    format      ascii;
    arch        "LSB;label=32;scalar=64";
    class       surfaceScalarField;
    location    "42.75";
    object      phi;
}
// * * * * * * * * * * * * * * * * * * * * * * * * * * * * * * * * * * * * * //

dimensions      [0 3 -1 0 0 0 0];

oriented        oriented;

internalField   nonuniform List<scalar> 
26232
(
5.09968e-05
0.000966695
-0.00101769
0.000363854
0.00193449
-0.00224735
0.00107869
0.0020739
-0.00278874
0.00232719
0.00143225
-0.00268074
0.00424059
3.89698e-05
-0.00195237
0.00695335
-0.00209156
-0.000621203
0.0105973
-0.00494893
0.00130497
0.0152954
-0.00852369
0.00382555
0.0211491
-0.0127952
0.00694158
0.0282239
-0.0177238
0.0106491
0.0365357
-0.0232449
0.0149331
0.0460401
-0.0292669
0.0197625
0.0566268
-0.0356735
0.0250868
0.0681213
-0.0423297
0.0308351
0.0802938
-0.0490907
0.0369182
0.0928733
-0.0558117
0.0432322
0.105568
-0.0623584
0.049664
0.118085
-0.0686168
0.0560992
0.130157
-0.0744967
0.0624249
0.141558
-0.0799526
0.0685522
0.152108
-0.0849321
0.0743817
0.161699
-0.089531
0.0799396
0.170183
-0.0935264
0.0850426
-0.0975519
0.0904999
0.177235
8.60498e-05
0.000880645
0.000536296
0.00148424
0.0015219
0.0010883
0.00320352
-0.000249377
0.00573878
-0.00249629
0.00927698
-0.00562976
0.0139514
-0.00962334
0.0198615
-0.0144338
0.0270556
-0.0199893
0.0355141
-0.0261823
0.0451395
-0.0328703
0.0557553
-0.0398827
0.0671154
-0.0470335
0.0789223
-0.0541367
0.0908534
-0.0610218
0.102589
-0.0675473
0.113841
-0.0736108
0.124379
-0.0791542
0.134046
-0.0841643
0.142765
-0.0886717
0.150561
-0.0927271
0.157483
-0.0964536
0.163758
-0.0998011
-0.103298
0.169504
0.00014133
0.000739315
0.000781691
0.000843881
0.0021201
-0.000250104
0.00434183
-0.00247111
0.00761894
-0.0057734
0.0120977
-0.0101086
0.017879
-0.0154046
0.0249951
-0.0215499
0.0333909
-0.028385
0.0429147
-0.0357062
0.0533242
-0.0432798
0.0643057
-0.0508642
0.0755057
-0.0582336
0.0865686
-0.0651996
0.0971734
-0.0716266
0.107066
-0.0774401
0.116082
-0.0826263
0.124153
-0.0872257
0.131309
-0.0913197
0.137653
-0.0950161
0.14335
-0.0984242
0.148569
-0.101673
0.153534
-0.104766
-0.108079
0.158315
0.000218482
0.000520833
0.00110389
-4.15221e-05
0.00287535
-0.00202157
0.00573052
-0.00532627
0.00983476
-0.00987764
0.0152968
-0.0155706
0.02214
-0.0222479
0.0302799
-0.0296898
0.039516
-0.0376212
0.0495455
-0.0457357
0.0599957
-0.05373
0.07047
-0.0613384
0.0805968
-0.0683604
0.0900737
-0.0746764
0.0986974
-0.0802503
0.106377
-0.08512
0.113131
-0.0893797
0.119062
-0.0931572
0.124334
-0.0965909
0.129128
-0.0998108
0.133626
-0.102922
0.13797
-0.106017
0.142301
-0.109097
-0.112404
0.146625
0.000316871
0.000203963
0.00149757
-0.00122223
0.00376812
-0.00429212
0.00731728
-0.00887542
0.0122705
-0.0148309
0.0186541
-0.0219542
0.0263658
-0.0299596
0.0351668
-0.0384907
0.0447019
-0.0471563
0.0545471
-0.0555809
0.0642706
-0.0634535
0.0734944
-0.0705622
0.0819412
-0.0768072
0.0894598
-0.0821951
0.0960256
-0.0868161
0.101719
-0.0908139
0.106693
-0.0943535
0.11113
-0.0975942
0.11521
-0.100671
0.119086
-0.103686
0.122874
-0.10671
0.126646
-0.109789
0.130468
-0.112919
-0.116252
0.134317
0.000434262
-0.000230299
0.00195026
-0.00273822
0.00476063
-0.00710249
0.00901444
-0.0131292
0.0147547
-0.0205711
0.0218783
-0.0290778
0.0301227
-0.038204
0.0390907
-0.0474588
0.0483121
-0.0563777
0.0573221
-0.0645909
0.0657353
-0.0718667
0.0732951
-0.078122
0.0798924
-0.0834045
0.0855518
-0.0878545
0.0903965
-0.0916608
0.0946029
-0.0950203
0.098358
-0.0981086
0.101828
-0.101064
0.105143
-0.103986
0.108395
-0.106938
0.111643
-0.109957
0.114919
-0.113065
0.118259
-0.116259
-0.119621
0.121627
0.000567149
-0.000797448
0.00244296
-0.00461404
0.00579894
-0.0104585
0.0107056
-0.0180359
0.0170786
-0.026944
0.024651
-0.0366503
0.0329969
-0.0465499
0.0416034
-0.0560652
0.0499683
-0.0647426
0.0576888
-0.0723114
0.0645156
-0.0786935
0.0703648
-0.0839712
0.0752923
-0.0883321
0.0794465
-0.0920087
0.0830153
-0.0952296
0.0861832
-0.0981882
0.0891048
-0.10103
0.0918944
-0.103854
0.0946291
-0.106721
0.0973572
-0.109666
0.100107
-0.112707
0.102895
-0.115852
0.105736
-0.1191
-0.122486
0.108601
0.00071053
-0.00150798
0.00295026
-0.00685377
0.00681529
-0.0143235
0.0122557
-0.0234764
0.0190242
-0.0337125
0.0266835
-0.0443095
0.034683
-0.0545494
0.0424749
-0.0638571
0.0496219
-0.0718896
0.0558613
-0.0785508
0.0611146
-0.0839467
0.065452
-0.0883086
0.069035
-0.0919151
0.0720579
-0.0950316
0.0747035
-0.0978751
0.077119
-0.100604
0.0794098
-0.103321
0.0816448
-0.106089
0.0838659
-0.108942
0.0860974
-0.111898
0.088353
-0.114963
0.0906395
-0.118139
0.0929642
-0.121424
-0.124828
0.0953055
0.000857434
-0.00236541
0.00344062
-0.00943696
0.00773268
-0.0186156
0.0135269
-0.0292706
0.0203993
-0.0405848
0.027772
-0.0516823
0.0350434
-0.0618208
0.0417206
-0.0705343
0.0475019
-0.0776709
0.0522912
-0.0833401
0.0561566
-0.0878121
0.0592642
-0.0914163
0.0618129
-0.0944638
0.0639867
-0.0972053
0.0659308
-0.0998192
0.067747
-0.10242
0.0695001
-0.105074
0.0712283
-0.107817
0.0729534
-0.110667
0.0746875
-0.113632
0.0764373
-0.116713
0.0782064
-0.119908
0.0799968
-0.123215
-0.126626
0.0817948
0.00099888
-0.00336429
0.00387831
-0.0123164
0.00847329
-0.0232105
0.0143989
-0.0351962
0.0210709
-0.0472568
0.0278324
-0.0584438
0.0341138
-0.0681022
0.039545
-0.0759655
0.0439851
-0.082111
0.0474818
-0.0868368
0.0501972
-0.0905275
0.0523334
-0.0935525
0.0540791
-0.0962096
0.0555829
-0.098709
0.0569473
-0.101184
0.0582365
-0.103709
0.0594877
-0.106325
0.0607214
-0.109051
0.0619492
-0.111895
0.0631773
-0.11486
0.0644095
-0.117945
0.0656474
-0.121146
0.0668903
-0.124458
-0.127866
0.0681308
0.00112504
-0.00448933
0.00422844
-0.0154198
0.00897043
-0.0279525
0.0147889
-0.0410147
0.0209848
-0.0534528
0.0268976
-0.0643566
0.0320578
-0.0732624
0.0362475
-0.0801552
0.0394703
-0.0853338
0.0418718
-0.0892382
0.0436546
-0.0923103
0.0450149
-0.0949128
0.0461089
-0.0973036
0.0470449
-0.0996451
0.0478901
-0.102029
0.0486824
-0.104501
0.0494425
-0.107085
0.0501817
-0.10979
0.0509066
-0.11262
0.0516209
-0.115574
0.0523268
-0.118651
0.0530244
-0.121844
0.0537114
-0.125145
-0.128539
0.0543842
0.00122903
-0.00571836
0.00446465
-0.0186554
0.00917998
-0.0326678
0.0146627
-0.0464974
0.0201642
-0.0589543
0.0250896
-0.0692821
0.0291071
-0.0772799
0.0321441
-0.0831922
0.0343102
-0.0874999
0.035801
-0.0907291
0.0368206
-0.0933299
0.0375374
-0.0956295
0.0380698
-0.097836
0.0384916
-0.100067
0.0388444
-0.102382
0.03915
-0.104807
0.03942
-0.107355
0.0396609
-0.110031
0.0398769
-0.112836
0.0400707
-0.115768
0.0402439
-0.118824
0.0403964
-0.121996
0.0405254
-0.125274
0.0406307
-0.128644
-0.000195577
0.000603494
-0.000407917
-0.000685872
0.00146548
-0.000975182
-0.00141002
0.00209184
-0.0013677
-0.00232078
0.00253328
-0.00162252
-0.00338078
0.00283183
-0.00177183
-0.00456076
0.0030232
-0.00184322
-0.00583819
0.00313614
-0.00185871
-0.00719593
0.00319187
-0.00183413
-0.00862096
0.00320421
-0.00177918
-0.0101032
0.00318033
-0.00169805
-0.0116347
0.00312177
-0.00159035
-0.0132081
0.00302568
-0.00145226
-0.0148166
0.00288607
-0.00127758
-0.0164528
0.00269487
-0.00105868
-0.0181085
0.00244285
-0.000787159
-0.0197748
0.00212044
-0.000454105
-0.0214457
0.0017186
-4.77409e-05
-0.0231048
0.00123101
0.000428168
-0.024749
0.000650955
0.000993211
-0.0263752
-2.1935e-05
0.00164819
-0.0279874
-0.00078541
0.00239753
-0.0296007
-0.00163138
0.00324467
-0.0312484
-0.00254648
0.00419418
-0.00351184
-0.0329878
0.00525124
-0.000175401
0.000778896
-0.00062021
0.00191029
-0.00128209
0.00275372
-0.00211899
0.00337018
-0.00309646
0.0038093
-0.0041866
0.00411334
-0.0053672
0.00431675
-0.00662085
0.00444551
-0.00793401
0.00451738
-0.00929617
0.00454249
-0.0106989
0.00452451
-0.012135
0.00446183
-0.0135979
0.00434892
-0.0150805
0.00417747
-0.0165751
0.00393745
-0.0180727
0.00361809
-0.0195632
0.00320902
-0.0210338
0.00270161
-0.0224733
0.00209044
-0.0238711
0.00137593
-0.0252201
0.000563598
-0.0265307
-0.000320772
-0.0278291
-0.0012481
-0.00215604
-0.0291849
-0.000145951
0.000924847
-0.000522708
0.00228704
-0.00108869
0.00331969
-0.00180804
0.00408954
-0.00264958
0.00465084
-0.00358659
0.00505035
-0.00459655
0.00532671
-0.00566078
0.00550974
-0.00676391
0.00562051
-0.00789332
0.0056719
-0.00903843
0.00566962
-0.01019
0.00561342
-0.0113395
0.00549839
-0.0124781
0.00531606
-0.0135961
0.00505551
-0.0146824
0.00470432
-0.015723
0.00424967
-0.0167012
0.00367977
-0.0175967
0.00298596
-0.0183868
0.00216604
-0.0190514
0.0012282
-0.0195652
0.000193043
-0.0199443
-0.000868988
-0.00185944
-0.0202409
-0.000110351
0.0010352
-0.000402702
0.00257939
-0.000846765
0.00376376
-0.00141296
0.00465573
-0.00207316
0.00531104
-0.00280132
0.00577851
-0.00357385
0.00609923
-0.00436966
0.00630555
-0.00517002
0.00642088
-0.00595828
0.00646016
-0.00671938
0.00643072
-0.00743935
0.0063334
-0.0081047
0.00616373
-0.00870173
0.00591308
-0.00921583
0.00556961
-0.00963066
0.00511914
-0.00992712
0.00454614
-0.0100821
0.0038348
-0.010067
0.00297081
-0.00984651
0.00194555
-0.00937656
0.00075825
-0.00862173
-0.000561782
-0.00753249
-0.00195823
-0.0032735
-0.00611843
-7.26183e-05
0.00110782
-0.000272553
0.00277933
-0.000579293
0.0040705
-0.000968365
0.00504481
-0.00141379
0.00575646
-0.00188938
0.0062541
-0.00236949
0.00657935
-0.00282943
0.00676548
-0.00324551
0.00683696
-0.00359497
0.00680962
-0.00385567
0.00669143
-0.00400573
0.00648345
-0.00402299
0.00618099
-0.00388457
0.00577467
-0.00356634
0.00525137
-0.00304232
0.00459513
-0.00228412
0.00378794
-0.00126013
0.00281081
6.54421e-05
0.00164523
0.0017416
0.000269394
0.00381135
-0.00131149
0.00634871
-0.00309914
0.00942839
-0.00503791
-0.00697494
0.0131298
-3.70971e-05
0.00114491
-0.000145775
0.00288801
-0.000311696
0.00423642
-0.000513109
0.00524622
-0.000724526
0.00596788
-0.000918336
0.00644791
-0.00106565
0.00672666
-0.00113687
0.0068367
-0.00110174
0.00680183
-0.000929329
0.0066372
-0.000587798
0.0063499
-4.4099e-05
0.00593975
0.000736419
0.00540047
0.00179036
0.00472073
0.00315655
0.00388518
0.00487617
0.00287551
0.00699269
0.00167142
0.00955214
0.00025137
0.0126015
-0.00140409
0.0161857
-0.00331481
0.0203663
-0.00549208
0.0252082
-0.00794112
0.030759
-0.0105887
-0.013544
0.037328
-7.73685e-06
0.00115265
-3.45237e-05
0.00291479
-6.70387e-05
0.00426893
-8.27541e-05
0.00526193
-5.42122e-05
0.00593934
4.94835e-05
0.00634421
0.000261957
0.00651419
0.0006195
0.00647916
0.00116081
0.00626052
0.00192719
0.00587083
0.00296279
0.00531429
0.00431486
0.00458768
0.00603391
0.00368142
0.00817382
0.00258082
0.0107916
0.00126739
0.0139468
-0.000279717
0.0177008
-0.00208259
0.0221143
-0.00416213
0.0272471
-0.00653681
0.033153
-0.00922077
0.0398766
-0.0122156
0.0474877
-0.0155523
0.0559226
-0.0190235
-0.0233252
0.0657038
1.30718e-05
0.00113958
5.31278e-05
0.00287474
0.000139352
0.00418271
0.00029931
0.00510198
0.000565563
0.00567308
0.000974921
0.00593486
0.00156839
0.00592072
0.00239122
0.00565634
0.00349322
0.00515852
0.00492896
0.00443508
0.00675787
0.00348538
0.00904417
0.00230139
0.0118564
0.000869143
0.015267
-0.000829764
0.0193506
-0.00281615
0.024182
-0.00511114
0.0298338
-0.00773435
0.0363728
-0.0107012
0.0438562
-0.0140202
0.0523294
-0.017694
0.0618053
-0.0216915
0.0723406
-0.0260876
0.083727
-0.0304099
-0.0361694
0.0965712
2.45355e-05
0.00111504
0.000115877
0.0027834
0.000305613
0.00399297
0.000631261
0.00477633
0.00113457
0.00516977
0.001862
0.00520743
0.00286548
0.00491724
0.0042031
0.00431871
0.00593953
0.00342209
0.00814602
0.00222859
0.0108999
0.00073154
0.0142834
-0.00108216
0.0183821
-0.00322952
0.0232815
-0.00572918
0.0290641
-0.00859872
0.0358047
-0.0118518
0.0435659
-0.0154955
0.0523926
-0.0195279
0.0623068
-0.0239345
0.0733061
-0.0286932
0.0853457
-0.0337311
0.0984061
-0.039148
0.112231
-0.0442344
-0.0511277
0.127189
2.89409e-05
0.0010861
0.000160978
0.00265136
0.000446755
0.0037072
0.000938881
0.0042842
0.00169316
0.0044155
0.00277056
0.00413003
0.00423886
0.00344894
0.00617355
0.00238402
0.00865797
0.000937667
0.011782
-0.000895478
0.0156401
-0.00312654
0.0203271
-0.00576916
0.0259339
-0.00883632
0.0325414
-0.0123367
0.040214
-0.0162713
0.0489931
-0.0206309
0.0588914
-0.0253938
0.0698881
-0.0305246
0.081927
-0.0359734
0.0949139
-0.0416801
0.108725
-0.047542
0.123191
-0.0536147
0.138149
-0.0591922
-0.0663542
0.153376
3.09735e-05
0.00105513
0.000204223
0.00247811
0.000594965
0.00331645
0.00127608
0.00360309
0.00232279
0.00336878
0.00381604
0.00263678
0.00584435
0.00142064
0.0085037
-0.000275326
0.0118967
-0.00245538
0.0161274
-0.00512611
0.0212958
-0.00829492
0.0274905
-0.0119639
0.0347801
-0.0161259
0.0432041
-0.0207607
0.0527658
-0.025833
0.0634265
-0.0312917
0.0751026
-0.0370699
0.0876667
-0.0430887
0.100952
-0.0492583
0.11476
-0.0554887
0.12889
-0.0616715
0.143077
-0.0678016
0.157298
-0.0734135
-0.0798133
0.170757
3.74369e-05
0.000268199
0.000795914
0.00171826
0.00313468
0.00515025
0.00787586
0.0114261
0.0159123
0.0214352
0.0280734
0.035872
0.0448329
0.0549074
0.0659926
0.0779331
0.0905272
0.103538
0.116704
0.129768
0.142478
0.154616
0.166245
0.176932
-0.0338824
-0.00799654
0.00889121
-0.0347407
-0.0103584
0.0112168
-0.0355315
-0.0129944
0.0137851
-0.0362558
-0.0158205
0.0165447
-0.0369115
-0.0187764
0.0194321
-0.0374956
-0.021772
0.0223561
-0.0380059
-0.0246842
0.0251945
-0.038441
-0.0273547
0.0277899
-0.0387977
-0.0295921
0.0299488
-0.0390669
-0.0311725
0.0314417
-0.0392332
-0.0318374
0.0320037
-0.0392723
-0.0313022
0.0313413
-0.0391501
-0.0292667
0.0291446
-0.0388258
-0.0254285
0.0251042
-0.0382429
-0.0195182
0.0189353
-0.0373659
-0.0113406
0.0104636
-0.0362247
-0.000788571
-0.000352715
-0.0348528
0.0119248
-0.0132966
-0.0332853
0.0266394
-0.0282068
-0.0315988
0.0427284
-0.0444149
-0.0298499
0.0593308
-0.0610798
-0.0280278
0.0753506
-0.0771727
-0.0259661
0.0894519
-0.0915136
-0.0232319
0.099997
-0.102731
-0.0191523
0.105047
-0.109126
-0.0130943
0.102639
-0.108697
-0.00454446
0.090964
-0.0995139
0.00628738
0.0697867
-0.0806186
0.0189489
0.0397985
-0.05246
0.032524
0.00389544
-0.0174705
0.0460984
-0.0330044
0.01943
0.0585917
-0.0662731
0.0537798
0.0689381
-0.0916251
0.0812787
0.076241
-0.10724
0.0999368
0.0799203
-0.113828
0.110148
0.0800792
-0.113511
0.113352
0.0781088
-0.108532
0.110502
0.0766591
-0.0990083
0.100458
0.0783209
-0.0835605
0.0818987
0.0840241
-0.0611341
0.0554309
0.0927373
-0.033991
0.0252777
0.102491
-0.00606573
-0.00368748
0.111564
0.0180919
-0.0271652
0.118905
0.0363408
-0.0436815
0.12421
0.0477308
-0.0530358
0.127685
0.0531668
-0.0566424
0.130013
0.0530521
-0.0553797
0.131924
0.0485092
-0.0504202
0.134135
0.0398658
-0.0420767
0.136839
0.0285998
-0.0313036
0.140002
0.0159771
-0.0191401
0.143192
0.00396208
-0.00715252
0.146153
-0.0060853
0.00312415
0.148628
-0.0132843
0.0108092
0.150726
-0.0172375
0.0151401
0.15249
-0.0177503
0.0159858
0.154266
-0.0159668
0.0141911
0.155908
-0.00994694
0.00830451
0.157786
-0.00612322
0.00424562
0.00523563
-0.0068385
-0.0302863
-0.00689515
-0.0314012
-0.00924358
-0.0324766
-0.0119189
-0.0335108
-0.0147863
-0.0345
-0.0177872
-0.0354379
-0.0208341
-0.0363193
-0.0238028
-0.0371425
-0.0265315
-0.0379068
-0.0288278
-0.0386028
-0.0304766
-0.0392154
-0.0312248
-0.0397171
-0.0308005
-0.0400648
-0.028919
-0.0401974
-0.0252958
-0.0400413
-0.0196744
-0.0395161
-0.0118657
-0.0385317
-0.00177297
-0.0371978
0.0105908
-0.0353923
0.0248339
-0.0331328
0.040469
-0.0303906
0.0565886
-0.0270604
0.0720204
-0.0229152
0.0853066
-0.0175667
0.0946486
-0.0105537
0.0980338
-0.0015699
0.0936553
0.00896841
0.0804257
0.0210457
0.0577094
0.0341536
0.0266906
0.0474561
-0.00940705
0.0604595
-0.0460078
0.0722113
-0.078025
0.0818567
-0.101271
0.0887501
-0.114133
0.0924525
-0.11753
0.0927325
-0.113791
0.0900835
-0.105883
0.0863585
-0.0952834
0.0842778
-0.0814798
0.0858016
-0.0626578
0.0910049
-0.0391943
0.0984253
-0.0134862
0.106276
0.0102415
0.113241
0.0293752
0.118773
0.0421987
0.122946
0.0489941
0.126367
0.0496312
0.129637
0.0452396
0.133272
0.0362307
0.13723
0.0246412
0.141321
0.0118859
0.145053
0.000230225
0.148204
-0.00923587
0.150579
-0.0156595
0.152366
-0.019024
0.153685
-0.0190701
0.154947
-0.0172288
0.156125
-0.0111241
0.157573
-0.00757119
0.00383906
-0.0214214
-0.00571471
-0.0226914
-0.00797357
-0.023973
-0.0106373
-0.0252481
-0.0135112
-0.0265092
-0.0165261
-0.0277436
-0.0195997
-0.028937
-0.0226094
-0.0300793
-0.0253893
-0.0311729
-0.0277342
-0.0321945
-0.029455
-0.0331273
-0.030292
-0.0339428
-0.029985
-0.0345954
-0.0282665
-0.0350166
-0.0248747
-0.0351164
-0.0195745
-0.0347846
-0.0121975
-0.0338462
-0.00271137
-0.0324093
0.00915393
-0.0302225
0.022647
-0.0272509
0.0374974
-0.0234062
0.0527439
-0.0185483
0.0671626
-0.0125232
0.0792815
-0.0050317
0.0871571
0.00389945
0.0891026
0.0142377
0.083317
0.0258018
0.0688616
0.0380252
0.045486
0.0506382
0.0140776
0.0630434
-0.0218123
0.0749363
-0.0579007
0.0854946
-0.0885833
0.0940015
-0.109777
0.100062
-0.120194
0.103548
-0.121016
0.104293
-0.114536
0.102186
-0.103776
0.0979806
-0.0910779
0.0937223
-0.0772215
0.0917804
-0.060716
0.0933251
-0.040739
0.0978254
-0.0179865
0.103821
0.00424587
0.109966
0.0232305
0.115513
0.0366516
0.120347
0.0441596
0.124883
0.0450952
0.129476
0.0406471
0.134377
0.0313291
0.13933
0.0196884
0.144044
0.00717197
0.148042
-0.00376769
0.151175
-0.0123688
0.15333
-0.0178146
0.154751
-0.0204446
0.155615
-0.019934
0.156353
-0.0179669
0.157049
-0.0118204
0.15802
-0.00854248
0.00270141
-0.00718245
-0.00465069
-0.00855267
-0.00660336
-0.00999541
-0.00919454
-0.0114725
-0.0120341
-0.0129826
-0.015016
-0.0145086
-0.0180737
-0.0160236
-0.0210944
-0.0174929
-0.02392
-0.0189473
-0.0262797
-0.0202988
-0.0281035
-0.021526
-0.0290648
-0.0225908
-0.0289202
-0.0234421
-0.0274152
-0.0240098
-0.024307
-0.0241997
-0.0193846
-0.023895
-0.0125022
-0.0229257
-0.00368069
-0.0212624
0.00749071
-0.0186572
0.0200418
-0.0150304
0.0338705
-0.0102869
0.0480005
-0.00426905
0.0611447
0.0031764
0.071836
0.0118611
0.0784724
0.0218029
0.0791608
0.0327443
0.0723757
0.0442738
0.0573321
0.055903
0.0338568
0.0674465
0.0025341
0.0785893
-0.0329551
0.0890451
-0.0683565
0.0980801
-0.0976183
0.105121
-0.116819
0.109999
-0.125071
0.112876
-0.123893
0.113864
-0.115523
0.112736
-0.102648
0.1094
-0.087742
0.104803
-0.072625
0.100916
-0.0568286
0.0995244
-0.0393475
0.101119
-0.019581
0.104935
0.000429479
0.109895
0.018271
0.115177
0.0313699
0.120463
0.0388733
0.125892
0.0396662
0.131511
0.0350283
0.137296
0.0255434
0.142828
0.0141565
0.147782
0.00221839
0.151748
-0.00773352
0.154671
-0.0152919
0.15652
-0.0196639
0.157568
-0.0214927
0.158022
-0.020388
0.158292
-0.0182366
0.158554
-0.0120825
0.159063
-0.0090517
0.00183843
0.012115
-0.00363587
0.0107522
-0.00524053
0.00923243
-0.00767477
0.00761476
-0.0104165
0.00588102
-0.0132822
0.00403604
-0.0162287
0.00209739
-0.0191557
9.7603e-05
-0.0219202
-0.00175251
-0.0244296
-0.00353935
-0.0263167
-0.00517838
-0.0274258
-0.00659816
-0.0275004
-0.00772357
-0.0262898
-0.00847155
-0.023559
-0.00874476
-0.0191114
-0.00842877
-0.0128182
-0.00740768
-0.00470179
-0.00552511
0.00560815
-0.00268689
0.0172036
0.00158031
0.0296033
0.00728051
0.0423003
0.014155
0.0542702
0.0221522
0.0638389
0.0313169
0.0693077
0.0414597
0.069018
0.0521909
0.0616445
0.0630649
0.0464582
0.0737147
0.023207
0.0838271
-0.0075783
0.0935503
-0.0426783
0.102339
-0.0771452
0.109589
-0.104869
0.114929
-0.122158
0.118419
-0.128561
0.120419
-0.125894
0.12128
-0.116385
0.120953
-0.102321
0.119019
-0.0858075
0.115472
-0.0690784
0.111379
-0.052735
0.108433
-0.0364016
0.107816
-0.0189642
0.109595
-0.00134952
0.113204
0.0146617
0.11794
0.0266343
0.123338
0.0334755
0.12925
0.0337543
0.135418
0.0288596
0.141581
0.0193808
0.147221
0.00851646
0.152037
-0.00259714
0.155706
-0.0114031
0.158273
-0.0178584
0.159774
-0.0211653
0.160486
-0.0222039
0.160619
-0.0205215
0.160528
-0.0181455
0.160454
-0.0120089
0.160575
-0.00917237
0.00122528
0.0361066
-0.00241443
0.0347264
-0.00386034
0.0331945
-0.00614285
0.0314913
-0.00871324
0.029604
-0.0113949
0.0275476
-0.0141723
0.0253578
-0.0169659
0.0230822
-0.0196446
0.0207105
-0.0220579
0.0183698
-0.023976
0.0161407
-0.0251967
0.0141303
-0.0254901
0.0124622
-0.0246216
0.0112709
-0.0223676
0.0106953
-0.0185358
0.0108712
-0.0129942
0.0119063
-0.00573681
0.0139992
0.00351519
0.017239
0.0139638
0.0216681
0.0251742
0.0273191
0.0366492
0.0342558
0.0473335
0.0423611
0.0557335
0.051455
0.0602139
0.0612421
0.0592309
0.0712925
0.0515941
0.0811705
0.0365802
0.0905871
0.0137903
0.0993436
-0.0163347
0.10745
-0.0507845
0.114388
-0.0840834
0.119661
-0.110141
0.123153
-0.12565
0.125173
-0.130581
0.126205
-0.126926
0.126693
-0.116873
0.126783
-0.102411
0.12612
-0.0851442
0.124212
-0.067171
0.121223
-0.0497458
0.118237
-0.0334159
0.116565
-0.0172924
0.116918
-0.00170193
0.119304
0.012276
0.123319
0.0226188
0.128469
0.0283253
0.134387
0.0278363
0.140578
0.0226688
0.146607
0.0133519
0.151935
0.00318894
0.156297
-0.0069592
0.159486
-0.0145922
0.161612
-0.019985
0.162769
-0.0223218
0.16321
-0.0226454
0.163136
-0.0204478
0.162822
-0.017831
0.162544
-0.0117311
0.162395
-0.00902301
0.000800158
0.0640866
-0.000797214
0.0624951
-0.00226883
0.0608008
-0.00444853
0.0589152
-0.00682766
0.0568294
-0.00930914
0.0545529
-0.0118959
0.052094
-0.014507
0.0494698
-0.0170205
0.0467082
-0.0192963
0.0438887
-0.0211565
0.0411031
-0.0224111
0.0384689
-0.0228559
0.0361321
-0.0222848
0.0342631
-0.0204987
0.0330436
-0.0173163
0.0326461
-0.0125966
0.0332054
-0.0062961
0.034935
0.00178555
0.0378813
0.0110175
0.0420933
0.0209623
0.0475931
0.0311494
0.0543574
0.0405692
0.0622226
0.0478683
0.0709058
0.0515307
0.080035
0.0501017
0.0891857
0.0424433
0.0979574
0.0278085
0.106121
0.00562648
0.113488
-0.023702
0.119893
-0.057189
0.124834
-0.089024
0.128012
-0.11332
0.129617
-0.127256
0.130185
-0.131149
0.130278
-0.127019
0.130321
-0.116915
0.130528
-0.102618
0.130724
-0.0853405
0.130363
-0.0668094
0.129051
-0.0484341
0.127144
-0.0315086
0.125614
-0.0157623
0.125414
-0.00150183
0.126986
0.0107039
0.130295
0.0193094
0.134941
0.0236792
0.140457
0.0223208
0.146218
0.0169076
0.151702
0.00786736
0.156412
-0.00152061
0.160124
-0.0106714
0.162741
-0.0172087
0.164412
-0.0216568
0.165265
-0.0231747
0.165522
-0.0229017
0.165359
-0.0202846
0.164965
-0.0174377
0.164626
-0.0113915
0.16435
-0.00874726
0.000474182
0.0943861
0.00138783
0.0924078
-0.000290537
0.090307
-0.00234767
0.0880278
-0.00454849
0.0855956
-0.00687694
0.083015
-0.00931525
0.0802636
-0.0117556
0.0773375
-0.0140943
0.0742543
-0.0162131
0.0710639
-0.0179661
0.0678376
-0.0191848
0.0646714
-0.0196897
0.0616945
-0.0193079
0.0590771
-0.0178813
0.0570245
-0.0152638
0.0557534
-0.0113255
0.0554522
-0.00599496
0.0563719
0.000865908
0.0585972
0.00879218
0.0621998
0.0173597
0.0671756
0.0261736
0.0734307
0.0343142
0.0807425
0.0405565
0.0887698
0.0435034
0.0971019
0.0417696
0.105307
0.0342383
0.113001
0.0201143
0.120019
-0.00139157
0.125999
-0.0296819
0.1306
-0.0617896
0.133413
-0.0918374
0.134456
-0.114363
0.134241
-0.12704
0.133471
-0.130379
0.132724
-0.126272
0.13235
-0.116541
0.132529
-0.102797
0.133208
-0.0860198
0.133985
-0.0675858
0.134292
-0.0487413
0.133946
-0.0311633
0.133403
-0.0152187
0.133483
-0.0015816
0.134795
0.00939143
0.137598
0.0165063
0.141658
0.0196193
0.146526
0.0174524
0.151568
0.0118657
0.156271
0.00316488
0.160198
-0.00544746
0.163195
-0.0136686
0.16524
-0.0192542
0.166503
-0.0229197
0.167124
-0.0237954
0.167287
-0.0230645
0.167142
-0.0201402
0.166803
-0.0170982
0.166535
-0.0111238
0.16628
-0.00849248
0.000144336
0.124371
0.00420563
0.121604
0.0024769
0.119114
0.000142108
0.116348
-0.00178241
0.113454
-0.00398295
0.110438
-0.0063
0.107298
-0.00861524
0.104039
-0.0108348
0.100668
-0.0128428
0.0972184
-0.0145162
0.0937375
-0.0157039
0.0902899
-0.0162422
0.0869632
-0.0159811
0.0838836
-0.0148017
0.0812264
-0.0126065
0.0792059
-0.009305
0.0780542
-0.00484326
0.0779611
0.000958947
0.0791576
0.00759575
0.0817709
0.0147464
0.0858196
0.0221249
0.0911914
0.0289424
0.0976312
0.0341166
0.104764
0.0363702
0.112155
0.0343786
0.119362
0.0270315
0.125997
0.01348
0.131881
-0.00727585
0.136472
-0.0342727
0.139235
-0.0645535
0.139899
-0.0925005
0.138872
-0.113337
0.137005
-0.125173
0.135091
-0.128464
0.13365
-0.124831
0.132934
-0.115826
0.133045
-0.102908
0.133967
-0.0869413
0.135454
-0.0690733
0.137005
-0.0502921
0.138181
-0.0323387
0.138975
-0.016013
0.139889
-0.00249591
0.141449
0.00783191
0.144046
0.0139094
0.147603
0.0160621
0.15177
0.0132848
0.155995
0.00764158
0.159856
-0.000696983
0.162988
-0.00857892
0.165316
-0.0159963
0.166868
-0.0208071
0.167814
-0.023865
0.168292
-0.0242739
0.168452
-0.0232242
0.168418
-0.0201061
0.168242
-0.0169224
0.168159
-0.0110403
0.168058
-0.00839219
-0.000293535
0.150224
0.00735795
0.14717
0.00553047
0.143712
0.00360053
0.140456
0.00147358
0.137318
-0.000844969
0.133989
-0.00297128
0.130514
-0.00514006
0.126952
-0.00727267
0.123336
-0.0092273
0.119708
-0.0108885
0.116115
-0.0121105
0.112605
-0.0127322
0.109239
-0.0126153
0.106101
-0.0116631
0.103309
-0.00981513
0.101016
-0.00701225
0.0993841
-0.00321097
0.0985952
0.00174788
0.0989421
0.00724879
0.100541
0.0131477
0.103476
0.0191893
0.107698
0.0247204
0.112995
0.0288204
0.119011
0.030354
0.125304
0.0280857
0.131454
0.0208815
0.137003
0.00793082
0.141635
-0.0119078
0.144636
-0.0372733
0.145435
-0.0653533
0.144019
-0.0910842
0.141146
-0.110464
0.137898
-0.121925
0.135084
-0.12565
0.133126
-0.122873
0.13217
-0.11487
0.132237
-0.102975
0.133291
-0.087996
0.135189
-0.0709707
0.137562
-0.0526656
0.139941
-0.0347177
0.142035
-0.0181072
0.144
-0.00446046
0.146133
0.00569905
0.14881
0.0112321
0.152044
0.0128279
0.15561
0.00971916
0.15909
0.00416128
0.162185
-0.0037914
0.164632
-0.0110265
0.166417
-0.0177809
0.167606
-0.0219959
0.168351
-0.0246105
0.168785
-0.0247083
0.169026
-0.0234648
0.169175
-0.0202553
0.169247
-0.0169938
0.169433
-0.0112262
0.169595
-0.0085549
-0.00093455
0.167831
0.0102836
0.16474
0.00862221
0.161343
0.00699734
0.157773
0.00504378
0.154107
0.00282074
0.150795
0.000340963
0.147321
-0.00166612
0.143723
-0.00367447
0.140044
-0.00554914
0.13638
-0.00722439
0.132803
-0.00853322
0.129377
-0.00930615
0.126179
-0.00941775
0.123288
-0.00877129
0.120771
-0.00729887
0.118725
-0.00496633
0.117343
-0.00182856
0.116518
0.00257343
0.116461
0.00730522
0.117462
0.0121469
0.119565
0.0170861
0.122758
0.0215279
0.126897
0.0246808
0.131712
0.0255386
0.136806
0.0229925
0.141737
0.01595
0.145936
0.00373202
0.149196
-0.0151675
0.1504
-0.0384778
0.149206
-0.0641589
0.14594
-0.0878187
0.141605
-0.106128
0.137298
-0.117618
0.133807
-0.12216
0.131461
-0.120527
0.130319
-0.113727
0.13034
-0.102996
0.131459
-0.0891147
0.133571
-0.0730824
0.136425
-0.0555196
0.139619
-0.0379122
0.142756
-0.021244
0.145727
-0.00743128
0.148559
0.00286667
0.151518
0.00827276
0.154628
0.00971844
0.157767
0.00658004
0.160678
0.00124992
0.163175
-0.00628764
0.165116
-0.0129674
0.166528
-0.0191932
0.167504
-0.0229715
0.168175
-0.0252823
0.168662
-0.0251951
0.169058
-0.0238611
0.169447
-0.0206441
0.169825
-0.0173712
0.170339
-0.0117404
0.170844
-0.00906011
-0.00185741
0.17495
0.0122649
0.172335
0.0112378
0.169536
0.00979586
0.166577
0.0080034
0.16344
0.00595764
0.159934
0.00384658
0.156563
0.00170483
0.153354
-0.000465099
0.149954
-0.00214978
0.14657
-0.00384047
0.143271
-0.00523425
0.14014
-0.00617417
0.137265
-0.00654336
0.134733
-0.00623923
0.132626
-0.00519207
0.130991
-0.00333139
0.129854
-0.000691208
0.12945
0.00297707
0.129768
0.00698718
0.130736
0.0111795
0.132501
0.0153213
0.135078
0.0189502
0.13837
0.0213887
0.142149
0.02176
0.146072
0.0190693
0.14969
0.0123318
0.152748
0.000674657
0.154022
-0.016442
0.153385
-0.0378411
0.150514
-0.0612872
0.146039
-0.0833444
0.140968
-0.101057
0.136194
-0.112844
0.132288
-0.118255
0.129567
-0.117806
0.128147
-0.112307
0.127998
-0.102847
0.129032
-0.0901483
0.131153
-0.0752033
0.134183
-0.0585498
0.137814
-0.041543
0.141638
-0.0250678
0.145382
-0.0111759
0.148854
-0.000605014
0.152172
0.00495476
0.15531
0.00658048
0.158214
0.00367617
0.160782
-0.0013188
0.162882
-0.00838746
0.164519
-0.014604
0.165742
-0.0204168
0.166657
-0.0238863
0.167376
-0.0260015
0.168004
-0.0258226
0.16862
-0.0244774
0.169292
-0.0213153
0.170014
-0.0180936
0.170893
-0.0126197
0.171793
-0.00996008
-0.00312111
0.193091
0.0139521
-0.194779
0.19187
0.0124588
0.190531
0.0111347
0.189044
0.00949128
0.187368
0.00763293
0.18554
0.00567518
0.18355
0.00369441
0.18121
0.00187455
0.178771
0.000290046
0.17621
-0.00128001
0.173522
-0.00254568
0.170703
-0.0033551
0.16781
-0.00365093
0.164908
-0.00333669
0.162055
-0.00233997
0.159332
-0.000607682
0.156853
0.00178767
0.154869
0.00496119
0.153381
0.0084747
0.152526
0.0120352
0.152493
0.0153542
0.153464
0.0179789
0.155575
0.0192778
0.158854
0.0184814
0.163178
0.0147446
0.168209
0.00730092
0.173434
-0.00454985
0.177923
-0.0209318
0.18082
-0.0407372
0.181418
-0.0618856
0.179675
-0.0816013
0.176037
-0.0974188
0.171168
-0.107975
0.165753
-0.11284
0.160393
-0.112446
0.155536
-0.10745
0.151486
-0.0987967
0.148428
-0.0870903
0.146476
-0.0732519
0.145669
-0.0577429
0.145928
-0.0418019
0.147047
-0.0261867
0.148767
-0.0128962
0.150884
-0.00272217
0.15315
0.00268941
0.155445
0.00428532
0.157545
0.00157594
0.159255
-0.0030289
0.160418
-0.00954979
0.161017
-0.0152036
0.161113
-0.0205124
0.160821
-0.023595
0.160284
-0.0254645
0.159625
-0.0251636
0.158956
-0.0238077
0.158355
-0.0207141
0.157843
-0.0175819
0.157505
-0.012282
0.157226
-0.00968107
-0.00314206
0.205423
0.0145962
-0.206067
0.204699
0.0131831
0.203978
0.0118552
0.203053
0.0104168
0.201875
0.00881058
0.200457
0.00709299
0.198773
0.00537887
0.196882
0.00376528
0.194901
0.00227099