/*--------------------------------*- C++ -*----------------------------------*\
| =========                 |                                                 |
| \\      /  F ield         | OpenFOAM: The Open Source CFD Toolbox           |
|  \\    /   O peration     | Version:  2512                                  |
|   \\  /    A nd           | Website:  www.openfoam.com                      |
|    \\/     M anipulation  |                                                 |
\*---------------------------------------------------------------------------*/
FoamFile
{
    version     2.0;
    format      ascii;
    arch        "LSB;label=32;scalar=64";
    class       volScalarField;
    location    "60.5";
    object      p;
}
// * * * * * * * * * * * * * * * * * * * * * * * * * * * * * * * * * * * * * //

dimensions      [0 2 -2 0 0 0 0];

internalField   nonuniform List<scalar> 
13248
(
-0.303929
-0.302616
-0.300503
-0.297772
-0.294646
-0.291331
-0.287997
-0.28478
-0.281782
-0.279067
-0.276668
-0.274585
-0.272786
-0.271214
-0.269791
-0.268424
-0.267011
-0.265453
-0.263648
-0.261539
-0.258959
-0.256042
-0.251959
-0.247621
-0.310911
-0.308934
-0.306213
-0.302936
-0.299311
-0.295545
-0.291798
-0.288179
-0.284755
-0.28155
-0.278555
-0.275731
-0.273015
-0.270334
-0.267607
-0.264752
-0.261699
-0.258386
-0.254764
-0.250794
-0.246413
-0.241605
-0.236135
-0.2307
-0.319549
-0.316692
-0.313225
-0.309315
-0.305125
-0.300852
-0.296624
-0.292503
-0.288502
-0.284596
-0.280736
-0.276859
-0.272904
-0.268813
-0.264545
-0.26007
-0.255378
-0.250468
-0.245342
-0.240007
-0.234423
-0.22863
-0.222463
-0.216449
-0.329899
-0.325963
-0.321623
-0.316995
-0.312164
-0.30729
-0.302448
-0.297632
-0.292792
-0.287863
-0.282781
-0.277502
-0.272005
-0.266296
-0.260399
-0.254353
-0.248201
-0.241981
-0.235719
-0.229422
-0.223072
-0.216692
-0.210163
-0.204011
-0.34198
-0.336796
-0.331478
-0.326051
-0.320483
-0.314862
-0.309186
-0.303376
-0.297333
-0.29099
-0.284319
-0.277344
-0.270125
-0.262746
-0.255298
-0.247862
-0.240504
-0.233261
-0.226148
-0.219163
-0.212283
-0.205508
-0.198765
-0.192412
-0.35576
-0.349198
-0.342825
-0.336526
-0.330085
-0.323489
-0.316651
-0.309435
-0.301748
-0.29358
-0.285003
-0.276143
-0.267151
-0.258174
-0.249334
-0.240718
-0.232374
-0.224319
-0.216548
-0.209037
-0.201759
-0.194693
-0.187784
-0.181281
-0.371111
-0.363091
-0.355615
-0.348352
-0.340836
-0.332929
-0.324479
-0.315361
-0.305568
-0.295223
-0.284533
-0.273732
-0.263033
-0.252605
-0.242559
-0.232952
-0.2238
-0.215091
-0.206794
-0.198871
-0.191284
-0.183995
-0.176972
-0.170338
-0.387752
-0.378257
-0.369648
-0.361284
-0.352391
-0.342714
-0.332113
-0.320579
-0.308284
-0.295531
-0.282662
-0.269982
-0.257718
-0.246013
-0.234936
-0.224497
-0.214676
-0.205429
-0.196707
-0.188457
-0.180632
-0.173185
-0.166092
-0.159369
-0.405207
-0.394285
-0.38451
-0.374833
-0.364148
-0.352155
-0.338851
-0.324464
-0.309411
-0.294179
-0.279202
-0.264794
-0.251147
-0.238344
-0.226394
-0.215261
-0.204888
-0.195206
-0.186148
-0.177651
-0.169655
-0.162114
-0.154993
-0.148228
-0.422765
-0.410525
-0.399522
-0.38823
-0.37525
-0.360379
-0.343908
-0.326398
-0.308524
-0.290906
-0.273998
-0.258069
-0.243233
-0.229503
-0.216826
-0.205124
-0.194307
-0.184288
-0.174983
-0.166316
-0.158221
-0.150644
-0.143533
-0.136773
-0.439489
-0.426076
-0.413732
-0.400431
-0.384623
-0.366386
-0.346449
-0.325744
-0.305157
-0.28536
-0.266759
-0.249532
-0.233705
-0.219214
-0.205955
-0.19381
-0.182664
-0.172412
-0.162957
-0.15421
-0.146099
-0.13856
-0.131508
-0.124827
-0.454294
-0.4399
-0.42607
-0.410326
-0.391168
-0.369167
-0.345597
-0.321748
-0.29864
-0.276914
-0.256875
-0.238585
-0.221975
-0.206907
-0.19323
-0.180793
-0.169459
-0.159104
-0.14962
-0.140909
-0.132892
-0.125495
-0.118602
-0.112149
-0.282691
-0.284476
-0.285588
-0.2863
-0.286863
-0.287348
-0.287788
-0.288207
-0.288617
-0.28902
-0.289415
-0.289803
-0.290186
-0.29057
-0.290963
-0.291379
-0.291836
-0.292357
-0.292973
-0.293719
-0.294638
-0.295776
-0.297198
-0.298999
-0.282479
-0.283941
-0.284839
-0.28539
-0.285806
-0.286153
-0.286469
-0.286783
-0.287113
-0.287474
-0.287873
-0.288326
-0.288849
-0.289464
-0.290199
-0.291087
-0.292167
-0.29348
-0.295074
-0.296999
-0.299311
-0.302062
-0.305309
-0.309205
-0.282849
-0.283939
-0.284586
-0.284948
-0.285188
-0.285369
-0.285532
-0.285713
-0.285937
-0.286224
-0.286596
-0.287077
-0.287695
-0.288488
-0.289496
-0.290769
-0.292358
-0.294319
-0.296705
-0.299575
-0.302983
-0.306966
-0.311539
-0.316929
-0.2836
-0.284311
-0.28469
-0.284837
-0.28487
-0.284848
-0.284819
-0.284823
-0.284893
-0.285058
-0.285348
-0.285795
-0.286439
-0.287326
-0.288508
-0.290043
-0.291993
-0.294418
-0.297376
-0.300921
-0.305098
-0.309918
-0.315307
-0.321576
-0.284562
-0.284928
-0.28504
-0.28495
-0.284742
-0.284474
-0.2842
-0.283969
-0.283823
-0.283799
-0.283934
-0.284269
-0.28485
-0.28573
-0.286968
-0.288627
-0.290773
-0.293468
-0.296769
-0.300718
-0.305348
-0.310652
-0.316505
-0.322897
-0.285618
-0.285705
-0.285565
-0.285221
-0.284736
-0.284172
-0.283595
-0.283063
-0.282629
-0.28234
-0.282241
-0.28238
-0.282808
-0.28358
-0.284761
-0.286413
-0.288604
-0.291392
-0.294828
-0.298942
-0.303744
-0.309184
-0.315276
-0.32108
-0.286729
-0.286627
-0.286253
-0.285639
-0.284841
-0.283933
-0.282995
-0.282099
-0.281311
-0.280688
-0.280286
-0.280157
-0.280357
-0.280946
-0.281985
-0.283538
-0.285665
-0.288417
-0.291831
-0.295916
-0.300676
-0.305901
-0.312115
-0.316751
-0.287973
-0.287742
-0.287158
-0.286257
-0.285115
-0.283823
-0.282479
-0.281172
-0.279982
-0.278981
-0.278232
-0.277796
-0.277733
-0.278101
-0.278961
-0.280369
-0.282375
-0.285017
-0.28831
-0.292213
-0.296779
-0.301426
-0.307555
-0.31073
-0.289507
-0.289187
-0.288397
-0.287192
-0.285681
-0.28398
-0.282206
-0.280468
-0.278863
-0.277474
-0.276375
-0.275633
-0.275308
-0.275458
-0.276135
-0.277381
-0.279224
-0.281671
-0.284715
-0.288241
-0.292394
-0.296211
-0.301778
-0.303632
-0.291569
-0.291164
-0.290145
-0.288614
-0.286716
-0.284597
-0.282396
-0.280239
-0.278238
-0.276487
-0.275066
-0.274043
-0.273474
-0.273405
-0.273865
-0.27487
-0.276416
-0.278472
-0.281003
-0.28386
-0.28721
-0.290102
-0.2945
-0.295423
-0.294463
-0.293909
-0.29261
-0.290717
-0.288418
-0.285884
-0.283274
-0.280726
-0.278362
-0.276281
-0.27456
-0.27326
-0.272419
-0.272056
-0.272169
-0.272732
-0.273698
-0.274998
-0.276555
-0.278264
-0.280196
-0.281926
-0.28468
-0.285109
-0.298498
-0.29766
-0.295999
-0.2937
-0.29098
-0.288034
-0.285033
-0.282123
-0.279422
-0.277024
-0.274992
-0.273362
-0.272143
-0.271318
-0.27084
-0.270643
-0.270636
-0.270721
-0.270781
-0.270753
-0.270536
-0.270252
-0.270293
-0.270243
-0.30165
-0.305004
-0.308676
-0.312454
-0.315953
-0.31861
-0.319568
-0.318987
-0.314762
-0.307465
-0.296046
-0.280522
-0.261674
-0.240961
-0.220457
-0.202616
-0.189908
-0.184054
-0.185926
-0.194348
-0.206097
-0.215899
-0.218199
-0.209551
-0.19018
-0.164504
-0.138972
-0.118815
-0.106343
-0.101597
-0.105295
-0.119349
-0.141766
-0.163088
-0.170044
-0.161156
-0.138246
-0.112168
-0.0911701
-0.0781674
-0.072001
-0.0735784
-0.0840494
-0.0972104
-0.102882
-0.0969279
-0.0834707
-0.0700208
-0.0593801
-0.0518333
-0.0499015
-0.0511412
-0.0521582
-0.0473001
-0.0383458
-0.0282519
-0.0177448
-0.00954027
-0.00489842
0.000705376
-0.314925
-0.321208
-0.327908
-0.334731
-0.341151
-0.346555
-0.35036
-0.350774
-0.345213
-0.337653
-0.324212
-0.305263
-0.281793
-0.255454
-0.228522
-0.203579
-0.183139
-0.169366
-0.163658
-0.165806
-0.173374
-0.181611
-0.185099
-0.179892
-0.166166
-0.14704
-0.127978
-0.113527
-0.105691
-0.104901
-0.112801
-0.131492
-0.158026
-0.181562
-0.189365
-0.175
-0.147571
-0.117221
-0.0922837
-0.0759168
-0.0669479
-0.0655639
-0.0729998
-0.0840912
-0.0899019
-0.0862558
-0.0766256
-0.0671205
-0.0596137
-0.054705
-0.0552233
-0.0578966
-0.0587269
-0.0524564
-0.0415271
-0.0298106
-0.018247
-0.00954964
-0.00425901
0.00105101
-0.325624
-0.334205
-0.34331
-0.352549
-0.361219
-0.368523
-0.373396
-0.374564
-0.370503
-0.361305
-0.345687
-0.323593
-0.295975
-0.264647
-0.232023
-0.200755
-0.173602
-0.152854
-0.140099
-0.135767
-0.138662
-0.144838
-0.149276
-0.147482
-0.13962
-0.127088
-0.114538
-0.105773
-0.10254
-0.105817
-0.118083
-0.141395
-0.171802
-0.19721
-0.203827
-0.186656
-0.155251
-0.121142
-0.0927851
-0.0733835
-0.0618657
-0.0577782
-0.0623422
-0.0713301
-0.0770424
-0.0755644
-0.0696472
-0.0639851
-0.0596232
-0.0575239
-0.0606214
-0.0647378
-0.0652208
-0.0574858
-0.0446153
-0.0313267
-0.0187554
-0.00958991
-0.00369786
0.00128776
-0.332444
-0.343123
-0.353799
-0.364717
-0.375042
-0.383744
-0.389427
-0.39111
-0.387305
-0.377122
-0.359738
-0.335093
-0.304116
-0.268646
-0.231244
-0.194838
-0.162207
-0.135619
-0.11677
-0.106394
-0.104141
-0.107516
-0.112206
-0.113141
-0.111119
-0.104872
-0.0985586
-0.095228
-0.0964043
-0.103702
-0.120304
-0.148087
-0.18217
-0.209398
-0.215357
-0.195891
-0.161157
-0.12388
-0.0927026
-0.0706931
-0.0569104
-0.0504217
-0.0523412
-0.0592508
-0.0646373
-0.0651071
-0.0626582
-0.0606345
-0.0593879
-0.0602391
-0.0660271
-0.0715987
-0.0715764
-0.0623367
-0.0475721
-0.0327827
-0.0192692
-0.00965799
-0.00323354
0.00142255
-0.335493
-0.347596
-0.359048
-0.370788
-0.382055
-0.391867
-0.397794
-0.399626
-0.395761
-0.384994
-0.366478
-0.340108
-0.306791
-0.268437
-0.227697
-0.187533
-0.150715
-0.119469
-0.0954618
-0.0796393
-0.0721889
-0.0718727
-0.0757987
-0.0808016
-0.0812776
-0.0804615
-0.0798444
-0.0815035
-0.0868396
-0.0980789
-0.118923
-0.150994
-0.188536
-0.217597
-0.223519
-0.202515
-0.165276
-0.125499
-0.0921144
-0.0679715
-0.0522216
-0.0436382
-0.0431589
-0.0481044
-0.0529953
-0.0551226
-0.0557573
-0.0570728
-0.0588679
-0.0627869
-0.071367
-0.0784004
-0.0777238
-0.066965
-0.0503641
-0.0341596
-0.0197835
-0.00975242
-0.00287821
0.00146646
-0.334818
-0.347725
-0.359341
-0.371179
-0.382592
-0.391793
-0.398424
-0.400288
-0.396316
-0.38528
-0.36631
-0.339283
-0.305044
-0.265429
-0.223024
-0.180704
-0.141133
-0.106445
-0.0782342
-0.0575745
-0.045008
-0.040233
-0.0416223
-0.046346
-0.0504251
-0.0541816
-0.0584172
-0.064493
-0.0737769
-0.0889107
-0.113866
-0.149947
-0.19064
-0.221562
-0.22807
-0.206422
-0.167617
-0.126084
-0.0910951
-0.0653069
-0.0478914
-0.0375106
-0.0348877
-0.0380515
-0.0423402
-0.0458056
-0.0490103
-0.0532883
-0.0580137
-0.0650941
-0.07656
-0.0850533
-0.0835881
-0.0713281
-0.0529633
-0.0354389
-0.02029
-0.00987263
-0.00263629
0.00143373
-0.330863
-0.343736
-0.354849
-0.366327
-0.378031
-0.386385
-0.392416
-0.39395
-0.389892
-0.378942
-0.360241
-0.33364
-0.299882
-0.260652
-0.218331
-0.175561
-0.134788
-0.0979842
-0.0666373
-0.0418725
-0.0244756
-0.0147908
-0.0122567
-0.0150622
-0.0203596
-0.0269903
-0.0348758
-0.044728
-0.0577201
-0.0766254
-0.105419
-0.14506
-0.188567
-0.221341
-0.228935
-0.207562
-0.168193
-0.125726
-0.0897073
-0.0627421
-0.04397
-0.0320747
-0.0275383
-0.0291259
-0.0327749
-0.0372567
-0.0424437
-0.0492686
-0.0567772
-0.0670859
-0.0815165
-0.0914646
-0.0890758
-0.0753818
-0.0553442
-0.0366029
-0.0207775
-0.0100168
-0.00250402
0.00134071
-0.324104
-0.33591
-0.345991
-0.356443
-0.366194
-0.375138
-0.380477
-0.381688
-0.377641
-0.367119
-0.349351
-0.324157
-0.292146
-0.254768
-0.214102
-0.172459
-0.131987
-0.0944369
-0.0611565
-0.0332469
-0.011634
0.00293842
0.010228
0.0109669
0.00701903
-0.000567986
-0.0106153
-0.0233965
-0.0396904
-0.0620492
-0.0941818
-0.136731
-0.182599
-0.217222
-0.226233
-0.205943
-0.167033
-0.124487
-0.0879954
-0.0602877
-0.0404781
-0.0273374
-0.0211057
-0.0212704
-0.0242751
-0.0294948
-0.0360596
-0.0450071
-0.0551187
-0.0686818
-0.0861359
-0.0975339
-0.0940696
-0.0790963
-0.0574873
-0.0376392
-0.0212355
-0.0101815
-0.00247077
0.00120514
-0.3149
-0.324411
-0.333274
-0.343044
-0.351981
-0.359341
-0.363763
-0.364665
-0.360766
-0.351045
-0.334811
-0.311834
-0.282556
-0.248139
-0.210301
-0.170993
-0.132045
-0.0949741
-0.0609878
-0.0311091
-0.00628314
0.0125759
0.0247127
0.0299578
0.0290699
0.0228401
0.0124299
-0.00211302
-0.0210083
-0.0462509
-0.0810525
-0.125779
-0.173413
-0.209655
-0.220317
-0.201801
-0.164325
-0.122564
-0.0861538
-0.0580839
-0.0375296
-0.0233558
-0.0156262
-0.014437
-0.0167411
-0.0224363
-0.0298466
-0.0404945
-0.052981
-0.0698108
-0.090332
-0.103168
-0.0984387
-0.0824544
-0.0593935
-0.0385552
-0.0216659
-0.0103658
-0.00252364
0.0010446
-0.303319
-0.309739
-0.317443
-0.326156
-0.333858
-0.339732
-0.343613
-0.344357
-0.340878
-0.332356
-0.318145
-0.297962
-0.272061
-0.24128
-0.20695
-0.170665
-0.133982
-0.0982411
-0.0645543
-0.0338487
-0.00700851
0.0150692
0.0314205
0.0412682
0.0446139
0.0412829
0.0323021
0.0173666
-0.00315297
-0.0304146
-0.0669251
-0.112841
-0.161558
-0.199174
-0.211662
-0.195603
-0.160534
-0.120464
-0.0846652
-0.0564903
-0.0353933
-0.0202902
-0.0111651
-0.00859092
-0.0100982
-0.0134374
-0.0237484
-0.0357165
-0.0503555
-0.0703841
-0.0939807
-0.108275
-0.102132
-0.0854577
-0.0610797
-0.0393736
-0.0220823
-0.0105745
-0.00265226
0.000873976
-0.289312
-0.293618
-0.300519
-0.307219
-0.312961
-0.318258
-0.321998
-0.322925
-0.3203
-0.313391
-0.301598
-0.284606
-0.262479
-0.235724
-0.205278
-0.172365
-0.138305
-0.104354
-0.0715208
-0.0406374
-0.0126121
0.0116657
0.0313044
0.0453832
0.0536763
0.0535746
0.0475317
0.0337893
0.0128848
-0.0154594
-0.0528644
-0.0993419
-0.148456
-0.186615
-0.200673
-0.187304
-0.155537
-0.118022
-0.0833482
-0.0552577
-0.0338233
-0.0179707
-0.00754949
-0.00349484
-0.00433533
-0.0079588
-0.0179418
-0.0306114
-0.047068
-0.0703462
-0.0971035
-0.112776
-0.110002
-0.0880688
-0.0624698
-0.04004
-0.022451
-0.0107896
-0.00283783
0.000706871
-0.273624
-0.278434
-0.283451
-0.287133
-0.290922
-0.294895
-0.297857
-0.298797
-0.297003
-0.291731
-0.282443
-0.268786
-0.250632
-0.228189
-0.20202
-0.172986
-0.142129
-0.11055
-0.0792897
-0.0492606
-0.0213209
0.00374217
0.0251352
0.041966
0.0529233
0.0594915
0.0565942
0.0453006
0.0255789
-0.00224815
-0.0389051
-0.0842592
-0.132462
-0.170707
-0.18551
-0.175216
-0.146989
-0.112337
-0.0794162
-0.0520619
-0.0309355
-0.0150264
-0.00391732
0.00138969
0.00121551
-0.00262793
-0.0123213
-0.0253854
-0.0433277
-0.069558
-0.0992922
-0.116353
-0.112655
-0.0898694
-0.0632516
-0.0403124
-0.0226131
-0.0109258
-0.0030266
0.000564785
-0.258569
-0.268257
-0.271818
-0.274002
-0.276763
-0.279604
-0.281409
-0.281772
-0.279631
-0.274246
-0.265196
-0.252192
-0.235125
-0.214176
-0.189835
-0.162855
-0.134143
-0.104659
-0.0753081
-0.0468941
-0.0201635
0.00420333
0.0255625
0.0431758
0.0563675
0.0634136
0.0632211
0.0543011
0.0357284
0.00807202
-0.028724
-0.0746302
-0.123863
-0.162191
-0.176925
-0.164935
-0.136846
-0.103591
-0.0724631
-0.0465681
-0.0263761
-0.010958
4.40093e-05
0.00594485
0.00673545
0.00367838
-0.00502047
-0.0183305
-0.0378217
-0.0675772
-0.10123
-0.120175
-0.115717
-0.0910858
-0.0634067
-0.0401483
-0.0225166
-0.0109391
-0.00316594
0.000464347
-0.242266
-0.254719
-0.258375
-0.258824
-0.259675
-0.261228
-0.2624
-0.261978
-0.259138
-0.253395
-0.244458
-0.232127
-0.216326
-0.1972
-0.175137
-0.150739
-0.124736
-0.0979079
-0.0710217
-0.0447856
-0.0198729
0.00307926
0.0235304
0.0409009
0.053988
0.0617158
0.0627557
0.0551975
0.0378492
0.0112578
-0.0244015
-0.0688302
-0.115816
-0.151229
-0.162784
-0.150465
-0.124142
-0.0937374
-0.0653004
-0.0412945
-0.0223156
-0.00757734
0.00338651
0.00983756
0.0113255
0.00873216
0.000795545
-0.0122711
-0.0329779
-0.0658875
-0.102786
-0.122739
-0.116693
-0.0911615
-0.0629717
-0.0397279
-0.0223501
-0.0109402
-0.00332099
0.000342879
-0.225861
-0.239251
-0.243068
-0.242618
-0.242319
-0.243012
-0.243457
-0.242365
-0.239069
-0.233251
-0.224715
-0.213312
-0.198967
-0.18176
-0.161966
-0.140043
-0.116577
-0.0922225
-0.0676498
-0.0435049
-0.0204115
0.00102663
0.0203062
0.0368359
0.0494281
0.0570353
0.0583267
0.0513251
0.0348449
0.00951761
-0.0241586
-0.0651565
-0.10701
-0.137491
-0.146319
-0.134742
-0.111204
-0.0840667
-0.0583828
-0.0362571
-0.0184
-0.00430812
0.00651507
0.0133773
0.0156618
0.0138213
0.00654447
-0.00665803
-0.0290101
-0.0649247
-0.10398
-0.124099
-0.116655
-0.0904751
-0.0621336
-0.0391159
-0.0221109
-0.0109131
-0.00348956
0.000210679
-0.210164
-0.223003
-0.226944
-0.226346
-0.225461
-0.225373
-0.225153
-0.223639
-0.220179
-0.214506
-0.206489
-0.196019
-0.183028
-0.167558
-0.149809
-0.130141
-0.109031
-0.0870301
-0.0647175
-0.0426687
-0.0214513
-0.00162524
0.0163083
0.0316755
0.0434717
0.0506837
0.0520411
0.045657
0.0304117
0.0069791
-0.0237613
-0.0601435
-0.0961341
-0.121431
-0.128676
-0.118471
-0.0980276
-0.0742685
-0.0514269
-0.0312764
-0.0145863
-0.00118905
0.0093976
0.0165648
0.0197715
0.0190093
0.012652
-0.000744
-0.0250235
-0.0637114
-0.104336
-0.124369
-0.115628
-0.0889971
-0.0608488
-0.0382905
-0.0217885
-0.0108572
-0.00366294
7.38342e-05
-0.194419
-0.206582
-0.210685
-0.210195
-0.208982
-0.208326
-0.207639
-0.205894
-0.202441
-0.197024
-0.189558
-0.179982
-0.168247
-0.154379
-0.138522
-0.120955
-0.102064
-0.082305
-0.0621741
-0.0421805
-0.0228427
-0.00468769
0.0117724
0.0258706
0.0367388
0.0434391
0.0448281
0.0392655
0.0257607
0.00493988
-0.0220893
-0.053405
-0.0837202
-0.104647
-0.110575
-0.102157
-0.0850386
-0.0646994
-0.0446611
-0.0264838
-0.0109613
0.00174356
0.0120206
0.0193805
0.0235152
0.0240533
0.0189877
0.00568256
-0.0204318
-0.0616511
-0.103621
-0.1233
-0.113338
-0.0866067
-0.059072
-0.037238
-0.021374
-0.0107703
-0.00383168
-6.77328e-05
-0.178895
-0.1905
-0.194638
-0.194267
-0.192917
-0.191942
-0.190974
-0.189126
-0.185778
-0.180691
-0.173812
-0.165114
-0.15457
-0.142195
-0.128092
-0.112475
-0.0956522
-0.0780028
-0.0599507
-0.041946
-0.024461
-0.00798977
0.00696402
0.0197842
0.0296941
0.0358562
0.0372956
0.0326962
0.0212344
0.00342001
-0.0195787
-0.0457856
-0.0707397
-0.0878979
-0.0930028
-0.0865739
-0.0727052
-0.0555905
-0.038186
-0.0219258
-0.00757572
0.0044538
0.014364
0.0217972
0.0267604
0.0287633
0.0253049
0.0124772
-0.0152282
-0.0586881
-0.101581
-0.120525
-0.109567
-0.0832405
-0.0567852
-0.0359523
-0.0208597
-0.0106497
-0.00398677
-0.000213744
-0.164161
-0.17495
-0.178967
-0.178726
-0.177391
-0.176284
-0.17517
-0.173311
-0.170146
-0.165451
-0.159187
-0.151352
-0.141934
-0.130945
-0.118459
-0.104639
-0.0897341
-0.0740576
-0.0579721
-0.0418738
-0.0261864
-0.0113645
0.00210717
0.0136768
0.0226535
0.0283074
0.0298358
0.0262394
0.0168742
0.00214109
-0.0168186
-0.0381438
-0.0582796
-0.0722978
-0.0769041
-0.0723176
-0.0613435
-0.0471219
-0.0321142
-0.017665
-0.00448211
0.00689132
0.0164057
0.023805
0.0294038
0.032905
0.0312638
0.0192824
-0.00969779
-0.0548187
-0.0979084
-0.115759
-0.104187
-0.078882
-0.0539926
-0.034435
-0.0202398
-0.0104917
-0.00412011
-0.000362469
-0.150116
-0.159966
-0.163817
-0.163731
-0.162504
-0.161375
-0.160219
-0.158429
-0.15551
-0.151248
-0.145612
-0.138614
-0.130256
-0.12055
-0.10955
-0.0973832
-0.0842495
-0.0704088
-0.0561691
-0.0418757
-0.0279059
-0.0146712
-0.00262923
0.00774884
0.0158442
0.0210389
0.0226849
0.0200529
0.012676
0.000880216
-0.0143042
-0.031266
-0.0472723
-0.0586595
-0.062838
-0.0597198
-0.0511445
-0.0394117
-0.026527
-0.0137457
-0.00171426
0.00900323
0.0181168
0.025398
0.0313908
0.0362199
0.0364401
0.0256234
-0.00411049
-0.0499468
-0.0923382
-0.108806
-0.0971655
-0.0735757
-0.050728
-0.0326976
-0.0195114
-0.010292
-0.00422464
-0.000510533
-0.136666
-0.145675
-0.149353
-0.149413
-0.148324
-0.147246
-0.14613
-0.144472
-0.141833
-0.138023
-0.13301
-0.126816
-0.119452
-0.110931
-0.101295
-0.0906454
-0.0791411
-0.0669977
-0.0544754
-0.0418723
-0.0295209
-0.0177878
-0.00707236
0.00216192
0.00943671
0.0142215
0.015998
0.0142466
0.00865456
-0.000512169
-0.0123932
-0.0256429
-0.0381751
-0.0472943
-0.0509563
-0.0488729
-0.0421771
-0.0325154
-0.021479
-0.010205
0.000707612
0.0107457
0.0194561
0.0265579
0.0327108
0.0384674
0.0403886
0.0309797
0.00131136
-0.0440087
-0.0846921
-0.0995365
-0.0886037
-0.0674452
-0.0470577
-0.030763
-0.0186757
-0.0100459
-0.00429442
-0.000652979
-0.124011
-0.132202
-0.135663
-0.135838
-0.134903
-0.133926
-0.132906
-0.131413
-0.129075
-0.125717
-0.121311
-0.115882
-0.109445
-0.102016
-0.0936306
-0.0843661
-0.0743525
-0.0637675
-0.0528301
-0.0417957
-0.0309531
-0.0206248
-0.0111661
-0.00296811
0.00355732
0.0079764
0.00987996
0.00890015
0.00483922
-0.00208575
-0.0111763
-0.0213253
-0.0309374
-0.0380877
-0.0411429
-0.039707
-0.034424
-0.0264453
-0.0169997
-0.00707259
0.00277444
0.0120964
0.0203806
0.0272578
0.0333778
0.0395575
0.0427603
0.0348277
0.00631336
-0.0370177
-0.07492
-0.0880752
-0.0787829
-0.0606984
-0.0430798
-0.0286641
-0.0177379
-0.0097487
-0.00432461
-0.00078383
-0.112216
-0.119559
-0.12277
-0.123043
-0.122271
-0.121421
-0.120524
-0.119216
-0.117186
-0.114275
-0.110452
-0.105741
-0.100165
-0.0937394
-0.0864927
-0.0784883
-0.069831
-0.0606673
-0.0511803
-0.0415872
-0.0321355
-0.0231023
-0.0147962
-0.00754958
-0.00170576
0.00238307
0.00439563
0.00407101
0.00129051
-0.00376101
-0.0105308
-0.0181297
-0.0252915
-0.0307559
-0.0331578
-0.032072
-0.02782
-0.0211859
-0.0130964
-0.00436898
0.00448044
0.0130562
0.020862
0.027472
0.033417
0.0395439
0.0434017
0.0368148
0.0106972
-0.0290343
-0.0632134
-0.0751555
-0.0682011
-0.0536186
-0.0389163
-0.0264425
-0.0167076
-0.00939658
-0.00431156
-0.000897033
-0.10119
-0.107738
-0.110701
-0.111058
-0.110446
-0.109733
-0.108977
-0.10787
-0.106135
-0.103643
-0.100371
-0.096333
-0.0915499
-0.0860386
-0.0798251
-0.0729604
-0.0655295
-0.0576524
-0.0494814
-0.0411987
-0.0330146
-0.0251639
-0.0179075
-0.0115249
-0.00629816
-0.00251122
-0.000415448
-0.00019574
-0.0019179
-0.00542835
-0.0102943
-0.0158164
-0.0210188
-0.0250131
-0.0267426
-0.0257904
-0.0222737
-0.0167033
-0.00976037
-0.00210064
0.00582007
0.0136399
0.0209037
0.0271874
0.0328599
0.0386061
0.0424689
0.0370223
0.0143879
-0.0203744
-0.0503072
-0.0616635
-0.0575146
-0.0465305
-0.0346995
-0.024144
-0.0155977
-0.00898736
-0.00425296
-0.000987417
-0.0909322
-0.0967602
-0.0994806
-0.099899
-0.0994338
-0.0988595
-0.0982451
-0.0973379
-0.0958883
-0.0937895
-0.0910211
-0.0875997
-0.083541
-0.0788592
-0.0735769
-0.0677362
-0.0614062
-0.0546848
-0.0476979
-0.0405966
-0.0335558
-0.0267757
-0.0204669
-0.0148619
-0.0101919
-0.0066847
-0.0045345
-0.00387433
-0.00473715
-0.00699765
-0.0103232
-0.0141754
-0.0178841
-0.0205674
-0.0216435
-0.0206856
-0.0176841
-0.0129508
-0.00697177
-0.000260084
0.0067958
0.0138656
0.020536
0.0264216
0.0317497
0.0369322
0.0403444
0.035869
0.017197
-0.0119582
-0.0376172
-0.0487809
-0.0473876
-0.0397343
-0.0305523
-0.0218145
-0.014424
-0.00852112
-0.004148
-0.00105138
-0.0814712
-0.0866232
-0.0890973
-0.089558
-0.0892252
-0.0887831
-0.0883085
-0.0875917
-0.0864182
-0.0846753
-0.0823626
-0.0794952
-0.0760887
-0.0721524
-0.0677038
-0.0627769
-0.0574278
-0.0517363
-0.0458054
-0.0397578
-0.0337391
-0.0279235
-0.0224595
-0.0175501
-0.0133825
-0.0101389
-0.00796688
-0.00696331
-0.00714474
-0.0084072
-0.0104955
-0.0130037
-0.015431
-0.0171236
-0.0176252
-0.0165893
-0.0139462
-0.00987203
-0.00470167
0.00117112
0.00742307
0.0137574
0.0198053
0.0252256
0.0301336
0.0346504
0.0373962
0.0337141
0.0187833
-0.00492137
-0.0265333
-0.0374063
-0.0382916
-0.0334424
-0.0265716
-0.0194964
-0.0132041
-0.00800059
-0.00399754
-0.0010872
-0.0727679
-0.0772909
-0.0795261
-0.0800158
-0.0798014
-0.0794823
-0.079138
-0.0785953
-0.07767
-0.076265
-0.0743581
-0.0719801
-0.0691507
-0.0658763
-0.062168
-0.0580506
-0.0535687
-0.0487881
-0.0437899
-0.0386738
-0.0335628
-0.0285834
-0.0238818
-0.0195978
-0.0158888
-0.0128972
-0.0107373
-0.00948034
-0.00913324
-0.00961555
-0.0107323
-0.0121712
-0.0135777
-0.0144743
-0.0144912
-0.013349
-0.010957
-0.00740416
-0.00291364
0.00221892
0.00772806
0.0133512
0.0187679
0.0236721
0.0280285
0.0318623
0.0338953
0.0307862
0.0189842
0.000121461
-0.0177552
-0.0279918
-0.0304322
-0.027766
-0.0228261
-0.0172275
-0.0119569
-0.00743129
-0.00380414
-0.00109502
-0.0647721
-0.0687301
-0.0707423
-0.0712497
-0.071138
-0.0709294
-0.0707023
-0.0703144
-0.0696083
-0.0684996
-0.0669698
-0.0650295
-0.0626992
-0.0600016
-0.056941
-0.0535329
-0.0498117
-0.0458285
-0.0416483
-0.0373544
-0.0330436
-0.0288047
-0.0247646
-0.0210383
-0.0177468
-0.0149993
-0.0128841
-0.011455
-0.0107146
-0.0106017
-0.0109698
-0.0115788
-0.0121956
-0.0124584
-0.0120765
-0.0108269
-0.00861609
-0.00548067
-0.00156434
0.00291582
0.00774375
0.0126916
0.0174843
0.0218394
0.0256214
0.0287345
0.0301072
0.0273937
0.0180881
0.0032988
-0.0112324
-0.0205084
-0.0238155
-0.0227437
-0.0193619
-0.0150414
-0.0107022
-0.00682147
-0.00357202
-0.00107657
-0.0574579
-0.0609098
-0.0627136
-0.0632277
-0.0632029
-0.0630906
-0.0629665
-0.0627134
-0.0621975
-0.0613449
-0.0601385
-0.0585887
-0.0567108
-0.0545117
-0.0520058
-0.0492098
-0.0461482
-0.0428582
-0.0393909
-0.0358094
-0.0321832
-0.0286006
-0.0251478
-0.0219194
-0.019008
-0.0164981
-0.0144574
-0.0129267
-0.0119099
-0.0113601
-0.011166
-0.0111782
-0.0111779
-0.0109434
-0.0102427
-0.00890081
-0.00682912
-0.00403397
-0.000605265
0.00330013
0.0075084
0.0118236
0.0160102
0.0198074
0.0230252
0.0254647
0.0262906
0.0238852
0.0165581
0.00508354
-0.00656734
-0.0147053
-0.0183502
-0.0183719
-0.0162076
-0.0129671
-0.00946038
-0.00618179
-0.00330689
-0.00103484
-0.0507917
-0.0537885
-0.0553981
-0.0559104
-0.0559579
-0.0559285
-0.0558925
-0.0557545
-0.0554011
-0.0547679
-0.0538392
-0.052623
-0.0511307
-0.0493693
-0.0473477
-0.0450783
-0.0425801
-0.0398819
-0.0370253
-0.0340584
-0.0310352
-0.0280207
-0.0250841
-0.0222978
-0.019733
-0.0174547
-0.0155148
-0.0139446
-0.0127477
-0.0118892
-0.0112844
-0.0108566
-0.0104181
-0.0098124
-0.00887205
-0.00746304
-0.00550776
-0.00299676
1.51098e-05
0.00341415
0.00706266
0.0107936
0.0144062
0.0176633
0.0203506
0.0222165
0.0226355
0.0205107
0.0147536
0.00591443
-0.0033249
-0.0102792
-0.0139036
-0.0146228
-0.0133789
-0.011029
-0.00825129
-0.00552478
-0.00301578
-0.000973623
-0.0447274
-0.04732
-0.0487521
-0.0492565
-0.0493634
-0.0494034
-0.0494413
-0.0493994
-0.0491823
-0.0487345
-0.0480411
-0.0471079
-0.045944
-0.0445557
-0.0429481
-0.0411293
-0.0391137
-0.0369235
-0.0345887
-0.0321464
-0.0296396
-0.027117
-0.0246311
-0.0222368
-0.0199883
-0.0179351
-0.0161171
-0.0145592
-0.0132649
-0.0122122
-0.0113561
-0.0105934
-0.00984042
-0.00897173
-0.00786498
-0.00641916
-0.00457044
-0.00230358
0.000348697
0.00330303
0.00645014
0.00965026
0.0127331
0.0154868
0.0176962
0.0191058
0.019252
0.0174048
0.0128965
0.00612213
-0.00113285
-0.00694205
-0.0103337
-0.011454
-0.0108802
-0.00924591
-0.00709363
-0.00486411
-0.00270667
-0.0008972
-0.0392236
-0.0414605
-0.0427319
-0.0432237
-0.0433778
-0.0434747
-0.0435728
-0.0436094
-0.0435047
-0.0432107
-0.0427139
-0.0420183
-0.0411308
-0.040056
-0.038797
-0.037359
-0.0357519
-0.0339919
-0.032101
-0.0301071
-0.0280425
-0.0259435
-0.0238499
-0.0218027
-0.0198427
-0.0180073
-0.0163272
-0.0148216
-0.0134943
-0.0123301
-0.0112995
-0.0103409
-0.00938461
-0.00834549
-0.00713743
-0.00568668
-0.00394297
-0.00189186
0.000446891
0.00301239
0.00571582
0.0084405
0.0110457
0.0133469
0.0151444
0.0162069
0.016192
0.0146244
0.0111114
0.00593987
0.00029676
-0.0044617
-0.00750737
-0.00881504
-0.00870654
-0.0076314
-0.00600418
-0.00421384
-0.00238816
-0.000810013
-0.034242
-0.0361666
-0.0372929
-0.0377683
-0.037959
-0.0381013
-0.0382473
-0.0383464
-0.0383322
-0.0381639
-0.0378289
-0.0373298
-0.0366717
-0.0358578
-0.0348896
-0.0337701
-0.0325058
-0.0311076
-0.0295915
-0.0279776
-0.0262897
-0.0245548
-0.0228019
-0.0210618
-0.0193646
-0.0177385
-0.016207
-0.0147853
-0.0134774
-0.0122723
-0.0111528
-0.0100814
-0.00900768
-0.00787385
-0.00661994
-0.00519411
-0.00355895
-0.00170289
0.000360268
0.00258541
0.00490135
0.00720937
0.00939298
0.0113
0.0127564
0.0135641
0.013472
0.0121771
0.00945889
0.00553188
0.00117843
-0.00265701
-0.00530567
-0.00665084
-0.00684516
-0.00619329
-0.00499703
-0.00358749
-0.00206904
-0.000716428
-0.0297433
-0.0313948
-0.0323909
-0.0328472
-0.0330655
-0.0332431
-0.0334257
-0.0335731
-0.0336303
-0.0335627
-0.033359
-0.0330203
-0.0325504
-0.0319512
-0.0312232
-0.0303676
-0.0293881
-0.028292
-0.02709
-0.0257964
-0.0244282
-0.0230049
-0.0215475
-0.0200785
-0.0186201
-0.017193
-0.0158156
-0.0145013
-0.0132589
-0.0120587
-0.010915
-0.00979916
-0.00867674
-0.00750892
-0.00625523
-0.00488049
-0.00335917
-0.00168313
0.000136476
0.00206375
0.00404411
0.00599438
0.00781551
0.00938706
0.0105691
0.0111957
0.0110858
0.0100471
0.00796378
0.00499953
0.00167285
-0.00137365
-0.0036183
-0.00490446
-0.00527737
-0.00493421
-0.00408316
-0.00299734
-0.00175779
-0.000620549
-0.0256898
-0.0271038
-0.0279836
-0.0284193
-0.0286572
-0.0288612
-0.0290709
-0.0292544
-0.0293665
-0.0293781
-0.0292789
-0.0290694
-0.028752
-0.0283277
-0.0277961
-0.0271571
-0.0264124
-0.0255665
-0.0246262
-0.0236011
-0.022503
-0.0213456
-0.0201439
-0.0189138
-0.0176713
-0.0164312
-0.0152066
-0.0140064
-0.0128304
-0.0117025
-0.0105904
-0.00948523
-0.00836761
-0.00721329
-0.00599644
-0.0046947
-0.00329189
-0.00178432
-0.000181474
0.00148686
0.00317761
0.0048241
0.00634243
0.00763617
0.00860017
0.00910328
0.00901197
0.00820527
0.00663049
0.00441031
0.00189887
-0.000491202
-0.00235122
-0.00352015
-0.00397987
-0.00385176
-0.00327
-0.00245372
-0.00146216
-0.000526055
-0.0220468
-0.023255
-0.0240315
-0.0244454
-0.0246964
-0.0249193
-0.0251479
-0.0253571
-0.0255102
-0.0255827
-0.0255656
-0.0254587
-0.0252633
-0.0249797
-0.024607
-0.0241442
-0.0235917
-0.0229515
-0.0222279
-0.0214268
-0.0205561
-0.0196251
-0.018644
-0.017624
-0.0165765
-0.0155122
-0.0144408
-0.0133707
-0.0123062
-0.0112503
-0.0101967
-0.00913852
-0.00806401
-0.00695849
-0.00580616
-0.00459413
-0.0033133
-0.00196395
-0.00055523
0.000888718
0.0023316
0.00372143
0.00499235
0.00606266
0.00685586
0.00727488
0.00722273
0.00662144
0.00545265
0.00380691
0.00192146
8.07664e-05
-0.00142549
-0.00244524
-0.00292663
-0.00293925
-0.00256134
-0.00196453
-0.00118874
-0.000436086
-0.0187821
-0.0198125
-0.0204974
-0.0208891
-0.0211479
-0.0213834
-0.0216241
-0.0218506
-0.0220331
-0.0221514
-0.0221976
-0.0221709
-0.0220719
-0.0219005
-0.0216552
-0.0213346
-0.0209379
-0.0204658
-0.0199204
-0.0193054
-0.0186254
-0.0178863
-0.0170951
-0.0162593
-0.0153868
-0.0144854
-0.013562
-0.0126234
-0.0116741
-0.0107148
-0.0097441
-0.00875938
-0.00775508
-0.00672334
-0.00565522