/*--------------------------------*- C++ -*----------------------------------*\
| =========                 |                                                 |
| \\      /  F ield         | OpenFOAM: The Open Source CFD Toolbox           |
|  \\    /   O peration     | Version:  2512                                  |
|   \\  /    A nd           | Website:  www.openfoam.com                      |
|    \\/     M anipulation  |                                                 |
\*---------------------------------------------------------------------------*/
FoamFile
{
    version     2.0;
    format      ascii;
    arch        "LSB;label=32;scalar=64";
    class       volScalarField;
    location    "192.75";
    object      p;
}
// * * * * * * * * * * * * * * * * * * * * * * * * * * * * * * * * * * * * * //

dimensions      [0 2 -2 0 0 0 0];

internalField   nonuniform List<scalar> 
13248
(
-0.356578
-0.355044
-0.352205
-0.348379
-0.343928
-0.339214
-0.334585
-0.330363
-0.3268
-0.324061
-0.322196
-0.321136
-0.320695
-0.320594
-0.320487
-0.32001
-0.318814
-0.316613
-0.313191
-0.308452
-0.302206
-0.294613
-0.284488
-0.272695
-0.365049
-0.362715
-0.359282
-0.355027
-0.350263
-0.345323
-0.340497
-0.336022
-0.332052
-0.328645
-0.325759
-0.323252
-0.320907
-0.318462
-0.315652
-0.312236
-0.308031
-0.302919
-0.296839
-0.289763
-0.281654
-0.272509
-0.262033
-0.251066
-0.375792
-0.372387
-0.368168
-0.363355
-0.358177
-0.352905
-0.347742
-0.342804
-0.338125
-0.333661
-0.329302
-0.324896
-0.320272
-0.315273
-0.309776
-0.303703
-0.297021
-0.289732
-0.281844
-0.273375
-0.264289
-0.254643
-0.244226
-0.233667
-0.388685
-0.383988
-0.378822
-0.373328
-0.3676
-0.361817
-0.356058
-0.350301
-0.344464
-0.338441
-0.33213
-0.32545
-0.318354
-0.310836
-0.302919
-0.294648
-0.286071
-0.277226
-0.268135
-0.258799
-0.249211
-0.239401
-0.22926
-0.219381
-0.40361
-0.397464
-0.391238
-0.384947
-0.3785
-0.371941
-0.365202
-0.358133
-0.350593
-0.3425
-0.33385
-0.324704
-0.31517
-0.305373
-0.295432
-0.28544
-0.275456
-0.265507
-0.255595
-0.245707
-0.235824
-0.225951
-0.216025
-0.206414
-0.420443
-0.412752
-0.405397
-0.398199
-0.390806
-0.383088
-0.374843
-0.36586
-0.356041
-0.345434
-0.334205
-0.322579
-0.310789
-0.299031
-0.287444
-0.276111
-0.265063
-0.254297
-0.243789
-0.233507
-0.223422
-0.213516
-0.203753
-0.194365
-0.438973
-0.429703
-0.42118
-0.412932
-0.404264
-0.394868
-0.384475
-0.372938
-0.360331
-0.346914
-0.333044
-0.319073
-0.305289
-0.291886
-0.278972
-0.266585
-0.254714
-0.243325
-0.23237
-0.221802
-0.211579
-0.201665
-0.192039
-0.182787
-0.458818
-0.447998
-0.438272
-0.428756
-0.41836
-0.406646
-0.393421
-0.378757
-0.363007
-0.346673
-0.330258
-0.314167
-0.298666
-0.283897
-0.269906
-0.256675
-0.244154
-0.232281
-0.220988
-0.210215
-0.199908
-0.190022
-0.180535
-0.171425
-0.479366
-0.467087
-0.456099
-0.444997
-0.432302
-0.417582
-0.400906
-0.382713
-0.36368
-0.344507
-0.325763
-0.307821
-0.290872
-0.274977
-0.260111
-0.246207
-0.233179
-0.22094
-0.209407
-0.198506
-0.188173
-0.178358
-0.169024
-0.160068
-0.499741
-0.486147
-0.47379
-0.460679
-0.445053
-0.426696
-0.406134
-0.384254
-0.36202
-0.34024
-0.319454
-0.299943
-0.281795
-0.264983
-0.249417
-0.234988
-0.221579
-0.209084
-0.197404
-0.186452
-0.176155
-0.166454
-0.157288
-0.148518
-0.51883
-0.504089
-0.490186
-0.474565
-0.455395
-0.432925
-0.408279
-0.382782
-0.357595
-0.333524
-0.311009
-0.290204
-0.271088
-0.253553
-0.237456
-0.222647
-0.208988
-0.196352
-0.184627
-0.173714
-0.163529
-0.154002
-0.145035
-0.136504
-0.53539
-0.519699
-0.504041
-0.485384
-0.462121
-0.435204
-0.406432
-0.377508
-0.349675
-0.323649
-0.299717
-0.277893
-0.25805
-0.240004
-0.223563
-0.208546
-0.19479
-0.182154
-0.17051
-0.159751
-0.149786
-0.14053
-0.131859
-0.123706
-0.34301
-0.344608
-0.345506
-0.346041
-0.34657
-0.347261
-0.348213
-0.349493
-0.351142
-0.353194
-0.355686
-0.358665
-0.362188
-0.366316
-0.371109
-0.376614
-0.382856
-0.389823
-0.397457
-0.405637
-0.414153
-0.422698
-0.430866
-0.43834
-0.344207
-0.344922
-0.345262
-0.345412
-0.345625
-0.346066
-0.346858
-0.348088
-0.349825
-0.35213
-0.355072
-0.358732
-0.363201
-0.368574
-0.374939
-0.382364
-0.390882
-0.400466
-0.411023
-0.422403
-0.434258
-0.446203
-0.457643
-0.468054
-0.345539
-0.345394
-0.34517
-0.344902
-0.344752
-0.344877
-0.345417
-0.346484
-0.348168
-0.350556
-0.353739
-0.357814
-0.362897
-0.369097
-0.376513
-0.385216
-0.395232
-0.406517
-0.418943
-0.432278
-0.446166
-0.460125
-0.473484
-0.485416
-0.346569
-0.34568
-0.344921
-0.344225
-0.343649
-0.343356
-0.34351
-0.344245
-0.345678
-0.347915
-0.35106
-0.355228
-0.360533
-0.367088
-0.374988
-0.384292
-0.395008
-0.407067
-0.420307
-0.434455
-0.449121
-0.463762
-0.477898
-0.490131
-0.347035
-0.345602
-0.34439
-0.343253
-0.342188
-0.341367
-0.340979
-0.341189
-0.342143
-0.343968
-0.346786
-0.350712
-0.355862
-0.362339
-0.370221
-0.37955
-0.390305
-0.402391
-0.415611
-0.429651
-0.444093
-0.458134
-0.471592
-0.481704
-0.346866
-0.345137
-0.343579
-0.342011
-0.340411
-0.338963
-0.337889
-0.337393
-0.337656
-0.338835
-0.341067
-0.344478
-0.349176
-0.355253
-0.362768
-0.371737
-0.382114
-0.393772
-0.406478
-0.419851
-0.433515
-0.446485
-0.45908
-0.467347
-0.346188
-0.344418
-0.342629
-0.340658
-0.3385
-0.336366
-0.334513
-0.333189
-0.332617
-0.332992
-0.334474
-0.337201
-0.34128
-0.346791
-0.353773
-0.362213
-0.372021
-0.383031
-0.394977
-0.407395
-0.419934
-0.43122
-0.44221
-0.447777
-0.345313
-0.343709
-0.34179
-0.339452
-0.336749
-0.333926
-0.331279
-0.329101
-0.327664
-0.327199
-0.327898
-0.329914
-0.333355
-0.338285
-0.344709
-0.352578
-0.361754
-0.371973
-0.382887
-0.393908
-0.404696
-0.413652
-0.421983
-0.424123
-0.344716
-0.343392
-0.341399
-0.338731
-0.335529
-0.332078
-0.328711
-0.325768
-0.32356
-0.322357
-0.322377
-0.32378
-0.326666
-0.33107
-0.336954
-0.344172
-0.35249
-0.361546
-0.370897
-0.379881
-0.388104
-0.394081
-0.39881
-0.397354
-0.344984
-0.343929
-0.341863
-0.338896
-0.335268
-0.331304
-0.327372
-0.323842
-0.321058
-0.319311
-0.318827
-0.319755
-0.322158
-0.326007
-0.331166
-0.337394
-0.344337
-0.351549
-0.35852
-0.364653
-0.369563
-0.372238
-0.37328
-0.368791
-0.346739
-0.345803
-0.343601
-0.340355
-0.336385
-0.332049
-0.327736
-0.323828
-0.320675
-0.318562
-0.317691
-0.318167
-0.319982
-0.323012
-0.327016
-0.331648
-0.336468
-0.340996
-0.344735
-0.347277
-0.348365
-0.347707
-0.345824
-0.339879
-0.350502
-0.349426
-0.346973
-0.34344
-0.339193
-0.334606
-0.330068
-0.325944
-0.322558
-0.320153
-0.318873
-0.318743
-0.319665
-0.321417
-0.323672
-0.326027
-0.328036
-0.329268
-0.329329
-0.327993
-0.325046
-0.320753
-0.315448
-0.308968
-0.446416
-0.45199
-0.452118
-0.44511
-0.429928
-0.405884
-0.373712
-0.335266
-0.293767
-0.253183
-0.217289
-0.188893
-0.169809
-0.161201
-0.163553
-0.175579
-0.192804
-0.207674
-0.211973
-0.201211
-0.17721
-0.147233
-0.119218
-0.0981398
-0.0856017
-0.0809592
-0.0829248
-0.0917432
-0.109186
-0.133579
-0.155654
-0.162847
-0.151995
-0.127986
-0.101839
-0.081492
-0.0690082
-0.0629114
-0.063585
-0.0725595
-0.0859375
-0.0937768
-0.0890873
-0.0767639
-0.0641873
-0.0549779
-0.0504859
-0.0517988
-0.0569548
-0.0600732
-0.0563524
-0.0507985
-0.0438916
-0.0366047
-0.0327267
-0.0296835
-0.0274586
-0.0265977
-0.0197641
-0.00466231
-0.479782
-0.487326
-0.48814
-0.480946
-0.464223
-0.437236
-0.400669
-0.356733
-0.309078
-0.262085
-0.219841
-0.185357
-0.160351
-0.145647
-0.141661
-0.147715
-0.16054
-0.173723
-0.179471
-0.172575
-0.154325
-0.130335
-0.107573
-0.0908292
-0.0819413
-0.0804448
-0.0852918
-0.0972162
-0.118156
-0.14583
-0.169875
-0.176003
-0.163617
-0.136458
-0.107065
-0.0837759
-0.0687381
-0.0603778
-0.0586309
-0.0648672
-0.0759631
-0.0827492
-0.0790683
-0.0692441
-0.0596971
-0.0531358
-0.0510752
-0.0550342
-0.0623068
-0.0667155
-0.0619469
-0.0547161
-0.0459451
-0.0366837
-0.0312963
-0.0263806
-0.0238546
-0.0228722
-0.0170216
-0.00407196
-0.499836
-0.508619
-0.509876
-0.502615
-0.485068
-0.45627
-0.416862
-0.369199
-0.317147
-0.265345
-0.218161
-0.178743
-0.148722
-0.128683
-0.118798
-0.118821
-0.1267
-0.137439
-0.144066
-0.140946
-0.128604
-0.110737
-0.0934332
-0.0812713
-0.0762375
-0.0779738
-0.0856946
-0.100541
-0.124535
-0.154986
-0.180955
-0.188517
-0.173136
-0.143249
-0.11109
-0.0852499
-0.0679316
-0.057521
-0.0535357
-0.0571427
-0.0660059
-0.0717563
-0.0689609
-0.0615405
-0.0548804
-0.0509051
-0.0513486
-0.0580742
-0.0675517
-0.0732612
-0.0673904
-0.0583628
-0.047754
-0.0366418
-0.0298731
-0.0231482
-0.020289
-0.0191314
-0.0142679
-0.00348098
-0.50673
-0.515008
-0.51665
-0.509734
-0.492106
-0.462644
-0.422015
-0.372622
-0.318378
-0.264014
-0.213925
-0.171199
-0.137371
-0.112899
-0.0978269
-0.0920242
-0.0944656
-0.101784
-0.108293
-0.108083
-0.101326
-0.0892777
-0.0773123
-0.0697147
-0.0684648
-0.0732735
-0.0835961
-0.100904
-0.127369
-0.16018
-0.187992
-0.196311
-0.180007
-0.14815
-0.113819
-0.0859274
-0.0666922
-0.054497
-0.0485253
-0.0497039
-0.0564407
-0.0611425
-0.0590161
-0.0538342
-0.0498249
-0.0482997
-0.0512345
-0.0607725
-0.0725217
-0.079558
-0.0725925
-0.0616905
-0.0492884
-0.0364698
-0.0284658
-0.0200152
-0.0167952
-0.0154147
-0.0115272
-0.00289511
-0.494642
-0.505929
-0.508976
-0.503202
-0.486244
-0.457177
-0.416966
-0.36799
-0.313994
-0.259509
-0.208694
-0.164434
-0.128155
-0.100246
-0.0807209
-0.0695794
-0.0664533
-0.0694735
-0.074702
-0.0777859
-0.0738749
-0.0668452
-0.0597713
-0.0564106
-0.0586049
-0.0661413
-0.0786565
-0.0978895
-0.126225
-0.160968
-0.190548
-0.200065
-0.183998
-0.151095
-0.115284
-0.0858836
-0.0651336
-0.0514533
-0.0437861
-0.0427765
-0.0475382
-0.051235
-0.0494599
-0.0462955
-0.0446098
-0.0453213
-0.0506539
-0.0629829
-0.0770309
-0.0854181
-0.0774432
-0.0646517
-0.0505288
-0.0361615
-0.0270799
-0.0170066
-0.013404
-0.0117587
-0.0088222
-0.00231994
-0.478889
-0.48701
-0.490061
-0.485358
-0.469383
-0.441605
-0.403337
-0.356764
-0.30525
-0.252899
-0.203413
-0.159351
-0.122023
-0.0918125
-0.0687382
-0.0528962
-0.0443737
-0.0424763
-0.0448291
-0.04774
-0.0472351
-0.0444337
-0.0415075
-0.0417623
-0.0468816
-0.0566997
-0.0709555
-0.0915539
-0.121091
-0.157259
-0.188567
-0.199766
-0.185011
-0.152051
-0.115532
-0.0851922
-0.0633434
-0.0484864
-0.0394226
-0.0365155
-0.0394822
-0.0423023
-0.0425946
-0.0391046
-0.0393079
-0.041984
-0.0495446
-0.0645654
-0.0808803
-0.0906531
-0.0818357
-0.0672089
-0.0514606
-0.0357092
-0.0257117
-0.0141424
-0.0101409
-0.00819642
-0.0061719
-0.00176057
-0.455864
-0.460021
-0.462563
-0.458686
-0.443882
-0.418244
-0.383307
-0.340826
-0.293608
-0.24516
-0.198622
-0.156178
-0.119031
-0.0876325
-0.0620619
-0.0424438
-0.0290916
-0.0221107
-0.0205192
-0.0219091
-0.0230476
-0.0230315
-0.0233194
-0.0264146
-0.033804
-0.045351
-0.0608357
-0.0822119
-0.112292
-0.149333
-0.182331
-0.195591
-0.183073
-0.151035
-0.114631
-0.0839214
-0.0613834
-0.0456556
-0.035485
-0.0309782
-0.0323477
-0.0342956
-0.0344534
-0.0322733
-0.0340031
-0.0383277
-0.0478638
-0.0653947
-0.083891
-0.0950946
-0.0856664
-0.0693297
-0.052075
-0.0351097
-0.0243522
-0.0114332
-0.00702495
-0.00475715
-0.00359062
-0.00122237
-0.42712
-0.427042
-0.428977
-0.425766
-0.412379
-0.38974
-0.359289
-0.322129
-0.280433
-0.237042
-0.194506
-0.154671
-0.118659
-0.0870266
-0.0599837
-0.0376858
-0.0204681
-0.00880774
-0.00275856
-0.00123072
-0.00201256
-0.0033727
-0.00593963
-0.0110416
-0.0199553
-0.0326026
-0.0487949
-0.0704416
-0.100486
-0.137867
-0.172444
-0.188126
-0.1784
-0.148123
-0.112639
-0.0821196
-0.0592901
-0.0429932
-0.0319942
-0.0261776
-0.026153
-0.02729
-0.0273028
-0.0259638
-0.0287926
-0.0344133
-0.0456042
-0.0653749
-0.0859212
-0.0985979
-0.0888382
-0.0709898
-0.0523745
-0.0343696
-0.0230085
-0.0088872
-0.00406684
-0.00146548
-0.00108833
-0.000711102
-0.394571
-0.390685
-0.392421
-0.389734
-0.378027
-0.359096
-0.333818
-0.302555
-0.266896
-0.229027
-0.190951
-0.154245
-0.119993
-0.0888569
-0.061214
-0.0373012
-0.0174025
-0.00200307
0.00833356
0.0136165
0.0149324
0.0136545
0.0100761
0.00387684
-0.00582759
-0.0189492
-0.035353
-0.0568695
-0.0865401
-0.123905
-0.159862
-0.178822
-0.171335
-0.14352
-0.109748
-0.0799612
-0.057207
-0.0406118
-0.0290235
-0.0221437
-0.0209112
-0.0213129
-0.0211517
-0.020268
-0.023782
-0.0303187
-0.0427571
-0.0644539
-0.0868814
-0.101055
-0.0912731
-0.0721895
-0.0523906
-0.0335097
-0.0217103
-0.00653985
-0.00127403
0.00165931
0.0013295
-0.000233045
-0.360862
-0.355065
-0.357
-0.354406
-0.344518
-0.329581
-0.309495
-0.284023
-0.254269
-0.221815
-0.18819
-0.154748
-0.122564
-0.0924056
-0.0648035
-0.0400952
-0.0185438
-0.000516616
0.0133578
0.0224974
0.026948
0.0273917
0.0242488
0.0179919
0.00816439
-0.00492231
-0.021174
-0.0423692
-0.0713716
-0.108238
-0.14536
-0.170085
-0.162168
-0.137646
-0.106404
-0.077869
-0.05547
-0.0387557
-0.0267287
-0.0189288
-0.016608
-0.0163738
-0.0160265
-0.0152319
-0.0190363
-0.0261302
-0.0394213
-0.0626167
-0.0867016
-0.102382
-0.0929216
-0.072953
-0.0521719
-0.032554
-0.0204496
-0.00444621
0.0013314
0.00459498
0.00366123
0.000204512
-0.329913
-0.32484
-0.326509
-0.323264
-0.315153
-0.303969
-0.288602
-0.268483
-0.244269
-0.216977
-0.187708
-0.157584
-0.127632
-0.098707
-0.0714639
-0.0463432
-0.0237209
-0.00391906
0.0126579
0.0253019
0.0334273
0.0370789
0.0357826
0.0307002
0.0216055
0.00916431
-0.00652538
-0.0271933
-0.0556473
-0.0923145
-0.129397
-0.153776
-0.150851
-0.130323
-0.102382
-0.0756585
-0.053871
-0.037202
-0.024905
-0.0163231
-0.0129828
-0.012225
-0.0118803
-0.0109802
-0.0147313
-0.0219036
-0.0354748
-0.0598978
-0.0855094
-0.102524
-0.0935977
-0.0731904
-0.0516366
-0.0314475
-0.0190969
-0.00253064
0.00373763
0.00730157
0.00590914
0.000594932
-0.303088
-0.30166
-0.301181
-0.295832
-0.288486
-0.279642
-0.267662
-0.251827
-0.23232
-0.209674
-0.184616
-0.157993
-0.130687
-0.103543
-0.0772981
-0.0525424
-0.0297521
-0.00930026
0.0084744
0.0231361
0.0342403
0.0414297
0.0438285
0.0406093
0.033032
0.0218158
0.00704388
-0.0128072
-0.0401448
-0.0753287
-0.111055
-0.134112
-0.135219
-0.119354
-0.0952248
-0.0709286
-0.050351
-0.0342891
-0.0222676
-0.0134277
-0.0094002
-0.00819212
-0.0080238
-0.00815214
-0.0108903
-0.0180328
-0.0313925
-0.056362
-0.0830264
-0.101507
-0.0929968
-0.0725872
-0.0504393
-0.02996
-0.0174742
-0.000474741
0.00608331
0.00983725
0.00805765
0.000923717
-0.278646
-0.288482
-0.285188
-0.277125
-0.268623
-0.259458
-0.247971
-0.233184
-0.215055
-0.194077
-0.17093
-0.146346
-0.121067
-0.0958111
-0.0712176
-0.0478054
-0.0260051
-0.0061707
0.0114099
0.0264128
0.0384483
0.0475311
0.0513544
0.0504133
0.044875
0.035376
0.0219835
0.00275466
-0.025612
-0.0637054
-0.102147
-0.12747
-0.126267
-0.10971
-0.086587
-0.0639137
-0.0448423
-0.029895
-0.0186015
-0.0100567
-0.00590196
-0.00433743
-0.00395629
-0.00346202
-0.00569991
-0.0125157
-0.0257596
-0.0518699
-0.0805536
-0.101257
-0.0930468
-0.0715624
-0.0487249
-0.0281478
-0.0157856
0.00170764
0.00837788
0.0124083
0.0100977
0.00117908
-0.252626
-0.265861
-0.263262
-0.25405
-0.244553
-0.235326
-0.224651
-0.211235
-0.194873
-0.176027
-0.155322
-0.133349
-0.110674
-0.0878579
-0.0654374
-0.0438878
-0.0236142
-0.00494789
0.0118488
0.0265346
0.0387453
0.0474474
0.0532648
0.0542336
0.0505971
0.0429646
0.0311903
0.0128231
-0.0159338
-0.0546849
-0.0919182
-0.111235
-0.111886
-0.0966977
-0.0762279
-0.0563138
-0.0393274
-0.0257734
-0.0153902
-0.00726917
-0.00306247
-0.00132064
-0.00101
-0.000456535
-0.00229285
-0.00846958
-0.0212747
-0.0477805
-0.077587
-0.0992182
-0.0911875
-0.0693376
-0.0464477
-0.0260328
-0.0139018
0.00364016
0.0102097
0.0146262
0.0117786
0.00141175
-0.228631
-0.242137
-0.240643
-0.231809
-0.222277
-0.213377
-0.203662
-0.191727
-0.177202
-0.160444
-0.141999
-0.122357
-0.101965
-0.0812811
-0.0607742
-0.0408835
-0.0219938
-0.00442779
0.0115425
0.0256779
0.0376626
0.0467929
0.0529833
0.0549692
0.0525995
0.0462475
0.0355012
0.0175878
-0.0106487
-0.0469341
-0.0797602
-0.0966119
-0.096474
-0.0835225
-0.0661528
-0.0490086
-0.0340234
-0.0217757
-0.0122727
-0.00462947
-0.000458752
0.00143184
0.0016834
0.00235881
0.000589877
-0.00539432
-0.0179813
-0.0442612
-0.0737445
-0.0954194
-0.0880622
-0.0663871
-0.0437733
-0.023704
-0.0118821
0.00548797
0.0119453
0.0166698
0.0132757
0.00166398
-0.206997
-0.2193
-0.21869
-0.2109
-0.201898
-0.193432
-0.184517
-0.173844
-0.160933
-0.146017
-0.129566
-0.112012
-0.0937222
-0.0750666
-0.0564358
-0.0382155
-0.0207613
-0.00438051
0.0106535
0.0240929
0.0356427
0.0446912
0.0510217
0.0537056
0.0523244
0.0469954
0.0371447
0.0201241
-0.00610221
-0.0382916
-0.0665114
-0.0809608
-0.0807188
-0.0703439
-0.0561027
-0.041716
-0.0287541
-0.0178314
-0.00923461
-0.00213529
0.00192908
0.00396405
0.00426904
0.00506348
0.00338832
-0.00251301
-0.0148082
-0.0402138
-0.0686878
-0.0903231
-0.0838438
-0.0627391
-0.0406834
-0.0211647
-0.00970042
0.00724218
0.0135982
0.0185392
0.0146617
0.00193604
-0.186445
-0.197736
-0.197798
-0.191103
-0.182862
-0.174957
-0.1668
-0.157275
-0.145856
-0.132658
-0.118066
-0.102454
-0.0861312
-0.0693918
-0.0525582
-0.0359671
-0.0199473
-0.00479398
0.00922089
0.0218416
0.032826
0.0415202
0.047806
0.0508933
0.0502639
0.0458441
0.0370474
0.0216997
-0.00136043
-0.0288731
-0.0525213
-0.0647991
-0.0652197
-0.0575806
-0.0464243
-0.0346781
-0.0236661
-0.0140259
-0.00631049
0.000209884
0.00411062
0.00626924
0.00669778
0.00756636
0.00611923
0.000455766
-0.0111464
-0.0352081
-0.0625222
-0.0838896
-0.0784079
-0.0583296
-0.0371864
-0.0184344
-0.00738002
0.00889186
0.015129
0.0202021
0.0159324
0.00222088
-0.167283
-0.177705
-0.178164
-0.172422
-0.165037
-0.157827
-0.15046
-0.142013
-0.131969
-0.120356
-0.107475
-0.0936478
-0.0791371
-0.0641859
-0.0490609
-0.0340526
-0.0194592
-0.00556142
0.00737348
0.0190792
0.0291893
0.0376218
0.0437364
0.047014
0.0469649
0.0433919
0.0357839
0.0225837
0.00326547
-0.0193113
-0.0386685
-0.0493397
-0.0508106
-0.0457666
-0.0373924
-0.0280197
-0.0188186
-0.0104014
-0.00352491
0.00240356
0.00609525
0.0083394
0.0089523
0.00989734
0.00877801
0.00353396
-0.00702191
-0.0294412
-0.0553178
-0.0760675
-0.0717506
-0.0531681
-0.0333174
-0.0155466
-0.00494823
0.0104274
0.016512
0.0216193
0.0170428
0.00251696
-0.149823
-0.159152
-0.159812
-0.154926
-0.148425
-0.141984
-0.13542
-0.12798
-0.119187
-0.109017
-0.0977014
-0.0855116
-0.0726744
-0.0593927
-0.0458871
-0.0324052
-0.0192122
-0.00656887
0.00527023
0.0160488
0.0254633
0.0333114
0.0391392
0.042482
0.0429003
0.040131
0.0337857
0.022914
0.00741102
-0.0105283
-0.0262217
-0.0356686
-0.0381138
-0.0352228
-0.0291821
-0.0218501
-0.0142773
-0.00700417
-0.000908343
0.00444161
0.00789795
0.0101864
0.0110381
0.0120933
0.0113579
0.00665018
-0.00266551
-0.0230931
-0.047147
-0.0670011
-0.0639859
-0.0473148
-0.0291278
-0.0125448
-0.00244205
0.0118453
0.017733
0.0227551
0.0179496
0.00283079
-0.133665
-0.14195
-0.142775
-0.138673
-0.133024
-0.127351
-0.121573
-0.115067
-0.107412
-0.0985542
-0.08867
-0.0779845
-0.066692
-0.0549632
-0.0429812
-0.0309558
-0.0191191
-0.0077091
0.00303594
0.0128728
0.0215334
0.0287816
0.0342661
0.0375932
0.0383883
0.0363839
0.0313255
0.0227056
0.0106018
-0.0034166
-0.0160492
-0.0243403
-0.027388
-0.0260908
-0.0218938
-0.0162463
-0.0100898
-0.0038665
0.00151229
0.00632032
0.00953356
0.011832
0.0129579
0.0141835
0.0138546
0.00976993
0.00184079
-0.0162511
-0.038226
-0.0569697
-0.0553162
-0.0408852
-0.0246875
-0.00947997
9.2715e-05
0.0131532
0.0187898
0.0235862
0.0186306
0.00317544
-0.118689
-0.126124
-0.127085
-0.123665
-0.118795
-0.113854
-0.108822
-0.103184
-0.0965645
-0.0888978
-0.0803173
-0.0710085
-0.0611361
-0.0508441
-0.0402853
-0.0296367
-0.0191
-0.00888844
0.000780043
0.00968056
0.0175711
0.0242146
0.0293263
0.0325825
0.0336793
0.0323799
0.028524
0.0218635
0.0125554
0.00172468
-0.00828452
-0.0153676
-0.0186072
-0.0183698
-0.0155537
-0.011251
-0.00629014
-0.00101085
0.00371348
0.0080323
0.0110118
0.0132972
0.0147068
0.0161893
0.0162985
0.0129527
0.00651105
-0.00909239
-0.0289098
-0.0463612
-0.0460337
-0.0340533
-0.0200832
-0.00640613
0.00260266
0.0143717
0.0196984
0.0241118
0.01909
0.0035697
-0.105045
-0.11166
-0.112677
-0.109843
-0.105683
-0.101424
-0.0970893
-0.0922483
-0.08657
-0.0799809
-0.0725824
-0.0645271
-0.055954
-0.0469844
-0.037746
-0.0283878
-0.0190831
-0.0100195
-0.00139283
0.00659394
0.013722
0.0197688
0.0244985
0.0276486
0.028978
0.0282878
0.0254771
0.0204482
0.0134043
0.00516282
-0.00261443
-0.0084933
-0.0115933
-0.0119703
-0.0101379
-0.00687952
-0.00290074
0.00154912
0.00567893
0.00956419
0.0123381
0.0145963
0.0162713
0.0180982
0.0187449
0.0162901
0.0113043
-0.00193022
-0.0196493
-0.0356539
-0.0365267
-0.0270522
-0.015417
-0.00337659
0.00503004
0.0155335
0.020496
0.0243593
0.0193618
0.00403844
-0.0926342
-0.0984373
-0.0994692
-0.0971528
-0.0936365
-0.0900047
-0.0863093
-0.0821922
-0.0773623
-0.0717428
-0.0654102
-0.05849
-0.0510988
-0.0433386
-0.0353158
-0.0271551
-0.0190041
-0.011025
-0.00339078
0.00371706
0.0101045
0.0155748
0.0199264
0.0229467
0.0244447
0.0242637
0.0223423
0.0186633
0.0134452
0.00729748
0.00137979
-0.00335763
-0.00610427
-0.00676271
-0.00559345
-0.0031242
6.77221e-05
0.0038062
0.00740223
0.0108991
0.0135085
0.0157392
0.0176388
0.0198408
0.0211824
0.0197735
0.0160637
0.0048205
-0.0109552
-0.0253708
-0.0272233
-0.0201493
-0.0108026
-0.000443459
0.00731704
0.0166726
0.0212368
0.0243864
0.0195133
0.00460962
-0.0812713
-0.086374
-0.0874181
-0.0855529
-0.0826082
-0.0795405
-0.0764215
-0.0729539
-0.0688822
-0.0641294
-0.0587519
-0.0528525
-0.0465289
-0.0398663
-0.0329531
-0.0258925
-0.0188089
-0.0118421
-0.00514126
0.00113505
0.00681691
0.0117361
0.0157195
0.0185947
0.0202113
0.02045
0.0192749
0.0167068
0.0129529
0.00846329
0.00404768
0.000388613
-0.00189071
-0.00260493
-0.00185009
4.07657e-05
0.00261632
0.00575771
0.00888487
0.0120256
0.0145052
0.0167234
0.018803
0.0213143
0.0233897
0.0231028
0.0204004
0.0106878
-0.00327964
-0.0159604
-0.0185075
-0.0136101
-0.00636324
0.00233988
0.00940878
0.0178002
0.0219699
0.0242744
0.0196339
0.00530082
-0.0709488
-0.0754342
-0.0764656
-0.0749809
-0.0725364
-0.0699706
-0.0673657
-0.0644749
-0.061075
-0.0570908
-0.0525631
-0.0475751
-0.0422085
-0.0365341
-0.0306244
-0.0245646
-0.0184579
-0.012423
-0.00658893
-0.0010902
0.00392961
0.00832982
0.0119596
0.0146794
0.0163724
0.0169477
0.0163862
0.0147247
0.0121383
0.00896076
0.00572626
0.00304316
0.00127356
0.000649525
0.00117283
0.00265423
0.00475724
0.00740611
0.0101304
0.0129428
0.0153095
0.0175212
0.0197318
0.0224341
0.0250593
0.0256998
0.0237122
0.0152679
0.00312645
-0.00772623
-0.0106946
-0.00767021
-0.00222647
0.00491682
0.0112573
0.018879
0.0227124
0.0241104
0.0197951
0.00609205
-0.0616376
-0.0655389
-0.0665231
-0.0653584
-0.063355
-0.0612355
-0.0590852
-0.0567017
-0.0538918
-0.0505838
-0.0468059
-0.0426252
-0.0381092
-0.0333163
-0.0283059
-0.0231474
-0.0179258
-0.012739
-0.00769675
-0.00291479
0.00148926
0.00540433
0.00869785
0.0112547
0.0129848
0.0138203
0.0137499
0.0128144
0.0111581
0.00902493
0.00678074
0.00487518
0.00359577
0.00314054
0.00356034
0.00476347
0.00651202
0.0087597
0.011143
0.0136553
0.0159081
0.0180936
0.0203615
0.023115
0.0259324
0.0270814
0.0255627
0.0183897
0.00817505
-0.000874557
-0.00402498
-0.00249958
0.00149054
0.00723107
0.0128232
0.019813
0.023414
0.0239628
0.0199958
0.00689375
-0.0532101
-0.0565945
-0.0575272
-0.0566322
-0.0550095
-0.0532803
-0.0515277
-0.0495856
-0.0472886
-0.04457
-0.0414477
-0.0379756
-0.034209
-0.0301956
-0.0259831
-0.0216275
-0.0171982
-0.0127761
-0.00845211
-0.0043211
-0.000481703
0.00298557
0.00595802
0.00834516
0.0100758
0.0110997
0.0114116
0.0110454
0.0101162
0.00880529
0.00735738
0.00609374
0.00525335
0.00499822
0.0053982
0.00642077
0.00790861
0.00983249
0.0119284
0.0141711
0.0162922
0.0184121
0.0206473
0.0233055
0.0259496
0.027203
0.0259979
0.0201492
0.0118611
0.00448526
0.00137413
0.00182138
0.00469945
0.00923907
0.0140793
0.0204534
0.0239313
0.023855
0.0201393
0.00754405
-0.0455957
-0.0485327
-0.0494137
-0.0487438
-0.0474443
-0.0460496
-0.04464
-0.0430787
-0.0412238
-0.0390141
-0.0364603
-0.0336045
-0.0304919
-0.0271612
-0.0236501
-0.0200031
-0.0162757
-0.0125331
-0.00885033
-0.00530644
-0.00199198
0.00107275
0.00374043
0.00595077
0.00764922
0.00879759
0.00939226
0.00946101
0.00908836
0.0084084
0.00758813
0.00685179
0.00639199
0.00633982
0.00676964
0.00768081
0.00897914
0.0106443
0.012495
0.0144971
0.016465
0.0184728
0.0205869
0.0230306
0.0252803
0.0263981
0.0254096
0.0208184
0.0142957
0.00841112
0.00552854
0.0053005
0.00735188
0.0109089
0.0150168
0.020671
0.0240692
0.0236875
0.0200362
0.00787385
-0.0387521
-0.041293
-0.0421181
-0.0416256
-0.0405981
-0.0394884
-0.0383721
-0.0371362
-0.035659
-0.0338851
-0.0318195
-0.029495
-0.0269477
-0.024209
-0.0213088
-0.0182812
-0.0151694
-0.012024
-0.00890371
-0.00586619
-0.002959
-0.00033482
0.00202748
0.00405265
0.00568979
0.00690721
0.00769831
0.00808404
0.00812776
0.00791186
0.00758315
0.00727125
0.00713205
0.00726802
0.00775228
0.00859836
0.00975898
0.0112181
0.012857
0.0146412
0.0164396
0.0182963
0.0202102
0.0222306
0.0241448
0.0250609
0.0242345
0.0207311
0.0157173
0.0111175
0.00858558
0.0080035
0.00944252
0.0122096
0.0156311
0.0204239
0.0236697
0.0232285
0.0194457
0.00779744
-0.0326063
-0.0347933
-0.0355589
-0.0352215
-0.034419
-0.0335477
-0.032677
-0.0317159
-0.0305586
-0.0291544
-0.0275043
-0.0256338
-0.0235713
-0.0213415
-0.0189678
-0.0164764
-0.0139005
-0.0112797
-0.00866099
-0.00609354
-0.00362758
-0.00132703
0.000769642
0.00261331
0.00416659
0.00540587
0.00632174
0.00692887
0.00727285
0.00740922
0.0074374
0.00745379
0.00757313
0.0078716
0.00841689
0.00922657
0.0102851
0.0115786
0.0130331
0.0146189
0.0162382
0.0179155
0.0196004
0.0212894
0.0227872
0.0234932
0.0228016
0.0201872
0.0163995
0.012869
0.0107395
0.0100205
0.0109992
0.0131237
0.0159083
0.0197329
0.0226731
0.0222289
0.018224
0.00734401
-0.0270876
-0.0289671
-0.0296749
-0.0294627
-0.0288576
-0.028183
-0.027508
-0.0267787
-0.0258898
-0.0247966
-0.023497
-0.0220105
-0.0203598
-0.0185638
-0.0166404
-0.0146093
-0.0124959
-0.0103309
-0.00815065
-0.00599505
-0.00390508
-0.00191559
-7.29085e-05
0.00159039
0.00304036
0.00426279
0.00524527
0.00599562
0.00654208
0.00692673
0.00721659
0.00747848
0.00779664
0.00822639
0.00882716
0.00961529
0.0105945
0.0117529
0.0130463
0.0144505
0.0158881
0.0173712
0.0188216
0.0202162
0.0213584
0.021883
0.0213125
0.0193973
0.0165768
0.0139046
0.012174
0.0114427
0.012073
0.0136538
0.0158556
0.018698
0.0210649
0.0206005
0.0164466
0.00662084
-0.0221448
-0.023758
-0.0244096
-0.0242984
-0.0238588
-0.0233638
-0.0228719
-0.0223116
-0.0216325
-0.0207919
-0.0197825
-0.0186176
-0.0173134
-0.0158837
-0.0143421
-0.0127032
-0.0109858
-0.00921259
-0.00741144
-0.00561223
-0.003848
-0.00214847
-0.000544896
0.000936641
0.00226205
0.00344194
0.0044438
0.005273
0.00594901
0.00649907
0.00696979
0.00740555
0.00786811
0.00839614
0.00903943
0.00981099
0.0107243
0.0117696
0.012921
0.0141592
0.0154213
0.0167102
0.0179392
0.0190795
0.0199439
0.0203313
0.0198719
0.01849
0.0164181
0.0144164
0.013043
0.0123614
0.0127254
0.0138324
0.0155077
0.0174635
0.0190994
0.0185085
0.0143661
0.00575954
-0.0177265
-0.0191067
-0.0197021
-0.0196684
-0.0193602
-0.0190045
-0.0186518
-0.0182553
-0.0177542
-0.0171179
-0.0163435
-0.0154481
-0.0144339
-0.0133116
-0.012091
-0.0107828
-0.00940086
-0.00796193
-0.00648696
-0.00499757
-0.00351788
-0.00207198
-0.00068291
0.000626865
0.00184578
0.00293248
0.00390328
0.00475631
0.00549874
0.00614663
0.00673116
0.00728072
0.00783964
0.00843366
0.00910286
0.00985627
0.0107104
0.0116576
0.0126829
0.0137708
0.0148696
0.0159769
0.0170052
0.0179336
0.0185918
0.0188841
0.0185264
0.01754
0.0160344
0.0145463
0.0134787
0.0128672
0.0130185
0.0137174
0.0149145
0.0161276
0.0170258
0.0162337
0.012258
0.00487719
-0.0137812
-0.0149594
-0.0155015
-0.015528
-0.0153268
-0.0150855
-0.0148483
-0.014579
-0.0142286
-0.0137696
-0.0131971
-0.0125107
-0.0117288
-0.0108583
-0.00990453
-0.00887328
-0.00777395
-0.00661841
-0.00542169
-0.00419993
-0.00297168
-0.00175467
-0.000567383
0.00057367
0.00165357
0.00265779
0.0035812
0.00442199
0.00518465
0.00587843
0.00652368
0.00713784
0.00775193
0.00838223
0.00905944
0.00978904
0.0105869
0.0114464
0.0123585
0.0133115
0.0142623
0.0152063
0.0160608
0.0168178
0.0173272
0.0175558
0.0172887
0.0165897
0.0155001
0.0143929
0.0135837
0.0130492
0.0130108
0.013372
0.0141393
0.0147605
0.0150155
0.0140054
0.0103085
0.00405619
-0.0102645
-0.0112688
-0.011761
-0.0118334
-0.0117183
-0.0115693
-0.0114248
-0.0112562
-0.0110237
-0.010703
-0.0102881
-0.00978358
-0.0091971
-0.00853426
-0.00779971
-0.00699815
-0.0061352
-0.00521832
-0.00425804
-0.00326652
-0.00225753
-0.00124373
-0.000238927
0.00074403
0.00169225
0.00259626
0.00344964
0.00424944
0.00499712
0.00569699
0.00636159
0.00700096
0.00763605
0.00827645
0.00894445
0.00964268
0.0103844
0.0111637
0.011974
0.0128064
0.013626
0.0144275
0.0151387
0.0157578
0.0161599
0.0163451
0.0161547
0.0156609
0.0148702
0.0140185
0.0132507
0.0127317
0.0127461
0.0128574
0.0132472
0.0134144
0.013157
0.0119587
0.00860386
0.0033398
-0.0071372
-0.00799182
-0.00843742
-0.00854388
-0.00849706
-0.00842194
-0.00835088
-0.00826195
-0.00812261
-0.00791245
-0.00762596
-0.0072661
-0.00683792
-0.00634528
-0.00579103
-0.00517794
-0.00451065
-0.0037944
-0.00303451
-0.00223991
-0.00142083
-0.000586373
0.000253239
0.00108828
0.00190871
0.00270709
0.00347755
0.0042166
0.0049237
0.00559996
0.00625254
0.00688639
0.00751508
0.00814344
0.0087869
0.00944602
0.0101302
0.0108344
0.0115529
0.0122789
0.0129833
0.0136627
0.0142565
0.0147649
0.0150891
0.015245
0.0151158
0.014766
0.0141909
0.0135406
0.0129532
0.0124856
0.0123412
0.0122352
0.0122975
0.0121234
0.0114955
0.0101602
0.00716326
0.00274086
-0.00436253
-0.00508866
-0.00549119
-0.00562225
-0.00562908
-0.0056123
-0.00559902
-0.00557235
-0.00550615
-0.00538346
-0.00519914
-0.00495487
-0.00465412
-0.00429943
-0.00389238
-0.00343437
-0.00292775
-0.00237618
-0.0017853
-0.00115858
-0.000503302
0.000173907
0.0008654
0.00156427
0.0022628
0.00295487
0.00363536
0.00430085
0.00494976
0.00558125
0.0061988
0.00680408
0.00740522
0.00800398
0.00861005
0.00922273
0.00984756
0.0104803
0.0111157
0.0117476
0.0123516
0.012927
0.0134245
0.0138443
0.0141112
0.014245