/*--------------------------------*- C++ -*----------------------------------*\
| =========                 |                                                 |
| \\      /  F ield         | OpenFOAM: The Open Source CFD Toolbox           |
|  \\    /   O peration     | Version:  2512                                  |
|   \\  /    A nd           | Website:  www.openfoam.com                      |
|    \\/     M anipulation  |                                                 |
\*---------------------------------------------------------------------------*/
FoamFile
{
    version     2.0;
    format      ascii;
    arch        "LSB;label=32;scalar=64";
    class       volScalarField;
    location    "104.5";
    object      p;
}
// * * * * * * * * * * * * * * * * * * * * * * * * * * * * * * * * * * * * * //

dimensions      [0 2 -2 0 0 0 0];

internalField   nonuniform List<scalar> 
13248
(
-0.452897
-0.449854
-0.446827
-0.443991
-0.441511
-0.439561
-0.438137
-0.437051
-0.435961
-0.434409
-0.431876
-0.427842
-0.421857
-0.413598
-0.402909
-0.389819
-0.374521
-0.357338
-0.33866
-0.318908
-0.298374
-0.277454
-0.255534
-0.233234
-0.461675
-0.458008
-0.454236
-0.450552
-0.447123
-0.444113
-0.44149
-0.439015
-0.436295
-0.432843
-0.428159
-0.4218
-0.413454
-0.402975
-0.390394
-0.375898
-0.359787
-0.342418
-0.324156
-0.305332
-0.286206
-0.267025
-0.247685
-0.228845
-0.471843
-0.467367
-0.462776
-0.458235
-0.453846
-0.449724
-0.445772
-0.441685
-0.437031
-0.431344
-0.424207
-0.415332
-0.404595
-0.392043
-0.377867
-0.362353
-0.345828
-0.328616
-0.311005
-0.293238
-0.275491
-0.257952
-0.240552
-0.223604
-0.483677
-0.478182
-0.472683
-0.467245
-0.46183
-0.456456
-0.450933
-0.4449
-0.437933
-0.429658
-0.419825
-0.408352
-0.395322
-0.380943
-0.365498
-0.349295
-0.332621
-0.315722
-0.298796
-0.282
-0.265453
-0.249284
-0.233446
-0.218263
-0.497253
-0.490543
-0.484036
-0.47762
-0.471037
-0.464165
-0.456726
-0.448343
-0.438682
-0.427549
-0.414922
-0.400941
-0.385855
-0.369965
-0.353569
-0.336929
-0.320255
-0.303704
-0.287391
-0.271404
-0.255813
-0.240681
-0.225983
-0.211923
-0.51246
-0.504384
-0.496776
-0.489256
-0.481269
-0.47254
-0.462741
-0.451568
-0.438878
-0.424728
-0.409345
-0.393052
-0.376193
-0.359081
-0.341967
-0.325033
-0.308403
-0.292155
-0.276341
-0.260997
-0.246151
-0.231828
-0.218016
-0.204843
-0.529005
-0.519483
-0.510689
-0.50188
-0.492149
-0.481092
-0.468426
-0.454044
-0.438088
-0.420901
-0.402923
-0.384583
-0.366239
-0.34815
-0.330486
-0.313342
-0.296763
-0.280766
-0.265354
-0.250526
-0.236278
-0.222602
-0.209495
-0.196992
-0.546411
-0.535439
-0.525374
-0.515018
-0.503093
-0.489157
-0.47312
-0.4552
-0.435884
-0.415778
-0.395451
-0.375353
-0.355784
-0.336914
-0.318818
-0.301513
-0.284981
-0.269192
-0.254114
-0.239714
-0.225966
-0.212844
-0.20034
-0.188409
-0.56399
-0.551638
-0.540202
-0.527955
-0.513308
-0.495933
-0.47611
-0.454486
-0.431886
-0.409099
-0.386729
-0.365164
-0.344604
-0.325116
-0.306689
-0.289271
-0.272797
-0.257202
-0.242423
-0.228406
-0.215104
-0.202481
-0.190512
-0.17909
-0.580836
-0.567228
-0.554286
-0.539732
-0.521811
-0.500529
-0.47669
-0.451402
-0.42576
-0.400624
-0.376544
-0.353793
-0.332453
-0.312494
-0.293829
-0.276355
-0.25997
-0.244577
-0.230093
-0.216443
-0.203564
-0.191412
-0.179932
-0.168989
-0.595841
-0.581127
-0.566492
-0.549171
-0.52748
-0.501984
-0.474109
-0.445379
-0.417044
-0.389933
-0.364471
-0.340796
-0.318873
-0.298586
-0.279788
-0.262336
-0.246094
-0.230945
-0.216784
-0.20352
-0.19108
-0.1794
-0.16839
-0.157933
-0.607806
-0.592167
-0.575634
-0.555085
-0.529199
-0.499306
-0.467491
-0.435608
-0.404949
-0.376222
-0.349692
-0.32535
-0.303052
-0.282605
-0.263814
-0.246498
-0.230497
-0.215673
-0.201904
-0.189088
-0.177142
-0.165986
-0.155504
-0.145635
-0.335761
-0.338515
-0.340214
-0.341357
-0.342369
-0.343353
-0.344342
-0.345341
-0.346334
-0.34728
-0.348131
-0.348831
-0.349324
-0.349559
-0.349497
-0.349114
-0.348406
-0.347403
-0.34617
-0.344818
-0.343472
-0.342228
-0.341262
-0.341142
-0.345015
-0.347849
-0.349725
-0.351168
-0.352601
-0.354117
-0.355732
-0.35743
-0.359168
-0.360876
-0.362465
-0.363832
-0.364859
-0.36542
-0.365387
-0.364637
-0.36306
-0.360574
-0.357146
-0.3528
-0.347584
-0.341498
-0.334762
-0.328568
-0.355541
-0.358224
-0.360155
-0.361832
-0.363648
-0.365676
-0.367911
-0.370311
-0.37281
-0.375307
-0.377672
-0.379751
-0.381361
-0.382299
-0.382344
-0.381267
-0.378845
-0.374876
-0.369209
-0.361771
-0.352526
-0.341385
-0.328538
-0.315844
-0.367012
-0.369319
-0.371165
-0.372982
-0.375098
-0.377565
-0.380353
-0.383398
-0.3866
-0.389824
-0.392912
-0.39565
-0.397796
-0.39907
-0.399163
-0.397746
-0.394487
-0.389073
-0.38124
-0.370816
-0.357712
-0.34183
-0.323167
-0.303466
-0.378955
-0.380693
-0.38231
-0.38414
-0.38643
-0.389203
-0.392407
-0.395954
-0.399715
-0.403523
-0.407165
-0.410394
-0.412903
-0.414343
-0.414326
-0.412438
-0.408256
-0.401385
-0.391481
-0.378296
-0.361728
-0.341806
-0.318194
-0.2882
-0.390832
-0.391871
-0.393121
-0.394816
-0.397107
-0.399998
-0.403417
-0.407247
-0.411333
-0.415472
-0.419413
-0.422855
-0.42544
-0.426756
-0.426346
-0.423751
-0.418466
-0.410073
-0.398211
-0.382641
-0.363291
-0.340207
-0.313482
-0.28303
-0.402141
-0.402436
-0.40319
-0.40459
-0.40668
-0.409457
-0.412835
-0.416676
-0.4208
-0.424958
-0.428868
-0.432182
-0.43449
-0.435329
-0.4342
-0.430589
-0.424003
-0.41402
-0.40033
-0.382776
-0.361414
-0.336358
-0.308579
-0.276575
-0.412509
-0.412068
-0.41228
-0.413208
-0.414879
-0.417287
-0.420348
-0.423905
-0.427746
-0.4316
-0.435139
-0.437973
-0.439649
-0.439666
-0.437499
-0.432628
-0.42459
-0.413024
-0.397724
-0.378661
-0.356104
-0.330154
-0.302571
-0.270703
-0.421786
-0.420694
-0.420296
-0.420614
-0.421664
-0.423464
-0.425941
-0.428928
-0.432192
-0.435438
-0.438294
-0.440328
-0.441053
-0.439942
-0.436469
-0.430145
-0.420579
-0.407524
-0.390923
-0.3709
-0.347927
-0.322135
-0.295514
-0.265306
-0.430059
-0.428418
-0.42738
-0.426975
-0.42724
-0.428235
-0.429918
-0.43208
-0.434521
-0.436897
-0.438797
-0.43975
-0.439238
-0.43673
-0.431724
-0.423806
-0.412699
-0.398306
-0.380744
-0.360312
-0.337586
-0.312854
-0.287788
-0.260111
-0.43765
-0.435542
-0.433848
-0.432641
-0.432004
-0.43204
-0.432714
-0.433922
-0.435345
-0.436626
-0.43732
-0.436919
-0.434894
-0.430732
-0.424002
-0.414399
-0.401795
-0.386259
-0.368051
-0.347613
-0.325533
-0.30233
-0.279209
-0.254487
-0.445067
-0.442513
-0.440149
-0.438102
-0.436511
-0.435527
-0.435154
-0.435233
-0.435464
-0.435438
-0.434668
-0.432623
-0.428786
-0.422711
-0.414076
-0.402732
-0.388712
-0.372231
-0.353637
-0.333405
-0.311989
-0.290022
-0.268168
-0.246363
-0.34268
-0.346522
-0.352051
-0.358263
-0.363809
-0.366857
-0.365092
-0.357103
-0.340979
-0.316566
-0.284843
-0.248987
-0.213366
-0.182216
-0.158521
-0.143684
-0.138264
-0.14297
-0.158019
-0.180576
-0.203035
-0.214953
-0.209868
-0.187222
-0.15517
-0.123463
-0.0983401
-0.0819091
-0.0736357
-0.0720199
-0.0769484
-0.0900853
-0.109651
-0.126913
-0.130972
-0.119478
-0.0992788
-0.0802148
-0.0675666
-0.0610122
-0.060404
-0.0681479
-0.0812926
-0.090497
-0.0876151
-0.0748559
-0.0615724
-0.0505925
-0.0441102
-0.0426001
-0.0431211
-0.0430928
-0.0408666
-0.036372
-0.0322939
-0.0277463
-0.021686
-0.0203114
-0.0174872
-0.00704602
-0.323423
-0.318812
-0.316413
-0.315524
-0.315417
-0.314645
-0.311158
-0.303446
-0.290297
-0.271277
-0.246336
-0.218394
-0.190821
-0.167115
-0.14988
-0.140658
-0.140597
-0.150874
-0.171359
-0.198195
-0.222814
-0.233693
-0.227096
-0.200947
-0.164957
-0.129665
-0.101499
-0.0823257
-0.0714469
-0.0673083
-0.069412
-0.0791326
-0.0954434
-0.110962
-0.115831
-0.106813
-0.0900897
-0.0745995
-0.065061
-0.0611853
-0.0631416
-0.0736721
-0.0892971
-0.0997706
-0.0963235
-0.0812347
-0.0652015
-0.051628
-0.0431824
-0.0395391
-0.0382958
-0.0376765
-0.0357035
-0.0328494
-0.0300955
-0.0276588
-0.0232282
-0.0227649
-0.0203427
-0.00823541
-0.304359
-0.290625
-0.279511
-0.270449
-0.263432
-0.257614
-0.251568
-0.243616
-0.23155
-0.219031
-0.201104
-0.18127
-0.161741
-0.14551
-0.134917
-0.131683
-0.13744
-0.153479
-0.179055
-0.209514
-0.236118
-0.24908
-0.239
-0.210237
-0.17152
-0.133661
-0.103208
-0.0818304
-0.0686833
-0.0622087
-0.0616418
-0.0680088
-0.0809815
-0.0946353
-0.100046
-0.0934873
-0.0801853
-0.068244
-0.0618069
-0.0606589
-0.0652205
-0.0784657
-0.0964602
-0.108186
-0.104341
-0.0871265
-0.068443
-0.0523931
-0.0421523
-0.0366305
-0.0337847
-0.0325361
-0.0306407
-0.0292661
-0.0277861
-0.0275576
-0.0247936
-0.0251796
-0.0231534
-0.00941398
-0.287557
-0.264868
-0.245135
-0.227638
-0.212954
-0.200962
-0.191029
-0.181848
-0.16877
-0.160903
-0.150787
-0.138397
-0.126472
-0.117611
-0.113788
-0.11684
-0.128631
-0.150243
-0.180317
-0.213719
-0.241768
-0.25472
-0.244697
-0.214831
-0.174727
-0.13544
-0.103556
-0.0805971
-0.0656253
-0.0571036
-0.0540976
-0.0573106
-0.0669618
-0.0785564
-0.0841832
-0.0798966
-0.0698498
-0.0613085
-0.0578476
-0.059354
-0.0664211
-0.0822184
-0.102468
-0.115476
-0.11146
-0.0924114
-0.0712578
-0.0528904
-0.0410369
-0.0339039
-0.0296306
-0.027732
-0.0257364
-0.0256656
-0.025387
-0.0274485
-0.0263784
-0.0275329
-0.0258953
-0.0105696
-0.275624
-0.243752
-0.216438
-0.191356
-0.169081
-0.150344
-0.136133
-0.1251
-0.116732
-0.104286
-0.0991823
-0.0924969
-0.0872833
-0.0853028
-0.0880912
-0.0974735
-0.115172
-0.14182
-0.175555
-0.211147
-0.240321
-0.253753
-0.244459
-0.21486
-0.174776
-0.135268
-0.102793
-0.0788355
-0.0624941
-0.0522775
-0.0471641
-0.047495
-0.0539173
-0.0632759
-0.0687758
-0.0664463
-0.0593535
-0.0539335
-0.0532006
-0.0571781
-0.0665582
-0.0847003
-0.107064
-0.121376
-0.117461
-0.0969779
-0.0736261
-0.0531401
-0.039856
-0.0313688
-0.0258516
-0.0233104
-0.0210505
-0.0220906
-0.0229196
-0.0273357
-0.0279758
-0.0297999
-0.0285404
-0.0116894
-0.261617
-0.227368
-0.194072
-0.163273
-0.134722
-0.109402
-0.0922554
-0.0761185
-0.0644728
-0.0546134
-0.0512347
-0.0485615
-0.0485731
-0.0523168
-0.0610002
-0.0761497
-0.0990311
-0.129699
-0.165956
-0.202843
-0.232778
-0.246903
-0.238821
-0.210641
-0.171953
-0.133399
-0.101154
-0.0767443
-0.0594463
-0.047889
-0.0410348
-0.0388937
-0.0422826
-0.0492968
-0.0543132
-0.0535351
-0.0489602
-0.0462602
-0.047913
-0.0541038
-0.0655446
-0.0857661
-0.110047
-0.125682
-0.122182
-0.100733
-0.0755305
-0.0531596
-0.0386223
-0.0290162
-0.0224463
-0.019303
-0.0166335
-0.0185791
-0.020404
-0.0272187
-0.0295747
-0.0319547
-0.0310585
-0.0127605
-0.252411
-0.217243
-0.181092
-0.146769
-0.114507
-0.0854594
-0.061578
-0.0418452
-0.0274245
-0.0185435
-0.0132299
-0.0122068
-0.0153496
-0.0230398
-0.0361202
-0.055651
-0.0822993
-0.115544
-0.153024
-0.190237
-0.220389
-0.235137
-0.228651
-0.202825
-0.166701
-0.130133
-0.0988638
-0.0744946
-0.0565979
-0.0440179
-0.0357586
-0.0315905
-0.0322781
-0.0369614
-0.0412005
-0.0415365
-0.0389394
-0.0384677
-0.0421085
-0.0501821
-0.0633505
-0.0853341
-0.11132
-0.128282
-0.125505
-0.103593
-0.0769494
-0.0529603
-0.0373449
-0.0268257
-0.0193904
-0.0157238
-0.012524
-0.0151638
-0.0178583
-0.027093
-0.0311607
-0.0339722
-0.0334176
-0.0137702
-0.245737
-0.211629
-0.176024
-0.141085
-0.107355
-0.076031
-0.0484054
-0.0251039
-0.00717149
0.00499923
0.0118587
0.0128659
0.00876044
-0.00070508
-0.0160999
-0.0380173
-0.0665643
-0.100749
-0.138154
-0.174761
-0.204514
-0.219601
-0.214889
-0.192112
-0.159463
-0.125705
-0.0960415
-0.0721604
-0.0539908
-0.0406777
-0.0313262
-0.0255486
-0.0239412
-0.0264213
-0.0297145
-0.0307931
-0.0295307
-0.0307744
-0.0359528
-0.0455132
-0.0600344
-0.0834118
-0.110877
-0.129137
-0.127353
-0.105497
-0.0778716
-0.0525582
-0.0360345
-0.0247885
-0.0166556
-0.0125626
-0.00874649
-0.0118726
-0.0152993
-0.0269512
-0.0327168
-0.0358278
-0.0355873
-0.0147072
-0.240614
-0.208881
-0.176271
-0.143251
-0.110183
-0.078407
-0.0491752
-0.0233106
-0.00176068
0.0146615
0.02333
0.0257206
0.022604
0.0134996
-0.0020054
-0.024155
-0.0526633
-0.0862125
-0.122349
-0.157546
-0.186474
-0.201427
-0.198524
-0.179306
-0.150796
-0.120449
-0.0928898
-0.0698958
-0.0517559
-0.0379674
-0.0277965
-0.0207749
-0.0172916
-0.0177497
-0.0199608
-0.0212361
-0.0209133
-0.0234059
-0.0296578
-0.0402247
-0.0556228
-0.0800733
-0.108787
-0.128282
-0.127729
-0.106446
-0.0783522
-0.0520357
-0.0347347
-0.0229208
-0.0142458
-0.00981947
-0.00530336
-0.00872808
-0.0127402
-0.0267841
-0.0342222
-0.0374982
-0.0375405
-0.0155621
-0.2363
-0.20783
-0.179474
-0.149783
-0.118999
-0.0885913
-0.0596546
-0.0329702
-0.00938048
0.0108819
0.0217519
0.0271861
0.0266179
0.0197147
0.00604599
-0.014402
-0.0411155
-0.0725705
-0.106366
-0.13928
-0.167211
-0.181472
-0.180652
-0.165486
-0.141607
-0.1151
-0.0900228
-0.0682379
-0.0503604
-0.0362586
-0.0254378
-0.0174186
-0.0123917
-0.0110111
-0.0120295
-0.0131372
-0.013291
-0.0165502
-0.0233833
-0.0345053
-0.05041
-0.0754795
-0.105072
-0.125799
-0.126745
-0.106475
-0.0784903
-0.0515382
-0.033536
-0.0212315
-0.0121555
-0.007542
-0.00197866
-0.00574498
-0.0101969
-0.026576
-0.0356501
-0.0389623
-0.0392478
-0.0163234
-0.23239
-0.208037
-0.184022
-0.157539
-0.129389
-0.101213
-0.0735626
-0.0469296
-0.0223332
-0.000646034
0.0128459
0.020663
0.0235568
0.0200686
0.00960864
-0.00768465
-0.0313534
-0.0598561
-0.090683
-0.120833
-0.148394
-0.160082
-0.161569
-0.150842
-0.132016
-0.109731
-0.0874554
-0.0671398
-0.04972
-0.035416
-0.0240635
-0.0152551
-0.00895351
-0.00590005
-0.00573559
-0.00663526
-0.00691285
-0.0104957
-0.0173851
-0.0283839
-0.0441918
-0.0697319
-0.100258
-0.121887
-0.124477
-0.105338
-0.0780413
-0.0508973
-0.0323663
-0.0195935
-0.0102248
-0.00565553
0.000602555
-0.00296714
-0.00765793
-0.0263059
-0.0369753
-0.0402012
-0.040664
-0.0169686
-0.228586
-0.210677
-0.191135
-0.167598
-0.142656
-0.117824
-0.0931532
-0.0688363
-0.0458089
-0.026059
-0.00600707
0.00699107
0.0131187
0.0134583
0.0075169
-0.00509966
-0.0238438
-0.047407
-0.0734797
-0.0991334
-0.117752
-0.135637
-0.139449
-0.133029
-0.119134
-0.101065
-0.0817979
-0.0633598
-0.0469419
-0.0329624
-0.0215579
-0.0124888
-0.00548562
-0.00115471
6.67203e-05
-0.000802495
-0.00218686
-0.00530986
-0.0120047
-0.0226163
-0.0379299
-0.0631929
-0.0938087
-0.116311
-0.119442
-0.102442
-0.0760962
-0.0491515
-0.0306251
-0.0176359
-0.00816143
-0.00365643
0.0029861
-0.000375259
-0.00521722
-0.025957
-0.0381579
-0.0411826
-0.0417736
-0.017473
-0.211798
-0.205349
-0.186524
-0.163413
-0.140306
-0.117561
-0.0947666
-0.0721709
-0.0504764
-0.0312584
-0.0135975
-0.00129054
0.00591262
0.00793736
0.00397019
-0.00636203
-0.0227163
-0.0437942
-0.0673994
-0.0905911
-0.109917
-0.122669
-0.125545
-0.119444
-0.106822
-0.090576
-0.0732228
-0.0564715
-0.0413642
-0.0282601
-0.0173398
-0.00847212
-0.00137748
0.00353347
0.00566976
0.00535839
0.00422359
0.00120632
-0.00469005
-0.0143623
-0.0292248
-0.0554014
-0.0883983
-0.113345
-0.119945
-0.0999874
-0.0732631
-0.0462916
-0.0281602
-0.0154285
-0.00612794
-0.00138257
0.00596428
0.00260631
-0.00234265
-0.025331
-0.0394153
-0.0419981
-0.0427255
-0.0178416
-0.196237
-0.19254
-0.175219
-0.153629
-0.132714
-0.112712
-0.0928459
-0.0730908
-0.0540073
-0.0367886
-0.0216882
-0.0102471
-0.00305823
-0.000624526
-0.00347847
-0.011851
-0.0254226
-0.0430298
-0.0627193
-0.0818853
-0.0973457
-0.107158
-0.109093
-0.103746
-0.0930904
-0.0793389
-0.064427
-0.0497352
-0.0361818
-0.0241243
-0.0138426
-0.00534377
0.00168011
0.00689194
0.00950269
0.00935305
0.00800455
0.00545902
0.000496151
-0.00814603
-0.0221811
-0.0486069
-0.0829567
-0.108502
-0.113832
-0.0950073
-0.0690616
-0.0430649
-0.0256118
-0.0132092
-0.00422065
0.000570669
0.00796024
0.00480523
-4.65947e-05
-0.024817
-0.0406131
-0.0425226
-0.0431477
-0.0180227
-0.181468
-0.178459
-0.163708
-0.14464
-0.126106
-0.108656
-0.0914844
-0.0743628
-0.0578111
-0.042488
-0.0292011
-0.0188778
-0.0122079
-0.00962238
-0.0114719
-0.0178805
-0.0285009
-0.0423143
-0.0576882
-0.0725754
-0.0846623
-0.092142
-0.093654
-0.0894862
-0.0808897
-0.069438
-0.0566553
-0.0437149
-0.0314898
-0.0203654
-0.0106522
-0.00248152
0.00438559
0.00971055
0.0126949
0.0128348
0.0117542
0.00932952
0.00479333
-0.00335559
-0.0169743
-0.043112
-0.0768726
-0.10152
-0.106547
-0.0889144
-0.0642993
-0.0395918
-0.0229171
-0.0109651
-0.0023143
0.00244301
0.00977783
0.00666084
0.00176918
-0.0244547
-0.0416767
-0.0427399
-0.0431393
-0.0180712
-0.166072
-0.164623
-0.152707
-0.136301
-0.120019
-0.104788
-0.0899598
-0.0751813
-0.0607738
-0.0473987
-0.035763
-0.0265711
-0.0203595
-0.0174915
-0.0182413
-0.0226701
-0.0304608
-0.0408115
-0.0524837
-0.0638483
-0.0731747
-0.0789672
-0.0802269
-0.0769428
-0.0699195
-0.06032
-0.0493562
-0.0379943
-0.0270207
-0.0168224
-0.00770578
0.000107579
0.00675064
0.0120745
0.0153911
0.0159862
0.015299
0.0131755
0.00911884
0.0013313
-0.0118919
-0.0370062
-0.0693941
-0.0932556
-0.0982243
-0.0818262
-0.0588444
-0.0357741
-0.0200798
-0.00868953
-0.000401285
0.00425198
0.0114768
0.00836477
0.00343809
-0.023979
-0.0424712
-0.042643
-0.042694
-0.0179611
-0.151481
-0.15157
-0.14202
-0.128016
-0.113858
-0.100656
-0.08794
-0.0752969
-0.0629203
-0.0513462
-0.0411806
-0.0329652
-0.0271264
-0.0239824
-0.0237499
-0.0264607
-0.0318659
-0.0393595
-0.0479701
-0.0564453
-0.0634252
-0.0677662
-0.0686405
-0.065927
-0.0601377
-0.0520852
-0.0426923
-0.0327305
-0.0228919
-0.013568
-0.00505037
0.00239689
0.00879318
0.0140274
0.0175884
0.0186554
0.0184709
0.0169221
0.0135603
0.00640158
-0.00598098
-0.0296157
-0.0607394
-0.0838338
-0.0886864
-0.0737288
-0.0527589
-0.0316661
-0.0171335
-0.00640364
0.00150785
0.00599591
0.0129892
0.00994131
0.00512155
-0.0232146
-0.0428843
-0.0421777
-0.0417332
-0.0176493
-0.138278
-0.139094
-0.131458
-0.119693
-0.107586
-0.0962871
-0.0854742
-0.0747523
-0.0641968
-0.054231
-0.0453558
-0.0380144
-0.0325589
-0.0292509
-0.0282569
-0.029594
-0.0330666
-0.0382084
-0.0442618
-0.0503096
-0.0553074
-0.0583545
-0.0587955
-0.0564477
-0.0515927
-0.0447705
-0.0366784
-0.0279291
-0.0191122
-0.0106088
-0.00269209
0.00437189
0.0105173
0.0156026
0.0193092
0.0208173
0.0212489
0.0204784
0.0180238
0.0118344
0.000619284
-0.0214108
-0.0511405
-0.0732463
-0.0780488
-0.0648042
-0.046162
-0.0273181
-0.0141068
-0.00412918
0.00339786
0.00767722
0.0143032
0.0113722
0.00681115
-0.0220769
-0.0427447
-0.0412391
-0.040181
-0.0170977
-0.125666
-0.127038
-0.121144
-0.111442
-0.101239
-0.0916717
-0.0825475
-0.0735119
-0.0645712
-0.0560404
-0.0483285
-0.0418033
-0.0367522
-0.0333826
-0.031822
-0.0320798
-0.0340023
-0.0372357
-0.0412136
-0.0452752
-0.0486276
-0.0505623
-0.0505522
-0.0483844
-0.0441941
-0.0383306
-0.0313103
-0.0236088
-0.015709
-0.0079659
-0.000639059
0.0060221
0.0119174
0.0168385
0.0206139
0.0224937
0.0235631
0.023707
0.0223513
0.0173713
0.00742057
-0.0128457
-0.0408374
-0.0617742
-0.0666124
-0.0553015
-0.0392144
-0.0228038
-0.0110356
-0.00188767
0.00525376
0.00930669
0.0154288
0.0126392
0.00846404
-0.0204501
-0.0418221
-0.0397178
-0.0379913
-0.0162753
-0.113638
-0.115618
-0.111232
-0.103325
-0.0948129
-0.0867918
-0.0791604
-0.0716068
-0.0640896
-0.0568366
-0.0501748
-0.0444051
-0.0397609
-0.036408
-0.0344443
-0.0338798
-0.0346002
-0.036335
-0.0387028
-0.0411581
-0.0431599
-0.0441397
-0.0436768
-0.041561
-0.0378385
-0.0327214
-0.0265787
-0.0197732
-0.0126909
-0.00564766
0.00111184
0.00735542
0.0129909
0.0177542
0.0215536
0.0237307
0.0253612
0.0264147
0.0262999
0.0227304
0.0141169
-0.00427699
-0.0303142
-0.0498572
-0.0547534
-0.0455326
-0.0321214
-0.0182157
-0.00795751
0.000303463
0.00706199
0.0108991
0.0163944
0.0137514
0.0100869
-0.01817
-0.0398685
-0.0375143
-0.035153
-0.0151629
-0.102563
-0.104919
-0.101724
-0.0953491
-0.0883269
-0.0816758
-0.075356
-0.069095
-0.0628223
-0.0566965
-0.0509738
-0.0458981
-0.0416598
-0.0383926
-0.0361743
-0.0350144
-0.0348292
-0.0354194
-0.0365262
-0.037741
-0.0386507
-0.03883
-0.0379498
-0.0358162
-0.0324209
-0.0278815
-0.0224543
-0.0164113
-0.0100549
-0.00365481
0.00256703
0.00838987
0.0137462
0.0183519
0.0221511
0.0245775
0.0266314
0.0284434
0.0295489
0.0275029
0.0202556
0.00372266
-0.0201243
-0.0379303
-0.0428892
-0.0358508
-0.0251156
-0.0136618
-0.00491214
0.00243159
0.0088107
0.0124709
0.017259
0.0147674
0.0117311
-0.0150847
-0.0366619
-0.03455
-0.0317033
-0.0137622
-0.0923754
-0.0948532
-0.0926078
-0.0875457
-0.0818255
-0.0763724
-0.0711913
-0.0660476
-0.0608538
-0.0557149
-0.0508285
-0.0463911
-0.0425572
-0.0394349
-0.0370864
-0.0355215
-0.034683
-0.0344428
-0.0345816
-0.0348328
-0.0348836
-0.0344174
-0.0331774
-0.0309931
-0.0278277
-0.0237383
-0.0188972
-0.0135031
-0.00778888
-0.00197863
0.00373693
0.00914646
0.0142042
0.0186396
0.0224127
0.02505
0.0274107
0.0297359
0.0317823
0.0310429
0.0250668
0.0105196
-0.0106472
-0.0263929
-0.0314818
-0.0266263
-0.0184344
-0.00925885
-0.00194366
0.00448757
0.0104901
0.0140391
0.0181139
0.0157924
0.0134547
-0.0111098
-0.0320707
-0.0307937
-0.0277433
-0.0121049
-0.0828328
-0.085389
-0.0839301
-0.0799756
-0.0753675
-0.0709428
-0.0667376
-0.0625509
-0.0582853
-0.0540053
-0.0498606
-0.0460078
-0.0425717
-0.0396389
-0.03726
-0.0354462
-0.0341601
-0.0333126
-0.0327532
-0.0322852
-0.0316844
-0.0307164
-0.0291841
-0.0269441
-0.0239484
-0.0202165
-0.0158596
-0.0110197
-0.00587273
-0.000601692
0.00463662
0.00964682
0.0143935
0.0186347
0.0223463
0.0251416
0.0277038
0.0302849
0.0327975
0.0328764
0.0280272
0.015755
-0.00217767
-0.0157506
-0.0210426
-0.0182084
-0.0122864
-0.00512009
0.000897079
0.00646003
0.0120891
0.015612
0.0190639
0.0169589
0.0153059
-0.006273
-0.0261405
-0.0262974
-0.0234376
-0.0102561
-0.0739663
-0.0765691
-0.0757287
-0.0726806
-0.0690044
-0.0654503
-0.0620727
-0.058698
-0.0552249
-0.0516868
-0.0481957
-0.0448745
-0.0418237
-0.0391126
-0.0367825
-0.0348466
-0.0332769
-0.0320193
-0.0309691
-0.0299861
-0.0289103
-0.0275706
-0.0258184
-0.0235377
-0.0206785
-0.017239
-0.0132881
-0.00892514
-0.00428037
0.000499234
0.00528773
0.00991335
0.0143409
0.0183642
0.021972
0.0248518
0.0275086
0.0301364
0.0326612
0.0330925
0.0292316
0.0193601
0.00486298
-0.00660615
-0.0120235
-0.0108548
-0.00681748
-0.00133855
0.00355628
0.00832813
0.0135874
0.0171729
0.02019
0.0183948
0.0173193
-0.00075706
-0.0191709
-0.0212244
-0.0189944
-0.00831084
-0.0658356
-0.0683796
-0.0679936
-0.06568
-0.0627802
-0.059957
-0.0572739
-0.0545819
-0.0517797
-0.0488782
-0.045959
-0.0431182
-0.0404355
-0.0379665
-0.035744
-0.0337749
-0.0320608
-0.0305518
-0.0291803
-0.02785
-0.0264486
-0.0248527
-0.0229527
-0.0206572
-0.0179205
-0.0147299
-0.0111268
-0.0071785
-0.00298071
0.00135131
0.00571693
0.00997147
0.0140762
0.0178595
0.0213165
0.0242054
0.0268523
0.0293719
0.0316376
0.0321412
0.0291012
0.0214147
0.0101031
0.000623083
-0.00465808
-0.00467615
-0.00209343
0.00202282
0.00598647
0.0100635
0.0149461
0.0186591
0.0214977
0.0201622
0.0195035
0.00509182
-0.011736
-0.0158639
-0.014637
-0.00638163
-0.0583445
-0.0607651
-0.0607171
-0.0589985
-0.0567406
-0.0545242
-0.0524176
-0.0502938
-0.0480547
-0.0456953
-0.0432733
-0.0408627
-0.038527
-0.0363114
-0.0342479
-0.0323211
-0.0305541
-0.028915
-0.0273576
-0.0258159
-0.0242124
-0.02246
-0.0204795
-0.0182007
-0.0155854
-0.0126167
-0.00931885
-0.00573615
-0.00193898
0.00198464
0.00595335
0.00984972
0.0136312
0.0171578
0.0204252
0.02324
0.0257882
0.0281022
0.0300126
0.0304583
0.0280658
0.0221794
0.0135622
0.00593937
0.00109082
0.000350988
0.00188684
0.00493255
0.0081496
0.0116395
0.0161162
0.0199539
0.0228604
0.0221593
0.0217707
0.010783
-0.00457217
-0.0105853
-0.0105647
-0.00457856
-0.0514196
-0.0537052
-0.0539078
-0.0526632
-0.0509271
-0.0492076
-0.0475742
-0.0459186
-0.0441482
-0.0422469
-0.0402538
-0.0382249
-0.036209
-0.0342401
-0.0323353
-0.0305298
-0.0287956
-0.0271234
-0.0254864
-0.0238412
-0.0221362
-0.0203109
-0.0183098
-0.0160807
-0.0135936
-0.0108314
-0.00780863
-0.00455345
-0.00111831
0.00243104
0.00602832
0.00957984
0.0130409
0.0163006
0.0193446
0.0220183
0.0243996
0.0264656
0.0280303
0.0283788
0.0265061
0.0220547
0.0155999
0.00963198
0.00541757
0.0043273
0.00516275
0.00738846
0.0100144
0.013029
0.0170618
0.0209325
0.0240239
0.0240319
0.0237913
0.0157034
0.00167908
-0.00572207
-0.00692726
-0.00298941
-0.0450594
-0.0471895
-0.047562
-0.0466869
-0.0453703
-0.0440538
-0.0428052
-0.0415321
-0.0401487
-0.0386316
-0.0370064
-0.0353149
-0.0335954
-0.031875
-0.0301701
-0.0284922
-0.0268384
-0.0252015
-0.0235643
-0.0218989
-0.0201717
-0.0183418
-0.0163717
-0.0142234
-0.0118753
-0.00931197
-0.00654317
-0.00358625
-0.000481248
0.00272374
0.00597349
0.00919527
0.0123429
0.0153264
0.0181228
0.020611
0.0227913
0.0246074
0.025886
0.0261526
0.0247179
0.0214009
0.016633
0.0120611
0.00857168
0.00738665
0.00778998
0.00940656
0.0115603
0.0141959
0.0177536
0.0215145
0.0247273
0.0253135
0.0250557
0.0192519
0.00666126
-0.00150546
-0.00381605
-0.00167093
-0.0392321
-0.041185
-0.0416638
-0.0410746
-0.0400935
-0.0391016
-0.038163
-0.0371997
-0.0361331
-0.0349363
-0.0336243
-0.0322281
-0.030777
-0.0292922
-0.0277858
-0.0262638
-0.0247283
-0.0231759
-0.021597
-0.0199737
-0.0182853
-0.0165048
-0.0146078
-0.0125678
-0.0103704
-0.008003
-0.0054734
-0.0027921
9.06966e-06
0.00289589
0.00582079
0.00872872
0.0115731
0.0142803
0.0168169
0.0190768
0.0210603
0.0226546
0.0237202
0.0239444
0.0228887
0.020463
0.0169899
0.0135608
0.0107895
0.00967079
0.0098305
0.0110105
0.0127798
0.0150988
0.01816
0.0216461
0.024775
0.025656
0.0252259
0.0211016
0.0102589
0.00191755
-0.00129164
-0.000646544
-0.0338871
-0.03566
-0.0362006
-0.0358303
-0.0351151
-0.034382
-0.0336908
-0.0329759
-0.0321668
-0.0312348
-0.0301875
-0.0290473
-0.027836
-0.02657
-0.0252583
-0.0239044
-0.0225105
-0.0210759
-0.0195959
-0.0180598
-0.0164551
-0.0147647
-0.0129739
-0.0110646
-0.00902859
-0.00685627
-0.00455514
-0.00213148
0.000388167
0.00297963
0.00560147
0.00821259
0.010767
0.0132063
0.0154879
0.0175248
0.0193044
0.0207088
0.0216265
0.0218488
0.02112
0.0193886
0.0169086
0.0143927
0.0122773
0.0113104
0.0113503
0.0122286
0.0136773
0.0157046
0.018275
0.0213277
0.0238508
0.025063
0.0244163
0.0213786
0.0124982
0.00446915
0.000458544
9.45175e-05
-0.0289952
-0.0305912
-0.0311591
-0.0309532
-0.0304461
-0.0299177
-0.0294223
-0.0289049
-0.0283032
-0.0275884
-0.0267629
-0.0258428
-0.0248438
-0.0237781
-0.0226525
-0.021469
-0.0202285
-0.0189315
-0.0175767
-0.016158
-0.0146684
-0.0130972
-0.0114367
-0.00967512
-0.00780875
-0.00583103
-0.00374974
-0.00156885
0.000688637
0.00300563
0.00534551
0.0076777
0.00995798
0.0121414
0.0141823
0.0160152
0.0175977
0.0188423
0.0196624
0.0199131
0.0194607
0.0182702
0.0165483
0.0147501
0.0131951
0.0124213
0.0124167
0.0130926
0.0142699
0.0160115
0.0181205
0.02068
0.0227254
0.023836
0.0229952
0.0205363
0.0135387
0.00620506
0.00190579
0.000614732
-0.0245292
-0.0259523
-0.0265212
-0.0264367
-0.0260918
-0.025724
-0.0253822
-0.0250207
-0.0245847
-0.024047
-0.0234062
-0.0226736
-0.0218603
-0.0209751
-0.0200234
-0.019006
-0.0179221
-0.0167723
-0.0155574
-0.0142744
-0.0129197
-0.011487
-0.00997273
-0.00836999
-0.00667838
-0.00489381
-0.00302444
-0.00107324
0.000939433
0.00300133
0.0050798
0.00715186
0.00917671
0.0111198
0.0129356
0.0145742
0.0159853
0.0171007
0.0178588
0.018154
0.0179317
0.0171629
0.0160155
0.0147706
0.0136768
0.013103
0.0130976
0.0136372
0.014584
0.0160439
0.0177334
0.0197887
0.0213466
0.0222354
0.0212826
0.0190812
0.0136576
0.00723534
0.00290751
0.000956092
-0.0204574
-0.0217161
-0.0222687
-0.0222724
-0.0220528
-0.0218102
-0.0215881
-0.0213485
-0.0210441
-0.0206496
-0.0201616
-0.0195876
-0.0189357
-0.018211
-0.0174177
-0.016557
-0.0156268
-0.0146263
-0.0135571
-0.0124186
-0.0112092
-0.00992542
-0.00856631
-0.00712814
-0.00561279
-0.00401817
-0.0023526
-0.000618788
0.00116527
0.0029902
0.00482746
0.00665961
0.00844879
0.0101684
0.0117772
0.0132369
0.0144995
0.0155106
0.0162278
0.0165731
0.0165385
0.0160932
0.0153771
0.0145584
0.0138309
0.0134414
0.0134561
0.0139004
0.0146529
0.0158407
0.0171563
0.0187408
0.0198421
0.0204585
0.0194767
0.0173903
0.0131644
0.00770926
0.00354384
0.00116186
-0.0167532
-0.0178585
-0.0183829
-0.0184493
-0.0183256
-0.01818
-0.0180504
-0.0179055
-0.0177048
-0.0174256
-0.0170633
-0.0166225
-0.0161089
-0.0155257
-0.0148753
-0.0141585
-0.0133737
-0.0125187
-0.0115945
-0.0106019
-0.00954088
-0.00840949
-0.00720825
-0.00593544
-0.00459432
-0.00318427
-0.00171351
-0.000184769
0.00138622
0.00299171
0.00460684
0.00621833
0.0077929
0.00930888
0.0107295
0.0120253
0.0131594
0.014084
0.0147715
0.0151633
0.0152746
0.0150757
0.0146816
0.0141855
0.0137403
0.0135075
0.0135505
0.0139226
0.0145112
0.0154489
0.0164343
0.0176045
0.0183141
0.0186473
0.017687
0.0156875
0.012322
0.00777317
0.00389364
0.00126974
-0.0133918
-0.0143557
-0.0148448
-0.0149544
-0.0149038
-0.0148328
-0.0147741
-0.0147022
-0.0145828
-0.0143958
-0.0141362
-0.0138065
-0.0134108
-0.0129508
-0.0124264
-0.0118389
-0.0111885
-0.0104717
-0.00968746
-0.00883686
-0.00792141
-0.00694026
-0.00589452
-0.00478365
-0.00361143
-0.00237838
-0.00109221
0.000244323
0.00161719
0.00302008
0.00443189
0.0058414
0.00722097
0.00855351
0.00980556
0.0109536
0.0119752
0.012822
0.013484
0.0139127
0.0141326
0.0141169
0.0139582
0.0137036
0.0134691
0.0133618
0.0134314
0.013745
0.0141957
0.014912
0.0156136
0.0164305
0.0168257
0.0168944
0.0159737
0.0140855
0.0113188
0.00755063
0.00402377
0.00130866
-0.01035
-0.0111852
-0.0116355
-0.0117739
-0.0117784
-0.0117645
-0.0117598
-0.0117437
-0.0116876
-0.011574
-0.0113977
-0.0111602
-0.0108638
-0.0105096
-0.0100966
-0.00962486
-0.0090948
-0.0085045
-0.00785149
-0.00713575
-0.0063591
-0.00552173
-0.0046251
-0.00366922
-0.00265783
-0.00159211
-0.000479066
0.00067838
0.00186835
0.00308525
0.00431125
0.0055373
0.00673987
0.00790565
0.00900799
0.0100246
0.0109369
0.0117156
0.0123525
0.0128068
0.0131034
0.0132199
0.0132275
0.0131524
0.0130675
0.0130549
0.0131448
0.0134077
0.0137429
0.0142676
0.0147342
0.0152572
0.0154111
0.0152563
0.0143713
0.0126268
0.0102771
0.00714398
0.00399085
0.00129781
-0.00760647
-0.00832611
-0.00873639
-0.00889294
-0.00893891
-0.00896831
-0.00900446
-0.00903079
-0.00902362
-0.00896803
-0.00885917
-0.00869758
-0.00848455
-0.00822055
-0.00790457
-0.00753456
-0.00711036
-0.00663337
-0.00610073
-0.00551026
-0.00486308
-0.0041601
-0.00340313
-0.00259253
-0.00173163
-0.000821867
0.000130574
0.00112287
0.00214501
0.00319199
0.0042491
0.00530872
0.00635183
0.00736694