/*--------------------------------*- C++ -*----------------------------------*\
| =========                 |                                                 |
| \\      /  F ield         | OpenFOAM: The Open Source CFD Toolbox           |
|  \\    /   O peration     | Version:  2512                                  |
|   \\  /    A nd           | Website:  www.openfoam.com                      |
|    \\/     M anipulation  |                                                 |
\*---------------------------------------------------------------------------*/
FoamFile
{
    version     2.0;
    format      ascii;
    arch        "LSB;label=32;scalar=64";
    class       volVectorField;
    location    "24";
    object      U;
}
// * * * * * * * * * * * * * * * * * * * * * * * * * * * * * * * * * * * * * //

dimensions      [0 1 -1 0 0 0 0];

internalField   nonuniform List<vector> 
13248
(
(-0.0127655 0.0118389 6.36179e-20)
(-0.0244531 0.0253258 0)
(-0.0231163 0.032599 -1.20269e-19)
(-0.00962999 0.0356547 1.13295e-19)
(0.0154112 0.0361098 1.0613e-19)
(0.051586 0.0352512 0)
(0.0985367 0.0340661 0)
(0.15585 0.0333007 2.56196e-19)
(0.222918 0.0335005 -1.18197e-21)
(0.298804 0.0350296 -2.23957e-19)
(0.382153 0.0380779 2.07865e-19)
(0.471167 0.042666 -1.29956e-19)
(0.563654 0.0486543 0)
(0.657145 0.0557625 -2.23747e-19)
(0.749056 0.0635986 4.18047e-19)
(0.836872 0.071697 -9.89292e-20)
(0.918318 0.079568 -1.78787e-19)
(0.99152 0.0867199 1.67835e-19)
(1.05512 0.0927931 0)
(1.10827 0.09723 0)
(1.15102 0.10048 0)
(1.18279 0.100371 0)
(1.20693 0.101917 5.37507e-20)
(1.21942 0.0927552 2.00129e-19)
(-0.0125722 0.0103786 -1.92201e-19)
(-0.0205098 0.0207362 1.3106e-19)
(-0.0121906 0.0256195 -1.14939e-21)
(0.0111289 0.0271548 -1.7321e-19)
(0.0486212 0.0270555 -1.06016e-19)
(0.0996163 0.0266779 -1.00283e-19)
(0.163356 0.027024 -1.84277e-19)
(0.238794 0.0287955 1.74226e-19)
(0.32442 0.0324243 0)
(0.418149 0.0380813 7.52489e-22)
(0.517328 0.045684 1.59881e-21)
(0.618862 0.054919 1.29965e-19)
(0.719429 0.0652836 0)
(0.815759 0.0761472 0)
(0.9049 0.0868255 1.53613e-19)
(0.984454 0.096656 -2.88498e-19)
(1.05274 0.105068 1.74449e-19)
(1.10888 0.11163 -1.63773e-19)
(1.15279 0.116089 -7.33031e-20)
(1.18517 0.118338 -1.35247e-19)
(1.20709 0.118573 -5.82787e-20)
(1.22063 0.116535 -1.10114e-19)
(1.22679 0.114297 1.588e-19)
(1.22837 0.107213 4.67846e-20)
(-0.0114918 0.00857558 0)
(-0.0133903 0.0154805 0)
(0.00467227 0.0181751 6.12753e-20)
(0.040899 0.0188032 5.64425e-20)
(0.0940299 0.0191123 -1.37675e-21)
(0.162838 0.0204749 -1.03489e-19)
(0.245722 0.0238195 0)
(0.340451 0.0296634 -8.66318e-20)
(0.444045 0.0381373 8.14299e-20)
(0.552816 0.0490041 5.68087e-22)
(0.66261 0.0617049 -1.39387e-19)
(0.769169 0.0754428 -1.28168e-19)
(0.86855 0.0892951 1.92257e-21)
(0.957498 0.102338 -1.073e-19)
(1.03372 0.11376 2.56374e-19)
(1.09601 0.122955 0)
(1.14428 0.12957 -1.69636e-19)
(1.17937 0.133507 8.18805e-20)
(1.20293 0.134926 7.32356e-20)
(1.21699 0.134086 0)
(1.22386 0.131602 6.13552e-20)
(1.22564 0.127406 -2.15894e-19)
(1.22397 0.123563 2.02667e-19)
(1.22181 0.11622 1.3268e-19)
(-0.00916195 0.00642606 -6.81019e-20)
(-0.00216413 0.00972845 -7.04203e-20)
(0.028812 0.0107504 6.36166e-20)
(0.08121 0.0114687 0)
(0.152999 0.0135382 0)
(0.241899 0.0182153 -2.18898e-21)
(0.344842 0.0261645 0)
(0.457793 0.0374736 -2.64608e-19)
(0.575855 0.051706 2.45966e-19)
(0.693648 0.067989 -3.03936e-19)
(0.805879 0.0851606 6.97532e-20)
(0.907939 0.101957 0)
(0.996386 0.117206 1.17235e-19)
(1.06922 0.129981 -2.17649e-19)
(1.12594 0.139704 5.16511e-20)
(1.16738 0.14617 1.35062e-19)
(1.19538 0.149512 -4.66537e-21)
(1.21242 0.150119 -1.51807e-19)
(1.22118 0.148527 0)
(1.22418 0.145303 0)
(1.22354 0.141053 -5.62254e-20)
(1.22081 0.135928 5.10843e-20)
(1.21714 0.13138 1.87207e-19)
(1.21338 0.124254 -1.75723e-19)
(-0.0051855 0.00399525 -7.18983e-20)
(0.0141016 0.0038255 -7.15387e-20)
(0.06141 0.00406604 2.01197e-19)
(0.133115 0.00626753 -1.21926e-19)
(0.225905 0.011777 1.14768e-19)
(0.335775 0.0214885 2.0841e-19)
(0.457514 0.0354959 -1.47325e-19)
(0.584825 0.0531332 -1.79528e-19)
(0.710901 0.0731413 3.30109e-21)
(0.829249 0.0939107 2.29993e-19)
(0.934521 0.113774 0)
(1.02312 0.131287 6.39417e-20)
(1.09343 0.145427 0)
(1.14576 0.15569 -1.0555e-19)
(1.1819 0.162067 1.48452e-19)
(1.20461 0.164944 1.24342e-21)
(1.21705 0.164948 -3.97192e-20)
(1.22225 0.162791 7.47339e-20)
(1.22279 0.159146 6.53348e-20)
(1.22062 0.154562 -5.92323e-20)
(1.21705 0.149475 5.62126e-20)
(1.21288 0.144013 -5.10723e-20)
(1.20843 0.139028 0)
(1.20445 0.132166 -3.99683e-20)
(0.000833897 0.00144081 7.1888e-20)
(0.036233 -0.00165941 7.55145e-20)
(0.103295 -0.000878874 -6.74234e-20)
(0.196902 0.00456039 1.25547e-19)
(0.311793 0.0153609 -1.1817e-19)
(0.441506 0.0316772 1.06846e-19)
(0.578199 0.0526387 -5.13194e-20)
(0.713377 0.0765281 1.34803e-19)
(0.839077 0.101179 -8.48852e-20)
(0.949005 0.124423 1.51225e-19)
(1.0393 0.144483 -3.49805e-19)
(1.10873 0.160228 1.28968e-19)
(1.15837 0.171242 -1.13869e-19)
(1.19094 0.177736 1.06954e-19)
(1.21003 0.180354 9.35698e-20)
(1.21934 0.179947 8.30616e-20)
(1.22215 0.177379 -2.3162e-19)
(1.22101 0.17339 1.44072e-19)
(1.21774 0.168544 -6.53375e-20)
(1.21347 0.163222 1.73046e-19)
(1.20883 0.157673 -5.57075e-20)
(1.20413 0.151983 -1.39485e-19)
(1.19954 0.146614 1.29336e-19)
(1.19533 0.139959 3.99549e-20)
(0.00925152 -0.000978785 0)
(0.0648236 -0.00593283 6.6727e-22)
(0.154737 -0.00284938 1.41229e-19)
(0.271838 0.00782496 -1.32429e-19)
(0.408181 0.0256748 -1.19323e-19)
(0.554299 0.049639 2.2182e-19)
(0.699763 0.0775212 -1.03037e-19)
(0.834738 0.106462 1.37683e-19)
(0.951594 0.133629 -2.73826e-21)
(1.04591 0.15679 -7.83331e-20)
(1.11666 0.174635 1.72058e-19)
(1.16561 0.186813 -2.54631e-19)
(1.19635 0.193754 0)
(1.21322 0.196361 -5.06595e-20)
(1.22043 0.195714 -1.36334e-19)
(1.22151 0.192823 4.28173e-20)
(1.21907 0.188508 1.4074e-21)
(1.21485 0.183355 -9.70154e-20)
(1.20988 0.177748 4.88162e-21)
(1.20473 0.171918 1.12768e-19)
(1.19968 0.165998 -5.11529e-20)
(1.19482 0.160065 -2.02421e-20)
(1.19016 0.154307 6.08663e-20)
(1.18582 0.147783 0)
(0.0203343 -0.00290919 0)
(0.100102 -0.00801968 3.83323e-20)
(0.215254 -0.000488456 -1.84657e-19)
(0.35601 0.0174495 6.70737e-20)
(0.511139 0.0436801 -6.31279e-20)
(0.668121 0.0754688 -5.7787e-20)
(0.814794 0.109154 -1.02239e-19)
(0.941587 0.141005 5.09246e-20)
(1.043 0.168107 4.43544e-20)
(1.11784 0.188813 0)
(1.16839 0.202762 1.02466e-19)
(1.19905 0.210581 -1.53318e-19)
(1.21494 0.213447 1.14192e-19)
(1.22087 0.212688 5.06853e-20)
(1.22068 0.209501 -4.21443e-20)
(1.21715 0.204811 -3.57521e-20)
(1.21204 0.199263 -3.36579e-20)
(1.20637 0.193262 9.95981e-20)
(1.20067 0.187046 0)
(1.19519 0.180751 5.14009e-20)
(1.19 0.174454 4.42778e-20)
(1.1851 0.168208 -1.0875e-19)
(1.18043 0.162041 -7.63092e-20)
(1.17602 0.155579 7.04238e-20)
(0.0342088 -0.0039198 -4.16459e-20)
(0.141813 -0.00684795 -1.67571e-21)
(0.283504 0.00751491 3.76203e-20)
(0.446372 0.0344956 1.05222e-19)
(0.615725 0.0696968 3.06585e-20)
(0.776713 0.108461 -5.92644e-20)
(0.917075 0.145909 5.40678e-20)
(1.02942 0.178088 -4.74867e-20)
(1.11179 0.202728 8.55203e-20)
(1.16669 0.219299 3.66377e-20)
(1.19924 0.228575 -1.04043e-19)
(1.21544 0.232028 3.07813e-20)
(1.22082 0.231293 5.29692e-20)
(1.21975 0.227808 -2.59994e-20)
(1.21527 0.222667 0)
(1.20929 0.216606 3.94321e-20)
(1.20287 0.210079 6.74148e-20)
(1.19655 0.203344 1.20467e-20)
(1.19055 0.196546 -5.66572e-20)
(1.18495 0.189761 2.39922e-20)
(1.17972 0.183037 0)
(1.17482 0.176399 -1.92518e-20)
(1.17016 0.169814 -1.85382e-20)
(1.1657 0.163309 0)
(0.0508083 -0.00353623 0)
(0.189129 -0.00136246 2.18534e-20)
(0.35728 0.0222411 4.03959e-20)
(0.539013 0.059505 -1.07521e-19)
(0.71669 0.103337 3.48027e-20)
(0.87466 0.147301 0)
(1.00258 0.185971 5.24657e-20)
(1.09681 0.216 -7.3316e-20)
(1.15952 0.236388 -4.2782e-20)
(1.19642 0.247942 1.93521e-20)
(1.21449 0.252446 -3.13106e-20)
(1.2202 0.25192 7.58449e-20)
(1.21865 0.248142 3.8279e-20)
(1.21338 0.242446 -2.64543e-20)
(1.20653 0.23572 -2.31731e-21)
(1.19931 0.228498 -7.37305e-20)
(1.19228 0.221077 3.3675e-20)
(1.18569 0.213614 -9.03366e-22)
(1.17959 0.206193 0)
(1.17398 0.198862 -2.40174e-20)
(1.16879 0.191649 0)
(1.16393 0.184547 5.55893e-20)
(1.15933 0.177543 -6.66184e-20)
(1.15486 0.170883 3.05379e-20)
(0.0698288 -0.001281 -1.14746e-20)
(0.24063 0.00935795 -5.51358e-20)
(0.433646 0.0443867 6.28024e-20)
(0.629608 0.0924089 3.6861e-20)
(0.809232 0.143604 -1.75657e-20)
(0.958105 0.190378 2.96543e-20)
(1.06961 0.2277 -1.43647e-20)
(1.14466 0.253593 2.40045e-20)
(1.18921 0.268648 0)
(1.21125 0.274931 5.47451e-20)
(1.21848 0.274941 -2.18088e-21)
(1.21704 0.270924 -4.43407e-20)
(1.21119 0.264572 1.90647e-20)
(1.20352 0.257004 -2.16337e-20)
(1.19545 0.248884 -8.32383e-21)
(1.18764 0.240572 9.54788e-21)
(1.18037 0.232253 -7.42201e-21)
(1.17371 0.22402 -4.07338e-20)
(1.16764 0.215922 2.49747e-20)
(1.16211 0.20799 5.16039e-21)
(1.15702 0.200229 4.58467e-21)
(1.15228 0.19262 4.07866e-21)
(1.14777 0.185209 0)
(1.14334 0.178263 0)
(0.09078 0.00329213 1.14825e-20)
(0.294482 0.0260082 -1.14614e-20)
(0.509351 0.0741645 -2.09421e-20)
(0.714076 0.132539 0)
(0.889651 0.189088 -8.74041e-21)
(1.02495 0.236079 -7.90976e-21)
(1.11826 0.26983 -1.35452e-20)
(1.17498 0.290234 0)
(1.20402 0.299485 0)
(1.21454 0.300635 0)
(1.21411 0.296564 0)
(1.20806 0.289489 0)
(1.19968 0.280887 -1.19773e-20)
(1.19075 0.271629 5.45691e-21)
(1.18213 0.26218 9.54508e-21)
(1.17413 0.252771 4.47954e-21)
(1.16686 0.243508 1.11309e-20)
(1.16029 0.234446 0)
(1.15437 0.225611 -2.70995e-21)
(1.14902 0.217019 -2.62438e-21)
(1.14413 0.20866 -4.59199e-21)
(1.13959 0.200515 -4.0852e-21)
(1.13526 0.192707 0)
(1.13099 0.185347 3.00191e-21)
(-0.00132902 0.000549063 6.7802e-21)
(-0.00651572 0.000623847 -7.04575e-21)
(-0.0159369 3.44537e-05 -1.3353e-20)
(-0.0275476 -0.000901931 0)
(-0.0402258 -0.00199746 -1.78919e-20)
(-0.0534064 -0.00315248 5.61415e-21)
(-0.0667039 -0.00432241 -1.06273e-20)
(-0.0798577 -0.00549709 0)
(-0.092711 -0.00668409 0)
(-0.105178 -0.00789596 0)
(-0.117215 -0.00914221 0)
(-0.128808 -0.0104255 0)
(-0.139956 -0.0117405 3.64528e-24)
(-0.150664 -0.0130742 -7.02321e-21)
(-0.160942 -0.0144068 1.32695e-20)
(-0.170803 -0.0157119 1.8754e-20)
(-0.180261 -0.0169568 5.89685e-21)
(-0.189338 -0.018102 0)
(-0.198073 -0.0191015 5.22403e-21)
(-0.206523 -0.0199042 -1.47196e-20)
(-0.214756 -0.0204578 -9.23513e-21)
(-0.22286 -0.0207047 -8.68792e-21)
(-0.231034 -0.0205588 0)
(-0.239747 -0.0199429 0)
(-0.00169436 0.00447605 -2.04034e-20)
(-0.00721093 0.00988638 3.52127e-20)
(-0.0165982 0.0128351 -1.33107e-20)
(-0.0279492 0.0141861 -2.53034e-20)
(-0.0402115 0.0144905 3.5744e-20)
(-0.0528529 0.0141074 -2.2563e-20)
(-0.0655067 0.0132771 3.18469e-20)
(-0.077922 0.0121548 2.01046e-20)
(-0.0899454 0.0108368 0)
(-0.10149 0.00938216 -1.78578e-20)
(-0.11251 0.00782852 -1.05898e-22)
(-0.122985 0.00620222 1.57747e-20)
(-0.132908 0.00452503 2.24363e-20)
(-0.142276 0.00281869 2.82034e-20)
(-0.151091 0.0011084 -1.31774e-20)
(-0.159352 -0.000573811 -3.74315e-20)
(-0.167059 -0.00218549 1.17922e-20)
(-0.174215 -0.00366987 -4.42597e-20)
(-0.180836 -0.00495197 0)
(-0.186963 -0.00593763 9.8023e-21)
(-0.192641 -0.00651806 9.22265e-21)
(-0.197872 -0.00656491 8.67599e-21)
(-0.20277 -0.00589333 0)
(-0.208179 -0.00432828 0)
(-0.00244612 0.00804336 0)
(-0.00865382 0.0183862 7.10189e-20)
(-0.0179512 0.0246679 -2.67853e-20)
(-0.0287253 0.0282035 2.53591e-20)
(-0.0400748 0.0298576 -7.19111e-20)
(-0.0515401 0.0302229 0)
(-0.0627973 0.0297203 -4.27469e-20)
(-0.0736193 0.0286414 2.0121e-20)
(-0.0838619 0.0271818 -3.80795e-20)
(-0.0934378 0.0254705 1.80359e-20)
(-0.102295 0.0235909 1.01435e-19)
(-0.110404 0.0215978 -4.76474e-20)
(-0.117743 0.0195282 -7.49788e-20)
(-0.124296 0.0174104 -2.84386e-20)
(-0.130046 0.0152709 -1.3032e-22)
(-0.134973 0.0131407 1.00074e-19)
(-0.139053 0.0110624 -4.70351e-20)
(-0.142257 0.00909797 -3.29831e-23)
(-0.144558 0.0073378 0)
(-0.14595 0.00591043 -3.90925e-20)
(-0.146434 0.00499069 0)
(-0.145896 0.00481122 -3.44875e-20)
(-0.144196 0.00569181 1.29313e-19)
(-0.142571 0.00796296 2.39715e-22)
(-0.00349548 0.0110144 0)
(-0.0106977 0.025597 2.61669e-22)
(-0.0198873 0.0348398 2.71623e-20)
(-0.029845 0.0403613 -2.56982e-20)
(-0.0398775 0.0432618 2.39137e-20)
(-0.0496294 0.0443232 1.36687e-19)
(-0.0588418 0.0441203 -4.28683e-20)
(-0.0673263 0.0430648 -4.0607e-20)
(-0.0749569 0.041443 7.63275e-20)
(-0.0816507 0.039449 -1.07904e-19)
(-0.0873515 0.0372112 3.38881e-20)
(-0.0920186 0.0348124 3.20124e-20)
(-0.0956186 0.0323055 0)
(-0.0981204 0.0297249 2.82636e-20)
(-0.0994909 0.0270959 0)
(-0.099693 0.0244428 5.02217e-20)
(-0.0986829 0.0217967 -9.43511e-20)
(-0.0964072 0.0192056 2.20869e-20)
(-0.0928038 0.0167468 8.32073e-20)
(-0.0878203 0.0145452 3.90523e-20)
(-0.0814219 0.0128041 0)
(-0.073427 0.0118631 -1.02837e-19)
(-0.0632598 0.0122935 3.2281e-20)
(-0.0518243 0.0148131 0)
(-0.00472975 0.0132475 0)
(-0.0131491 0.0311701 -8.64887e-20)
(-0.0222527 0.0428522 -2.7514e-20)
(-0.0312456 0.050055 -5.15527e-20)
(-0.0396679 0.0540253 4.85432e-20)
(-0.0472882 0.0556819 -4.56551e-20)
(-0.0539303 0.0557189 8.64911e-20)
(-0.0594589 0.0546467 4.07618e-20)
(-0.0637768 0.0528293 -1.14912e-19)
(-0.0668124 0.0505195 7.23863e-20)
(-0.0685097 0.0478879 -1.02078e-19)
(-0.0688207 0.045046 2.24758e-19)
(-0.0677004 0.0420645 -1.20636e-19)
(-0.0651042 0.0389871 5.69078e-20)
(-0.060985 0.035841 1.60482e-19)
(-0.0552928 0.0326451 -5.00894e-20)
(-0.0479724 0.0294177 -4.72027e-20)
(-0.0389611 0.0261835 -4.4327e-20)
(-0.0281848 0.0229844 0)
(-0.015568 0.0198948 -7.78716e-20)
(-0.0010648 0.0170585 -7.26635e-20)
(0.0154547 0.014799 1.02736e-19)
(0.0348437 0.0139324 1.27362e-19)
(0.0577359 0.0159749 -1.19827e-19)
(-0.00603764 0.0147069 0)
(-0.0158021 0.0349603 -1.17061e-19)
(-0.0248626 0.0484384 -4.10373e-22)
(-0.0328134 0.0569072 1.03873e-19)
(-0.0394227 0.0616805 0)
(-0.0445899 0.0637632 0)
(-0.0482323 0.0639327 0)
(-0.0502773 0.0627736 -4.09113e-20)
(-0.0506645 0.0607122 -1.25212e-22)
(-0.0493393 0.0580507 7.26017e-20)
(-0.046248 0.0549978 -1.02511e-19)
(-0.0413352 0.0516936 -6.98493e-23)
(-0.0345421 0.0482292 0)
(-0.0258063 0.0446622 -5.68815e-20)
(-0.0150629 0.0410294 5.36379e-20)
(-0.00224483 0.0373538 -1.50901e-19)
(0.0127152 0.0336523 1.8887e-19)
(0.0298845 0.0299401 4.41542e-20)
(0.0493308 0.0262352 -3.31166e-22)
(0.0711187 0.0225638 -1.55763e-19)
(0.0952709 0.0189711 -7.25964e-20)
(0.121821 0.0156035 2.37251e-19)
(0.151236 0.013205 -1.58512e-19)
(0.188185 0.0141152 0)
(-0.00733127 0.0154526 5.75598e-20)
(-0.0184681 0.0370147 5.86718e-20)
(-0.0275078 0.0515622 -5.59899e-20)
(-0.0343542 0.0607814 -1.04974e-19)
(-0.0389745 0.0659976 9.88425e-20)
(-0.0413936 0.0682613 -9.30903e-20)
(-0.0416219 0.0684018 1.31526e-19)
(-0.0396515 0.0670542 -4.08994e-20)
(-0.0354587 0.0646902 7.75392e-20)
(-0.0290035 0.0616512 0)
(-0.02023 0.0581785 6.88282e-20)
(-0.00906803 0.0544394 -1.29189e-19)
(0.00456337 0.0505474 1.21409e-19)
(0.0207533 0.0465787 -1.14031e-19)
(0.0395922 0.0425873 0)
(0.0611671 0.038611 1.00544e-19)
(0.0855552 0.0346792 1.88524e-19)
(0.112817 0.0308176 -1.77055e-19)
(0.142988 0.0270503 -8.26723e-20)
(0.176081 0.0234021 -7.73541e-20)
(0.211993 0.0198852 2.1772e-19)
(0.251009 0.016558 6.68953e-20)
(0.290755 0.0134617 -6.32225e-20)
(0.346459 0.014009 5.79985e-20)
(-0.00855777 0.0156109 -5.75676e-20)
(-0.0209877 0.0375267 1.79594e-19)
(-0.0299459 0.0523822 -5.66163e-20)
(-0.0355509 0.0617653 1.05979e-19)
(-0.0379282 0.0669902 -9.97874e-20)
(-0.0372107 0.0691284 3.83983e-22)
(-0.0334905 0.0690384 4.4268e-20)
(-0.0268126 0.0673862 1.66189e-19)
(-0.0171786 0.0646744 -3.5937e-23)
(-0.00455022 0.0612737 -7.3148e-20)
(0.0111441 0.0574534 0)
(0.0300002 0.053406 -6.46964e-20)
(0.0521267 0.0492694 1.21458e-19)
(0.077637 0.045145 1.14011e-19)
(0.106634 0.0411075 -5.36126e-20)
(0.139194 0.0372148 -1.28305e-22)
(0.175353 0.0335162 -4.71164e-20)
(0.215094 0.0300564 8.79159e-20)
(0.258327 0.0268759 8.26531e-20)
(0.304948 0.024033 -7.72837e-20)
(0.354276 0.02146 7.16745e-20)
(0.408136 0.0196617 -6.66979e-20)
(0.457042 0.0170522 0)
(0.534669 0.0194064 -5.79176e-20)
(-0.0096961 0.0153345 5.87479e-20)
(-0.0232179 0.0367655 -6.01356e-20)
(-0.0318712 0.0511866 5.7308e-20)
(-0.0359078 0.0601267 0)
(-0.0355708 0.0648972 0)
(-0.0310762 0.066585 9.51486e-20)
(-0.0225732 0.0660657 -8.88488e-20)
(-0.0101362 0.0640242 8.33968e-20)
(0.00623032 0.0609843 -3.9124e-19)
(0.0265798 0.05734 1.16586e-22)
(0.0510068 0.0533853 6.89459e-20)
(0.0796266 0.049339 0)
(0.112551 0.0453655 -1.21328e-19)
(0.149862 0.0415891 2.27746e-19)
(0.191585 0.0381037 -1.60316e-19)
(0.237668 0.0349849 -2.50011e-19)
(0.287958 0.0322931 5.34145e-22)
(0.342185 0.0300778 1.75097e-19)
(0.399916 0.0283616 0)
(0.460866 0.0272797 0)
(0.523087 0.0263978 -7.16658e-20)
(0.591126 0.0272959 6.66884e-20)
(0.646116 0.0259081 -2.45372e-19)
(0.741128 0.0316843 2.30196e-19)
(-0.0107394 0.0147616 0)
(-0.0249941 0.0350032 0)
(-0.0328612 0.0483164 -1.7252e-19)
(-0.0346863 0.056249 5.48398e-20)
(-0.0307948 0.0601428 3.70409e-22)
(-0.0214563 0.0611085 9.62254e-20)
(-0.00684738 0.0600383 0)
(0.0129551 0.0576325 -8.39507e-20)
(0.0379589 0.0544328 7.8381e-20)
(0.0682283 0.0508552 -1.47172e-19)
(0.103847 0.0472173 1.69294e-22)
(0.144877 0.0437607 1.29232e-19)
(0.191314 0.0406682 -2.6619e-22)
(0.243044 0.0380741 1.13201e-19)
(0.299812 0.0360744 -1.60031e-19)
(0.361194 0.0347296 0)
(0.42659 0.0340681 1.8589e-19)
(0.495229 0.0340933 -2.61859e-19)
(0.566112 0.0347372 8.07223e-20)
(0.638588 0.0361669 0)
(0.709657 0.0375201 6.99557e-20)
(0.784997 0.0411432 2.6146e-19)
(0.841885 0.0411545 -2.45371e-19)
(0.93892 0.0498481 -2.82893e-19)
(-0.0116625 0.0139813 1.80987e-19)
(-0.0260753 0.0324483 -2.48947e-19)
(-0.0323238 0.0440945 4.82498e-22)
(-0.0308575 0.0505758 5.53959e-20)
(-0.0220677 0.0533029 -1.03271e-19)
(-0.00625279 0.0534284 -9.57549e-20)
(0.0164041 0.051869 1.79533e-19)
(0.0458264 0.0493441 -1.23147e-21)
(0.0820047 0.0464147 -1.58e-19)
(0.124937 0.0435143 2.94906e-19)
(0.174561 0.0409735 -5.52851e-22)
(0.230688 0.039037 -1.29569e-19)
(0.292942 0.037874 0)
(0.360716 0.0375845 0)
(0.433158 0.0382031 -5.30944e-20)
(0.509175 0.0397016 -9.85333e-20)
(0.587469 0.0419956 -1.84175e-19)
(0.666594 0.0449489 1.72879e-19)
(0.744994 0.0483709 -8.07517e-20)
(0.821362 0.0521746 1.48552e-19)
(0.893213 0.0556744 -7.144e-20)
(0.963554 0.0603253 1.27052e-19)
(1.01674 0.0614236 -2.99698e-19)
(1.09545 0.0697807 5.59393e-20)
(-0.012386 0.0130157 6.1114e-20)
(-0.0260783 0.0292117 0)
(-0.0294377 0.0387904 1.18382e-19)
(-0.0230757 0.043576 -1.1152e-19)
(-0.00745772 0.0450773 1.03366e-19)
(0.0170898 0.0445069 0)
(0.0503567 0.0428154 0)
(0.0922006 0.0407418 -8.45212e-20)
(0.142461 0.0388562 9.20937e-22)
(0.200861 0.037587 7.45605e-20)
(0.266904 0.0372386 -6.88981e-20)
(0.339805 0.0379998 1.297e-19)
(0.418444 0.0399481 0)
(0.501376 0.0430551 2.25045e-19)
(0.586872 0.0471932 -4.21186e-19)
(0.673009 0.0521474 2.95641e-19)
(0.757782 0.0576383 1.81873e-19)
(0.839209 0.063319 -1.70723e-19)
(0.915513 0.0688989 0)
(0.98505 0.0738614 0)
(1.04681 0.0782791 0)
(1.10029 0.0812597 0)
(1.14221 0.0830288 5.89932e-20)
(1.18877 0.0857309 -2.15928e-19)
(-0.250983 -0.0188595 -5.51216e-21)
(-0.26546 -0.0181539 5.534e-21)
(-0.279461 -0.0168402 -1.69123e-22)
(-0.293438 -0.0148607 0)
(-0.307074 -0.0121937 -5.22833e-21)
(-0.320109 -0.00881589 1.01908e-20)
(-0.33219 -0.00473765 1.09812e-23)
(-0.342888 -1.48702e-05 -4.83822e-21)
(-0.351733 0.00525137 0)
(-0.358218 0.0108002 0)
(-0.361757 0.0164195 -2.69171e-22)
(-0.361699 0.0218592 -2.55874e-22)
(-0.357383 0.026797 -4.01652e-21)
(-0.348149 0.0308626 3.66969e-21)
(-0.333364 0.0336723 0)
(-0.312394 0.0348384 0)
(-0.284742 0.0341298 2.38718e-21)
(-0.250181 0.0314173 -3.33806e-22)
(-0.208698 0.0263386 -1.81785e-21)
(-0.16007 0.0189539 -8.74795e-23)
(-0.10516 0.00948136 0)
(-0.0450028 -0.00125362 0)
(0.0195394 -0.0113637 0)
(0.0866631 -0.0205379 0)
(0.154668 -0.0278558 0)
(0.221999 -0.0326246 0)
(0.287164 -0.0346838 -1.78396e-22)
(0.349079 -0.0341144 2.8298e-22)
(0.407113 -0.0313881 0)
(0.461022 -0.0269036 0)
(0.510823 -0.0213929 2.39929e-22)
(0.556688 -0.015082 -2.33176e-22)
(0.598806 -0.00875515 -1.05233e-22)
(0.637478 -0.00235606 0)
(0.672829 0.00327571 0)
(0.705163 0.00865474 -1.44689e-22)
(0.734533 0.0128134 1.40643e-22)
(0.761251 0.0165156 0)
(0.785374 0.0187826 -9.78623e-23)
(0.807232 0.0208583 1.40213e-22)
(0.826893 0.0214663 -3.93128e-23)
(0.844781 0.0223673 0)
(0.860937 0.0218095 5.60876e-23)
(0.875811 0.0221886 -5.45388e-23)
(0.889367 0.0210237 0)
(0.902115 0.0214073 0)
(0.914006 0.0200833 1.55988e-23)
(0.925551 0.0208798 -4.36768e-23)
(0.936469 0.0197528 0)
(0.947028 0.0212288 0)
(0.956543 0.0202604 8.25077e-24)
(0.965308 0.0223281 -2.52496e-26)
(0.972485 0.0213663 1.01947e-24)
(0.978836 0.0239742 -4.59563e-24)
(0.983448 0.0231561 0)
(0.987677 0.0264477 0)
(0.990219 0.0258702 0)
(0.993143 0.029913 0)
(0.994249 0.0295937 0)
(0.996707 0.0343367 0)
(-0.216653 -0.00191153 -5.28535e-22)
(-0.23053 -0.00152554 -2.2143e-20)
(-0.243402 -0.000808798 4.66392e-23)
(-0.256268 0.000422192 2.07369e-20)
(-0.268877 0.0020727 3.21148e-22)
(-0.280928 0.00412094 0)
(-0.292073 0.00652603 -1.93744e-20)
(-0.301867 0.00919403 3.82479e-20)
(-0.309792 0.0119637 -1.88708e-20)
(-0.315289 0.0146334 1.77909e-20)
(-0.317722 0.0169887 -1.70233e-20)
(-0.316411 0.0187776 1.5847e-20)
(-0.310667 0.0197257 -1.54076e-20)
(-0.299791 0.0196019 -4.49669e-22)
(-0.283155 0.0183124 -1.26565e-20)
(-0.260076 0.0153601 1.22996e-20)
(-0.230135 0.0102668 -9.75765e-21)
(-0.193284 0.00264275 9.19829e-21)
(-0.149764 -0.00693952 -6.7674e-21)
(-0.0997007 -0.0185042 1.1648e-20)
(-0.0438508 -0.0307609 -4.94933e-21)
(0.0174038 -0.0429029 -1.86787e-22)
(0.0823639 -0.0537146 -9.72355e-22)
(0.148553 -0.0624037 9.06549e-22)
(0.214464 -0.0679783 3.71718e-23)
(0.278449 -0.0701375 -6.63053e-23)
(0.339159 -0.0690178 -1.82166e-21)
(0.395668 -0.0650248 -3.11347e-22)
(0.447649 -0.0589144 3.95675e-21)
(0.495095 -0.0512973 -3.99652e-21)
(0.538421 -0.0430084 1.95649e-21)
(0.577976 -0.0342678 -2.2793e-22)
(0.614314 -0.0258278 1.05445e-22)
(0.647777 -0.0175805 -1.91058e-22)
(0.678818 -0.0103136 0)
(0.707607 -0.00350028 0)
(0.73431 0.0019142 5.13801e-22)
(0.759041 0.00693779 -3.80941e-22)
(0.781945 0.0103794 -2.902e-22)
(0.803066 0.0134688 -5.87002e-24)
(0.822501 0.0149415 3.73373e-22)
(0.840393 0.0166067 -6.85898e-23)
(0.856825 0.0167062 0)
(0.872018 0.0176498 0)
(0.886009 0.016953 0)
(0.899142 0.017713 0)
(0.91146 0.0166803 -6.63994e-23)
(0.923387 0.0177194 2.85332e-23)
(0.934707 0.0168274 0)
(0.945647 0.0185794 0)
(0.955527 0.0179291 0)
(0.964628 0.0203584 1.28034e-23)
(0.972076 0.0197566 -2.13595e-24)
(0.978666 0.0227079 1.01376e-23)
(0.983432 0.022178 0)
(0.987813 0.0257151 0)
(0.990424 0.0253107 -4.08093e-24)
(0.99345 0.029501 -9.28347e-24)
(0.994581 0.0292581 0)
(0.997127 0.0340947 0)
(-0.145249 0.0117042 6.51319e-22)
(-0.156602 0.0121218 -4.40506e-20)
(-0.166389 0.0123629 4.39061e-20)
(-0.175941 0.0130091 -4.10593e-20)
(-0.185342 0.0138334 -3.23322e-22)
(-0.194235 0.0147279 0)
(-0.202252 0.0156091 -3.95512e-20)
(-0.208975 0.0163967 3.87459e-20)
(-0.213915 0.0169372 2.90662e-22)
(-0.216502 0.0170046 5.58962e-22)
(-0.216097 0.0163666 5.38179e-22)
(-0.212025 0.014818 5.13894e-22)
(-0.203568 0.0122107 -3.05102e-20)
(-0.189875 0.00845904 3.0103e-20)
(-0.17072 0.00275772 0)
(-0.145721 -0.00516573 7.7061e-22)
(-0.114786 -0.0150396 -2.04371e-20)
(-0.077205 -0.027272 2.01434e-20)
(-0.0333742 -0.0411572 0)
(0.0168034 -0.0559036 0)
(0.0725664 -0.0702975 -8.28207e-21)
(0.13194 -0.0832865 1.32692e-20)
(0.193817 -0.0943474 -7.55463e-21)
(0.256031 -0.102002 2.11865e-21)
(0.316823 -0.105471 -8.11764e-22)
(0.374599 -0.104669 3.76957e-21)
(0.428235 -0.10009 -5.55874e-21)
(0.477026 -0.0924958 -3.499e-22)
(0.52092 -0.0829281 3.67567e-21)
(0.560091 -0.0721865 0)
(0.595235 -0.0612377 0)
(0.62682 -0.050299 -1.3239e-21)
(0.655657 -0.0400511 1.72731e-21)
(0.682117 -0.0303057 1.9564e-24)
(0.706895 -0.021758 -1.31928e-21)
(0.730094 -0.0139159 1.2821e-21)
(0.75218 -0.00756628 0)
(0.77303 -0.00174711 -1.18967e-22)
(0.792813 0.00249463 -8.94e-22)
(0.811405 0.00647972 1.63813e-21)
(0.828981 0.00869549 -6.70194e-22)
(0.845405 0.0110156 -6.85955e-23)
(0.860797 0.0116962 5.71341e-22)
(0.875132 0.0131584 -4.39495e-22)
(0.888519 0.0129054 -8.93288e-23)
(0.901106 0.0140282 -7.71596e-23)
(0.913012 0.0132785 6.65681e-23)
(0.924553 0.0145515 0)
(0.935576 0.0138862 0)
(0.946272 0.0159057 1.629e-22)
(0.95598 0.0155688 -7.66366e-23)
(0.964977 0.0183581 6.0018e-23)
(0.972357 0.0181179 -7.46644e-23)
(0.978941 0.0214166 -7.80598e-23)
(0.983691 0.0211785 1.82843e-23)
(0.988112 0.0249653 -2.56732e-23)
(0.990724 0.0247364 1.9192e-23)
(0.993809 0.0290774 -8.00103e-24)
(0.994943 0.0289119 0)
(0.997563 0.0338447 0)
(-0.0477038 0.0195859 -9.08277e-20)
(-0.0552557 0.0206242 4.13283e-22)
(-0.0610055 0.0206977 8.57269e-20)
(-0.0659953 0.0209356 -6.63122e-22)
(-0.0708869 0.0212108 0)
(-0.0753651 0.0212936 0)
(-0.0790275 0.0210146 -7.93922e-20)
(-0.0814624 0.0202422 -6.90624e-22)
(-0.0822695 0.0188432 1.12312e-19)
(-0.0809453 0.0166296 -7.68484e-22)
(-0.0768596 0.0133449 -3.54903e-20)
(-0.0693186 0.0088488 -3.19149e-20)
(-0.0576524 0.00303774 3.20288e-20)
(-0.0418175 -0.00475138 0)
(-0.0216586 -0.0148016 -2.68283e-20)
(0.00435667 -0.0269465 2.44902e-20)
(0.0364159 -0.0409287 0)
(0.0740836 -0.0564993 0)
(0.117073 -0.0734474 1.52961e-20)
(0.165038 -0.0901264 -2.75833e-21)
(0.217393 -0.106491 -1.14478e-20)
(0.272511 -0.120695 -6.21516e-21)
(0.328901 -0.131547 6.13763e-21)
(0.384577 -0.13784 -1.13655e-21)
(0.437859 -0.138978 1.77223e-21)
(0.487388 -0.135117 -7.07172e-22)
(0.532367 -0.127094 -3.21446e-22)
(0.572389 -0.116 -2.20008e-23)
(0.60766 -0.103137 0)
(0.638461 -0.0894482 -3.83101e-21)
(0.665598 -0.0760045 3.9501e-21)
(0.689544 -0.0630646 -2.26348e-22)
(0.711169 -0.0512432 0)
(0.730785 -0.0402795 1.91363e-22)
(0.749209 -0.030783 -2.62962e-21)
(0.76652 -0.0221477 4.5901e-21)
(0.783307 -0.0150829 6.16503e-23)
(0.799404 -0.0087837 -1.91549e-22)
(0.815191 -0.00409087 -1.55533e-21)
(0.830261 0.000264943 -1.8189e-22)
(0.844858 0.00314645 1.20379e-21)
(0.858742 0.00600579 -1.03166e-21)
(0.872064 0.00714561 -5.16641e-25)
(0.884593 0.00903425 -3.92178e-22)
(0.896493 0.00916055 4.70904e-22)
(0.90773 0.0105999 5.24336e-22)
(0.918477 0.0100979 -1.51002e-22)
(0.928939 0.0115723 -2.16564e-22)
(0.93902 0.0111018 3.96076e-22)
(0.948885 0.013355 -2.64741e-22)
(0.957909 0.0132991 6.20929e-23)
(0.966374 0.0164196 -7.83526e-23)
(0.97335 0.0165174 -5.86809e-23)
(0.979678 0.0201462 1.19178e-22)
(0.984239 0.0201873 -3.59161e-24)
(0.988584 0.0242165 2.56649e-23)
(0.991126 0.0241583 0)
(0.994227 0.0286482 7.96035e-24)
(0.995341 0.0285586 -1.02509e-23)
(0.998015 0.0335881 0)
(0.0674433 0.0211055 9.15792e-20)
(0.064073 0.0231806 -1.79013e-19)
(0.0616754 0.0235014 8.64586e-20)
(0.0609609 0.0234952 8.53443e-20)
(0.06064 0.0234439 -1.66989e-19)
(0.0606805 0.0230519 2.68917e-22)
(0.0614619 0.0220338 7.9758e-20)
(0.0633926 0.0202014 7.74045e-20)
(0.0668391 0.0173731 -7.58211e-20)
(0.0721736 0.0133828 0)
(0.0799814 0.00801406 -7.02709e-20)
(0.090823 0.00113244 1.35587e-19)
(0.104767 -0.00780755 -6.53932e-20)
(0.122366 -0.0191263 0)
(0.144272 -0.0322612 0)
(0.170737 -0.0469779 8.09852e-22)
(0.202135 -0.0637864 -4.51399e-20)
(0.238367 -0.0823003 4.38496e-20)
(0.278979 -0.101794 0)
(0.32344 -0.120948 2.73955e-20)
(0.370962 -0.138703 -4.57363e-20)
(0.419989 -0.153432 3.34091e-20)
(0.468938 -0.163776 -2.22637e-20)
(0.516059 -0.168579 4.51665e-21)
(0.559946 -0.167409 3.41359e-21)
(0.599641 -0.160689 2.33418e-22)
(0.634815 -0.149565 1.48879e-22)
(0.665467 -0.135396 3.01489e-21)
(0.69207 -0.119683 4.23091e-22)
(0.715002 -0.103462 -3.44012e-21)
(0.735036 -0.0878366 -2.30633e-22)
(0.75256 -0.0731361 3.40383e-21)
(0.76832 -0.0599383 -6.46919e-21)
(0.782463 -0.047927 3.43866e-21)
(0.795736 -0.037639 0)
(0.808141 -0.0284086 2.62941e-21)
(0.82032 -0.0209001 -2.52815e-21)
(0.832072 -0.014168 1.57633e-21)
(0.843846 -0.00912782 -1.9699e-21)
(0.855332 -0.00455603 1.81973e-22)
(0.866751 -0.00150173 0)
(0.877658 0.00179259 1.3702e-22)
(0.888405 0.00329756 -3.58797e-22)
(0.89863 0.00550952 0)
(0.908519 0.00593061 -8.57828e-22)
(0.917913 0.00762219 3.49587e-22)
(0.927003 0.00731645 -1.33888e-22)
(0.935914 0.00894553 -1.14829e-22)
(0.944583 0.00862187 0)
(0.953178 0.0110568 0)
(0.961111 0.0112286 2.0566e-22)
(0.968699 0.0146289 -3.02418e-22)
(0.974988 0.0150195 1.58868e-22)
(0.980846 0.0189421 -4.80975e-23)
(0.985062 0.0192351 -7.28423e-23)
(0.989227 0.0234881 -2.56894e-23)
(0.99163 0.0235882 3.82962e-23)
(0.994704 0.0282202 0)
(0.995774 0.0282024 1.67314e-23)
(0.998485 0.0333267 3.96613e-24)
(0.2 0.0189412 9.27056e-20)
(0.199446 0.0213942 -9.20348e-20)
(0.198251 0.021766 6.92155e-22)
(0.199685 0.0215522 -6.69404e-22)
(0.202375 0.0212447 6.59436e-22)
(0.205643 0.0205119 -6.4408e-22)
(0.209735 0.0189889 1.24679e-21)
(0.215025 0.0164765 0)
(0.221828 0.0127615 -1.1864e-21)
(0.230391 0.00760775 1.15428e-21)
(0.241237 0.000868465 1.11937e-21)
(0.25442 -0.00792864 -1.08119e-21)
(0.270247 -0.0190392 0)
(0.289359 -0.0321882 0)
(0.311939 -0.0475581 9.2396e-22)
(0.338245 -0.0649561 0)
(0.368525 -0.0842106 -7.79726e-22)
(0.402622 -0.104915 0)
(0.440022 -0.126261 -3.40269e-20)
(0.480023 -0.146925 6.19947e-20)
(0.521612 -0.165531 -4.93326e-20)
(0.563235 -0.180361 2.15923e-20)
(0.603307 -0.189941 1.02752e-20)
(0.640365 -0.193206 -9.97774e-21)
(0.673445 -0.189922 -1.31189e-21)
(0.702158 -0.180771 1.16766e-21)
(0.726755 -0.167156 0)
(0.747699 -0.150609 -1.37631e-22)
(0.765728 -0.132739 0)
(0.781306 -0.114618 0)
(0.795094 -0.097317 -6.38498e-21)
(0.807346 -0.0812097 6.59121e-21)
(0.8186 -0.0668738 -3.80712e-22)
(0.828787 -0.0539648 -3.71041e-22)
(0.838432 -0.0429837 3.25466e-22)
(0.84741 -0.0332325 2.29738e-21)
(0.85627 -0.0253273 -2.2307e-21)
(0.864787 -0.0183002 2.04174e-21)
(0.873432 -0.0129944 -1.75111e-21)
(0.881861 -0.00808772 -3.64818e-22)
(0.890461 -0.00496231 1.20195e-21)
(0.898736 -0.00162625 1.29998e-23)
(0.906962 0.000209364 -7.73175e-22)