/*--------------------------------*- C++ -*----------------------------------*\
| =========                 |                                                 |
| \\      /  F ield         | OpenFOAM: The Open Source CFD Toolbox           |
|  \\    /   O peration     | Version:  2512                                  |
|   \\  /    A nd           | Website:  www.openfoam.com                      |
|    \\/     M anipulation  |                                                 |
\*---------------------------------------------------------------------------*/
FoamFile
{
    version     2.0;
    format      ascii;
    arch        "LSB;label=32;scalar=64";
    class       volScalarField;
    location    "143";
    object      p;
}
// * * * * * * * * * * * * * * * * * * * * * * * * * * * * * * * * * * * * * //

dimensions      [0 2 -2 0 0 0 0];

internalField   nonuniform List<scalar> 
13248
(
-0.438972
-0.436309
-0.432682
-0.428433
-0.424027
-0.419966
-0.416659
-0.414355
-0.413117
-0.412811
-0.413113
-0.413548
-0.413546
-0.41252
-0.409938
-0.40539
-0.398631
-0.389596
-0.378364
-0.365142
-0.350034
-0.333389
-0.314078
-0.293102
-0.447994
-0.444694
-0.440518
-0.435799
-0.430944
-0.426398
-0.42248
-0.419329
-0.416892
-0.414932
-0.413061
-0.410807
-0.407684
-0.403268
-0.397252
-0.389478
-0.379928
-0.368704
-0.355974
-0.341923
-0.3267
-0.310451
-0.292987
-0.2752
-0.459364
-0.455118
-0.450221
-0.444942
-0.439568
-0.434439
-0.429742
-0.425473
-0.421457
-0.417391
-0.4129
-0.407617
-0.401237
-0.393566
-0.384535
-0.374186
-0.362636
-0.350044
-0.336565
-0.322345
-0.307474
-0.292102
-0.276087
-0.260025
-0.473012
-0.467559
-0.461779
-0.455823
-0.449787
-0.443861
-0.438065
-0.432249
-0.426157
-0.419502
-0.412028
-0.403562
-0.394032
-0.383467
-0.37197
-0.359683
-0.346757
-0.333325
-0.319496
-0.305357
-0.290982
-0.276473
-0.261776
-0.247453
-0.488781
-0.481927
-0.475132
-0.468359
-0.461446
-0.454387
-0.447035
-0.439136
-0.430446
-0.420806
-0.41017
-0.3986
-0.386238
-0.373262
-0.359849
-0.346153
-0.332289
-0.318337
-0.304353
-0.290375
-0.27644
-0.262598
-0.248824
-0.235449
-0.506454
-0.498078
-0.490168
-0.482415
-0.474321
-0.465664
-0.456172
-0.445594
-0.433825
-0.420938
-0.40714
-0.392703
-0.377903
-0.362973
-0.348082
-0.333338
-0.3188
-0.304493
-0.290424
-0.276595
-0.263014
-0.249694
-0.236629
-0.224019
-0.525688
-0.515755
-0.506657
-0.497712
-0.488019
-0.477168
-0.464875
-0.451044
-0.435839
-0.41962
-0.40282
-0.385845
-0.369007
-0.352513
-0.336475
-0.320937
-0.305897
-0.291334
-0.27722
-0.263527
-0.250237
-0.237334
-0.224817
-0.212744
-0.545994
-0.534536
-0.524175
-0.513742
-0.50191
-0.488181
-0.472435
-0.454897
-0.436081
-0.416619
-0.397092
-0.377935
-0.359417
-0.34167
-0.32473
-0.308573
-0.29315
-0.278401
-0.26427
-0.250708
-0.237675
-0.22514
-0.213094
-0.201489
-0.566652
-0.553767
-0.542042
-0.529728
-0.515128
-0.497835
-0.478104
-0.456607
-0.434216
-0.411755
-0.389842
-0.368855
-0.348971
-0.330226
-0.312577
-0.295946
-0.280242
-0.265377
-0.251271
-0.237857
-0.225076
-0.212887
-0.20126
-0.190072
-0.586698
-0.572533
-0.559292
-0.544618
-0.526599
-0.505171
-0.481146
-0.455691
-0.429959
-0.40485
-0.380922
-0.358439
-0.337462
-0.317932
-0.299743
-0.282766
-0.26688
-0.251972
-0.237943
-0.224708
-0.212194
-0.200351
-0.189114
-0.178336
-0.604952
-0.589667
-0.574697
-0.55713
-0.53511
-0.509168
-0.480791
-0.451588
-0.422877
-0.395518
-0.36994
-0.346267
-0.324442
-0.304328
-0.285758
-0.268569
-0.25261
-0.237748
-0.223868
-0.210867
-0.198663
-0.187188
-0.176339
-0.165989
-0.620127
-0.603911
-0.586971
-0.565982
-0.539468
-0.508787
-0.47614
-0.443488
-0.412186
-0.382966
-0.356086
-0.331519
-0.309099
-0.288615
-0.26985
-0.252609
-0.236716
-0.222021
-0.208391
-0.195714
-0.183899
-0.172862
-0.162469
-0.152662
-0.365468
-0.366754
-0.367584
-0.368357
-0.369481
-0.371137
-0.373397
-0.376276
-0.379754
-0.383795
-0.388353
-0.39336
-0.398723
-0.404315
-0.409963
-0.415443
-0.420485
-0.424765
-0.427925
-0.429495
-0.429158
-0.426563
-0.421428
-0.413655
-0.376935
-0.377358
-0.377764
-0.378421
-0.379639
-0.381605
-0.384407
-0.388067
-0.392577
-0.397909
-0.404021
-0.410851
-0.418305
-0.426239
-0.434454
-0.442677
-0.450569
-0.457719
-0.463654
-0.467704
-0.469422
-0.468242
-0.46357
-0.455183
-0.387679
-0.387202
-0.387122
-0.387566
-0.388746
-0.390854
-0.393992
-0.398192
-0.403451
-0.409743
-0.417027
-0.425236
-0.434266
-0.443953
-0.454075
-0.464304
-0.474233
-0.483377
-0.491151
-0.496739
-0.499558
-0.498865
-0.493889
-0.48411
-0.397155
-0.39583
-0.395227
-0.395352
-0.396326
-0.398351
-0.40155
-0.405967
-0.411603
-0.418431
-0.426404
-0.435444
-0.445429
-0.456174
-0.467411
-0.478777
-0.489816
-0.499961
-0.508524
-0.514715
-0.517713
-0.516654
-0.510815
-0.498933
-0.405022
-0.402987
-0.401862
-0.401561
-0.402145
-0.403832
-0.406776
-0.411041
-0.41664
-0.423543
-0.431696
-0.441003
-0.451325
-0.462453
-0.474086
-0.485779
-0.497076
-0.507347
-0.515847
-0.521718
-0.524072
-0.521891
-0.514843
-0.500567
-0.411165
-0.408628
-0.407022
-0.406213
-0.406234
-0.407338
-0.409717
-0.413472
-0.418633
-0.425178
-0.433044
-0.442122
-0.452253
-0.463225
-0.47478
-0.486023
-0.496865
-0.506545
-0.514231
-0.519009
-0.520021
-0.516061
-0.507441
-0.490689
-0.415711
-0.412914
-0.410903
-0.409537
-0.408867
-0.409189
-0.41075
-0.413698
-0.418095
-0.423934
-0.431147
-0.439605
-0.449106
-0.459346
-0.469886
-0.480696
-0.490691
-0.499209
-0.50544
-0.508442
-0.507473
-0.501231
-0.490639
-0.47162
-0.419011
-0.416189
-0.413859
-0.411926
-0.410496
-0.409921
-0.410508
-0.412461
-0.415887
-0.420802
-0.427141
-0.43476
-0.44342
-0.452806
-0.462485
-0.47194
-0.48043
-0.487155
-0.491267
-0.491845
-0.488317
-0.479515
-0.46671
-0.445962
-0.421607
-0.418932
-0.41636
-0.413881
-0.411689
-0.410196
-0.409771
-0.410678
-0.413066
-0.41698
-0.422337
-0.428982
-0.436635
-0.444885
-0.453209
-0.460963
-0.46739
-0.471673
-0.473022
-0.470674
-0.464284
-0.453047
-0.438281
-0.416649
-0.42418
-0.42172
-0.418948
-0.415963
-0.413067
-0.410726
-0.409363
-0.409289
-0.410684
-0.413598
-0.417955
-0.423515
-0.429917
-0.436662
-0.443126
-0.448588
-0.452282
-0.45347
-0.451537
-0.446038
-0.436924
-0.423898
-0.408156
-0.386811
-0.427484
-0.425176
-0.422191
-0.418745
-0.415235
-0.412172
-0.41001
-0.409081
-0.409573
-0.411513
-0.414762
-0.419009
-0.423795
-0.428524
-0.432509
-0.435025
-0.435387
-0.433039
-0.427612
-0.419028
-0.407498
-0.393348
-0.377691
-0.35812
-0.432234
-0.429885
-0.426623
-0.422747
-0.418722
-0.415075
-0.412259
-0.410595
-0.41023
-0.411132
-0.413074
-0.415655
-0.418331
-0.420458
-0.421371
-0.420448
-0.417191
-0.411284
-0.402604
-0.391296
-0.377567
-0.362093
-0.345524
-0.327949
-0.401942
-0.382911
-0.360165
-0.334553
-0.307945
-0.282397
-0.261217
-0.246364
-0.239324
-0.240385
-0.246974
-0.256341
-0.263468
-0.262984
-0.251135
-0.227257
-0.194924
-0.160805
-0.13133
-0.110296
-0.0986014
-0.0952585
-0.0991749
-0.110916
-0.131622
-0.158178
-0.18063
-0.187029
-0.173104
-0.146042
-0.116415
-0.0920859
-0.0760899
-0.0678164
-0.0658042
-0.0711155
-0.0847543
-0.101092
-0.109273
-0.102864
-0.0870286
-0.0714246
-0.0602072
-0.0542912
-0.0547743
-0.0620421
-0.0701659
-0.0707357
-0.0630531
-0.0539547
-0.0444643
-0.039015
-0.0351665
-0.0334685
-0.0329951
-0.0311331
-0.0246673
-0.0184584
-0.0102117
-0.00282477
-0.443603
-0.419449
-0.392023
-0.360164
-0.326221
-0.290731
-0.260229
-0.235333
-0.218018
-0.21058
-0.209275
-0.213753
-0.219191
-0.219875
-0.211456
-0.193426
-0.168083
-0.140971
-0.117735
-0.101976
-0.0946912
-0.0950703
-0.102453
-0.117952
-0.142669
-0.172651
-0.196901
-0.202487
-0.185992
-0.155343
-0.122302
-0.0950494
-0.0764609
-0.0658611
-0.0615679
-0.0642164
-0.0748804
-0.0889425
-0.0965052
-0.091561
-0.0785903
-0.0662044
-0.0579528
-0.0545359
-0.0577173
-0.0675163
-0.0776639
-0.0784416
-0.0689348
-0.0575774
-0.0457566
-0.038598
-0.0326609
-0.0296968
-0.0284919
-0.0267813
-0.0217523
-0.0166281
-0.0102093
-0.00341061
-0.471063
-0.445234
-0.412677
-0.375213
-0.33457
-0.292992
-0.254148
-0.220562
-0.194375
-0.177368
-0.168427
-0.167658
-0.170586
-0.172071
-0.167043
-0.155367
-0.137311
-0.117523
-0.100877
-0.0906932
-0.0879674
-0.0920579
-0.102776
-0.121679
-0.14977
-0.18256
-0.208421
-0.213913
-0.195585
-0.162228
-0.126484
-0.0968543
-0.076069
-0.0633995
-0.0570147
-0.0571396
-0.0648496
-0.0766015
-0.0835256
-0.0799692
-0.06978
-0.0605098
-0.0551748
-0.0542979
-0.0602458
-0.072605
-0.0847732
-0.085844
-0.0745022
-0.0608759
-0.0468048
-0.0380745
-0.0302581
-0.0260796
-0.0240589
-0.0224222
-0.0187933
-0.0147572
-0.0102038
-0.00401523
-0.484684
-0.457447
-0.421851
-0.380391
-0.33503
-0.288351
-0.243488
-0.203207
-0.169842
-0.14511
-0.129369
-0.122253
-0.12166
-0.123187
-0.122545
-0.115274
-0.104116
-0.0914676
-0.0813199
-0.0766091
-0.0781959
-0.0856549
-0.0992557
-0.120957
-0.151803
-0.187052
-0.214587
-0.220677
-0.201539
-0.166486
-0.128867
-0.0975141
-0.0750279
-0.060624
-0.0524004
-0.0502239
-0.0551186
-0.0645663
-0.0707628
-0.0684266
-0.0608292
-0.054462
-0.0519044
-0.0535022
-0.0621758
-0.0770636
-0.0912578
-0.0927174
-0.0796343
-0.0638017
-0.047594
-0.0374412
-0.02797
-0.0226424
-0.019748
-0.0181
-0.0158202
-0.0128612
-0.0101946
-0.00463607
-0.484815
-0.456451
-0.420059
-0.377252
-0.329683
-0.280155
-0.2317
-0.186962
-0.148226
-0.117304
-0.0952269
-0.0819941
-0.0766138
-0.0762808
-0.0770865
-0.0747423
-0.0699777
-0.0638334
-0.0596511
-0.059861
-0.0651982
-0.0755051
-0.0914653
-0.115391
-0.148472
-0.185843
-0.215107
-0.222501
-0.203713
-0.168108
-0.129547
-0.097159
-0.0734755
-0.0577102
-0.0479446
-0.0437527
-0.0460245
-0.0532241
-0.0586075
-0.0572495
-0.0519565
-0.0481731
-0.0481537
-0.0520658
-0.0633409
-0.0806678
-0.0968641
-0.0988034
-0.0842116
-0.066319
-0.0481211
-0.0366986
-0.0257989
-0.0194041
-0.0156082
-0.0138593
-0.0128621
-0.0109553
-0.0101788
-0.00526892
-0.4727
-0.443727
-0.408939
-0.367642
-0.320652
-0.270999
-0.221669
-0.175006
-0.133058
-0.0975831
-0.0699008
-0.0506612
-0.0396962
-0.0356051
-0.0358212
-0.0368985
-0.0363833
-0.0355974
-0.0364892
-0.0407697
-0.0491868
-0.0618148
-0.0796691
-0.105306
-0.140059
-0.179146
-0.210247
-0.219488
-0.202098
-0.167126
-0.128639
-0.0959207
-0.0715338
-0.0547778
-0.0437767
-0.0379048
-0.0378299
-0.042886
-0.0473944
-0.0467313
-0.0433616
-0.0417497
-0.0439516
-0.0499455
-0.0636226
-0.0832132
-0.101359
-0.103921
-0.0881477
-0.0684028
-0.0483855
-0.0358435
-0.0237357
-0.0163763
-0.0116845
-0.00973842
-0.00994515
-0.00905258
-0.010151
-0.0059086
-0.450977
-0.421876
-0.390512
-0.353054
-0.309148
-0.261984
-0.214393
-0.168321
-0.12552
-0.0875705
-0.0557602
-0.031082
-0.0141329
-0.00472577
-0.00159794
-0.00242493
-0.00454667
-0.00774235
-0.0124764
-0.0199129
-0.0307456
-0.0452147
-0.0645716
-0.091493
-0.127379
-0.167738
-0.200633
-0.212078
-0.196923
-0.163703
-0.126288
-0.0939318
-0.0693061
-0.0519063
-0.0399654
-0.0327385
-0.0306527
-0.0337303
-0.0373689
-0.0378054
-0.0352393
-0.0353204
-0.0393725
-0.0471405
-0.0629384
-0.0845497
-0.104567
-0.107923
-0.0913696
-0.0700304
-0.0483879
-0.0348773
-0.0217621
-0.0135584
-0.00801464
-0.00576816
-0.00709145
-0.00716439
-0.0101039
-0.00654999
-0.422837
-0.394353
-0.367581
-0.335282
-0.296118
-0.253394
-0.209576
-0.166138
-0.12454
-0.0861779
-0.0522135
-0.0236399
-0.00134294
0.0140254
0.0224424
0.0248739
0.023172
0.0183681
0.0114335
0.00188019
-0.0107127
-0.0266278
-0.0472141
-0.0751021
-0.111673
-0.152824
-0.187163
-0.200898
-0.1886
-0.158069
-0.122621
-0.0912815
-0.066855
-0.0491366
-0.0365388
-0.0282724
-0.0245217
-0.0258226
-0.0285655
-0.0290918
-0.0277012
-0.0290331
-0.0345143
-0.0437007
-0.061259
-0.084597
-0.106373
-0.110701
-0.0938074
-0.0711906
-0.0481354
-0.0338117
-0.0198757
-0.0109457
-0.00462165
-0.00197053
-0.00432
-0.00530054
-0.0100301
-0.0071886
-0.391834
-0.365171
-0.343394
-0.316369
-0.282565
-0.245287
-0.206346
-0.166754
-0.127772
-0.0906278
-0.0563446
-0.025826
7.0839e-05
0.0204976
0.0347012
0.0424053
0.0442557
0.0406516
0.0335805
0.0232758
0.00972519
-0.00721518
-0.028795
-0.057424
-0.0943284
-0.135708
-0.170916
-0.186767
-0.177702
-0.150598
-0.117899
-0.0881784
-0.0643562
-0.0466077
-0.033602
-0.0245685
-0.0194777
-0.0192044
-0.0210449
-0.0214924
-0.0208942
-0.023041
-0.0295074
-0.0396741
-0.0585786
-0.0833498
-0.106751
-0.11216
-0.095427
-0.0719167
-0.0476758
-0.0326773
-0.0181042
-0.00856515
-0.00152803
0.00164429
-0.00164693
-0.00346918
-0.00992277
-0.00782048
-0.361786
-0.338382
-0.321091
-0.298381
-0.269655
-0.237921
-0.204046
-0.16864
-0.132853
-0.0978485
-0.0644785
-0.0335686
-0.00600285
0.0174499
0.0361101
0.0492108
0.0567537
0.05643
0.0515224
0.0422305
0.0287832
0.011409
-0.01076
-0.0396937
-0.0763401
-0.117336
-0.152851
-0.170449
-0.164974
-0.141962
-0.112709
-0.0851431
-0.0622576
-0.0446679
-0.0314051
-0.0217771
-0.0155754
-0.0138919
-0.0148526
-0.0151201
-0.0149155
-0.0174575
-0.0244522
-0.0352248
-0.055034
-0.0808101
-0.10572
-0.112253
-0.0962152
-0.0722667
-0.0470978
-0.0315142
-0.0164479
-0.00645754
0.00118816
0.00506937
0.000915628
-0.00167777
-0.00977487
-0.008441
-0.335719
-0.317209
-0.303285
-0.283573
-0.259341
-0.232779
-0.203712
-0.172434
-0.140002
-0.107516
-0.0756101
-0.0450218
-0.0165876
0.00884632
0.0304408
0.0475173
0.0612941
0.0641195
0.0630001
0.0567665
0.044967
0.0281081
0.00591514
-0.0229564
-0.0591912
-0.099337
-0.134204
-0.152966
-0.150582
-0.132065
-0.106915
-0.0820231
-0.0603972
-0.0431262
-0.0297238
-0.0196704
-0.0125472
-0.0095824
-0.00975666
-0.00995828
-0.00987759
-0.0125134
-0.0194981
-0.0302698
-0.0505561
-0.0772391
-0.103484
-0.110855
-0.0960081
-0.0720725
-0.0463131
-0.0302621
-0.0147537
-0.00451732
0.00349277
0.00826808
0.00335214
7.3919e-05
-0.00958145
-0.00904516
-0.312582
-0.301132
-0.288715
-0.270419
-0.249778
-0.227661
-0.203103
-0.176062
-0.147257
-0.117572
-0.0877887
-0.058657
-0.0309696
-0.00544833
0.017168
0.0359793
0.0487124
0.0616987
0.0662221
0.0638319
0.0552397
0.0404887
0.0197498
-0.00764881
-0.0419522
-0.0798242
-0.113079
-0.131236
-0.131928
-0.118356
-0.0977189
-0.0759674
-0.0561956
-0.039827
-0.0267902
-0.0168333
-0.00929849
-0.00541689
-0.00491256
-0.00524059
-0.00610923
-0.0081624
-0.0150106
-0.0254875
-0.0456249
-0.0724701
-0.0997472
-0.107992
-0.0944113
-0.0707719
-0.0447577
-0.0286072
-0.0127222
-0.00245471
0.00576413
0.0113322
0.00563644
0.00176117
-0.00932834
-0.00963944
-0.284449
-0.287257
-0.273527
-0.253816
-0.233556
-0.212767
-0.190136
-0.165269
-0.138681
-0.111181
-0.0834952
-0.0562654
-0.0301433
-0.00575954
0.0162583
0.0351831
0.0501117
0.0618975
0.0681472
0.0685834
0.0624863
0.0494696
0.0297118
0.00270127
-0.0319958
-0.070542
-0.103247
-0.121318
-0.119736
-0.106361
-0.0872932
-0.0675387
-0.0495875
-0.0345786
-0.0224236
-0.0130015
-0.00560183
-0.00137813
-0.000272162
-0.00033336
-0.000878248
-0.00243419
-0.00867723
-0.0186922
-0.0392128
-0.0674113
-0.096919
-0.106986
-0.0932569
-0.0688938
-0.0424398
-0.0265622
-0.0105359
-0.000400138
0.00834543
0.0145186
0.00793017
0.00345358
-0.00900381
-0.0102529
-0.256797
-0.263404
-0.251179
-0.231807
-0.212421
-0.193505
-0.173435
-0.151382
-0.127651
-0.102986
-0.0780675
-0.0534469
-0.0296656
-0.00730197
0.0131002
0.031028
0.0455794
0.0571915
0.0641831
0.0658107
0.0611752
0.0497509
0.0315449
0.0061024
-0.0265617
-0.0619854
-0.0906792
-0.104756
-0.103125
-0.091564
-0.0754268
-0.0586156
-0.0430312
-0.0296419
-0.018523
-0.00975646
-0.0026401
0.00171923
0.0031416
0.00308803
0.00243793
0.00124183
-0.00419226
-0.0134773
-0.0337964
-0.0626175
-0.0929123
-0.103621
-0.0899562
-0.065852
-0.0397116
-0.0241945
-0.00830212
0.00143963
0.0105533
0.0168857
0.00983994
0.00488073
-0.00863309
-0.0107043
-0.232146
-0.238936
-0.229001
-0.211573
-0.193777
-0.176741
-0.159003
-0.13953
-0.118419
-0.0963295
-0.0739064
-0.0516574
-0.0300569
-0.00960765
0.00921406
0.0259533
0.0398843
0.0507609
0.0575496
0.0594474
0.0555583
0.0453493
0.0288073
0.00585993
-0.022653
-0.0522959
-0.0756997
-0.087233
-0.0864041
-0.07745
-0.0644289
-0.0503749
-0.0369157
-0.0250028
-0.0148306
-0.00668269
8.2827e-05
0.00446643
0.00615459
0.00615743
0.00555648
0.00445232
-0.000682
-0.00964899
-0.0296522
-0.0579511
-0.0873291
-0.0985066
-0.0854924
-0.0621661
-0.03668
-0.0216276
-0.00603104
0.00328769
0.0126004
0.0189251
0.0115357
0.00613325
-0.00815548
-0.0110034
-0.209277
-0.215741
-0.207954
-0.192856
-0.176831
-0.161464
-0.145706
-0.128525
-0.109841
-0.0901791
-0.0701325
-0.0501679
-0.0306936
-0.0121361
0.00507606
0.0204712
0.0334218
0.0434934
0.0499503
0.0520514
0.0489745
0.0402407
0.0259125
0.00634093
-0.0172635
-0.0413715
-0.0604921
-0.0704289
-0.0707022
-0.0642183
-0.0539858
-0.0424355
-0.0309741
-0.0205094
-0.0112884
-0.00377175
0.00258311
0.00690964
0.00883973
0.00903681
0.00855617
0.00759967
0.00270089
-0.00603658
-0.0253733
-0.0523295
-0.0804964
-0.092176
-0.0799972
-0.0577723
-0.0333153
-0.0188693
-0.00369676
0.00514269
0.0144461
0.0207847
0.0131112
0.00732415
-0.00753134
-0.0111587
-0.187845
-0.194271
-0.1882
-0.175242
-0.161021
-0.147281
-0.133342
-0.118268
-0.101858
-0.0844943
-0.0666991
-0.0489023
-0.0314657
-0.0147646
0.000799069
0.014776
0.0266636
0.035965
0.042102
0.044446
0.042325
0.0353538
0.0236334
0.00765455
-0.0114251
-0.030858
-0.0464841
-0.0551966
-0.0564517
-0.0521219
-0.0443499
-0.0350309
-0.0253737
-0.0162625
-0.0079606
-0.00105318
0.00486626
0.0090704
0.0111927
0.0116547
0.0113437
0.0106511
0.00615537
-0.00205242
-0.0202198
-0.0456395
-0.0726059
-0.084496
-0.0734058
-0.0526706
-0.0296391
-0.0159493
-0.00132434
0.00699513
0.0160562
0.0224335
0.0145777
0.00849493
-0.00674978
-0.0111509
-0.168457
-0.174573
-0.169757
-0.158692
-0.146251
-0.134132
-0.1219
-0.108754
-0.0944361
-0.0792124
-0.0635261
-0.0477711
-0.0322765
-0.0173714
-0.00341616
0.00918615
0.0199945
0.0285529
0.0343729
0.0369469
0.0357615
0.030519
0.0213132
0.00863967
-0.00645687
-0.0218467
-0.0345015
-0.0421277
-0.0440807
-0.0414491
-0.0356839
-0.0282465
-0.020164
-0.012291
-0.00487239
0.00145185
0.00693337
0.0109646
0.0132176
0.013986
0.0139413
0.0135944
0.00967738
0.00232131
-0.0143721
-0.0381562
-0.0636521
-0.0755317
-0.0657961
-0.0469234
-0.0256873
-0.0129036
0.00105602
0.00883641
0.0174077
0.0238149
0.0159064
0.00963215
-0.00579073
-0.0109416
-0.150875
-0.156413
-0.152612
-0.143254
-0.132506
-0.121944
-0.111302
-0.0999087
-0.0874958
-0.0742433
-0.0605195
-0.0466764
-0.0330109
-0.0198087
-0.00738691
0.00389507
0.0136509
0.0214799
0.0269707
0.0297192
0.0293411
0.0256198
0.0186494
0.00889014
-0.00276962
-0.0147448
-0.0248891
-0.0314278
-0.0336995
-0.0322518
-0.0280286
-0.0221337
-0.0154
-0.00863445
-0.00205116
0.00371957
0.00878366
0.012613
0.0149422
0.0160355
0.0163632
0.0164216
0.0132065
0.00686763
-0.00814712
-0.0300193
-0.0537712
-0.065505
-0.0573228
-0.0406331
-0.0215134
-0.00977481
0.00340816
0.0106599
0.0184919
0.0248891
0.0170757
0.0107342
-0.0046115
-0.0104843
-0.134591
-0.139707
-0.136808
-0.128961
-0.119754
-0.110638
-0.101458
-0.0916538
-0.0809667
-0.0695154
-0.0576006
-0.0455291
-0.033566
-0.0219595
-0.0109835
-0.000954998
0.00779021
0.0149109
0.0200653
0.0229316
0.0232257
0.0208013
0.0157518
0.00846669
-0.000342808
-0.00950392
-0.0174894
-0.0229198
-0.0251773
-0.0244733
-0.021384
-0.0167185
-0.0111176
-0.00531927
0.000488715
0.00573389
0.0104145
0.0140373
0.016399
0.0178051
0.0185845
0.0191236
0.0167006
0.0114806
-0.00164647
-0.0214018
-0.0432872
-0.0547259
-0.0482103
-0.0339491
-0.01719
-0.00660966
0.0056936
0.0124601
0.0193268
0.0256475
0.0180988
0.0118343
-0.00316259
-0.0097281
-0.119711
-0.124483
-0.122317
-0.115767
-0.107937
-0.100138
-0.0922896
-0.0839209
-0.0747888
-0.0649691
-0.0547051
-0.0442593
-0.0338648
-0.023739
-0.0141142
-0.00526
0.00253458
0.00898256
0.0138021
0.016738
0.0175802
0.0162302
0.012771
0.00751395
0.00102653
-0.00581073
-0.0119331
-0.0162849
-0.0183038
-0.0180059
-0.0157115
-0.0119983
-0.00733331
-0.00236407
0.00274032
0.00748732
0.011817
0.0152507
0.0176203
0.0193066
0.020552
0.021689
0.0201818
0.0162006
0.00502634
-0.0126702
-0.0326445
-0.0435884
-0.038775
-0.0270678
-0.0128064
-0.00345694
0.00787472
0.014229
0.0199728
0.0261271
0.019032
0.0129886
-0.00140087
-0.00862269
-0.106307
-0.110624
-0.109018
-0.103595
-0.0969941
-0.0903848
-0.0837359
-0.0766535
-0.0689136
-0.0605601
-0.0517886
-0.0428208
-0.0338569
-0.0250865
-0.0167097
-0.00894409
-0.00203085
0.00378638
0.00827421
0.0112306
0.0124986
0.0120108
0.00983755
0.00622663
0.00162308
-0.00330626
-0.00785877
-0.0112005
-0.0128467
-0.0127123
-0.0109471
-0.00795154
-0.00404805
0.000221259
0.00470184
0.00898173
0.0129821
0.016253
0.0186293
0.0205591
0.0222139
0.0240668
0.0236263
0.0209706
0.0115737
-0.00434132
-0.0223506
-0.0324462
-0.0293894
-0.0202198
-0.00846544
-0.000366288
0.00991911
0.01595
0.0205427
0.0264181
0.0199711
0.0142626
0.000698841
-0.00713578
-0.0940877
-0.0979603
-0.0968324
-0.0923954
-0.086884
-0.0813331
-0.0757511
-0.06981
-0.0633056
-0.0562577
-0.0488214
-0.041183
-0.0335133
-0.025973
-0.0187326
-0.0119571
-0.00585669
-0.00063226
0.00352458
0.00645386
0.00803586
0.00822576
0.00707965
0.00478759
0.00168633
-0.00174074
-0.00494911
-0.00736967
-0.00857994
-0.00844712
-0.00701232
-0.00454243
-0.00124829
0.00243683
0.00637459
0.0102252
0.0139096
0.0170354
0.0194276
0.0215647
0.0235426
0.0260012
0.0267427
0.0253564
0.0174622
0.00308189
-0.0128622
-0.022024
-0.0204479
-0.0136505
-0.0042796
0.00261055
0.0118026
0.0175928
0.0211891
0.0266507
0.0210409
0.0157165
0.00311982
-0.0052809
-0.0829191
-0.0864373
-0.0857162
-0.0821238
-0.0775566
-0.0729338
-0.0682909
-0.0633534
-0.0579354
-0.0520394
-0.0457869
-0.0393318
-0.032818
-0.0263828
-0.0201816
-0.0142867
-0.00893027
-0.00426153
-0.00043386
0.0024253
0.0042237
0.00492972
0.00458506
0.00333112
0.0014246
-0.000818491
-0.00292173
-0.0045332
-0.0052964
-0.00506668
-0.0038199
-0.00172419
0.00109039
0.00429249
0.00776327
0.0112279
0.0146089
0.0175919
0.0199993
0.0222993
0.0245284
0.0273843
0.0290487
0.0286301
0.022068
0.00927771
-0.00447576
-0.0126229
-0.0123067
-0.00759333
-0.000361853
0.00541692
0.0135073
0.0191117
0.0220584
0.0269667
0.022363
0.0173704
0.00577082
-0.00314696
-0.072861
-0.0760256
-0.0755825
-0.0727013
-0.0689533
-0.065142
-0.0613187
-0.057255
-0.0527838
-0.0478944
-0.0426807
-0.0372666
-0.0317695
-0.0263009
-0.0209677
-0.0159284
-0.0112635
-0.00711598
-0.00361525
-0.000863682
0.00106488
0.00214357
0.00240436
0.00195758
0.00100482
-0.00029634
-0.00154234
-0.00247039
-0.00281263
-0.00243446
-0.0012786
0.000557798
0.0030003
0.00580633
0.00887811
0.0119987
0.0150938
0.0179245
0.0203279
0.0227224
0.0251218
0.0280628
0.0301749
0.0302947
0.0250097
0.0140951
0.00257083
-0.00449132
-0.00524933
-0.00223367
0.00319057
0.00799396
0.0150163
0.0204483
0.0232112
0.0274732
0.023987
0.0191574
0.00845851
-0.000914259
-0.0637934
-0.0666258
-0.0664404
-0.0641142
-0.0610479
-0.0579271
-0.0548049
-0.0514936
-0.0478396
-0.0438214
-0.0395104
-0.0350068
-0.030408
-0.0258041
-0.021282
-0.0169545
-0.0129042
-0.00923835
-0.00605856
-0.00344661
-0.00146277
-0.000130123
0.000571073
0.000716468
0.000419018
-8.53907e-05
-0.000635601
-0.000998847
-0.000967887
-0.000423831
0.000702621
0.00236304
0.00451971
0.00700243
0.00973503
0.0125488
0.0153764
0.018043
0.0204073
0.0228059
0.0252358
0.0280257
0.0301328
0.030435
0.026333
0.0174697
0.00805095
0.00200638
0.000556608
0.00232596
0.00631092
0.0102907
0.0163163
0.0215394
0.0245373
0.0281818
0.0258199
0.0208938
0.0108949
0.00116365
-0.0555591
-0.058083
-0.0580806
-0.0562743
-0.0537969
-0.0512549
-0.0487125
-0.0460553
-0.0431012
-0.0398291
-0.0362945
-0.0325792
-0.0287631
-0.0249194
-0.0211029
-0.017408
-0.013908
-0.0106857
-0.00781874
-0.00537188
-0.0033943
-0.00190685
-0.000899115
-0.000317043
-7.93171e-05
-3.82412e-05
-5.57457e-05
3.1201e-05
0.000376172
0.00108014
0.00221156
0.00375313
0.00569082
0.00790961
0.0103533
0.0128925
0.0154697
0.0179595
0.0202473
0.022568
0.0248832
0.0273735
0.0292275
0.0295134
0.0263945
0.0194854
0.011921
0.00616014
0.00509428
0.00607411
0.00896652
0.0122704
0.0174034
0.0223365
0.0257462
0.0289412
0.0275815
0.0223041
0.0127763
0.00284001
-0.0481186
-0.0503709
-0.0505108
-0.0491212
-0.0471539
-0.0451317
-0.0431256
-0.0409647
-0.0385789
-0.0359316
-0.0330564
-0.030015
-0.0268675
-0.0236671
-0.0204752
-0.0173455
-0.0143417
-0.0115271
-0.00896259
-0.00669979
-0.00477864
-0.00321881
-0.00201655
-0.00113867
-0.000521438
-7.46963e-05
0.000306884
0.000739806
0.0013365
0.0021797
0.0033303
0.00478962
0.00655763
0.00855925
0.0107553
0.0130485
0.0153922
0.0176931
0.0198642
0.0220391
0.0241575
0.0262804
0.0278021
0.0280028
0.0256491
0.0204266
0.0145475
0.00995835
0.00861826
0.00907168
0.0111546
0.0139075
0.0182696
0.0228147
0.0265035
0.0294042
0.0288234
0.0231055
0.0139031
0.0039807
-0.0414231
-0.0434162
-0.0436522
-0.0425984
-0.0410472
-0.0394417
-0.0378453
-0.0361492
-0.0342574
-0.0321394
-0.0298199
-0.0273475
-0.0247711
-0.0221328
-0.019475
-0.0168414
-0.0142797
-0.0118381
-0.00956373
-0.00749661
-0.00567157
-0.00410813
-0.00279948
-0.00173135
-0.000862628
-0.000130962
0.000536414
0.00122339
0.00201068
0.00296409
0.00413399
0.00553174
0.00716418
0.00898452
0.0109671
0.0130387
0.0151636
0.0172662
0.0192853
0.0212699
0.023162
0.0249237
0.0261268
0.0262464
0.0244836
0.0206268
0.0161822
0.0126211
0.0112453
0.0113932
0.0128892
0.0151878
0.0188836
0.0229466
0.0266076
0.0292248
0.0290944
0.0231205
0.0142525
0.00459813
-0.0353878
-0.037142
-0.0374433
-0.0366624
-0.0354553
-0.0341983
-0.0329522
-0.0316307
-0.0301473
-0.0284712
-0.0266187
-0.0246267
-0.0225331
-0.0203714
-0.0181732
-0.015971
-0.0138005
-0.0116976
-0.00969788
-0.0078328
-0.00613501
-0.00460801
-0.00327034
-0.00210048
-0.00107858
-0.000162504
0.000696582
0.00155827
0.00247902
0.00350985
0.00469
0.00603496
0.00755417
0.00921977
0.011016
0.0128863
0.0148055
0.0167078
0.0185525
0.0203297
0.0219878
0.0234362
0.0243804
0.0244518
0.0231498
0.0203635
0.0170817
0.0143658
0.0131102
0.013113
0.0141954
0.016108
0.0192065
0.0227096
0.0260185
0.0281646
0.0282151
0.0223585
0.013947
0.00479007
-0.0299462
-0.0314885
-0.0318326
-0.0312711
-0.0303463
-0.0293766
-0.0284186
-0.0274025
-0.0262536
-0.024942
-0.0234774
-0.0218871
-0.0202003
-0.0184423
-0.0166366
-0.0148074
-0.0129813
-0.0111848
-0.00944463
-0.00778407
-0.00622138
-0.00477984
-0.00345984
-0.00225704
-0.00115968
-0.000139647
0.000834228
0.0018035
0.00280641
0.00388139
0.00505748
0.00635049
0.00776983
0.00929903
0.0109292
0.0126162
0.0143436
0.0160513
0.0177131
0.0192828
0.0207195
0.0219148
0.0226678
0.022727
0.0217919
0.0198238
0.017448
0.0154271
0.0143594
0.0143108
0.0151039
0.0166773
0.0192187
0.0221085
0.0248486
0.0263949
0.0263888
0.0209793
0.0131662
0.00467076
-0.0250516
-0.0264026
-0.0267691
-0.0263813
-0.0256857
-0.0249504
-0.0242267
-0.0234582
-0.0225814
-0.0215679
-0.0204226
-0.0191654
-0.0178181
-0.0163996
-0.0149272
-0.0134185
-0.0118939
-0.0103754
-0.00889251
-0.00740834
-0.00599852
-0.00466126
-0.00340201
-0.00221866
-0.00110534
-4.457e-05
0.000982337
0.00200366
0.00304422
0.00413203
0.00528743
0.00652423
0.00785037
0.00925566
0.0107356
0.0122556
0.0138049
0.0153284
0.0168101
0.0181868
0.0194264
0.0204246
0.0210445
0.0211215
0.0204788
0.0191245
0.017438
0.0159843
0.0151224
0.015065
0.01565
0.0169172
0.018931
0.0212008
0.0233038
0.0242358
0.0239932
0.0192005
0.0120959
0.00435117
-0.020653
-0.0218306
-0.0222037
-0.021952
-0.0214413
-0.0208957
-0.020361
-0.0197918
-0.0191343
-0.0183627
-0.0174782
-0.0164951
-0.0154293
-0.0142946
-0.0131027
-0.0118654
-0.0105952
-0.00930462
-0.00800321
-0.00675044
-0.0055109
-0.00430128
-0.00313298
-0.00200694
-0.000922256
0.000130866
0.00116252
0.00219123
0.00323214
0.00430485
0.00542267
0.0065963
0.00783159
0.00912174
0.0104643
0.0118312
0.0132162
0.0145694
0.0158811
0.0170861
0.0181577
0.0190054
0.0195378
0.0196505
0.0192381
0.0183408
0.0171729
0.0161581
0.0154944
0.0154462
0.0158751
0.0168619
0.0183855
0.0200679
0.021569
0.0219457
0.021384
0.017231
0.0108937
0.0039288
-0.0167011
-0.017724
-0.0180928
-0.0179469
-0.0175841
-0.0171907
-0.016807
-0.0163967
-0.0159148
-0.015338
-0.0146651
-0.0139062
-0.0130729
-0.0121748
-0.01122
-0.0102166
-0.00917386
-0.00810249
-0.00701444
-0.00592391
-0.00483492
-0.00375513
-0.00269225
-0.00164778
-0.000623025
0.000387143
0.00138716
0.00238855
0.00339973
0.00443371
0.00549833
0.0066011
0.00774554
0.00892632
0.0101421
0.011369
0.0126033
0.0138022
0.0149588
0.016014
0.0169453
0.0176799
0.0181568
0.0183114
0.0180784
0.017516
0.0167312
0.0160478
0.0155568
0.0155212
0.0158238
0.0165547
0.0176444
0.0187917
0.019764
0.019689
0.0188146
0.0152353
0.0096711
0.00347577
-0.0131558
-0.0140412
-0.0143977
-0.0143326
-0.014087
-0.0138146
-0.0135507
-0.0132663
-0.0129237
-0.0125026
-0.0120004
-0.0114239
-0.0107814
-0.0100796
-0.00932378
-0.00851926
-0.00767227
-0.00679032
-0.00588158
-0.00495351
-0.0040122
-0.00306376
-0.00211472
-0.00116714
-0.000223239
0.000719281
0.0016614
0.00260965
0.00356792
0.00454427
0.00554251
0.00656715
0.0076198
0.00869533
0.00979253
0.0108918
0.0119896
0.0130502
0.0140686
0.0149936
0.0158085
0.016458
0.0168988
0.017093
0.0169974
0.0166756
0.0161703
0.0157287
0.0153757
0.0153475
0.0155442
0.0160454
0.0167681
0.0174488
0.0179662
0.0175577
0.0164311
0.0133249
0.00849586
0.0030361
-0.00998111
-0.0107441
-0.0110827
-0.0110784
-0.0109249
-0.0107482
-0.0105784
-0.0103927
-0.01016
-0.00986251
-0.00949701
-0.00906794
-0.00858116
-0.0080411
-0.00745098
-0.00681395
-0.00613397
-0.00541563
-0.00466452
-0.00388651
-0.00308567
-0.00226625
-0.0014338
-0.000590982
0.000259493
0.00111839
0.00198476
0.0028618
0.00375044
0.00465501
0.00557671
0.00651743
0.00747712
0.00845086
0.00943675
0.0104187
0.0113937
0.0123312
0.0132262
0.01404
0.0147595
0.0153424
0.0157561
0.0159824
0.0159888
0.0158363
0.0155308
0.0152573
0.0150025
0.0149787
0.0150855
0.0153843
0.0158045
0.0161117
0.0162539
0.0156043
0.0143013
0.0115681
0.00740641
0.00263218
-0.00714361
-0.00779856
-0.0081158
-0.00815642
-0.00807488
-0.00797319
-0.00787686
-0.00776801
-0.00762122
-0.00742126
-0.0071646
-0.00685402
-0.00649348
-0.00608586
-0.00563292
-0.00513614
-0.00459772
-0.00402045
-0.00340839
-0.00276573
-0.00209478
-0.00139826
-0.000680654
5.52485e-05
0.000806458
0.00157284
0.00235265
0.00314698
0.00395492
0.00477827
0.00561642
0.00646938
0.00733583