/*--------------------------------*- C++ -*----------------------------------*\
| =========                 |                                                 |
| \\      /  F ield         | OpenFOAM: The Open Source CFD Toolbox           |
|  \\    /   O peration     | Version:  2512                                  |
|   \\  /    A nd           | Website:  www.openfoam.com                      |
|    \\/     M anipulation  |                                                 |
\*---------------------------------------------------------------------------*/
FoamFile
{
    version     2.0;
    format      ascii;
    arch        "LSB;label=32;scalar=64";
    class       volScalarField;
    location    "177.5";
    object      p;
}
// * * * * * * * * * * * * * * * * * * * * * * * * * * * * * * * * * * * * * //

dimensions      [0 2 -2 0 0 0 0];

internalField   nonuniform List<scalar> 
13248
(
-0.472663
-0.469437
-0.465753
-0.461919
-0.458325
-0.455379
-0.45332
-0.452162
-0.451699
-0.451531
-0.451107
-0.449793
-0.446955
-0.442051
-0.434694
-0.424701
-0.412099
-0.397093
-0.38001
-0.361246
-0.341067
-0.319876
-0.296786
-0.272629
-0.481703
-0.47791
-0.473622
-0.469151
-0.464845
-0.461066
-0.457978
-0.455506
-0.453355
-0.451063
-0.448071
-0.443819
-0.437829
-0.429778
-0.419531
-0.407135
-0.392791
-0.376791
-0.359463
-0.341114
-0.321991
-0.302318
-0.281967
-0.261739
-0.49276
-0.488125
-0.483106
-0.477953
-0.4729
-0.468211
-0.463933
-0.459875
-0.455666
-0.450836
-0.444911
-0.437502
-0.428361
-0.417417
-0.404753
-0.390572
-0.375139
-0.358735
-0.341616
-0.324008
-0.306067
-0.287986
-0.269671
-0.251582
-0.505912
-0.500175
-0.494287
-0.488365
-0.48245
-0.476653
-0.470876
-0.464823
-0.458103
-0.450331
-0.441216
-0.430612
-0.418525
-0.405091
-0.390528
-0.375089
-0.359017
-0.342523
-0.325781
-0.30893
-0.292086
-0.27538
-0.258777
-0.24272
-0.521066
-0.514018
-0.507131
-0.500312
-0.493329
-0.486102
-0.478395
-0.469863
-0.460191
-0.449188
-0.436821
-0.423199
-0.408534
-0.393083
-0.3771
-0.360806
-0.344374
-0.327935
-0.311583
-0.295394
-0.279432
-0.263765
-0.248379
-0.233535
-0.538
-0.529503
-0.521508
-0.513623
-0.505268
-0.496164
-0.485989
-0.474461
-0.461464
-0.447085
-0.431564
-0.415222
-0.398383
-0.381331
-0.36428
-0.347381
-0.330725
-0.31437
-0.298351
-0.282694
-0.267425
-0.252569
-0.238127
-0.224254
-0.556354
-0.54635
-0.537155
-0.527977
-0.517834
-0.506286
-0.49305
-0.47805
-0.461483
-0.443744
-0.425304
-0.4066
-0.387975
-0.369663
-0.351802
-0.334458
-0.317653
-0.301385
-0.285644
-0.270421
-0.255707
-0.241496
-0.22779
-0.21463
-0.575596
-0.564106
-0.553617
-0.542838
-0.53038
-0.515752
-0.498883
-0.480058
-0.459845
-0.438915
-0.417873
-0.397171
-0.377095
-0.357788
-0.339298
-0.321617
-0.304708
-0.288525
-0.273025
-0.258168
-0.243923
-0.230265
-0.217188
-0.204637
-0.594986
-0.582098
-0.5702
-0.557425
-0.542046
-0.523712
-0.502765
-0.479956
-0.456211
-0.432382
-0.409102
-0.386753
-0.365515
-0.345428
-0.326458
-0.308532
-0.291568
-0.275488
-0.260219
-0.245701
-0.23188
-0.218721
-0.206195
-0.194181
-0.613552
-0.599405
-0.585939
-0.570696
-0.551788
-0.529246
-0.503993
-0.477273
-0.450284
-0.423939
-0.3988
-0.375127
-0.352977
-0.332296
-0.312976
-0.294895
-0.277936
-0.261993
-0.24697
-0.232787
-0.219377
-0.20669
-0.194668
-0.183163
-0.630121
-0.61487
-0.599622
-0.581403
-0.558434
-0.531375
-0.501823
-0.471456
-0.441617
-0.413168
-0.386534
-0.36183
-0.338998
-0.317896
-0.298361
-0.280229
-0.263354
-0.247606
-0.232873
-0.219056
-0.206075
-0.193865
-0.182327
-0.171336
-0.643432
-0.627258
-0.609993
-0.588299
-0.560828
-0.529084
-0.495367
-0.461683
-0.429399
-0.39924
-0.371454
-0.346006
-0.322726
-0.301399
-0.281811
-0.263766
-0.247091
-0.231636
-0.217273
-0.20389
-0.191401
-0.179722
-0.168723
-0.158347
-0.35887
-0.361152
-0.36262
-0.363804
-0.365155
-0.366799
-0.368753
-0.370996
-0.373472
-0.376102
-0.378783
-0.381368
-0.383564
-0.385714
-0.387165
-0.38777
-0.387337
-0.385671
-0.382612
-0.378065
-0.372019
-0.364544
-0.355844
-0.346391
-0.37302
-0.374776
-0.3761
-0.377445
-0.379202
-0.381492
-0.384329
-0.387683
-0.391489
-0.395663
-0.400092
-0.404649
-0.409202
-0.413054
-0.416428
-0.418898
-0.420098
-0.419672
-0.41729
-0.412679
-0.405658
-0.396123
-0.384087
-0.370155
-0.387312
-0.388374
-0.38943
-0.390831
-0.392882
-0.395693
-0.399275
-0.403586
-0.408549
-0.41406
-0.419984
-0.426142
-0.432294
-0.438089
-0.443194
-0.447232
-0.449731
-0.450196
-0.448136
-0.443114
-0.434798
-0.42296
-0.407418
-0.388779
-0.401093
-0.401353
-0.402028
-0.403348
-0.405522
-0.408653
-0.412747
-0.41775
-0.42357
-0.430082
-0.437123
-0.444476
-0.451861
-0.458918
-0.465209
-0.470244
-0.473448
-0.474209
-0.471925
-0.466
-0.45602
-0.441696
-0.42275
-0.399412
-0.413771
-0.413207
-0.413411
-0.41449
-0.416571
-0.419756
-0.424053
-0.429401
-0.435691
-0.442776
-0.450462
-0.458498
-0.466562
-0.474246
-0.481051
-0.486397
-0.489622
-0.490024
-0.486906
-0.479633
-0.467722
-0.450848
-0.429
-0.401724
-0.424916
-0.423596
-0.423267
-0.423947
-0.4257
-0.428643
-0.432799
-0.438106
-0.444443
-0.451642
-0.459481
-0.467673
-0.475851
-0.483556
-0.490233
-0.495233
-0.497834
-0.497279
-0.492839
-0.483872
-0.469948
-0.450724
-0.426852
-0.396725
-0.434324
-0.43239
-0.431512
-0.431654
-0.432858
-0.435272
-0.438948
-0.443839
-0.449819
-0.456704
-0.464244
-0.472115
-0.479902
-0.487098
-0.493093
-0.497186
-0.498616
-0.496614
-0.490474
-0.479614
-0.463778
-0.442618
-0.41751
-0.385934
-0.442054
-0.439695
-0.438286
-0.437788
-0.438263
-0.439908
-0.44282
-0.446978
-0.452265
-0.458482
-0.46535
-0.472507
-0.479492
-0.485736
-0.490576
-0.493273
-0.49306
-0.489199
-0.48108
-0.468254
-0.450714
-0.42821
-0.402557
-0.37099
-0.448423
-0.445823
-0.443925
-0.442731
-0.442362
-0.443077
-0.44503
-0.448235
-0.452593
-0.457874
-0.463796
-0.469934
-0.475763
-0.480655
-0.483898
-0.48474
-0.482447
-0.476387
-0.466124
-0.451434
-0.432555
-0.409461
-0.383982
-0.353627
-0.453964
-0.451258
-0.448914
-0.447011
-0.445756
-0.445475
-0.446375
-0.448505
-0.451771
-0.45597
-0.460725
-0.46556
-0.469882
-0.473005
-0.474192
-0.472722
-0.467967
-0.459482
-0.447067
-0.430796
-0.411119
-0.3883
-0.363895
-0.335672
-0.459367
-0.456595
-0.453824
-0.451228
-0.449106
-0.447843
-0.447685
-0.448709
-0.450819
-0.453757
-0.457103
-0.460308
-0.462713
-0.463603
-0.462273
-0.458109
-0.450661
-0.439717
-0.42532
-0.407806
-0.387738
-0.365736
-0.343059
-0.317809
-0.465377
-0.462463
-0.459247
-0.45599
-0.453062
-0.450882
-0.449719
-0.449639
-0.45051
-0.452014
-0.453663
-0.454842
-0.454867
-0.45306
-0.448832
-0.441751
-0.431602
-0.418403
-0.402376
-0.383953
-0.363583
-0.342026
-0.319983
-0.297551
-0.335295
-0.322777
-0.312555
-0.305719
-0.303109
-0.304826
-0.310006
-0.316872
-0.321757
-0.321692
-0.313842
-0.29567
-0.267285
-0.231687
-0.194302
-0.16094
-0.135692
-0.120089
-0.113628
-0.115447
-0.125945
-0.145753
-0.171737
-0.194684
-0.202728
-0.191107
-0.164179
-0.13247
-0.10466
-0.0848408
-0.0734392
-0.0689972
-0.0708305
-0.0805673
-0.0975629
-0.114024
-0.118702
-0.110019
-0.0922671
-0.0753048
-0.0637621
-0.057824
-0.058274
-0.0667515
-0.0777067
-0.0814081
-0.0750238
-0.063018
-0.0521688
-0.0442491
-0.0395944
-0.0392397
-0.0384323
-0.0365808
-0.0341793
-0.0294149
-0.0209283
-0.016599
-0.0126961
-0.00593373
-0.353739
-0.332837
-0.312896
-0.295631
-0.282407
-0.274152
-0.270949
-0.271215
-0.272596
-0.271681
-0.26546
-0.250976
-0.228533
-0.200241
-0.170566
-0.144451
-0.125494
-0.115089
-0.112929
-0.11873
-0.133481
-0.157688
-0.187326
-0.212149
-0.219776
-0.205372
-0.174805
-0.139495
-0.108627
-0.0861644
-0.072318
-0.0655677
-0.0649281
-0.071658
-0.0855933
-0.100214
-0.105417
-0.0983144
-0.083588
-0.0700107
-0.0614319
-0.0581151
-0.0611929
-0.0723406
-0.0856062
-0.0899096
-0.0823133
-0.0676763
-0.0543895
-0.0443729
-0.0376991
-0.0357626
-0.033554
-0.0320941
-0.0301956
-0.0269486
-0.020346
-0.0173002
-0.014676
-0.00708742
-0.368223
-0.339725
-0.310614
-0.283736
-0.260152
-0.241494
-0.228719
-0.221628
-0.218435
-0.21503
-0.211162
-0.200402
-0.184546
-0.163966
-0.142362
-0.123813
-0.11135
-0.106195
-0.108282
-0.117959
-0.136678
-0.164725
-0.197378
-0.22378
-0.231412
-0.215317
-0.182214
-0.144256
-0.111047
-0.086466
-0.070525
-0.0616838
-0.0587413
-0.0625598
-0.0734077
-0.0860925
-0.0915159
-0.0861531
-0.0743977
-0.0641281
-0.0584709
-0.0578153
-0.0635616
-0.0773302
-0.0928621
-0.0978396
-0.0891348
-0.0719681
-0.0562819
-0.0443167
-0.0358254
-0.0324774
-0.0288903
-0.0276799
-0.026146
-0.0244129
-0.0197218
-0.0179644
-0.0166317
-0.0082417
-0.375889
-0.341274
-0.304217
-0.270673
-0.237995
-0.209512
-0.187093
-0.172619
-0.163885
-0.157202
-0.153227
-0.146895
-0.13731
-0.124299
-0.110623
-0.0994326
-0.0931921
-0.0929371
-0.0989239
-0.112131
-0.134376
-0.165761
-0.201053
-0.22903
-0.237242
-0.220608
-0.186176
-0.14664
-0.111926
-0.0858486
-0.0682634
-0.0576283
-0.0526154
-0.053727
-0.061559
-0.0722009
-0.0775512
-0.073876
-0.0649369
-0.0577907
-0.0549123
-0.0568409
-0.0651688
-0.0814415
-0.0991894
-0.104946
-0.0953215
-0.0758219
-0.0578281
-0.0440803
-0.0339859
-0.0294126
-0.0244858
-0.0233891
-0.0220763
-0.0218338
-0.019064
-0.0185822
-0.0185446
-0.00938534
-0.375579
-0.337528
-0.296479
-0.255945
-0.216678
-0.180344
-0.148512
-0.129192
-0.113695
-0.102604
-0.0966094
-0.0938602
-0.0885515
-0.0824914
-0.0760105
-0.0715346
-0.070918
-0.0750302
-0.0845747
-0.101045
-0.126472
-0.16075
-0.198364
-0.227887
-0.23724
-0.221194
-0.186735
-0.14679
-0.111453
-0.0844866
-0.0657146
-0.0536294
-0.0468539
-0.0455254
-0.050468
-0.058995
-0.0640145
-0.0618396
-0.0554388
-0.0511162
-0.0507668
-0.0550999
-0.0658357
-0.0844448
-0.104325
-0.110971
-0.100699
-0.0791754
-0.0590268
-0.0436738
-0.0321866
-0.0265803
-0.0203767
-0.0192671
-0.0180334
-0.0192374
-0.01838
-0.019144
-0.0203927
-0.0105056
-0.368379
-0.328894
-0.28642
-0.243026
-0.199867
-0.158954
-0.122675
-0.0939313
-0.0719428
-0.0562555
-0.0474377
-0.0437724
-0.0415301
-0.0403379
-0.0395982
-0.0408191
-0.044999
-0.0530399
-0.0659651
-0.0855579
-0.113832
-0.150466
-0.189869
-0.220921
-0.231806
-0.217267
-0.184022
-0.144882
-0.10981
-0.0825478
-0.0630194
-0.0498303
-0.0416145
-0.0382147
-0.0404855
-0.0468759
-0.0513456
-0.0503719
-0.0461207
-0.0442208
-0.0460707
-0.052558
-0.0654558
-0.0861634
-0.10804
-0.115693
-0.105147
-0.0819792
-0.0598802
-0.0431045
-0.0304248
-0.0239766
-0.01659
-0.0153542
-0.0140617
-0.0166456
-0.0176751
-0.0196388
-0.0221527
-0.0115898
-0.356161
-0.317053
-0.276112
-0.233356
-0.189545
-0.146867
-0.107531
-0.0733781
-0.0454433
-0.0242694
-0.0104199
-0.00298991
-0.000489385
-0.00100307
-0.00396035
-0.00917175
-0.0171246
-0.0286068
-0.0447129
-0.0672223
-0.097905
-0.136212
-0.176766
-0.209108
-0.221702
-0.209334
-0.17839
-0.141159
-0.107189
-0.0801865
-0.060288
-0.0463115
-0.0369634
-0.0318746
-0.0317921
-0.0361081
-0.0398703
-0.039779
-0.037203
-0.0372519
-0.0409236
-0.0492385
-0.063972
-0.0864851
-0.11018
-0.118968
-0.10856
-0.0841823
-0.0603893
-0.0423807
-0.0286961
-0.0215793
-0.0131362
-0.0116813
-0.0102021
-0.0140747
-0.0169529
-0.0200557
-0.0238023
-0.0126255
-0.340734
-0.303468
-0.266386
-0.226961
-0.185215
-0.143435
-0.103559
-0.0670095
-0.0350713
-0.00886115
0.0107197
0.023481
0.0297857
0.0306698
0.0270465
0.0201214
0.00987363
-0.00419167
-0.022977
-0.0479328
-0.080377
-0.119551
-0.160515
-0.193599
-0.207753
-0.198024
-0.170249
-0.135852
-0.103722
-0.0774907
-0.057578
-0.0431056
-0.0329149
-0.026504
-0.0244329
-0.0268172
-0.0297924
-0.0305121
-0.0288793
-0.0303869
-0.0354588
-0.0452165
-0.0614049
-0.0853714
-0.110693
-0.120717
-0.11085
-0.0857447
-0.0605619
-0.0415172
-0.027007
-0.0193741
-0.0100105
-0.00826699
-0.00649194
-0.0115359
-0.0162165
-0.0203851
-0.0253201
-0.013601
-0.323773
-0.289586
-0.257594
-0.222808
-0.184786
-0.145892
-0.107695
-0.071234
-0.0377083
-0.00834421
0.0158361
0.0340455
0.04579
0.0509068
0.0493787
0.0433409
0.0328004
0.0175728
-0.00286701
-0.029396
-0.0627272
-0.101886
-0.142409
-0.175466
-0.190892
-0.184092
-0.160155
-0.129328
-0.099655
-0.0746519
-0.0550494
-0.0403385
-0.0295565
-0.022146
-0.0184507
-0.0190777
-0.0211685
-0.0220596
-0.0212656
-0.0238102
-0.0298528
-0.0405722
-0.0577733
-0.0828846
-0.109615
-0.1209
-0.111999
-0.0866839
-0.0604592
-0.0405685
-0.0253825
-0.0173822
-0.00723045
-0.00511674
-0.00296237
-0.00903454
-0.0154686
-0.0206182
-0.0266858
-0.0145053
-0.307143
-0.277096
-0.250299
-0.220034
-0.1862
-0.151183
-0.116026
-0.0813105
-0.0480229
-0.0175223
0.00905976
0.0308206
0.0470727
0.0569793
0.0604263
0.0576385
0.0489772
0.0343699
0.0137484
-0.0130562
-0.0460685
-0.0841534
-0.123331
-0.155666
-0.172036
-0.168495
-0.148965
-0.122307
-0.0955871
-0.0721875
-0.0531428
-0.0383541
-0.0271335
-0.0189377
-0.0138992
-0.0129378
-0.0140798
-0.0148851
-0.014521
-0.0176741
-0.0242382
-0.0354923
-0.0533055
-0.0791136
-0.106991
-0.119537
-0.11202
-0.0870311
-0.0601936
-0.0396285
-0.0238481
-0.0155958
-0.00486056
-0.00226081
0.000359612
-0.00657198
-0.0147126
-0.0207457
-0.0278788
-0.0153268
-0.292441
-0.267804
-0.245561
-0.21889
-0.188999
-0.158021
-0.126366
-0.0941015
-0.0620672
-0.0314404
-0.00328681
0.0212332
0.0410315
0.0551296
0.061645
0.0628363
0.0578108
0.045722
0.0265555
0.000716924
-0.0310987
-0.0674688
-0.104497
-0.135329
-0.152104
-0.151502
-0.136683
-0.114728
-0.0914245
-0.0699693
-0.05171
-0.0369659
-0.0254255
-0.0166326
-0.010477
-0.00807847
-0.00834085
-0.00908284
-0.00887101
-0.0122614
-0.0188322
-0.0299228
-0.0478757
-0.0743218
-0.103185
-0.116629
-0.110754
-0.0865225
-0.0596316
-0.0386009
-0.022323
-0.0138393
-0.00281643
0.000246219
0.00339609
-0.0041291
-0.0139477
-0.0207643
-0.0288801
-0.0160484
-0.278484
-0.261524
-0.242968
-0.219118
-0.193212
-0.166429
-0.13835
-0.10918
-0.0797412
-0.0509643
-0.0236419
0.00137724
0.0235879
0.0411558
0.0537313
0.058902
0.057692
0.0495884
0.0340647
0.0114842
-0.0170789
-0.0498623
-0.08348
-0.11207
-0.128706
-0.130595
-0.120701
-0.10369
-0.0841043
-0.0650415
-0.0481335
-0.0339665
-0.0225883
-0.0137062
-0.00695357
-0.00345916
-0.00296155
-0.00384669
-0.00487086
-0.00758668
-0.0139975
-0.0246197
-0.042205
-0.0685284
-0.0977663
-0.112223
-0.107763
-0.084533
-0.0580195
-0.0368796
-0.0204825
-0.0118317
-0.000628997
0.00265188
0.00620375
-0.00176194
-0.0131882
-0.0206535
-0.0296779
-0.0166616
-0.254183
-0.250985
-0.232252
-0.208038
-0.183507
-0.158827
-0.133108
-0.106276
-0.078952
-0.0519818
-0.0261448
-0.0020657
0.019499
0.0365324
0.0486774
0.055394
0.056392
0.0505327
0.0369877
0.0160904
-0.0109147
-0.0422554
-0.0744195
-0.101132
-0.116073
-0.116963
-0.107627
-0.0922265
-0.0746653
-0.057523
-0.0421596
-0.0290601
-0.0183321
-0.0097979
-0.00302984
0.000993482
0.00224175
0.00167495
0.000836352
-0.00158738
-0.0072074
-0.0170594
-0.034695
-0.0621546
-0.0935337
-0.109942
-0.106468
-0.0822747
-0.0554731
-0.0344172
-0.0183487
-0.00978306
0.00178605
0.00533862
0.00943377
0.000790795
-0.0124231
-0.0204518
-0.0303393
-0.0171854
-0.231253
-0.231573
-0.214517
-0.191459
-0.168766
-0.146734
-0.124057
-0.100293
-0.0759338
-0.0517724
-0.0285391
-0.00684819
0.0125318
0.0284057
0.0402181
0.0472759
0.0489487
0.0443067
0.0326545
0.0142542
-0.00973429
-0.0373873
-0.0651706
-0.0872494
-0.0993267
-0.0999705
-0.0921658
-0.0794142
-0.0646778
-0.0499797
-0.0364652
-0.0246128
-0.0146655
-0.00660838
1.20499e-05
0.00427541
0.00588043
0.0053391
0.0043513
0.00233674
-0.00240128
-0.011354
-0.0285066
-0.0563638
-0.0886923
-0.105539
-0.101941
-0.0783812
-0.0521654
-0.0317136
-0.0161035
-0.00768024
0.00381086
0.00731413
0.0119913
0.00278656
-0.0118255
-0.0202421
-0.0306755
-0.017481
-0.210642
-0.211326
-0.196937
-0.176385
-0.155925
-0.136345
-0.116409
-0.0954745
-0.0738777
-0.0523533
-0.0316032
-0.0121889
0.00526719
0.0198509
0.0308207
0.0375032
0.0393229
0.0355854
0.0258065
0.0102821
-0.00983111
-0.0325622
-0.0548549
-0.0726371
-0.0825901
-0.083644
-0.0779011
-0.0678511
-0.0557027
-0.0431345
-0.0312284
-0.0204975
-0.0112527
-0.00364617
0.00274182
0.00710124
0.00900883
0.00859173
0.0077759
0.00581409
0.00141608
-0.00712649
-0.0239033
-0.0512105
-0.0826037
-0.0991377
-0.0959512
-0.0736672
-0.0484625
-0.0288039
-0.0137592
-0.0055368
0.005738
0.00915252
0.0142149
0.00441069
-0.0113401
-0.0199513
-0.0306655
-0.0175966
-0.190579
-0.191947
-0.180293
-0.162499
-0.144293
-0.1269
-0.109389
-0.0910536
-0.0720589
-0.0530318
-0.0346077
-0.0173119
-0.00173635
0.0114029
0.0214444
0.0277778
0.0298956
0.0272786
0.0196199
0.0072391
-0.00881441
-0.0268815
-0.0446447
-0.0590231
-0.0674239
-0.0690421
-0.0650395
-0.0572059
-0.0472678
-0.0366057
-0.0262027
-0.0165732
-0.00804372
-0.00090775
0.00518256
0.00954198
0.0117375
0.0116116
0.0110366
0.00923043
0.00513184
-0.00310492
-0.0193041
-0.0452368
-0.0752197
-0.091567
-0.0888772
-0.0680944
-0.0442913
-0.0256651
-0.0113184
-0.00334197
0.00758069
0.0108915
0.0162251
0.00590264
-0.0108136
-0.0194876
-0.030317
-0.0175253
-0.171762
-0.174017
-0.164627
-0.149351
-0.133342
-0.118014
-0.102719
-0.0867762
-0.0702122
-0.0535298
-0.0373052
-0.0220472
-0.00825779
0.00349863
0.0126699
0.0187287
0.0212301
0.0197905
0.0142211
0.0047964
-0.00765022
-0.0217842
-0.0357629
-0.0472958
-0.0543838
-0.0562823
-0.0536086
-0.0476008
-0.0395559
-0.0305693
-0.0215171
-0.0129201
-0.00509039
0.00158386
0.00734827
0.0116297
0.0140587
0.0142854
0.0140141
0.0125546
0.00891081
0.00128023
-0.0138462
-0.0381266
-0.0668124
-0.0828165
-0.0806417
-0.0616675
-0.039684
-0.0223368
-0.00880561
-0.00111565
0.00933688
0.0124781
0.0180105
0.00735227
-0.0101648
-0.0188201
-0.029585
-0.017225
-0.154912
-0.157456
-0.149836
-0.136839
-0.122958
-0.109607
-0.0963561
-0.0825968
-0.0682722
-0.0537721
-0.0396064
-0.0262554
-0.0140771
-0.00359034
0.00476106
0.0105335
0.0133532
0.0129354
0.00916362
0.00226254
-0.00711769
-0.0178962
-0.0285821
-0.0376818
-0.0435326
-0.0454667
-0.0437363
-0.0391369
-0.032624
-0.0250588
-0.0171971
-0.00955473
-0.00240933
0.00381194
0.00924519
0.013388
0.0159819
0.0165895
0.0167317
0.015761
0.012725
0.0060386
-0.00770307
-0.030254
-0.0574456
-0.0729232
-0.0713759
-0.0544993
-0.0346963
-0.0188587
-0.00624782
0.00111811
0.0110044
0.0138951
0.0195281
0.00874077
-0.00935119
-0.0179068
-0.02839
-0.0166517
-0.139405
-0.142
-0.135924
-0.125009
-0.113124
-0.101627
-0.0902479
-0.0784637
-0.0661731
-0.0536671
-0.0413748
-0.0296946
-0.0190551
-0.00975744
-0.00219826
0.00325262
0.00628947
0.00669777
0.0044081
-0.000386174
-0.00717915
-0.0151279
-0.0229927
-0.0301048
-0.034779
-0.036519
-0.03536
-0.0317838
-0.0264786
-0.0201044
-0.0132814
-0.00650491
-1.79978e-05
0.00575911
0.0108758
0.0148504
0.0175461
0.0185293
0.0191717
0.0188176
0.0165038
0.0109393
-0.00127026
-0.0218587
-0.0472743
-0.0621408
-0.061317
-0.0467545
-0.0294125
-0.0152795
-0.00367718
0.003334
0.0125905
0.0151458
0.020737
0.0100433
-0.00829233
-0.0166694
-0.0266619
-0.0157666
-0.124902
-0.127682
-0.122972
-0.113897
-0.103819
-0.0940161
-0.0843292
-0.0743154
-0.0638504
-0.0531516
-0.0425765
-0.0324693
-0.0231709
-0.014962
-0.008154
-0.00304297
0.000124766
0.00118741
0.000103431
-0.00297204
-0.00765453
-0.0133465
-0.0194152
-0.0243518
-0.0278496
-0.0292209
-0.0283477
-0.0254878
-0.021114
-0.0157193
-0.00979096
-0.00378626
0.002079
0.00741929
0.0122386
0.0160474
0.018795
0.0201141
0.0212805
0.021657
0.0201823
0.0158575
0.00530469
-0.0131675
-0.0366724
-0.0508414
-0.0507957
-0.0386641
-0.0239483
-0.011654
-0.00112731
0.00550741
0.0141077
0.0162515
0.021622
0.0112898
-0.00685784
-0.015016
-0.0243526
-0.0145408
-0.1117
-0.114566
-0.110949
-0.103455
-0.0949885
-0.0867136
-0.078545
-0.0701088
-0.0612732
-0.0521968
-0.0431804
-0.0344734
-0.0263943
-0.0191775
-0.0130716
-0.00831009
-0.00508878
-0.0035334
-0.00367103
-0.00538197
-0.00836542
-0.0121411
-0.0163663
-0.0199258
-0.022408
-0.0233364
-0.0225539
-0.0201723
-0.0164996
-0.0118969
-0.0067325
-0.00140771
0.00388317
0.00879716
0.013329
0.0169903
0.0197675
0.0213735
0.0230031
0.0241603
0.0236977
0.0207651
0.0118715
-0.00462969
-0.0261676
-0.0394781
-0.0402054
-0.0305072
-0.0184457
-0.00804145
0.00136867
0.00761493
0.0155685
0.0172651
0.0222123
0.0125698
-0.00489764
-0.0128568
-0.021448
-0.0129658
-0.0997797
-0.102532
-0.0997761
-0.0936525
-0.0866145
-0.0796997
-0.0728756
-0.0658295
-0.0584307
-0.0507963
-0.0431107
-0.0356948
-0.0287246
-0.0224141
-0.0169646
-0.0125611
-0.00936007
-0.00746168
-0.00688679
-0.00754215
-0.00918092
-0.0112686
-0.0142113
-0.0165858
-0.0181753
-0.0186418
-0.0178232
-0.0157433
-0.0125895
-0.00861854
-0.00410017
0.000630077
0.00539961
0.00990623
0.0141505
0.0176762
0.0204766
0.0223381
0.0243326
0.0261738
0.026842
0.0253491
0.0179494
0.00316949
-0.016272
-0.0284941
-0.0299426
-0.0225828
-0.0130649
-0.00450557
0.00377918
0.00963469
0.01698
0.0182726
0.0225847
0.0140099
-0.00227737
-0.0101231
-0.0179907
-0.0110686
-0.0887776
-0.0914418
-0.089453
-0.0845062
-0.078699
-0.0729677
-0.067318
-0.0614846
-0.0553328
-0.0489292
-0.0424902
-0.0361888
-0.0302087
-0.0247203
-0.0198824
-0.0158422
-0.0127242
-0.0106102
-0.00952217
-0.00940802
-0.0101459
-0.011662
-0.0128425
-0.0141029
-0.0149087
-0.0149295
-0.0140031
-0.0121014
-0.00932635
-0.00585443
-0.00187746
0.00233557
0.00663635
0.0107631
0.0147181
0.0181066
0.020917
0.0230004
0.0252797
0.0276165
0.0292261
0.0289084
0.0228135
0.00974578
-0.00732096
-0.0182748
-0.0204006
-0.0151869
-0.00797048
-0.00111449
0.00607263
0.0115428
0.0183364
0.01937
0.0228619
0.0157488
0.00107123
-0.0068069
-0.0141008
-0.00892338
-0.0786973
-0.081295
-0.0799274
-0.0759745
-0.0712254
-0.0665159
-0.0618787
-0.0570895
-0.0520244
-0.0467247
-0.0413353
-0.0360157
-0.0309144
-0.0261655
-0.0218944
-0.0182169
-0.0152318
-0.013006
-0.0115631
-0.010866
-0.0108078
-0.0112514
-0.0117457
-0.0122162
-0.0123866
-0.0120127
-0.0109497
-0.00914506
-0.00664527
-0.00356584
-3.98561e-05
0.00372521
0.0076061
0.0113832
0.015051
0.0182918
0.0210887
0.023334
0.0257939
0.0283841
0.0305045
0.0308713
0.025963
0.0148443
0.000418086
-0.00920461
-0.0119282
-0.00856969
-0.00330822
0.00206213
0.00821458
0.0133077
0.0196086
0.0206202
0.0232013
0.0178895
0.00507512
-0.00301432
-0.00998775
-0.00665354
-0.0695783
-0.07204
-0.0711435
-0.0680155
-0.0641695
-0.060339
-0.0565718
-0.0526798
-0.0485432
-0.0441828
-0.0397074
-0.0352468
-0.03092
-0.0268334
-0.023085
-0.0197651
-0.0169513
-0.0146991
-0.0130316
-0.0119254
-0.011313
-0.0110313
-0.0109041
-0.0107676
-0.0104366
-0.00973116
-0.00853083
-0.00677508
-0.00447717
-0.00170738
0.00144346
0.00482135
0.00832686
0.0117817
0.01517
0.0182458
0.0209941
0.0233324
0.0258038
0.0284436
0.0306291
0.0312323
0.0274022
0.0183906
0.0066442
-0.00165178
-0.00476786
-0.00288845
0.000818406
0.00496191
0.0101683
0.0148876
0.0207393
0.0219985
0.023765
0.0204235
0.0094515
0.000997084
-0.00593005
-0.00442464
-0.0612951
-0.0635763
-0.063046
-0.0606058
-0.0575242
-0.0544396
-0.0514091
-0.0482754
-0.0449268
-0.0413677
-0.0376789
-0.0339629
-0.0303149
-0.0268184
-0.0235495
-0.020578
-0.0179644
-0.0157536
-0.0139669
-0.0125914
-0.011578
-0.0108279
-0.0102228
-0.00963059
-0.0089169
-0.0079479
-0.00662774
-0.0048972
-0.00275181
-0.000229598
0.0026079
0.0056508
0.00882106
0.0119767
0.0150947
0.0179892
0.0206477
0.0230029
0.025393
0.0278743
0.0298482
0.0304195
0.0274873
0.0204667
0.0111927
0.00421928
0.00101022
0.00181643
0.00435846
0.00753676
0.0118996
0.0162389
0.0216451
0.0233491
0.0246554
0.0231625
0.0137173
0.00483502
-0.00222776
-0.00241002
-0.0537286
-0.0558431
-0.0556041
-0.0537298
-0.051285
-0.0488246
-0.0464107
-0.0439119
-0.0412255
-0.0383439
-0.0353257
-0.0322507
-0.0291939
-0.0262205
-0.0233887
-0.0207521
-0.0183574
-0.0162411
-0.0144231
-0.0128978
-0.0116338
-0.0105693
-0.00962553
-0.00870579
-0.00771296
-0.00654751
-0.0051356
-0.00342398
-0.00140024
0.000918662
0.00349192
0.0062438
0.00911295
0.0119903
0.0148478
0.0175479
0.0200736
0.0223685
0.0246098
0.0268167
0.0284748
0.0289091
0.0266726
0.021346
0.0142019
0.00852965
0.00549997
0.00559921
0.00730609
0.00975446
0.0133803
0.0173286
0.0222488
0.0244288
0.0257583
0.0256828
0.017326
0.00809885
0.000884387
-0.000736413
-0.0468535
-0.0488035
-0.0487813
-0.0473629
-0.0454423
-0.0434992
-0.0415964
-0.0396242
-0.0374892
-0.0351755
-0.0327244
-0.0301973
-0.0276523
-0.0251399
-0.0227044
-0.0203856
-0.0182196
-0.0162408
-0.0144563
-0.012874
-0.0114732
-0.010217
-0.00905354
-0.00791481
-0.00673267
-0.00543387
-0.00396337
-0.00227586
-0.000357144
0.001789
0.00413537
0.00663167
0.00922935
0.0118477
0.0144548
0.0169494
0.0193086
0.0214789
0.0235264
0.0254246
0.0267718
0.0270644
0.0253633
0.0213997
0.0160163
0.0115331
0.00886518
0.00855702
0.00968561
0.0115984
0.0145862
0.0181309
0.0225141
0.0250398
0.0266527
0.0273851
0.0198594
0.0105501
0.00329715
0.00054488
-0.0406273
-0.0423999
-0.0425294
-0.0414758
-0.0399847
-0.0384673
-0.0369846
-0.0354453
-0.0337654
-0.0319241
-0.0299492
-0.0278871
-0.0257825
-0.023674
-0.0215947
-0.0195741
-0.0176402
-0.015815
-0.0141213
-0.0125527
-0.0111035
-0.009752
-0.00846546
-0.00719786
-0.005903
-0.00452795
-0.00303329
-0.00138208
0.000438164
0.0024312
0.00457804
0.00684671
0.00919893
0.0115755
0.0139428
0.0162255
0.0183967
0.0203976
0.022233
0.0238416
0.0249307
0.0251237
0.0238481
0.0209481
0.0169791
0.0135172
0.0112933
0.0108003
0.0115385
0.013063
0.0155006
0.0186256
0.0224231
0.0250857
0.0268698
0.027801
0.0211511
0.0121472
0.00501816
0.00144658
-0.034974
-0.0365719
-0.0368077
-0.036045
-0.034903
-0.0337329
-0.0325922
-0.0314055
-0.0300983
-0.0286468
-0.0270689
-0.0253991
-0.0236713
-0.0219145
-0.020153
-0.0184102
-0.0167097
-0.0150603
-0.0134806
-0.0119747
-0.0105418
-0.00916846
-0.00783502
-0.00651135
-0.00516748
-0.00376608
-0.00228023
-0.000681074
0.0010407
0.00289204
0.00485899
0.0069222
0.00905037
0.0112011
0.0133412
0.0154127
0.0173843
0.0191954
0.0208229
0.0221835
0.023078
0.0232246
0.0222985
0.0202141
0.0173478
0.0147417
0.012966
0.0124376
0.0129152
0.0141535
0.0161194
0.0188104
0.0219912
0.0244992
0.0261744
0.0269092
0.0212964
0.0129693
0.00611916
0.00201265
-0.0298423
-0.0312764
-0.0315829
-0.0310486
-0.0301873
-0.0292977
-0.0284329
-0.0275309
-0.0265263
-0.0253943
-0.0241452
-0.0228042
-0.0213969
-0.0199447
-0.0184655
-0.0169764
-0.0154916
-0.0140255
-0.0125858
-0.0111802
-0.0098107
-0.0084701
-0.00714795
-0.00582533
-0.00448392
-0.00309818
-0.00165085
-0.000120434
0.00149892
0.00321472
0.00501574
0.00689045
0.00881283
0.010753
0.0126791
0.0145453
0.0163182
0.0179396
0.0193748
0.0205347
0.0212919
0.0214375
0.0208005
0.0193383
0.0173154
0.0154032
0.0140387
0.0135643
0.0138728
0.0148868
0.0164531
0.0187074
0.0212819
0.0234301
0.0247754
0.0250977
0.0205428
0.0131416
0.0067008
0.0023011
-0.0251958
-0.026473
-0.0268199
-0.0264624
-0.0258251
-0.0251604
-0.0245167
-0.0238428
-0.0230819
-0.0222098
-0.0212314
-0.0201647
-0.0190288
-0.0178391
-0.0166085
-0.0153487
-0.0140699
-0.0127823
-0.0114937
-0.0102106
-0.00893621
-0.00766739
-0.0063994
-0.00512108
-0.00382223
-0.00248612
-0.00110266
0.000343442
0.0018547
0.0034377
0.00508266
0.00678255
0.00851524
0.0102592
0.0119848
0.0136556
0.0152393
0.0166825
0.017948
0.0189516
0.0196174
0.0197901
0.0193921
0.0184028
0.017016
0.0156528
0.0146415
0.0142654
0.0144676
0.0152942
0.0165237
0.018352
0.0203566
0.0220747
0.0229851
0.0228413
0.0191917
0.0128119
0.00687715
0.00238537
-0.0209909
-0.0221197
-0.0224849
-0.0222631
-0.0218035
-0.021318
-0.0208499
-0.0203575
-0.0197917
-0.0191297
-0.0183728
-0.0175335
-0.0166258
-0.0156606
-0.0146466
-0.0135922
-0.0125047
-0.0113905
-0.0102557
-0.0091064
-0.00794665
-0.00677558
-0.00559169
-0.00438889
-0.00316248
-0.0019021
-0.000602775
0.000745652
0.00214309
0.00359445
0.00509048
0.00662671
0.00818408
0.00974584
0.0112859
0.0127751
0.0141833
0.0154635
0.0165835
0.0174686
0.0180746
0.0182882
0.018086
0.0174544
0.0165386
0.0156057
0.014886
0.0146169
0.0147536
0.0154157
0.0163606
0.0177883
0.0192769
0.0205518
0.0210444
0.0204909
0.0175234
0.0121346
0.00676371
0.00235479
-0.0171883
-0.01818
-0.018548
-0.0184292
-0.0181094
-0.0177657
-0.0174362
-0.0170869
-0.0166762
-0.0161829
-0.0156061
-0.0149543
-0.0142374
-0.0134631
-0.012637
-0.0117644
-0.0108509
-0.00990042
-0.00891711
-0.00790576
-0.00687082
-0.00581296
-0.0047324
-0.00362617
-0.00249302
-0.00132713
-0.000127007
0.00111358
0.00239255
0.00371288
0.00506588
0.00644792
0.00784245
0.00923648
0.010607
0.0119292
0.013178
0.0143129
0.0153086
0.016103
0.0166703
0.0169284
0.0168805
0.0165173
0.0159479
0.0153441
0.014857
0.0146838
0.0147807
0.015297
0.0160002
0.0170645
0.0181046
0.0189553
0.0191012
0.0182442
0.0157513
0.0112456
0.00645637
0.00224229
-0.0137561
-0.014622
-0.0149812
-0.0149393
-0.0147288
-0.0144965
-0.0142756
-0.0140386
-0.0137503
-0.0133918
-0.0129606
-0.0124625
-0.0119044
-0.0112914
-0.010627
-0.00991396
-0.00915625
-0.00835705
-0.00751853
-0.00664365
-0.00573659
-0.00479916
-0.00383259
-0.00283559
-0.00180884
-0.000749578
0.00034138
0.00146737
0.00262507
0.00381562
0.00503083
0.00626727
0.00751045
0.00874989
0.0099662
0.0111377
0.0122437
0.0132503
0.0141397
0.0148632
0.0154029
0.0157001
0.0157699
0.0156064
0.0152875
0.0149274
0.0146189
0.0145234
0.014595
0.0149829
0.0154804
0.0162274
0.0168908
0.0173626
0.017239
0.0161906
0.0140164
0.0102525
0.00602886
0.00208446
-0.0106644
-0.0114158
-0.0117585
-0.0117731
-0.0116476
-0.0115024
-0.011366
-0.0112164
-0.0110242
-0.0107727
-0.0104588
-0.0100861
-0.00965936
-0.0091818
-0.0086554
-0.00808126
-0.00746157
-0.00679914
-0.00609554
-0.00535166
-0.00457051
-0.00375452
-0.00290568
-0.00202371
-0.00111005
-0.00016388
0.000812665
0.00182086
0.00285663
0.00391979
0.0050026
0.00610143
0.00720417
0.00830135
0.00937705
0.010414
0.0113936
0.0122886
0.0130918
0.0137493
0.0142643
0.0145914
0.0147475
0.0147282
0.0145867
0.0144004
0.0142249
0.0141861
0.0142394
0.0145149
0.014839
0.0153164
0.0156762
0.0158305
0.0155021
0.0143558
0.0124003
0.00923356
0.00553611
0.00190591
-0.0078861
-0.0085345
-0.00885602
-0.00891159
-0.00885156
-0.00877409
-0.0087031
-0.00862112
-0.00850389
-0.00833706
-0.00811712
-0.0078463
-0.00752769
-0.00716314
-0.00675357
-0.00629927
-0.00580073
-0.00525998
-0.00467907
-0.00405771
-0.00339701
-0.00269912
-0.00196658
-0.00119991
-0.000400786
0.000430653
0.00129167
0.00218211
0.00309769
0.00403721
0.00499357
0.00596303
0.00693514
0.00790184
0.00884971
0.00976432
0.0106319