/*--------------------------------*- C++ -*----------------------------------*\
| =========                 |                                                 |
| \\      /  F ield         | OpenFOAM: The Open Source CFD Toolbox           |
|  \\    /   O peration     | Version:  2512                                  |
|   \\  /    A nd           | Website:  www.openfoam.com                      |
|    \\/     M anipulation  |                                                 |
\*---------------------------------------------------------------------------*/
FoamFile
{
    version     2.0;
    format      ascii;
    arch        "LSB;label=32;scalar=64";
    class       surfaceScalarField;
    location    "105";
    object      phi;
}
// * * * * * * * * * * * * * * * * * * * * * * * * * * * * * * * * * * * * * //

dimensions      [0 3 -1 0 0 0 0];

oriented        oriented;

internalField   nonuniform List<scalar> 
26232
(
0.000177019
0.000939191
-0.00111621
0.000865445
0.00154863
-0.00223706
0.00220568
0.00099866
-0.0023389
0.00433264
-0.000676664
-0.00145029
0.00738509
-0.00345196
0.000399512
0.0115008
-0.00730299
0.00318731
0.0167991
-0.0121948
0.00689648
0.0233605
-0.0180654
0.011504
0.0311984
-0.02481
0.0169721
0.0402377
-0.0322717
0.0232324
0.0503042
-0.0402418
0.0301753
0.0611289
-0.0484714
0.0376467
0.0723697
-0.0566926
0.0454518
0.0836462
-0.0646441
0.0533676
0.0945824
-0.0720976
0.0611614
0.10485
-0.0788788
0.0686117
0.114202
-0.0848815
0.0755291
0.1225
-0.0900715
0.0817734
0.129717
-0.0944791
0.087262
0.135924
-0.0981907
0.0919835
0.141263
-0.101299
0.0959606
0.145887
-0.103978
0.0993543
0.149758
-0.106077
0.102206
-0.108272
0.105112
0.152918
0.000203468
0.000735724
0.00102583
0.000726266
0.00265408
-0.000629588
0.00526013
-0.00328272
0.00900462
-0.00719644
0.0140218
-0.0123201
0.0203926
-0.0185657
0.0281147
-0.0257875
0.0370778
-0.0337731
0.0470552
-0.0422491
0.0577167
-0.0509033
0.0686621
-0.0594167
0.0794693
-0.0674998
0.0897476
-0.0749224
0.099185
-0.081535
0.107582
-0.0872758
0.114866
-0.0921654
0.121084
-0.0962893
0.126379
-0.0997748
0.130954
-0.102765
0.135048
-0.105393
0.138862
-0.107793
0.142755
-0.109971
-0.112358
0.146841
0.00026052
0.000475204
0.00128702
-0.000300236
0.0033016
-0.00264416
0.00649917
-0.00648029
0.0110382
-0.0117355
0.0170111
-0.0182931
0.0244088
-0.0259633
0.0330924
-0.0344711
0.0427877
-0.0434684
0.053107
-0.0525685
0.0635978
-0.0613941
0.0738058
-0.0696247
0.0833377
-0.0770318
0.0919117
-0.0834963
0.0993836
-0.0890069
0.105748
-0.0936405
0.111117
-0.097534
0.115679
-0.100852
0.11966
-0.103755
0.123281
-0.106386
0.126737
-0.10885
0.13018
-0.111236
0.133743
-0.113534
-0.116016
0.137401
0.000349036
0.000126168
0.00164952
-0.00160072
0.00413975
-0.0051344
0.00801189
-0.0103524
0.0133834
-0.0171069
0.0202543
-0.025164
0.0284731
-0.0341821
0.0377301
-0.0437281
0.0475888
-0.0533271
0.0575504
-0.0625301
0.0671333
-0.0709769
0.0759455
-0.0784369
0.0837352
-0.0848215
0.0904076
-0.0901687
0.0960109
-0.0946101
0.100698
-0.0983279
0.10468
-0.101516
0.108178
-0.10435
0.111393
-0.10697
0.114484
-0.109478
0.117575
-0.111941
0.120749
-0.114409
0.124091
-0.116876
-0.11953
0.127605
0.000464595
-0.000338427
0.00209555
-0.00323167
0.0051216
-0.00816044
0.00969556
-0.0149264
0.0158454
-0.0232568
0.0234281
-0.0327467
0.0321164
-0.0428704
0.0414357
-0.0530474
0.050844
-0.0627353
0.0598291
-0.0715153
0.0679938
-0.0791416
0.0751053
-0.0855484
0.0811035
-0.0908197
0.0860723
-0.0951376
0.0901898
-0.0987276
0.0936733
-0.101811
0.0967348
-0.104577
0.0995537
-0.107169
0.102267
-0.109683
0.104972
-0.112183
0.107737
-0.114705
0.110601
-0.117274
0.113611
-0.119885
-0.122648
0.116729
0.000600516
-0.000938943
0.00259738
-0.00522854
0.00617746
-0.0117405
0.0114101
-0.020159
0.0181843
-0.030031
0.026179
-0.0407414
0.0348956
-0.051587
0.0437503
-0.0619021
0.0521921
-0.0711772
0.0598031
-0.0791263
0.0663525
-0.0856909
0.071797
-0.090993
0.076241
-0.0952637
0.0798759
-0.0987725
0.0829209
-0.101773
0.0855796
-0.10447
0.088017
-0.107015
0.0903542
-0.109506
0.0926741
-0.112003
0.0950319
-0.114541
0.0974644
-0.117138
0.0999947
-0.119804
0.102649
-0.12254
-0.125402
0.105403
0.000749346
-0.00168829
0.00312243
-0.00760162
0.00722647
-0.0158446
0.0130011
-0.0259337
0.0201589
-0.0371888
0.0281977
-0.0487802
0.0364962
-0.0598855
0.0444526
-0.0698586
0.0516078
-0.0783323
0.0577094
-0.085228
0.0627114
-0.0906929
0.066724
-0.0950056
0.0699449
-0.0984846
0.0725946
-0.101422
0.0748721
-0.10405
0.0769341
-0.106532
0.0788921
-0.108973
0.0808205
-0.111434
0.0827667
-0.113949
0.0847614
-0.116535
0.0868246
-0.119201
0.0889694
-0.121949
0.0912094
-0.12478
-0.127716
0.0935228
0.000903051
-0.00259134
0.00363532
-0.0103339
0.00818401
-0.0203933
0.0143198
-0.0320694
0.0215655
-0.0444345
0.0292743
-0.056489
0.0367839
-0.0673951
0.0435691
-0.0766437
0.0493284
-0.0840915
0.0539892
-0.0898888
0.0576536
-0.0943573
0.0605197
-0.0978717
0.0628102
-0.100775
0.0647247
-0.103337
0.0664176
-0.105743
0.0679967
-0.108111
0.0695316
-0.110508
0.0710658
-0.112968
0.0726263
-0.11551
0.074231
-0.11814
0.0758921
-0.120862
0.0776186
-0.123676
0.0794189
-0.12658
-0.129577
0.0812803
0.00105263
-0.00364397
0.00409897
-0.0133802
0.00896851
-0.0252628
0.0152402
-0.0383412
0.022267
-0.0514612
0.0293253
-0.0635472
0.0357999
-0.0738698
0.0413077
-0.0821516
0.0457217
-0.0885055
0.0491175
-0.0932846
0.0516865
-0.0969263
0.0536546
-0.0998398
0.0552263
-0.102347
0.0565597
-0.10467
0.0577637
-0.106947
0.0589071
-0.109255
0.0600315
-0.111632
0.061162
-0.114099
0.0623148
-0.116662
0.063501
-0.119326
0.0647287
-0.12209
0.0660042
-0.124951
0.067332
-0.127908
-0.130951
0.0687056
0.00118795
-0.00483192
0.0044766
-0.0166689
0.00950973
-0.0302959
0.0156761
-0.0445075
0.0222081
-0.0579932
0.0283856
-0.0697248
0.0337091
-0.0791933
0.0379618
-0.0864042
0.041168
-0.0917117
0.0435007
-0.0956173
0.0451867
-0.0986124
0.0464397
-0.101093
0.0474267
-0.103334
0.0482627
-0.105506
0.0490194
-0.107704
0.049739
-0.109974
0.050446
-0.112339
0.0511556
-0.114808
0.0518782
-0.117385
0.0526213
-0.120069
0.0533908
-0.122859
0.0541913
-0.125752
0.0550256
-0.128742
-0.131818
0.0558933
0.001299
-0.00613091
0.00473671
-0.0201066
0.00975823
-0.0353175
0.0155894
-0.0503387
0.0214101
-0.0638139
0.0265751
-0.0748898
0.030736
-0.0833542
0.0338314
-0.0894995
0.0359949
-0.0938753
0.0374475
-0.0970699
0.0384129
-0.0995778
0.0390724
-0.101752
0.0395522
-0.103814
0.0399312
-0.105885
0.0402545
-0.108027
0.0405476
-0.110267
0.0408253
-0.112617
0.0410975
-0.11508
0.0413715
-0.117659
0.0416527
-0.120351
0.0419455
-0.123152
0.0422525
-0.126059
0.0425745
-0.129064
-0.132158
0.0429141
0.00137998
-0.0075109
0.00486004
-0.0235866
0.00969256
-0.04015
0.014991
-0.0556371
0.0199545
-0.0687775
0.0240616
-0.0789968
0.0271185
-0.0864111
0.0291868
-0.0915679
0.030465
-0.0951535
0.0311835
-0.0977884
0.0315413
-0.0999356
0.0316816
-0.101892
0.0316948
-0.103827
0.0316327
-0.105823
0.0315231
-0.107918
0.0313816
-0.110126
0.0312175
-0.112453
0.0310376
-0.114901
0.0308476
-0.117469
0.0306519
-0.120155
0.0304542
-0.122954
0.0302568
-0.125861
0.0300592
-0.128867
0.0298651
-0.131964
-0.000307254
0.00151366
-0.0012064
-0.00105629
0.00311672
-0.00236768
-0.00214539
0.00376392
-0.00267482
-0.00350303
0.00374522
-0.00238758
-0.00507762
0.00328492
-0.00171034
-0.00683188
0.0025409
-0.000786639
-0.00873726
0.00160684
0.000298533
-0.0107709
0.000521466
0.00151218
-0.0129133
-0.000715235
0.00285764
-0.0151452
-0.00212869
0.00436058
-0.0174474
-0.00375317
0.00605534
-0.0197985
-0.00562456
0.00797572
-0.0221739
-0.00777406
0.0101494
-0.0245439
-0.0102245
0.0125946
-0.0268736
-0.0129884
0.015318
-0.0291214
-0.0160653
0.0183131
-0.0312393
-0.0194394
0.0215574
-0.0331735
-0.0230756
0.0250098
-0.0348656
-0.0269165
0.0286086
-0.0362558
-0.0308801
0.0322702
-0.0372859
-0.0348607
0.0358908
-0.0379032
-0.0387305
0.0393479
-0.0380734
-0.0423334
0.0425036
-0.0454914
-0.0378151
0.0452331
-0.000278155
0.00179181
-0.000975509
0.00381407
-0.00200839
0.00479681
-0.00331257
0.00504939
-0.0048372
0.00480956
-0.00654266
0.00424635
-0.00839827
0.00346245
-0.0103805
0.00250374
-0.0124697
0.00137391
-0.0146498
5.14249e-05
-0.0169068
-0.00149618
-0.0192269
-0.00330441
-0.0215925
-0.00540852
-0.0239831
-0.00783387
-0.0263749
-0.0105966
-0.0287396
-0.0137007
-0.0310442
-0.0171347
-0.033252
-0.0208679
-0.0353223
-0.0248461
-0.037214
-0.0289884
-0.0388894
-0.0331853
-0.0403173
-0.0373027
-0.0414724
-0.0411783
-0.0445875
-0.0423762
-0.000221239
0.00201305
-0.000803157
0.00439599
-0.00168915
0.0056828
-0.00282662
0.00618686
-0.00416702
0.00614996
-0.0056679
0.00574723
-0.00729387
0.00508842
-0.00901649
0.00422636
-0.0108137
0.00317111
-0.0126677
0.00190547
-0.014552
0.000388065
-0.0164697
-0.00138667
-0.0183953
-0.0034829
-0.0203125
-0.0059167
-0.0222027
-0.00870642
-0.0240457
-0.0118577
-0.0258199
-0.0153605
-0.0275027
-0.019185
-0.0290703
-0.0232785
-0.0304982
-0.0275605
-0.0317659
-0.0319175
-0.0328627
-0.0362059
-0.0337718
-0.0402691
-0.0438591
-0.0345002
-0.000142431
0.00215548
-0.000555199
0.00480876
-0.00121472
0.00634232
-0.00208362
0.00705576
-0.00311739
0.00718373
-0.00427073
0.00690057
-0.00550169
0.00631938
-0.00677363
0.0054983
-0.00805545
0.00445293
-0.00932026
0.00317028
-0.0105522
0.00161999
-0.0117137
-0.00022512
-0.0127935
-0.00240314
-0.0137676
-0.00494261
-0.014614
-0.00786002
-0.0153122
-0.0111595
-0.0158446
-0.0148281
-0.0161976
-0.018832
-0.0163626
-0.0231135
-0.0163342
-0.0275889
-0.0161091
-0.0321427
-0.0156959
-0.0366191
-0.0151279
-0.0408371
-0.0447162
-0.0142708
-5.20407e-05
0.00220752
-0.000261334
0.00501805
-0.000637857
0.00671885
-0.00116108
0.00757898
-0.00179204
0.00781468
-0.00248334
0.00759187
-0.00318601
0.00702206
-0.00385353
0.00616581
-0.00444337
0.00504277
-0.00491699
0.00364391
-0.00524034
0.00194333
-0.00537521
-9.02509e-05
-0.00528877
-0.00248958
-0.00494815
-0.00528324
-0.00432176
-0.0084864
-0.00338193
-0.0120993
-0.00210747
-0.0161026
-0.000486682
-0.0204528
0.00148007
-0.0250803
0.0037788
-0.0298876
0.00638715
-0.0347511
0.00929413
-0.0395261
0.0124622
-0.0440052
-0.0479094
0.0156554
3.7587e-05
0.00216993
4.16661e-05
0.00501397
-2.67426e-05
0.00678725
-0.00016156
0.0077138
-0.000329953
0.00798308
-0.000483564
0.00774548
-0.000567017
0.00710551
-0.000523558
0.00612235
-0.000297968
0.00481718
0.000162481
0.00318346
0.000908831
0.00119698
0.00199132
-0.00117274
0.00345887
-0.00395712
0.00535698
-0.00718135
0.00772757
-0.010857
0.0106056
-0.0149773
0.0140151
-0.0195121
0.0179656
-0.0244033
0.0224487
-0.0295634
0.0274377
-0.0348766
0.0328885
-0.0402019
0.0387502
-0.0453878
0.0449177
-0.0501727
-0.054621
0.0516294
0.000114151
0.00205578
0.000314907
0.00481322
0.000547286
0.00655488
0.000806335
0.00745475
0.00112016
0.00766925
0.00153787
0.00732777
0.0021205
0.00652288
0.00293461
0.00530825
0.00404838
0.00370341
0.00552976
0.00170207
0.00744506
-0.000718313
0.0098594
-0.00358709
0.0128344
-0.00693212
0.0164252
-0.0107721
0.0206773
-0.0151091
0.0256218
-0.0199218
0.0312704
-0.0251607
0.0376117
-0.0307446
0.0446094
-0.0365611
0.0522032
-0.0424704
0.06031
-0.0483087
0.0688448
-0.0539225
0.0777146
-0.0590425
-0.0639792
0.0870727
0.000168836
0.00188695
0.000529912
0.00445214
0.0010264
0.00605838
0.00165129
0.00682987
0.00243164
0.0068889
0.00341863
0.00634078
0.00467933
0.00526217
0.0062902
0.00369739
0.00833243
0.00166117
0.0108888
-0.000854265
0.0140408
-0.00387032
0.0178652
-0.00741147
0.0224299
-0.0114968
0.0277882
-0.0161305
0.0339723
-0.0212932
0.0409868
-0.0269363
0.0488034
-0.0329773
0.0573587
-0.0392999
0.066556
-0.0457585
0.0762705
-0.0521848
0.0863663
-0.0584045
0.0966944
-0.0642507
0.107141
-0.0694895
-0.0745228
0.117685
0.000197475
0.00168947
0.000671106
0.00397851
0.00137915
0.00535034
0.00232246
0.00588656
0.00353354
0.00567783
0.00506972
0.00480459
0.00700679
0.00332511
0.00943271
0.00127146
0.0124424
-0.00134854
0.016132
-0.00454382
0.0205921
-0.0083304
0.0259014
-0.0127208
0.0321175
-0.0177129
0.0392675
-0.0232805
0.0473394
-0.0293652
0.0562763
-0.0358732
0.0659742
-0.0426751
0.0762859
-0.0496116
0.0870313
-0.0565039
0.0980099
-0.0631634
0.109029
-0.0694237
0.119892
-0.0751138
0.130521
-0.0801186
-0.0846709
0.140669
0.000202234
0.00148724
0.000743281
0.00343746
0.00161204
0.00448158
0.00282827
0.00467033
0.00443843
0.00406767
0.0065123
0.00273073
0.00913958
0.000697826
0.0124222
-0.00201113
0.0164661
-0.00539249
0.0213729
-0.00945056
0.0272275
-0.0141851
0.034086
-0.0195793
0.0419623
-0.0255891
0.0508173
-0.0321355
0.0605532
-0.0391012
0.0710137
-0.0463336
0.0819916
-0.053653
0.0932457
-0.0608657
0.104521
-0.0677797
0.115578
-0.0742199
0.126207
-0.080053
0.136247
-0.0851538
0.145667
-0.089538
-0.0931882
0.154184
0.000191631
0.00129561
0.000771906
0.00285719
0.00177248
0.003481
0.00324241
0.0032004
0.00525184
0.00205824
0.00788796
9.46008e-05
0.0112623
-0.00267648
0.0154844
-0.00623323
0.0206621
-0.0105702
0.0268811
-0.0156696
0.0341879
-0.0214919
0.0425736
-0.027965
0.0519618
-0.0349773
0.0622038
-0.0423774
0.0730832
-0.0499806
0.0843308
-0.0575812
0.0956476
-0.0649698
0.106734
-0.0719526
0.117322
-0.078367
0.127205
-0.0841036
0.136252
-0.0890995
0.144459
-0.0933604
0.151847
-0.0969266
-0.0996884
0.158347
0.000179397
0.000799528
0.00194163
0.00369173
0.00614949
0.00943139
0.0136514
0.0189222
0.0253241
0.0328869
0.0415704
0.0512521
0.0617265
0.0727166
0.0838974
0.0949279
0.105487
0.115308
0.124203
0.132083
0.138944
0.144938
0.150218
0.155641
-0.0349313
-0.0672274
0.0643436
-0.030794
-0.0703103
0.066173
-0.0253288
-0.0708967
0.0654315
-0.0184637
-0.0684994
0.0616344
-0.0102691
-0.062459
0.0542643
-0.000931086
-0.0523162
0.0429782
0.00963436
-0.0380463
0.0274808
0.0207853
-0.0193406
0.00818959
0.0320606
0.003304
-0.0145793
0.0433242
0.0289321
-0.0401957
0.0544986
0.0558936
-0.0670679
0.065292
0.0822791
-0.0930726
0.0751327
0.105901
-0.115741
0.0832997
0.12485
-0.133017
0.0890218
0.138376
-0.144098
0.0915132
0.147501
-0.149993
0.090428
0.154666
-0.153581
0.0868463
0.161358
-0.157776
0.0836193
0.16488
-0.161653
0.0840668
0.157896
-0.158343
0.0897264
0.132807
-0.138466
0.0996765
0.0873331
-0.0972832
0.111947
0.0260686
-0.0383394
0.124512
-0.0404639
0.0278996
0.135652
-0.100255
0.0891152
0.143939
-0.143748
0.13546
0.148724
-0.169214
0.164429
0.150534
-0.180754
0.178945
0.150178
-0.183127
0.183482
0.147249
-0.182662
0.185591
0.140858
-0.187082
0.193473
0.132152
-0.197449
0.206156
0.124912
-0.19711
0.204349
0.122815
-0.164338
0.166435
0.126592
-0.0912994
0.0875232
0.134248
0.00246426
-0.0101205
0.142926
0.0908255
-0.0995032
0.150603
0.154335
-0.162012
0.155583
0.190388
-0.195368
0.15594
0.215187
-0.215544
0.150922
0.23704
-0.232023
0.142836
0.257836
-0.249749
0.136118
0.238831
-0.232113
0.134416
0.174657
-0.172955
0.137942
0.0583725
-0.0618978
0.144774
-0.0574374
0.0506055
0.15083
-0.145513
0.139456
0.152008
-0.207859
0.206682
0.147273
-0.234379
0.239113
0.140441
-0.276749
0.283582
0.136779
-0.231066
0.234728
0.139035
-0.175073
0.172817
0.143919
-0.0394302
0.0345463
0.146298
0.0903676
-0.0927471
0.14459
0.17414
-0.172431
0.141627
0.319348
-0.316385
0.140716
0.251719
-0.250808
0.140942
0.268113
-0.268339
0.140221
0.0917056
-0.0909843
-0.13015
0.131817
-0.0421036
-0.0675
-0.0407133
-0.0717006
-0.0379617
-0.0736483
-0.0335904
-0.0728707
-0.0274236
-0.0686258
-0.0194078
-0.0603319
-0.0098341
-0.04762
0.00124094
-0.0304156
0.0140803
-0.00953537
0.0270833
0.0159292
0.0401744
0.0428025
0.0530255
0.069428
0.0649699
0.0939564
0.0751596
0.11466
0.0826813
0.130854
0.0868518
0.143331
0.0878797
0.153638
0.0874585
0.161779
0.0883764
0.163962
0.0928922
0.15338
0.101219
0.12448
0.11184
0.0767119
0.123198
0.0147101
0.133742
-0.0510073
0.142352
-0.108866
0.148084
-0.149479
0.150597
-0.171727
0.150485
-0.180643
0.14871
-0.181351
0.144996
-0.178949
0.138123
-0.180209
0.128704
-0.188031
0.120508
-0.188913
0.117812
-0.161641
0.121787
-0.0952752
0.130468
-0.00621589
0.140656
0.0806373
0.14996
0.145031
0.156297
0.18405
0.157608
0.213876
0.153395
0.241253
0.146075
0.265155
0.139794
0.245113
0.137802
0.176648
0.140274
0.0559014
0.145867
-0.063031
0.151032
-0.150678
0.151839
-0.208666
0.146903
-0.229443
0.140002
-0.269849
0.136453
-0.227518
0.138802
-0.177421
0.14375
-0.0443782
0.146041
0.0880766
0.144427
0.175753
0.141496
0.32228
0.140647
0.252568
0.141178
0.267582
0.140744
0.0921396
-0.128593
-0.0368513
-0.0651489
-0.0385386
-0.0700134
-0.039123
-0.0730639
-0.038197
-0.0737967
-0.0353352
-0.0714876
-0.0302134
-0.0654536
-0.0227161
-0.0551173
-0.0129326
-0.0401991
-0.0015212
-0.0209468
0.0126655
0.00174248
0.0269169
0.0285511
0.0414068
0.0549381
0.0551405
0.0802227
0.067158
0.102643
0.0765646
0.121448
0.08295
0.136945
0.086963
0.149625
0.0904448
0.158298
0.0956228
0.158784
0.103625
0.145378
0.113708
0.114396
0.124312
0.0661079
0.134165
0.00485793
0.142497
-0.05934
0.148483
-0.114852
0.151658
-0.152654
0.15202
-0.172089
0.150185
-0.178808
0.147154
-0.17832
0.142854
-0.174649
0.135841
-0.173196
0.12605
-0.17824
0.116971
-0.179834
0.113438
-0.158109
0.117302
-0.0991392
0.126737
-0.0156508
0.138278
0.0690961
0.149137
0.134172
0.156853
0.176334
0.15927
0.211459
0.156079
0.244443
0.149672
0.271563
0.143831
0.250954
0.141476
0.179003
0.142793
0.0545841
0.14704
-0.0672776
0.151259
-0.154897
0.151731
-0.209138
0.146667
-0.224379
0.139706
-0.262887
0.136228
-0.224041
0.138636
-0.179829
0.14367
-0.0494117
0.145915
0.0858317
0.144389
0.177278
0.141448
0.325221
0.140665
0.253351
0.141559
0.266689
0.141451
0.092248
-0.127152
-0.018765
-0.0606547
-0.0231721
-0.0656062
-0.0271157
-0.0691203
-0.0299819
-0.0709306
-0.0311863
-0.0702832
-0.0301229
-0.066517
-0.0263161
-0.0589242
-0.0196064
-0.0469088
-0.0101065
-0.0304466
0.00171076
-0.0100748
0.016163
0.0140988
0.0312707
0.0398304
0.046155
0.0653384
0.0597723
0.0890256
0.0712616
0.109958
0.0804102
0.127797
0.0879938
0.142041
0.0955803
0.150711
0.104621
0.149744
0.115287
0.134711
0.126316
0.103367
0.136263
0.0561606
0.144411
-0.00328988
0.150506
-0.0654352
0.153944
-0.118289
0.154645
-0.153356
0.15299
-0.170434
0.149632
-0.175449
0.145489
-0.174177
0.140713
-0.169873
0.133842
-0.166325
0.1241
-0.168498
0.114354
-0.170088
0.109791
-0.153546
0.113184
-0.102532
0.123008
-0.025475
0.135743
0.0563618
0.14806
0.121855
0.157178
0.167216
0.160855
0.207783
0.158892
0.246406
0.153507
0.276947
0.148107
0.256354
0.145346
0.181764
0.145435
0.0544957
0.14827
-0.0701131
0.151491
-0.158118
0.151651
-0.209297
0.146523
-0.219252
0.139497
-0.255861
0.136047
-0.220591
0.13849
-0.182272
0.143648
-0.0545696
0.145908
0.0835716
0.144475
0.178712
0.141493
0.328203
0.140778
0.254065
0.142092
0.265374
0.142343
0.0919974
-0.125837
0.00971192
-0.0547113
0.00303918
-0.0589335
-0.00325916
-0.062822
-0.00921373
-0.064976
-0.0142004
-0.0652965
-0.0174658
-0.0632516
-0.0181759
-0.058214
-0.0159616
-0.0491231
-0.0102092
-0.0361991
-0.00174659
-0.0185374
0.0107777
0.00157448
0.0249301
0.025678
0.0399349
0.0503336
0.0545734
0.074387
0.0679699
0.0965619
0.0799197
0.115847
0.090998
0.130963
0.102255
0.139454
0.114374
0.137625
0.126829
0.122256
0.138144
0.0920532
0.147195
0.0471094
0.153678
-0.0097732
0.157589
-0.0693458
0.158582
-0.119282
0.156922
-0.151697
0.153407
-0.166919
0.14875
-0.170792
0.143686
-0.169113
0.138527
-0.164714
0.131988
-0.159786
0.122701
-0.159211
0.11263
-0.160018
0.10698
-0.147896
0.109517
-0.105069
0.119342
-0.0352994
0.133003
0.0427002
0.146638
0.108221
0.157165
0.156688
0.162255
0.202693
0.161703
0.246959
0.157442
0.281208
0.152472
0.261324
0.149272
0.184964
0.148148
0.0556196
0.149527
-0.0714914
0.151701
-0.160293
0.151565
-0.209161
0.146434
-0.21412
0.139331
-0.248758
0.135856
-0.217115
0.138313
-0.184729
0.14365
-0.0599066
0.146004
0.0812174
0.144681
0.180035
0.141639
0.331244
0.140994
0.25471
0.142779
0.263589
0.143421
0.0913557
-0.124655
0.0452318
-0.0483137
0.0383705
-0.0520722
0.0307041
-0.0551555
0.0226426
-0.0569146
0.0145964
-0.0572502
0.00725227
-0.0559076
0.00145423
-0.052416
-0.0010499
-0.046619
-0.000349891
-0.0368991
0.00505968
-0.0239469
0.0137486
-0.00711447
0.0253827
0.014044
0.0390366
0.0366797
0.0535817
0.059842
0.0680899
0.0820537
0.0821497
0.101787
0.0959292
0.117184
0.10987
0.125513
0.12399
0.123505
0.137333
0.108913
0.148474
0.0809118
0.15662
0.0389638
0.161643
-0.0147963
0.163526
-0.0712289
0.162219
-0.117975
0.15839
-0.147868
0.153206
-0.161735
0.147476
-0.165061
0.141691
-0.163329
0.136217
-0.15924
0.130104
-0.153672
0.121617
-0.150724
0.111671
-0.150071
0.105044
-0.141269
0.106382
-0.106407
0.115806
-0.0447237
0.130015
0.028491
0.144765
0.0934707
0.156685
0.144768
0.163325
0.196053
0.16435
0.245933
0.161304
0.284254
0.156766
0.265863
0.153131
0.188598
0.150842
0.0579088
0.150768
-0.0714178
0.151854
-0.161379
0.151432
-0.208739
0.146357
-0.209046
0.13917
-0.241571
0.135607
-0.213552
0.138054
-0.187176
0.143635
-0.0654878
0.146181
0.0786716
0.145004
0.181211
0.141896
0.334353
0.141319
0.255287
0.143621
0.261288
0.144684
0.0902932
-0.123612
0.0807863
-0.0420273
0.0741226
-0.0454085
0.0668108
-0.0478436
0.0588686
-0.0489724
0.0504651
-0.0488467
0.0419658
-0.0474082
0.0340975
-0.0445476
0.0275649
-0.0400864
0.0238456
-0.0331799
0.0234824
-0.0235837
0.0269878
-0.0106199
0.0344962
0.00653562
0.0452256
0.0259502
0.0582365
0.0468311
0.0725386
0.0677516
0.0874415
0.0868842
0.102637
0.101988
0.117972
0.110177
0.132936
0.108541
0.146353
0.0954967
0.156971
0.0702934
0.16424
0.0316949
0.168001
-0.0185573
0.168081
-0.071309
0.164701
-0.114594
0.158955
-0.142122
0.152329
-0.155108
0.145741
-0.158474
0.139452
-0.15704
0.133732
-0.153519
0.128036
-0.147976
0.120576
-0.143265
0.111228
-0.140722
0.103924
-0.133965
0.103895
-0.106379
0.112416
-0.0532443
0.126745
0.0141619
0.142341
0.0778746
0.155598
0.131511
0.163896
0.187755
0.166661
0.243169
0.164919
0.285996
0.160834
0.269947
0.156812
0.19262
0.153411
0.0613101
0.151949
-0.0699553
0.151911
-0.161341
0.151207
-0.208036
0.146254
-0.204093
0.138983
-0.2343
0.135265
-0.209834
0.137662
-0.189573
0.143556
-0.0713822
0.146409
0.0758189
0.145438
0.182182
0.14227
0.337521
0.14176
0.255796
0.144615
0.258432
0.146128
0.0887803
-0.122715
0.11145
-0.035792
0.105004
-0.0389623
0.0981967
-0.0410368
0.0910305
-0.0418062
0.0835615
-0.0413778
0.0758182
-0.0396649
0.0679391
-0.0366685
0.0603286
-0.0324759
0.0539886
-0.0268399
0.0498395
-0.0194345
0.0488288
-0.0096092
0.0517414
0.00362301
0.0584926
0.019199
0.0686182
0.0367055
0.0812594
0.0551103
0.0955407
0.0726029
0.110727
0.0868019
0.126153
0.0947509
0.140912
0.0937821
0.153755
0.0826534
0.163638
0.0604105
0.170082
0.0252508
0.172705
-0.0211795
0.17114
-0.0697439
0.165911
-0.109366
0.15854
-0.134751
0.150732
-0.147301
0.143489
-0.151231
0.136897
-0.150448
0.131021
-0.147643
0.12567
-0.142625
0.119309
-0.136903
0.110975
-0.132389
0.103444
-0.126434
0.102027
-0.104962
0.10925
-0.0604672
0.123184
0.000227365
0.139294
0.0617654
0.15378
0.117025
0.1638
0.177735
0.168426
0.238543
0.168089
0.286334
0.164517
0.273519
0.160146
0.196991
0.155792
0.0656636
0.153013
-0.067176
0.151833
-0.160161
0.150843
-0.207046
0.146081
-0.19933
0.138743
-0.226962
0.134804
-0.205895
0.137094
-0.191862
0.143365
-0.0776537
0.146656
0.0725287
0.145972
0.182865
0.142769
0.340724
0.142323
0.256243
0.145763
0.254992
0.14775
0.0867937
-0.121971
0.134518
-0.029641
0.128222
-0.0326655
0.121686
-0.0345013
0.115098
-0.0352184
0.108614
-0.0348939
0.102226
-0.0332763
0.0958596
-0.0303023
0.0895215
-0.0261377
0.0835318
-0.0208503
0.0784483
-0.014351
0.0752063
-0.00636724
0.0745589
0.00427042
0.0773288
0.0164291
0.0838033
0.0302311
0.0935864
0.0453273
0.105898
0.0602909
0.119771
0.0729289
0.134157
0.0803657
0.147876
0.080063
0.159689
0.0708398
0.168689
0.0514114
0.174273
0.019666
0.175745
-0.0226508
0.172599
-0.066598
0.165727
-0.102494
0.157036
-0.12606
0.148332
-0.138596
0.14062
-0.143519
0.1339
-0.143728
0.127988
-0.141731
0.122896
-0.137533
0.117569
-0.131576
0.110541
-0.125362
0.103289
-0.119181
0.100705
-0.102379
0.106328
-0.0660901
0.119359
-0.0128038
0.135585
0.0455397
0.151117
0.101494
0.162879
0.165972
0.169509
0.231913
0.170684
0.285159
0.167671
0.276532
0.163035
0.201627
0.157873
0.0708257
0.153901
-0.0632035
0.151572
-0.157832
0.150281
-0.205756
0.145788
-0.194837
0.138431
-0.219606
0.134215
-0.201679
0.136317
-0.193964
0.143011
-0.0843482
0.146883
0.0686569
0.146595
0.183154
0.143398
0.34392
0.143014
0.256627
0.147064
0.250943
0.149542
0.0843152
-0.121388
0.148444
-0.0239013
0.142482
-0.0267038
0.13629
-0.0283092
0.130237
-0.0291653
0.124555
-0.0292111
0.119314
-0.0280361
0.114514
-0.0255024
0.110073
-0.0216966
0.105956
-0.0167327
0.102242
-0.0106371
0.0992482
-0.00337374
0.0976575
0.00586108
0.0983429
0.0157437
0.101873
0.0267006
0.10852
0.038681
0.118006
0.0508041
0.129543
0.0613927
0.141983
0.067925
0.154021
0.0680252
0.164446
0.0604147
0.172417
0.043441
0.176977
0.0151055
0.177129
-0.022803
0.172379
-0.0618475
0.164058
-0.0941731
0.154355
-0.116357
0.14504
-0.129282
0.137032
-0.135511
0.130319
-0.137015
0.124511
-0.135923
0.11963
-0.132652
0.115177
-0.127123
0.109589
-0.119774
0.103093
-0.112686
0.099715
-0.0990012
0.103648
-0.0700231
0.115321
-0.0244772
0.131224
0.029637
0.147547
0.0851705
0.160978
0.152541
0.169646
0.223245
0.172446
0.282359
0.170128
0.278851
0.165355
0.2064
0.159595
0.0765865
0.154572
-0.0581805
0.151103
-0.154363
0.149476
-0.204129
0.145329
-0.19069
0.138038
-0.212314
0.133507
-0.197147
0.135306
-0.195763
0.142446
-0.0914882
0.147049
0.0640539
0.147286
0.182917
0.144157
0.34705
0.143841
0.256943
0.148519
0.246265
0.151497
0.0813371
-0.120976
0.153387
-0.0189409
0.147952
-0.021269
0.142278
-0.0226348
0.136889
-0.023777
0.13198
-0.0243013
0.127677
-0.0237336
0.124099
-0.0219242
0.12125
-0.0188475
0.119064
-0.0145469
0.117503
-0.00907611
0.116776
-0.00264661
0.116518
0.00611879
0.117066
0.0151963
0.119399
0.0243678
0.12402
0.0340595
0.131013
0.0438111
0.139939
0.0524667
0.149927
0.0579374
0.159815
0.0581366
0.168532
0.0516982
0.175151
0.0368218
0.178244
0.012012
0.176956
-0.0215141
0.170696
-0.0555882
0.161241
-0.0847175
0.150889
-0.106005
0.141261
-0.119654
0.133107
-0.127356
0.126455
-0.130363
0.120828
-0.130296
0.116105
-0.127929
0.112263
-0.123281
0.108035
-0.115545
0.102643
-0.107293
0.0988978
-0.0952561
0.101166
-0.0722917
0.111149
-0.0344603
0.126234
0.0145528
0.143015
0.0683897
0.158084
0.137471
0.168955
0.212373
0.173485
0.27783
0.171839
0.280496
0.167075
0.211163
0.160964
0.0826976
0.155074
-0.0522898
0.150498
-0.149788
0.148472
-0.202103
0.14471
-0.186927
0.137589
-0.205193
0.13272
-0.192279
0.134085
-0.197128
0.141636
-0.0990393
0.147105
0.0585842
0.148022
0.182001
0.145044
0.350027
0.144811
0.257176
0.150119
0.240957
0.153611
0.0778451
-0.120738
0.151958
-0.0152577
0.147279
-0.0165898
0.142616
-0.0179725
0.138145
-0.0193058
0.133967
-0.0201235
0.130308
-0.0200747
0.127392
-0.0190079
0.12538
-0.0168351
0.124302
-0.013469
0.12409
-0.0088638
0.12447
-0.0030269
0.126063
0.00452573
0.128586
0.012673
0.131841
0.0211128
0.136205
0.0296955
0.142
0.038016
0.149187
0.0452803
0.157181
0.0499435
0.165085
0.0502322
0.171986
0.0447975
0.176839
0.0319681
0.178541
0.0103099
0.175115
-0.018088
0.167492
-0.0479648
0.157402
-0.0746281
0.146971
-0.095573
0.137461
-0.110145
0.129381
-0.119276
0.122818
-0.1238
0.11738
-0.124858
0.112755
-0.123305
0.109211
-0.119737
0.106057
-0.112392
0.101919
-0.103155
0.0982115
-0.0915486
0.0990377
-0.0731179
0.107056
-0.0424788
0.120915
0.00069426
0.137516
0.0517887
0.153669
0.121318
0.166632
0.19941
0.173176
0.271286
0.172548
0.281124
0.168025
0.215686
0.161893
0.0888292
0.155314
-0.0457109
0.149773
-0.144246
0.147336
-0.199667
0.143949
-0.18354
0.137097
-0.198341
0.13187
-0.187051
0.132763
-0.198022
0.140607
-0.106884
0.147043
0.0521485
0.148777
0.180268
0.146054
0.35275
0.145926
0.257304
0.151865
0.235017
0.155877
0.0738332
-0.12068
0.187813
-0.0110582
-0.192012
0.184352
-0.0131284
0.180805
-0.0144256
0.176984
-0.0154854
0.172955
-0.0160943
0.168858
-0.0159773
0.164819
-0.0149693
0.160945
-0.0129612
0.157337
-0.00986107
0.154092
-0.00561851
0.151317
-0.000251746
0.149402
0.00644003
0.148239
0.0138366
0.147889
0.0214627
0.148653
0.0289313
0.150934
0.0357352
0.155144
0.0410706
0.161425
0.0436624
0.169497
0.0421597
0.178851
0.0354433
0.1885
0.0223197
0.19631
0.00249961
0.200599
-0.0223769
0.200487
-0.0478526
0.19659
-0.0707307
0.190153
-0.0891366
0.182342
-0.102334
0.174007
-0.110941
0.165792
-0.115584
0.15792
-0.116986
0.150233
-0.115618
0.143041
-0.112545
0.136343
-0.105693
0.1288
-0.0956126
0.120326
-0.0830742
0.113958
-0.0667504
0.113223
-0.0417439
0.118145
-0.00422735
0.125354
0.0445798
0.132059
0.114613
0.137277
0.194192
0.141425
0.267138
0.146696
0.275853
0.154389
0.207993
0.161285
0.0819327
0.164079
-0.0485046
0.162512
-0.142679
0.159047
-0.196203
0.153494
-0.177987
0.144888
-0.189736
0.13721
-0.179372
0.13362
-0.194432
0.134665
-0.10793
0.135718
0.0510957
0.133777
0.182209
0.131353
0.355174
0.132874
0.255783
0.139831
0.22806
0.14432
0.0693448
-0.119365
0.197616
-0.00796959
-0.200705
0.194427
-0.00993981
0.191259
-0.0112572
0.187898
-0.0121246
0.184375
-0.0125715
0.180827
-0.0124287
0.177382
-0.0115242
0.174159
-0.00973871
0.171291
-0.00699285
0.168928
-0.0032559
0.167172
0.00150466
0.166307
0.00730478
0.166378
0.0137659
0.167425
0.0204155
0.16956
0.0267961
0.172966
0.0323291
0.17782
0.0362168
0.184102
0.0373808
0.191489
0.0347722
0.199395
0.0275375
0.20675
0.0149644
0.212115
-0.00286517
0.213988
-0.0242502
0.212208
-0.0460724
0.207301
-0.065823
0.200274
-0.0821098
0.192151
-0.0942112
0.183668
-0.102459
0.175349
-0.107265
0.167458
-0.109095
0.159766
-0.107926
0.152404
-0.105183
0.145726
-0.0990148
0.138754
-0.0886404
0.13069
-0.0750104
0.123737
-0.059797
0.121753
-0.0397598
0.125603
-0.00807829
0.132758
0.0374249
0.140081
0.107291
0.14637
0.187902
0.15177
0.261738
0.158362
0.269262
0.167107
0.199248
0.174626
0.0744132
0.177236
-0.051114
0.174738
-0.140181
0.170275
-0.191739
0.164075
-0.171787
0.154972
-0.180632
0.14659
-0.17099
0.142295
-0.190137
0.143244
-0.108879
0.144655
0.0496848
0.143052
0.183812
0.140762
0.357464
0.142484
0.254061
0.150262
0.220282
0.155093
0.064514
-0.117829
0.207561
-0.00550544
-0.210026
0.204725