/*--------------------------------*- C++ -*----------------------------------*\
| =========                 |                                                 |
| \\      /  F ield         | OpenFOAM: The Open Source CFD Toolbox           |
|  \\    /   O peration     | Version:  2512                                  |
|   \\  /    A nd           | Website:  www.openfoam.com                      |
|    \\/     M anipulation  |                                                 |
\*---------------------------------------------------------------------------*/
FoamFile
{
    version     2.0;
    format      ascii;
    arch        "LSB;label=32;scalar=64";
    class       volScalarField;
    location    "133.75";
    object      p;
}
// * * * * * * * * * * * * * * * * * * * * * * * * * * * * * * * * * * * * * //

dimensions      [0 2 -2 0 0 0 0];

internalField   nonuniform List<scalar> 
13248
(
-0.33035
-0.329143
-0.326661
-0.323181
-0.319007
-0.314416
-0.309671
-0.305044
-0.300766
-0.297023
-0.29393
-0.291526
-0.289758
-0.288495
-0.287535
-0.28663
-0.285514
-0.283935
-0.281669
-0.278577
-0.274421
-0.269293
-0.262121
-0.253657
-0.338457
-0.336412
-0.333298
-0.329355
-0.32484
-0.320011
-0.315098
-0.310298
-0.305765
-0.301598
-0.297829
-0.294422
-0.291279
-0.288251
-0.285165
-0.281842
-0.278124
-0.273883
-0.269027
-0.263489
-0.257186
-0.250078
-0.241857
-0.233271
-0.348687
-0.345555
-0.341626
-0.337089
-0.332127
-0.326959
-0.321746
-0.316591
-0.311544
-0.30661
-0.301754
-0.296907
-0.291984
-0.286893
-0.281556
-0.275913
-0.269927
-0.263581
-0.25686
-0.249754
-0.2422
-0.234226
-0.225613
-0.216942
-0.360935
-0.356514
-0.351619
-0.346368
-0.340835
-0.335168
-0.32943
-0.323605
-0.317639
-0.311473
-0.305055
-0.298357
-0.291376
-0.284133
-0.276664
-0.269014
-0.261224
-0.253321
-0.245311
-0.23718
-0.228899
-0.220479
-0.211792
-0.203394
-0.37512
-0.369265
-0.363298
-0.357232
-0.350981
-0.344583
-0.33798
-0.331038
-0.323642
-0.315734
-0.307332
-0.298515
-0.289404
-0.280129
-0.27081
-0.26154
-0.252376
-0.24334
-0.234427
-0.225614
-0.21687
-0.208185
-0.199483
-0.19112
-0.39116
-0.383777
-0.376678
-0.369706
-0.362541
-0.355077
-0.347132
-0.338509
-0.329115
-0.318994
-0.308305
-0.297268
-0.28611
-0.275028
-0.264166
-0.253607
-0.243387
-0.233501
-0.223924
-0.214618
-0.205545
-0.196679
-0.18797
-0.179648
-0.408887
-0.399938
-0.391677
-0.383679
-0.375316
-0.366315
-0.356428
-0.345502
-0.333583
-0.320904
-0.307793
-0.294588
-0.281571
-0.268939
-0.256807
-0.24522
-0.234173
-0.223633
-0.213553
-0.203882
-0.194575
-0.185589
-0.176894
-0.168583
-0.427962
-0.417469
-0.408019
-0.398809
-0.388839
-0.377708
-0.36522
-0.351409
-0.336573
-0.321168
-0.305664
-0.290452
-0.275801
-0.261859
-0.248683
-0.236263
-0.224556
-0.213503
-0.203038
-0.1931
-0.183632
-0.174586
-0.165936
-0.157665
-0.447814
-0.435861
-0.425178
-0.414473
-0.402367
-0.388446
-0.372739
-0.355612
-0.337668
-0.319556
-0.30182
-0.284826
-0.268776
-0.25374
-0.239704
-0.226612
-0.214384
-0.202937
-0.192191
-0.182073
-0.172516
-0.16347
-0.154897
-0.146701
-0.467613
-0.454337
-0.442331
-0.429741
-0.414897
-0.397562
-0.378178
-0.357532
-0.33651
-0.315875
-0.296154
-0.277631
-0.260408
-0.244469
-0.229739
-0.216115
-0.203489
-0.191758
-0.180828
-0.170612
-0.161038
-0.152048
-0.14358
-0.135503
-0.486284
-0.471851
-0.458364
-0.443416
-0.425234
-0.403994
-0.380698
-0.356556
-0.332657
-0.30978
-0.288359
-0.268562
-0.250381
-0.233724
-0.218457
-0.204442
-0.191545
-0.179647
-0.168637
-0.158419
-0.148911
-0.140043
-0.131723
-0.123828
-0.502617
-0.487228
-0.472069
-0.454256
-0.432184
-0.406681
-0.37939
-0.3519
-0.325399
-0.300587
-0.277759
-0.256946
-0.238036
-0.220861
-0.205238
-0.190997
-0.177982
-0.166056
-0.155096
-0.144996
-0.135669
-0.127031
-0.118963
-0.111392
-0.33476
-0.336898
-0.338093
-0.338745
-0.339231
-0.339686
-0.340187
-0.340786
-0.341512
-0.342385
-0.343425
-0.344669
-0.346163
-0.347974
-0.350183
-0.352885
-0.356182
-0.360174
-0.36495
-0.370572
-0.377058
-0.384329
-0.392222
-0.400688
-0.331664
-0.333085
-0.333786
-0.334035
-0.334117
-0.334167
-0.334279
-0.334526
-0.334965
-0.335648
-0.336634
-0.338
-0.33984
-0.342271
-0.345422
-0.349434
-0.354445
-0.360575
-0.36791
-0.376484
-0.38626
-0.397086
-0.408641
-0.420742
-0.329358
-0.330036
-0.330225
-0.330062
-0.329735
-0.329371
-0.329079
-0.328954
-0.329078
-0.329531
-0.330401
-0.331796
-0.333844
-0.336692
-0.340499
-0.345424
-0.351624
-0.359216
-0.368269
-0.378778
-0.390644
-0.403648
-0.417366
-0.431385
-0.327448
-0.327453
-0.327157
-0.326583
-0.325832
-0.325018
-0.324272
-0.323711
-0.323439
-0.323561
-0.324191
-0.325457
-0.327506
-0.330501
-0.33461
-0.339998
-0.346811
-0.355154
-0.365068
-0.376512
-0.389338
-0.403273
-0.417953
-0.432367
-0.325644
-0.32513
-0.324417
-0.323443
-0.322245
-0.320939
-0.319667
-0.318571
-0.317786
-0.317442
-0.317674
-0.318626
-0.320453
-0.323322
-0.327398
-0.332835
-0.33976
-0.348254
-0.358329
-0.369907
-0.38281
-0.396662
-0.411399
-0.42503
-0.323801
-0.322979
-0.321943
-0.320592
-0.31893
-0.31708
-0.315206
-0.313476
-0.312057
-0.311111
-0.310794
-0.311265
-0.312685
-0.315217
-0.319016
-0.324219
-0.330929
-0.339199
-0.349013
-0.360254
-0.372692
-0.385769
-0.399942
-0.411933
-0.321952
-0.321042
-0.319786
-0.318085
-0.315953
-0.313529
-0.311
-0.308568
-0.306436
-0.304798
-0.303838
-0.303731
-0.304646
-0.306741
-0.31016
-0.315019
-0.32139
-0.329278
-0.338625
-0.349222
-0.361018
-0.372906
-0.386008
-0.395712
-0.320309
-0.319492
-0.318099
-0.316078
-0.313488
-0.310494
-0.307312
-0.304179
-0.301334
-0.299008
-0.297412
-0.296742
-0.297174
-0.298865
-0.301936
-0.306476
-0.312515
-0.320008
-0.328816
-0.338597
-0.349259
-0.35938
-0.370406
-0.376736
-0.319248
-0.318621
-0.317133
-0.314817
-0.311803
-0.30829
-0.304524
-0.300776
-0.297321
-0.294421
-0.292312
-0.291207
-0.291283
-0.29268
-0.295491
-0.299744
-0.30539
-0.312289
-0.320215
-0.328719
-0.337637
-0.345537
-0.353765
-0.35713
-0.319263
-0.318802
-0.31721
-0.314615
-0.311234
-0.307297
-0.303079
-0.29888
-0.294999
-0.291718
-0.289286
-0.287913
-0.287756
-0.288912
-0.291405
-0.295177
-0.300079
-0.30587
-0.312237
-0.31873
-0.325097
-0.330291
-0.335079
-0.335367
-0.320871
-0.320428
-0.318664
-0.315796
-0.312108
-0.307861
-0.303349
-0.298882
-0.294767
-0.291284
-0.288668
-0.287098
-0.28668
-0.287438
-0.289307
-0.292127
-0.295652
-0.299567
-0.303509
-0.307132
-0.310185
-0.312285
-0.313859
-0.312116
-0.324495
-0.323819
-0.321764
-0.318602
-0.314648
-0.31018
-0.305501
-0.300905
-0.29668
-0.293076
-0.290286
-0.288426
-0.287528
-0.287529
-0.288275
-0.289528
-0.29099
-0.292333
-0.293217
-0.293406
-0.292639
-0.291057
-0.288875
-0.285897
-0.411554
-0.42346
-0.432928
-0.438158
-0.43721
-0.428015
-0.409464
-0.38118
-0.344363
-0.301953
-0.258351
-0.218219
-0.185185
-0.1613
-0.147358
-0.143751
-0.150644
-0.166392
-0.18561
-0.199625
-0.20022
-0.184755
-0.158206
-0.129155
-0.104597
-0.0879025
-0.0794836
-0.0781152
-0.0831117
-0.0960091
-0.117463
-0.141452
-0.155735
-0.151132
-0.130822
-0.10507
-0.0834721
-0.0693604
-0.0618459
-0.0607979
-0.0679947
-0.0802286
-0.0875192
-0.0835715
-0.0725893
-0.0608179
-0.0525119
-0.0481356
-0.0494791
-0.053873
-0.0546738
-0.051791
-0.0465472
-0.0390058
-0.0337567
-0.0284621
-0.0245406
-0.0245083
-0.0200377
-0.00597376
-0.436338
-0.451855
-0.46391
-0.470903
-0.470716
-0.461155
-0.44079
-0.409267
-0.367915
-0.320066
-0.270574
-0.224506
-0.185783
-0.156577
-0.137492
-0.128558
-0.129799
-0.140177
-0.155611
-0.16864
-0.171353
-0.160351
-0.139483
-0.115871
-0.0958726
-0.082949
-0.0777527
-0.0792125
-0.0870245
-0.103149
-0.12794
-0.154509
-0.169474
-0.163255
-0.140056
-0.111091
-0.0864569
-0.0696796
-0.0598827
-0.0564452
-0.0610451
-0.0708925
-0.0771214
-0.0738601
-0.0654109
-0.0565476
-0.0507375
-0.0489116
-0.0525786
-0.0593168
-0.0607449
-0.0568931
-0.0501229
-0.0405825
-0.0338809
-0.0265018
-0.0216779
-0.0210077
-0.016893
-0.00503688
-0.450181
-0.468076
-0.481732
-0.489812
-0.4903
-0.480701
-0.459397
-0.425974
-0.381792
-0.330379
-0.276873
-0.226576
-0.1836
-0.150091
-0.126525
-0.112656
-0.108343
-0.113122
-0.124211
-0.135588
-0.140013
-0.133266
-0.118227
-0.100229
-0.0849982
-0.0760674
-0.0742314
-0.0785646
-0.0891286
-0.108191
-0.135844
-0.16463
-0.18039
-0.173095
-0.147569
-0.115887
-0.0886096
-0.0694494
-0.0575891
-0.0519622
-0.0541026
-0.0616478
-0.0668561
-0.0640911
-0.0581262
-0.0519824
-0.0486204
-0.0494341
-0.055552
-0.0647225
-0.0667829
-0.061819
-0.0534502
-0.0419622
-0.0339095
-0.0245841
-0.0188619
-0.0175203
-0.0137554
-0.00410458
-0.452526
-0.471541
-0.486522
-0.49503
-0.496017
-0.486602
-0.465098
-0.431041
-0.385774
-0.332879
-0.277576
-0.225208
-0.179791
-0.143352
-0.116271
-0.0981903
-0.0888104
-0.0879275
-0.0940903
-0.10287
-0.108068
-0.104859
-0.0954298
-0.0828501
-0.07233
-0.0673721
-0.0687939
-0.0758148
-0.0888116
-0.110302
-0.140346
-0.171135
-0.187998
-0.1803
-0.153143
-0.119337
-0.0899154
-0.0687464
-0.0550943
-0.0475402
-0.0474392
-0.0528257
-0.0570631
-0.0544932
-0.050896
-0.0472001
-0.0461719
-0.049637
-0.0582725
-0.0699486
-0.0726664
-0.066497
-0.0564829
-0.0431215
-0.0338326
-0.0227224
-0.016115
-0.014084
-0.0106518
-0.00318478
-0.444758
-0.46334
-0.477594
-0.487677
-0.489231
-0.480137
-0.459042
-0.425525
-0.380895
-0.328677
-0.273907
-0.221625
-0.175545
-0.137547
-0.107977
-0.0864624
-0.0726692
-0.0665246
-0.0674442
-0.0727453
-0.0775535
-0.0765225
-0.0720949
-0.0643782
-0.0582461
-0.0569607
-0.0613286
-0.070707
-0.0856956
-0.109063
-0.140998
-0.173598
-0.191848
-0.184561
-0.156666
-0.121439
-0.0904286
-0.067667
-0.0525273
-0.043332
-0.0412456
-0.0446547
-0.0480489
-0.0479959
-0.0438948
-0.0422734
-0.0433933
-0.0494464
-0.0606066
-0.0748262
-0.0782449
-0.0708485
-0.0591806
-0.0440424
-0.0336414
-0.0209273
-0.0134568
-0.0107337
-0.00760847
-0.00228496
-0.429877
-0.447247
-0.461065
-0.470776
-0.472182
-0.463316
-0.443084
-0.411132
-0.368709
-0.319131
-0.266978
-0.216714
-0.171596
-0.13332
-0.102285
-0.0781984
-0.0607477
-0.0499328
-0.0457327
-0.0469246
-0.0504082
-0.0530162
-0.0493709
-0.0455746
-0.0432388
-0.0450928
-0.0519663
-0.0633017
-0.0798077
-0.104446
-0.137675
-0.171848
-0.191724
-0.185753
-0.158089
-0.122214
-0.0902066
-0.0662875
-0.0499754
-0.0394272
-0.035641
-0.0372774
-0.0397833
-0.0395047
-0.0370894
-0.0372689
-0.0402933
-0.0487975
-0.0624144
-0.0791724
-0.0833642
-0.0748073
-0.0615112
-0.0447102
-0.033323
-0.0192025
-0.0109031
-0.007501
-0.00464737
-0.00141164
-0.41131
-0.42397
-0.437136
-0.446071
-0.447022
-0.438364
-0.419475
-0.390063
-0.351238
-0.305935
-0.258044
-0.211283
-0.168393
-0.130889
-0.0992806
-0.0734671
-0.0532114
-0.0385272
-0.0296704
-0.0264297
-0.0271289
-0.028784
-0.0274272
-0.0272652
-0.0279583
-0.032274
-0.0410973
-0.0539043
-0.0714053
-0.0966614
-0.130559
-0.165975
-0.187732
-0.18386
-0.1574
-0.121704
-0.0893044
-0.0646624
-0.0474935
-0.0358713
-0.0306628
-0.0307536
-0.032413
-0.0319404
-0.0306452
-0.0322715
-0.0369004
-0.0476352
-0.0635649
-0.082823
-0.0878718
-0.0782968
-0.063446
-0.045114
-0.0328689
-0.017544
-0.00846312
-0.00441311
-0.00178528
-0.000570768
-0.386984
-0.397314
-0.407998
-0.415658
-0.415841
-0.407561
-0.390657
-0.364706
-0.330593
-0.290725
-0.248164
-0.205847
-0.166032
-0.130087
-0.098645
-0.0718532
-0.0496371
-0.0320085
-0.0192682
-0.0117461
-0.00893883
-0.00883859
-0.0071942
-0.010329
-0.0130871
-0.0190954
-0.0292106
-0.0429415
-0.060932
-0.0862314
-0.120161
-0.156468
-0.180277
-0.179054
-0.15465
-0.119965
-0.0877663
-0.0628252
-0.0451134
-0.0326853
-0.0263199
-0.0250879
-0.0259892
-0.025344
-0.0246702
-0.027378
-0.0332606
-0.0459282
-0.0639518
-0.0856376
-0.0916139
-0.0812403
-0.0649655
-0.0452506
-0.0322859
-0.0159591
-0.00614087
-0.00149049
0.000966261
0.000231774
-0.362599
-0.367056
-0.375545
-0.381781
-0.381043
-0.373634
-0.359396
-0.337588
-0.308832
-0.274931
-0.238118
-0.200615
-0.164278
-0.130388
-0.0996905
-0.0725633
-0.0491451
-0.0294909
-0.013834
-0.00265502
0.00374122
0.0058211
0.00357077
0.00429304
0.000850291
-0.00606602
-0.0167843
-0.0308708
-0.0488645
-0.0737758
-0.107325
-0.144118
-0.169876
-0.1717
-0.150068
-0.117174
-0.0857623
-0.0609187
-0.0429508
-0.0299457
-0.0226406
-0.0202841
-0.0205149
-0.0197058
-0.0192312
-0.0226929
-0.0294274
-0.0436475
-0.0635098
-0.0875145
-0.0944555
-0.0835868
-0.0660788
-0.0451368
-0.0315912
-0.0144859
-0.00395254
0.00125027
0.00360112
0.000990628
-0.334826
-0.335547
-0.342769
-0.347289
-0.34594
-0.340031
-0.328875
-0.311447
-0.288125
-0.260107
-0.228899
-0.196139
-0.163353
-0.131759
-0.102211
-0.0752586
-0.0512268
-0.0302658
-0.0125548
0.00147766
0.0112385
0.0164413
0.0174416
0.0174213
0.0136557
0.0065059
-0.00424444
-0.0182136
-0.0359122
-0.060192
-0.0928639
-0.129689
-0.157213
-0.162214
-0.144024
-0.113726
-0.0836944
-0.0592728
-0.0412497
-0.0278137
-0.0196802
-0.0163221
-0.01598
-0.0150619
-0.0143853
-0.0182846
-0.0254729
-0.0408555
-0.0621948
-0.0883782
-0.0962924
-0.0853119
-0.0668054
-0.0448088
-0.0307826
-0.0131428
-0.00193218
0.003775
0.00611774
0.00170068
-0.307771
-0.307262
-0.313105
-0.315538
-0.314005
-0.309879
-0.30177
-0.288571
-0.270405
-0.24791
-0.222012
-0.193852
-0.164634
-0.135476
-0.107304
-0.0808174
-0.0565057
-0.0346618
-0.0154718
0.000760567
0.0134738
0.0220699
0.026458
0.0278891
0.024789
0.0182748
0.00813381
-0.00518805
-0.0222123
-0.0457126
-0.0778662
-0.114677
-0.142825
-0.151019
-0.136305
-0.109368
-0.0813621
-0.0576759
-0.0397854
-0.0260946
-0.0172542
-0.0129515
-0.0121361
-0.0113407
-0.0103587
-0.0143618
-0.0214046
-0.0374469
-0.0600529
-0.0883055
-0.0969817
-0.0863133
-0.067046
-0.0442154
-0.0297902
-0.0117998
-5.03481e-05
0.00604801
0.0085099
0.00235707
-0.283588
-0.284966
-0.28791
-0.287086
-0.284835
-0.281516
-0.275366
-0.265376
-0.251364
-0.233517
-0.212312
-0.188471
-0.162873
-0.13647
-0.110173
-0.0847646
-0.0608593
-0.0389024
-0.0192044
-0.00202367
0.012332
0.0234728
0.0308666
0.0328028
0.0336119
0.0283376
0.0192753
0.0069293
-0.00926516
-0.0316976
-0.0624283
-0.0980115
-0.126151
-0.135449
-0.124981
-0.10191
-0.0764787
-0.0541142
-0.0369122
-0.0235268
-0.0145176
-0.00957574
-0.00839237
-0.00780682
-0.00759077
-0.0109509
-0.0176022
-0.0337987
-0.057062
-0.0870158
-0.0965628
-0.0863387
-0.0665256
-0.0430821
-0.028484
-0.010186
0.00185804
0.00820063
0.0107829
0.00294797
-0.262979
-0.273599
-0.273405
-0.269619
-0.265782
-0.26154
-0.255208
-0.245612
-0.232396
-0.21574
-0.196108
-0.174124
-0.150529
-0.126123
-0.101695
-0.0779255
-0.0553531
-0.0343772
-0.0152992
0.00164457
0.0162162
0.0281506
0.0371092
0.0435409
0.043271
0.0393782
0.0318485
0.0210234
0.00595053
-0.0165035
-0.0493558
-0.0883244
-0.118888
-0.129177
-0.116465
-0.0935924
-0.0694808
-0.048567
-0.0325227
-0.019898
-0.0112775
-0.00624018
-0.00486494
-0.00396102
-0.00302014
-0.00612963
-0.012244
-0.0287751
-0.0532126
-0.0857012
-0.0969794
-0.0865427
-0.0656217
-0.0414586
-0.0270032
-0.00842156
0.00371013
0.0103821
0.0129118
0.00347155
-0.239682
-0.253493
-0.253822
-0.248502
-0.24309
-0.238039
-0.231685
-0.222627
-0.210413
-0.195252
-0.1776
-0.157972
-0.136926
-0.11507
-0.0930274
-0.0713737
-0.0505915
-0.0310598
-0.0130778
0.00313223
0.0173945
0.0295257
0.039203
0.0455419
0.0474601
0.0452617
0.0395125
0.0304413
0.0166859
-0.00561482
-0.0395907
-0.0792673
-0.108464
-0.116021
-0.103864
-0.0830427
-0.0615853
-0.0428498
-0.0283139
-0.0167015
-0.00854789
-0.00349243
-0.002041
-0.0011265
-0.000383875
-0.00285114
-0.00834552
-0.0246738
-0.0496632
-0.0834805
-0.0958418
-0.0849992
-0.063808
-0.039397
-0.0251359
-0.00668002
0.00525697
0.0122928
0.0145991
0.00391332
-0.21791
-0.232194
-0.233198
-0.227657
-0.221556
-0.216133
-0.210014
-0.201741
-0.190764
-0.177231
-0.161541
-0.144106
-0.125342
-0.105719
-0.0857488
-0.0659353
-0.0467263
-0.0284866
-0.0115115
0.00396757
0.0177599
0.0296948
0.0395626
0.0463744
0.0493783
0.0484137
0.0440253
0.0362129
0.0231736
0.00082349
-0.032534
-0.0694212
-0.0952226
-0.101216
-0.0905279
-0.0725058
-0.0538879
-0.0373019
-0.0242037
-0.013571
-0.00593452
-0.000954898
0.000572136
0.00146986
0.00231834
-7.49157e-05
-0.00544567
-0.021612
-0.0464856
-0.0800877
-0.0931466
-0.0823986
-0.0613697
-0.0370108
-0.0230271
-0.00493382
0.0067705
0.0140635
0.0160523
0.00433072
-0.198286
-0.211317
-0.212769
-0.207731
-0.201633
-0.196116
-0.190245
-0.182687
-0.172823
-0.160721
-0.146719
-0.131175
-0.114424
-0.0968347
-0.0788185
-0.0607998
-0.0431725
-0.0262744
-0.0103881
0.00425159
0.0174326
0.0289641
0.038536
0.0456869
0.0494856
0.0496093
0.0464152
0.0396995
0.0273874
0.00573682
-0.0254271
-0.0584749
-0.0809091
-0.0857587
-0.0768531
-0.0618154
-0.0461084
-0.0317343
-0.0201074
-0.0104928
-0.00344041
0.00138639
0.00301123
0.00395819
0.00495354
0.00259146
-0.00273975
-0.0186004
-0.0426756
-0.0754374
-0.0891978
-0.0788557
-0.0582847
-0.0343067
-0.0206703
-0.00315374
0.00824616
0.0156636
0.0173336
0.00473063
-0.179264
-0.191245
-0.193066
-0.188699
-0.182928
-0.177528
-0.171945
-0.165053
-0.156229
-0.145457
-0.133015
-0.119211
-0.10432
-0.0886244
-0.0724479
-0.0561414
-0.0400506
-0.0244883
-0.00972651
0.00399978
0.0164674
0.0274561
0.0366781
0.0437833
0.0480366
0.0489661
0.0467479
0.0410542
0.0298186
0.0098958
-0.0180333
-0.0467183
-0.0656247
-0.069954
-0.0632199
-0.0513212
-0.0385115
-0.0263119
-0.0161208
-0.00750543
-0.00107117
0.00353761
0.00526591
0.00629794
0.00741633
0.00518236
8.07929e-05
-0.0150541
-0.0379024
-0.0696009
-0.0838739
-0.074234
-0.0545073
-0.0312867
-0.0180946
-0.00134047
0.00966016
0.0170539
0.0184214
0.00510128
-0.161244
-0.172374
-0.17437
-0.170607
-0.16531
-0.160215
-0.155015
-0.148787
-0.140947
-0.13142
-0.120418
-0.108202
-0.0950019
-0.0810399
-0.0665714
-0.0518863
-0.0372847
-0.0230513
-0.00944319
0.00330946
0.0149859
0.0253442
0.034118
0.0409968
0.0454136
0.0468636
0.0453691
0.0405399
0.0305908
0.0131663
-0.0106286
-0.0344899
-0.0502072
-0.0546487
-0.0502845
-0.0413896
-0.0312641
-0.0211113
-0.0122935
-0.00463568
0.00117013
0.00550442
0.00732509
0.00848199
0.00973031
0.00769502
0.00303182
-0.0110018
-0.0323474
-0.0625636
-0.077104
-0.0684984
-0.050045
-0.0279777
-0.0153424
0.000504191
0.0109945
0.0182005
0.019263
0.0054303
-0.144724
-0.154744
-0.156737
-0.153527
-0.148787
-0.144126
-0.139388
-0.133819
-0.126895
-0.118511
-0.108825
-0.0980557
-0.0863957
-0.0740248
-0.0611458
-0.0479955
-0.0348305
-0.0219051
-0.00945907
0.00228535
0.0131126
0.0227798
0.0310323
0.0375813
0.0419815
0.043759
0.0428097
0.0387335
0.0302201
0.0157707
-0.0035074
-0.0227729
-0.0359852
-0.040755
-0.0385588
-0.0322846
-0.0245107
-0.0162138
-0.0086799
-0.00191742
0.00327802
0.00729942
0.00919734
0.0105209
0.0119164
0.0101291
0.00602383
-0.00665144
-0.0261507
-0.0543839
-0.0689852
-0.0617111
-0.0449405
-0.0244215
-0.012467
0.00237509
0.0122352
0.0190748
0.01981
0.00571263
-0.129331
-0.13825
-0.140227
-0.137546
-0.133384
-0.129212
-0.12497
-0.120042
-0.113966
-0.106629
-0.0981465
-0.0886976
-0.0784457
-0.0675371
-0.0561333
-0.0444272
-0.0326356
-0.0209834
-0.00969033
0.00103108
0.0109724
0.0199068
0.0275901
0.0337472
0.0380238
0.0400054
0.0395129
0.0361976
0.0292332
0.0177515
0.00261106
-0.012717
-0.0238614
-0.0288599
-0.0283453
-0.024176
-0.0183565
-0.0116803
-0.00531955
0.000618086
0.00524642
0.00893772
0.0109005
0.0124242
0.0139923
0.0124919
0.00901412
-0.00206855
-0.0194014
-0.0452851
-0.0597455
-0.0540205
-0.0392789
-0.0206764
-0.00953047
0.00426344
0.0133751
0.0196601
0.020034
0.00595053
-0.114918
-0.12295
-0.124916
-0.122706
-0.119093
-0.115414
-0.111673
-0.107359
-0.10207
-0.0956903
-0.0883054
-0.0800622
-0.0710967
-0.0615289
-0.0514889
-0.0411334
-0.0306449
-0.0202198
-0.0100566
-0.000353573
0.00869259
0.0168697
0.0239503
0.0296792
0.0337685
0.0358723
0.0357904
0.0332465
0.0277589
0.018837
0.00712928
-0.00492612
-0.0142306
-0.0191239
-0.0197235
-0.0171269
-0.0128612
-0.0075541
-0.00224094
0.00294268
0.00706523
0.0104296
0.0124513
0.0141912
0.0159817
0.0148311
0.0120601
0.00274808
-0.0122878
-0.0356177
-0.0497289
-0.0456729
-0.0331947
-0.016814
-0.00659704
0.00615306
0.0144184
0.0199642
0.0199365
0.00615297
-0.101659
-0.108885
-0.110786
-0.108979
-0.105875
-0.102676
-0.0994212
-0.095688
-0.0911245
-0.0856186
-0.0792323
-0.0720857
-0.0642924
-0.055951
-0.0471668
-0.0380675
-0.0288059
-0.0195514
-0.0104805
-0.00177369
0.0063875
0.0138027
0.0202662
0.02555
0.0294158
0.0315802
0.0318527
0.0300178
0.0258075
0.018975
0.0100361
0.000694564
-0.00691058
-0.0113994
-0.012617
-0.0111228
-0.00804785
-0.00386342
0.000537387
0.00503424
0.0087196
0.011781
0.013858
0.0158039
0.017898
0.0172329
0.0152527
0.00772888
-0.0051206
-0.0258429
-0.0393842
-0.0369946
-0.0268694
-0.0129153
-0.00372657
0.00801451
0.0153825
0.0200295
0.0195609
0.00633653
-0.0898641
-0.096062
-0.0977992
-0.096334
-0.093697
-0.0909484
-0.0881531
-0.0849592
-0.0810592
-0.076346
-0.0708635
-0.0647104
-0.0579812
-0.0507573
-0.0431242
-0.0351857
-0.027069
-0.0189188
-0.0108897
-0.00314341
0.00415566
0.0108243
0.0166769
0.021513
0.0251334
0.0273079
0.0278706
0.0266556
0.0235262
0.0183968
0.011679
0.00455362
-0.0015175
-0.0054178
-0.0068759
-0.00610394
-0.00391033
-0.000622926
0.00300527
0.0068797
0.0101895
0.0129926
0.0151204
0.0172363
0.0197017
0.0197401
0.018623
0.0127114
0.00169389
-0.0165049
-0.0292249
-0.0283528
-0.0205215
-0.00906768
-0.000968063
0.00980068
0.0162931
0.0199364
0.0190021
0.0065258
-0.0787066
-0.0842066
-0.0858622
-0.0847181
-0.082512
-0.0801813
-0.0778109
-0.0751098
-0.0718103
-0.0678111
-0.0631424
-0.0578846
-0.0521166
-0.0459057
-0.039321
-0.0324471
-0.0253888
-0.0182689
-0.0112213
-0.00438806
0.002084
0.0080335
0.0132946
0.0176916
0.0210573
0.0232069
0.0240039
0.023324
0.0211086
0.017365
0.0124224
0.00708242
0.00235063
-0.000883112
-0.00232522
-0.00198633
-0.000420512
0.00216563
0.00515793
0.00847728
0.0114553
0.0140523
0.0162265
0.0184695
0.0212942
0.0222054
0.0219805
0.0173643
0.00770068
-0.00809791
-0.0197288
-0.0201275
-0.0143946
-0.00536164
0.00163864
0.0114485
0.0171693
0.019792
0.0184
0.0067486
-0.0685807
-0.0734235
-0.0749786
-0.0741
-0.0722741
-0.0703225
-0.068338
-0.0660811
-0.0633194
-0.0599583
-0.0560172
-0.0515615
-0.0466566
-0.041358
-0.0357217
-0.0298161
-0.0237273
-0.0175579
-0.0114229
-0.00544631
0.000244098
0.00551149
0.0102085
0.0141828
0.0172946
0.0193967
0.0203792
0.020154
0.0187021
0.0160738
0.0125433
0.00865671
0.00506391
0.00248809
0.00121131
0.00132508
0.00246448
0.00451382
0.00699451
0.00983107
0.0125081
0.0149389
0.0171392
0.0194755
0.0225783
0.0242524
0.0247976
0.0211442
0.0125132
-0.000940933
-0.01125
-0.0126522
-0.00873098
-0.00188702
0.00405331
0.0128811
0.0180073
0.0197027
0.0179043
0.00702056
-0.0594329
-0.0636583
-0.0650828
-0.0644218
-0.0629304
-0.0613188
-0.0596808
-0.057819
-0.0555336
-0.0527378
-0.0494425
-0.0457
-0.0415645
-0.0370817
-0.0322967
-0.0272643
-0.0220549
-0.0167536
-0.011457
-0.00627119
-0.00130689
0.00331883
0.00748251
0.0110572
0.0139215
0.0159582
0.017082
0.0172293
0.0164019
0.0146673
0.0122594
0.00957847
0.00690168
0.00492998
0.00389722
0.00392913
0.00479676
0.00644456
0.00851932
0.010947
0.013347
0.0156289
0.0178125
0.0201912
0.0234893
0.0255402
0.026501
0.0235636
0.0159468
0.00480601
-0.00403246
-0.00616
-0.00373197
0.00127531
0.00623073
0.0140133
0.0187522
0.0197466
0.0176075
0.00732141
-0.0511424
-0.0547998
-0.0561028
-0.0556256
-0.0544262
-0.0531165
-0.0517862
-0.0502724
-0.0484048
-0.0461051
-0.0433779
-0.0402644
-0.0368094
-0.0330501
-0.0290226
-0.0247708
-0.0203514
-0.015834
-0.011299
-0.00683483
-0.00253629
0.00149579
0.00516155
0.00836043
0.0109852
0.012941
0.014162
0.014602
0.014273
0.0132417
0.0117071
0.0101208
0.00805692
0.00662985
0.00587952
0.00592416
0.00663343
0.00798857
0.00974353
0.011832
0.0139749
0.0161011
0.0182092
0.0205293
0.0240267
0.025831
0.0268781
0.0245351
0.0180583
0.00910068
0.00176157
-0.000788652
0.000479034
0.00406018
0.00812473
0.0147786
0.0192785
0.0199256
0.0174809
0.00758347
-0.0436353
-0.046802
-0.0479944
-0.0476679
-0.0467178
-0.0456682
-0.0446042
-0.0433926
-0.0418875
-0.0400189
-0.0377866
-0.0352231
-0.0323646
-0.0292415
-0.0258824
-0.0223217
-0.0186049
-0.0147879
-0.0109368
-0.00712519
-0.00343227
6.00344e-05
0.00326834
0.00611623
0.00850739
0.0103668
0.0116437
0.0123035
0.0123567
0.0118473
0.0108728
0.00947206
0.00858309
0.00773863
0.00729005
0.00740544
0.00803427
0.00918187
0.0106852
0.0124934
0.0143982
0.0163523
0.0183145
0.0203572
0.0224238
0.0251484
0.0261883
0.0243571
0.0190717
0.0120468
0.00610545
0.00343122
0.00387317
0.00641922
0.00969804
0.0151659
0.0194335
0.0201024
0.0173523
0.00770403
-0.0368722
-0.0396058
-0.0406873
-0.0404829
-0.0397438
-0.0389176
-0.038083
-0.0371312
-0.035938
-0.0344406
-0.0326358
-0.0305487
-0.0282087
-0.0256398
-0.0228649
-0.0199105
-0.0168124
-0.013615
-0.0103717
-0.00714193
-0.00399171
-0.000987931
0.00179686
0.00432298
0.00648775
0.0082374
0.00953277
0.0103477
0.0106906
0.0105932
0.0101457
0.00945849
0.00889529
0.00844077
0.00825461
0.00846306
0.00905971
0.010063
0.0113678
0.0129418
0.0146273
0.0163991
0.0181876
0.0200308
0.0219861
0.0240574
0.024881
0.023456
0.0192839
0.0138725
0.0091539
0.00658802
0.00650608
0.00831668
0.01092
0.0152196
0.0191205
0.0200094
0.0169555
0.00757427
-0.0307948
-0.033143
-0.0341192
-0.0340153
-0.0334494
-0.0328129
-0.032174
-0.0314432
-0.0305153
-0.0293345
-0.0278954
-0.0262174
-0.0243238
-0.0222336
-0.0199645
-0.0175369
-0.0149781
-0.0123232
-0.00961448
-0.00689851
-0.0042275
-0.00165309
0.000781237
0.00297075
0.00490908
0.00653676
0.00781855
0.00873208
0.00928346
0.00949737
0.00944646
0.00921986
0.00899239
0.00884178
0.00887352
0.00917731
0.00976851
0.0106711
0.0118181
0.0131944
0.0146786
0.0162622
0.0178622
0.019501
0.0211728
0.0227277
0.0233021
0.022191
0.0189787
0.0148576
0.0111646
0.00881964
0.00847785
0.00973822
0.011767
0.0149867
0.0183228
0.0193896
0.0160645
0.00713616
-0.0253343
-0.0273467
-0.0282268
-0.0282057
-0.027794
-0.0273107
-0.0268328
-0.0262862
-0.025581
-0.0246675
-0.0235382
-0.0222081
-0.0206955
-0.0190148
-0.0171797
-0.0152054
-0.013113
-0.010929
-0.0086864
-0.00642189
-0.004177
-0.00199551
7.92151e-05
0.00199837
0.00373225
0.00523409
0.00647543
0.00743858
0.00812811
0.00856414
0.00879279
0.0088823
0.0089339
0.00902191
0.00922851
0.00961812
0.0102155
0.0110451
0.0120647
0.0132733
0.0145741
0.0159682
0.0173696
0.0187916
0.0201507
0.0213072
0.021667
0.0207987
0.0183693
0.015257
0.0123945
0.0104075
0.00989835
0.0107045
0.0122373
0.0145151
0.0171178
0.0181555
0.0146424
0.00642522
-0.0204396
-0.0221613
-0.0229524
-0.0229953
-0.0227101
-0.0223649
-0.0220182
-0.0216211
-0.0210988
-0.0204079
-0.019539
-0.0185022
-0.0173115
-0.0159782
-0.0145124
-0.0129251
-0.011232
-0.009453
-0.00761358
-0.00574229
-0.00387129
-0.00203441
-0.000268155
0.0013979
0.00292208
0.00429022
0.00546819
0.00644069
0.00721048
0.00778723
0.00821042
0.00851715
0.008778
0.00904619
0.00938668
0.00984599
0.0104506
0.0112237
0.0121387
0.0132024
0.014337
0.0155504
0.0167543
0.0179565
0.0190305
0.0198867
0.0200912
0.0194112
0.0175961
0.0152576
0.0130618
0.0114215
0.0108424
0.0112663
0.0123602
0.0138603
0.0156438
0.0161748
0.0128508
0.00555298
-0.0160639
-0.0175328
-0.0182416
-0.0183333
-0.0181517
-0.0179198
-0.0176891
-0.0174135
-0.0170366
-0.0165278
-0.0158748
-0.0150831
-0.0141625
-0.0131214
-0.0119668
-0.0107067
-0.00935267
-0.00791946
-0.00642616
-0.00489424
-0.00334812
-0.00181337
-0.000317803
0.00111195
0.00245139
0.00367092
0.00476234
0.00570994
0.00651282
0.00717344
0.00771669
0.00816633
0.00857137
0.00896703
0.00940314
0.00991262
0.0105198
0.0112448
0.0120708
0.0130077
0.0139933
0.0150385
0.0160555
0.0170527
0.0178892
0.018522
0.0186255
0.0180929
0.0167482
0.0149939
0.0133155
0.0119682
0.0113811
0.0114915
0.0121925
0.0130806
0.014077
0.0141633
0.0109757
0.00465302
-0.0121583
-0.0134089
-0.0140431
-0.0141717
-0.0140741
-0.0139344
-0.0137975
-0.0136283
-0.0133775
-0.0130123
-0.0125295
-0.011938
-0.0112406
-0.0104425
-0.00954813
-0.00856265
-0.00749438
-0.00635391
-0.00515505
-0.00391362
-0.00264832
-0.00137865
-0.000125423
0.00109118
0.00225111
0.0033357
0.00433106
0.00522643
0.00602096
0.00671371
0.00732027
0.00785408
0.00834864
0.00882607
0.00932306
0.0098622
0.0104637
0.0111438
0.0118906
0.0127157
0.0135686
0.0144607
0.0153092
0.0161266
0.0167751
0.0172429
0.0172867
0.0168694
0.015876
0.0145572
0.0132687
0.0121554
0.0115856
0.011453
0.0118021
0.0122167
0.0124917
0.0121862
0.0092148
0.0038231
-0.00867923
-0.00974243
-0.0103095
-0.0104653
-0.010435
-0.0103695
-0.0103075
-0.0102216
-0.0100714
-0.00983166
-0.00949518
-0.00906204
-0.00854263
-0.00794268
-0.00726308
-0.00650596
-0.00567615
-0.00478117
-0.00383119
-0.00283747
-0.00181379
-0.000774491
0.000264996
0.00128945
0.0022832
0.0032317
0.0041239
0.00495048
0.00570885
0.00639631
0.00702283
0.00759483
0.00813464
0.00865537
0.00918285
0.00973185
0.0103176
0.0109525
0.0116273
0.0123529
0.0130883
0.0138446
0.0145469
0.015211
0.0157146
0.0160612
0.0160728
0.0157446
0.0150073
0.0140074
0.0130099
0.0120778
0.011524
0.0112154
0.0112564
0.0113065
0.0110608
0.0103823
0.00766721
0.00311044
-0.00558798
-0.0064907
-0.00699731
-0.00717208
-0.00719506
-0.00718886
-0.00718604
-0.00716535
-0.00709434
-0.0069518
-0.00673099
-0.0064337
-0.00606431
-0.0056248
-0.00511892
-0.00454873
-0.0039165
-0.00322628
-0.0024849
-0.00170053
-0.00088315
-4.29903e-05
0.000808624
0.0016603
0.00250015
0.00331704
0.00410211
0.0048474
0.00554977
0.00620547
0.00681992
0.00739533
0.0079459
0.00847869
0.00901101
0.00955204
0.0101119
0.0106997
0.0113076
0.0119444
0.012576
0.0132138
0.0137923
0.0143272
0.0147205
0.0149782
0.0149734
0.0147129
0.0141592
0.0133888
0.0126023
0.0118083
0.0112606
0.0108334
0.0106155
0.010381
0.00977487
0.00881702
0.00636239
0.00252536
-0.00284849
-0.00361412
-0.00406663
-0.00425393
-0.00431852
-0.00435899
-0.00440247
-0.00443267
-0.00442361
-0.00435782
-0.00422931
-0.00403896
-0.00378954
-0.00348299
-0.00312055
-0.00270294
-0.00223228
-0.00171142
-0.00114383
-0.000535398
0.000106956
0.000775911
0.00146328
0.00216099
0.00286027
0.00355245
0.00423039
0.00488748
0.00552054
0.00612545
0.00670452
0.00725745
0.00779256
0.00831302
0.00882951
0.00934727
0.00987222
0.0104104
0.0109545
0.0115114
0.0120524
0.012588
0.0130631
0.0134843
0.0137985
0.0139906
0.0139778
0.0137663
0.0133405
0.0127333