/*--------------------------------*- C++ -*----------------------------------*\
| =========                 |                                                 |
| \\      /  F ield         | OpenFOAM: The Open Source CFD Toolbox           |
|  \\    /   O peration     | Version:  2512                                  |
|   \\  /    A nd           | Website:  www.openfoam.com                      |
|    \\/     M anipulation  |                                                 |
\*---------------------------------------------------------------------------*/
FoamFile
{
    version     2.0;
    format      ascii;
    arch        "LSB;label=32;scalar=64";
    class       volVectorField;
    location    "49.25";
    object      U;
}
// * * * * * * * * * * * * * * * * * * * * * * * * * * * * * * * * * * * * * //

dimensions      [0 1 -1 0 0 0 0];

internalField   nonuniform List<vector> 
13248
(
(-0.0119471 0.0108742 5.84666e-20)
(-0.0229842 0.0227518 0)
(-0.0222644 0.028571 -1.10631e-19)
(-0.0104774 0.0305064 1.04218e-19)
(0.0119334 0.0302161 9.76033e-20)
(0.0446583 0.0289621 0)
(0.0874355 0.0276919 0)
(0.139945 0.027112 2.3402e-19)
(0.201687 0.0277353 -1.6413e-21)
(0.271867 0.0299058 -2.03547e-19)
(0.349322 0.0338081 1.87422e-19)
(0.432498 0.0394703 -1.17032e-19)
(0.519489 0.0467698 0)
(0.608132 0.0554461 -1.98265e-19)
(0.69614 0.0651236 3.69561e-19)
(0.781251 0.0753435 -8.71437e-20)
(0.861382 0.0856058 -1.56566e-19)
(0.934754 0.095391 1.46973e-19)
(1.00001 0.104284 0)
(1.05617 0.111681 0)
(1.10316 0.117875 0)
(1.13987 0.120911 0)
(1.1702 0.124854 4.76886e-20)
(1.18786 0.119981 1.79522e-19)
(-0.0119982 0.00979211 -1.76696e-19)
(-0.0197579 0.0192591 1.20591e-19)
(-0.0124647 0.0233213 -1.04345e-21)
(0.00873978 0.0242223 -1.59406e-19)
(0.0431324 0.0237048 -9.74982e-20)
(0.0901384 0.0231121 -9.21637e-20)
(0.149114 0.0234258 -1.68842e-19)
(0.219169 0.0253315 1.59693e-19)
(0.299 0.0292558 0)
(0.386796 0.0353801 9.6496e-22)
(0.480233 0.0436484 2.14515e-21)
(0.576569 0.0537843 1.17339e-19)
(0.672831 0.0653248 0)
(0.76604 0.0776707 0)
(0.853452 0.0901507 1.36135e-19)
(0.932759 0.10209 -2.55612e-19)
(1.00225 0.112875 1.54065e-19)
(1.06089 0.122004 -1.44634e-19)
(1.10834 0.12913 -6.49188e-20)
(1.14499 0.134033 -1.19483e-19)
(1.17149 0.136804 -5.20213e-20)
(1.18971 0.137058 -9.8287e-20)
(1.20028 0.136698 1.4127e-19)
(1.20552 0.13133 4.20197e-20)
(-0.0111329 0.00824571 0)
(-0.0133937 0.0148019 0)
(0.0030713 0.0171683 5.63926e-20)
(0.0365626 0.0175405 5.19121e-20)
(0.0859188 0.0176746 -1.34384e-21)
(0.15004 0.0189336 -9.5201e-20)
(0.227516 0.0222439 0)
(0.316393 0.0281371 -7.93031e-20)
(0.414051 0.0367777 7.4395e-20)
(0.517217 0.0479816 6.23353e-22)
(0.62216 0.0612546 -1.26406e-19)
(0.724994 0.0758617 -1.15582e-19)
(0.822041 0.0909246 2.11796e-21)
(0.91017 0.105533 -9.57752e-20)
(0.987052 0.118851 2.29405e-19)
(1.05131 0.130207 0)
(1.10254 0.139152 -1.50971e-19)
(1.14124 0.145472 7.26836e-20)
(1.16866 0.149205 6.4856e-20)
(1.18649 0.150509 0)
(1.19681 0.149883 5.44624e-20)
(1.20159 0.147293 -1.93177e-19)
(1.20235 0.144506 1.8134e-19)
(1.20245 0.138473 1.19998e-19)
(-0.00902902 0.00627861 -6.27515e-20)
(-0.00303289 0.00962479 -6.49112e-20)
(0.0256066 0.0106574 5.85911e-20)
(0.0744646 0.0113596 0)
(0.14166 0.013381 0)
(0.225137 0.0179772 -2.03687e-21)
(0.322165 0.0258398 0)
(0.429154 0.0371146 -2.42287e-19)
(0.541711 0.051449 2.24855e-19)
(0.654948 0.0680657 -2.77259e-19)
(0.763958 0.0858881 6.33267e-20)
(0.864352 0.103707 0)
(0.952708 0.120356 1.05789e-19)
(1.02686 0.134865 -1.96155e-19)
(1.08598 0.146566 4.64431e-20)
(1.1305 0.155134 1.20986e-19)
(1.16186 0.160575 -4.34711e-21)
(1.18216 0.163163 -1.36366e-19)
(1.19385 0.163349 0)
(1.19932 0.161647 0)
(1.20071 0.158659 -5.05083e-20)
(1.19965 0.154548 4.5959e-20)
(1.19745 0.150723 1.68771e-19)
(1.19501 0.144487 -1.58412e-19)
(-0.0053316 0.0039925 -6.63536e-20)
(0.0121926 0.00414014 -6.59693e-20)
(0.0562825 0.00458238 1.85507e-19)
(0.123529 0.00686493 -1.1229e-19)
(0.210888 0.0123356 1.05699e-19)
(0.314749 0.0219147 1.9159e-19)
(0.430425 0.0357703 -1.35383e-19)
(0.552224 0.0533506 -1.64514e-19)
(0.673901 0.0735247 3.33518e-21)
(0.78937 0.0947933 2.10102e-19)
(0.893454 0.115551 0)
(0.982469 0.13435 5.81921e-20)
(1.05451 0.150099 0)
(1.10945 0.162179 -9.54183e-20)
(1.1486 0.170445 1.34053e-19)
(1.17433 0.175155 9.46499e-22)
(1.18949 0.176838 -3.5837e-20)
(1.19698 0.176153 6.70739e-20)
(1.19937 0.173758 5.88747e-20)
(1.19868 0.170218 -5.33784e-20)
(1.19637 0.166 5.04963e-20)
(1.19334 0.161267 -4.5948e-20)
(1.19 0.156863 0)
(1.18718 0.15068 -3.62043e-20)
(0.000324123 0.00156256 6.63442e-20)
(0.0330706 -0.00104487 6.97277e-20)
(0.095939 -3.45809e-06 -6.21712e-20)
(0.184159 0.00548684 1.15679e-19)
(0.292924 0.0161657 -1.08883e-19)
(0.416379 0.0322674 9.82484e-20)
(0.547387 0.0530589 -4.72327e-20)
(0.678113 0.0769864 1.23582e-19)
(0.80104 0.102022 -7.78401e-20)
(0.910018 0.126067 1.38204e-19)
(1.00101 0.14733 -3.19459e-19)
(1.07238 0.164589 1.17795e-19)
(1.12468 0.177288 -1.03485e-19)
(1.16013 0.18549 9.71994e-20)
(1.18193 0.189719 8.47545e-20)
(1.19356 0.19075 7.50509e-20)
(1.19823 0.18942 -2.09491e-19)
(1.19857 0.18648 1.30188e-19)
(1.19648 0.182525 -5.88765e-20)
(1.19322 0.177971 1.56141e-19)
(1.18952 0.173093 -5.02438e-20)
(1.18576 0.167993 -1.26157e-19)
(1.18211 0.163129 1.17018e-19)
(1.17889 0.15703 3.61915e-20)
(0.00827816 -0.000753438 0)
(0.0601925 -0.00513197 6.24322e-22)
(0.14491 -0.00184308 1.30331e-19)
(0.255806 0.00875397 -1.22205e-19)
(0.385621 0.0263527 -1.09918e-19)
(0.525703 0.0500489 2.04241e-19)
(0.666406 0.0778442 -9.48246e-20)
(0.798433 0.107054 1.26426e-19)
(0.914306 0.134933 -2.61398e-21)
(1.00938 0.159228 -7.18339e-20)
(1.08211 0.178513 1.57234e-19)
(1.13369 0.192278 -2.3269e-19)
(1.16718 0.200792 0)
(1.18655 0.204848 -4.61676e-20)
(1.19583 0.205463 -1.23906e-19)
(1.19853 0.203644 3.89761e-20)
(1.19735 0.200234 1.28741e-21)
(1.19413 0.19586 -8.78183e-20)
(1.19003 0.190938 4.47044e-21)
(1.18569 0.185725 1.02048e-19)
(1.18143 0.180364 -4.62399e-20)
(1.1774 0.174935 -1.83878e-20)
(1.17359 0.169636 5.51434e-20)
(1.17015 0.16357 0)
(0.0187984 -0.00261384 0)
(0.0938215 -0.00716499 3.5396e-20)
(0.202828 0.000418718 -1.70648e-19)
(0.336784 0.0180913 6.19001e-20)
(0.485382 0.0439509 -5.82594e-20)
(0.637037 0.0755022 -5.32992e-20)
(0.780275 0.109305 -9.41151e-20)
(0.905756 0.141753 4.69749e-20)
(1.00774 0.16991 4.07788e-20)
(1.08447 0.191997 0)
(1.13758 0.20747 9.38575e-20)
(1.17089 0.216781 -1.40372e-19)
(1.18916 0.220995 1.04438e-19)
(1.19702 0.22139 4.61904e-20)
(1.19833 0.219165 -3.83681e-20)
(1.19594 0.215285 -3.24276e-20)
(1.19173 0.210433 -3.04558e-20)
(1.18684 0.205052 9.03617e-20)
(1.18186 0.199404 0)
(1.1771 0.193636 4.6563e-20)
(1.17264 0.187829 4.01075e-20)
(1.1685 0.182036 -9.85056e-20)
(1.16462 0.176293 -6.91958e-20)
(1.16105 0.170225 6.38499e-20)
(0.0320261 -0.00360537 -3.86015e-20)
(0.133769 -0.00609923 -1.60231e-21)
(0.2685 0.00808591 3.47828e-20)
(0.424283 0.0345987 9.72561e-20)
(0.587525 0.0693722 2.82939e-20)
(0.744274 0.108041 -5.47357e-20)
(0.882671 0.145909 4.98849e-20)
(0.995149 0.179029 -4.37272e-20)
(1.07917 0.204989 7.87318e-20)
(1.13649 0.22305 3.36186e-20)
(1.17162 0.233787 -9.55992e-20)
(1.19015 0.238548 2.81954e-20)
(1.19741 0.238913 4.84316e-20)
(1.19779 0.236334 -2.37848e-20)
(1.19441 0.231943 0)
(1.18929 0.226524 3.58783e-20)
(1.1836 0.22057 6.12457e-20)
(1.17795 0.214365 1.08701e-20)
(1.17261 0.208064 -5.14121e-20)
(1.16767 0.201752 2.17343e-20)
(1.16314 0.195475 0)
(1.15896 0.189255 -1.74217e-20)
(1.15505 0.183066 -1.67962e-20)
(1.15136 0.176911 0)
(0.0479199 -0.00326983 0)
(0.179298 -0.000900852 2.02714e-20)
(0.339882 0.0222441 3.74391e-20)
(0.514593 0.0588695 -9.94734e-20)
(0.686937 0.102316 3.22343e-20)
(0.841937 0.146429 0)
(0.969246 0.185854 4.84481e-20)
(1.06467 0.217113 -6.7708e-20)
(1.12958 0.238967 -3.94166e-20)
(1.16899 0.251991 1.77862e-20)
(1.18937 0.257815 -2.87519e-20)
(1.19698 0.258392 6.96549e-20)
(1.1969 0.255507 3.50145e-20)
(1.19272 0.250539 -2.4257e-20)
(1.18674 0.244427 -2.18539e-21)
(1.18023 0.23775 -6.71513e-20)
(1.17385 0.230831 3.06421e-20)
(1.16788 0.223846 -8.28422e-22)
(1.1624 0.216882 0)
(1.15743 0.209989 -2.17571e-20)
(1.15291 0.203192 0)
(1.14874 0.196486 5.02754e-20)
(1.14485 0.189852 -6.02276e-20)
(1.1411 0.183516 2.76033e-20)
(0.06621 -0.00114121 -1.06775e-20)
(0.22909 0.00934479 -5.11562e-20)
(0.414188 0.0436162 5.82956e-20)
(0.603518 0.0908993 3.41592e-20)
(0.778809 0.141854 -1.62699e-20)
(0.925956 0.189082 2.74476e-20)
(1.03792 0.227467 -1.3291e-20)
(1.1148 0.254783 2.21726e-20)
(1.16172 0.271338 0)
(1.18608 0.278996 5.04206e-20)
(1.19527 0.28016 -2.06507e-21)
(1.19535 0.277068 -4.0735e-20)
(1.19064 0.271457 1.74625e-20)
(1.18385 0.264503 -1.97548e-20)
(1.1765 0.256918 -7.54834e-21)
(1.16934 0.249097 8.71437e-21)
(1.16268 0.241243 -6.73522e-21)
(1.15662 0.233457 -3.69202e-20)
(1.15115 0.22579 2.26254e-20)
(1.14624 0.218271 4.65617e-21)
(1.14179 0.210908 4.13041e-21)
(1.13771 0.203675 3.66983e-21)
(1.13387 0.196612 0)
(1.13012 0.189977 0)
(0.0864432 0.00322166 1.06848e-20)
(0.28141 0.0253442 -1.06514e-20)
(0.488284 0.0724612 -1.94425e-20)
(0.687017 0.130086 0)
(0.859331 0.18662 -8.09977e-21)
(0.993977 0.234375 -7.33768e-21)
(1.08847 0.269431 -1.25416e-20)
(1.14731 0.291353 0)
(1.17864 0.302062 0)
(1.19119 0.30446 0)
(1.19237 0.301392 0)
(1.18754 0.295109 0)
(1.18009 0.287148 -1.09621e-20)
(1.17192 0.278438 4.9906e-21)
(1.16394 0.269483 8.70092e-21)
(1.15655 0.260538 4.08107e-21)
(1.14986 0.251721 1.01017e-20)
(1.14387 0.243088 0)
(1.13855 0.234669 -2.4433e-21)
(1.1338 0.226476 -2.36969e-21)
(1.12952 0.218499 -4.13701e-21)
(1.12561 0.210715 -3.67571e-21)
(1.12192 0.203234 0)
(1.11828 0.196179 2.68661e-21)
(-0.000918721 -0.0064391 6.65608e-21)
(-0.00516117 -0.0140037 -6.91061e-21)
(-0.0132172 -0.0178841 -1.30875e-20)
(-0.0232351 -0.0191053 0)
(-0.0341717 -0.0185103 -1.75357e-20)
(-0.0454807 -0.0167469 5.52045e-21)
(-0.0567837 -0.0142673 -1.03716e-20)
(-0.06782 -0.0113493 0)
(-0.0784243 -0.00813006 0)
(-0.088495 -0.00464371 0)
(-0.0979686 -0.000858641 0)
(-0.106803 0.00329132 0)
(-0.114966 0.00788358 5.3239e-23)
(-0.122432 0.0129893 -6.79399e-21)
(-0.129171 0.0186662 1.26438e-20)
(-0.135152 0.024954 1.78333e-20)
(-0.140344 0.0318718 5.49188e-21)
(-0.144724 0.0394178 0)
(-0.14828 0.0475715 4.91639e-21)
(-0.151028 0.0562952 -1.3721e-20)
(-0.153011 0.0655367 -8.51557e-21)
(-0.1543 0.0752373 -7.96243e-21)
(-0.155051 0.0853576 0)
(-0.155673 0.095876 0)
(-0.000819201 -0.00299505 -1.99532e-20)
(-0.00494579 -0.00588831 3.44615e-20)
(-0.0128627 -0.00672606 -1.29186e-20)
(-0.0226972 -0.00605635 -2.46382e-20)
(-0.0333825 -0.00439574 3.48609e-20)
(-0.0443519 -0.00215807 -2.19101e-20)
(-0.0552154 0.000379303 3.09768e-20)
(-0.0657069 0.003065 1.93473e-20)
(-0.075659 0.00584948 0)
(-0.0849691 0.00875611 -1.7261e-20)
(-0.0935728 0.0118518 9.89633e-24)
(-0.101426 0.0152215 1.52612e-20)
(-0.108494 0.0189499 2.13145e-20)
(-0.114745 0.0231113 2.66796e-20)
(-0.120146 0.0277634 -1.26827e-20)
(-0.124659 0.0329464 -3.53199e-20)
(-0.128248 0.0386856 1.08273e-20)
(-0.130879 0.0449952 -4.09239e-20)
(-0.132528 0.0518846 0)
(-0.133193 0.0593645 9.09342e-21)
(-0.132898 0.0674523 8.50395e-21)
(-0.131658 0.0761797 7.95137e-21)
(-0.129538 0.0856186 0)
(-0.127192 0.0958746 0)
(-0.0010965 0.000272558 0)
(-0.00550409 0.00179895 6.84832e-20)
(-0.0133404 0.00381646 -2.58505e-20)
(-0.0228318 0.00622351 2.454e-20)
(-0.032955 0.00881982 -6.91441e-20)
(-0.0431598 0.0114213 0)
(-0.0530688 0.013921 -4.09432e-20)
(-0.0624268 0.0162894 1.91803e-20)
(-0.0710745 0.0185595 -3.60888e-20)
(-0.0789147 0.0208078 1.67993e-20)
(-0.0858863 0.0231332 9.55998e-20)
(-0.0919466 0.025638 -4.48919e-20)
(-0.0970602 0.0284149 -7.02101e-20)
(-0.101193 0.0315398 -2.59845e-20)
(-0.104307 0.0350696 1.75674e-22)
(-0.106361 0.0390434 9.21217e-20)
(-0.107311 0.043488 -4.31612e-20)
(-0.107107 0.048425 3.7553e-22)
(-0.105703 0.0538807 0)
(-0.103065 0.0598999 -3.47472e-20)
(-0.0991782 0.066563 0)
(-0.0939915 0.0740028 -3.08097e-20)
(-0.0873765 0.0824198 1.14486e-19)
(-0.0800609 0.0920914 8.77008e-23)
(-0.00170385 0.00320058 0)
(-0.00675903 0.00869276 -2.18284e-23)
(-0.0146012 0.0132606 2.58213e-20)
(-0.0236415 0.0171852 -2.43661e-20)
(-0.0329519 0.0205527 2.2983e-20)
(-0.0420298 0.0233925 1.29776e-19)
(-0.0505326 0.025757 -4.07184e-20)
(-0.0582306 0.0277298 -3.82005e-20)
(-0.0649824 0.0294203 7.19261e-20)
(-0.070703 0.0309536 -1.01259e-19)
(-0.0753383 0.0324577 3.15716e-20)
(-0.0788496 0.0340508 2.95256e-20)
(-0.0812028 0.0358333 0)
(-0.0823631 0.0378833 2.6122e-20)
(-0.0822911 0.040256 0)
(-0.0809425 0.0429871 4.50612e-20)
(-0.0782662 0.0460977 -8.44226e-20)
(-0.0742041 0.0496026 2.04227e-20)
(-0.0686901 0.0535226 7.39429e-20)
(-0.061656 0.0579034 3.4714e-20)
(-0.053051 0.0628451 0)
(-0.0428188 0.0685464 -8.98984e-20)
(-0.030684 0.0754525 2.83612e-20)
(-0.0165518 0.0845086 0)
(-0.00257712 0.00568887 0)
(-0.00859345 0.0145501 -8.19756e-20)
(-0.0165427 0.0212632 -2.59358e-20)
(-0.0250662 0.0264171 -4.8704e-20)
(-0.033365 0.0303452 4.58608e-20)
(-0.041008 0.0332686 -4.3213e-20)
(-0.0477051 0.0353832 8.10986e-20)
(-0.0532651 0.0368752 3.80483e-20)
(-0.0575726 0.0379229 -1.0744e-19)
(-0.0605591 0.0386952 6.69451e-20)
(-0.0621804 0.0393464 -9.42822e-20)
(-0.0624023 0.0400097 2.05302e-19)
(-0.0611919 0.0407934 -1.10204e-19)
(-0.0585131 0.0417794 5.11446e-20)
(-0.0543239 0.0430239 1.43338e-19)
(-0.0485764 0.0445603 -4.56303e-20)
(-0.0412161 0.0464033 -4.20669e-20)
(-0.0321803 0.0485549 -3.94278e-20)
(-0.0213956 0.051014 0)
(-0.00878006 0.0537919 -6.7244e-20)
(0.0057294 0.056939 -6.22119e-20)
(0.0222565 0.0606449 8.8572e-20)
(0.0414778 0.0656024 1.09614e-19)
(0.0636386 0.0733919 -1.02748e-19)
(-0.00365004 0.00770065 0)
(-0.0108711 0.0192527 -1.09652e-19)
(-0.019017 0.0276284 -1.38181e-22)
(-0.0269699 0.0336575 9.74447e-20)
(-0.0340767 0.0378843 0)
(-0.0399944 0.0406982 0)
(-0.0444984 0.0424227 0)
(-0.0474442 0.0433344 -3.79188e-20)
(-0.0487469 0.0436729 2.39073e-22)
(-0.0483557 0.0436457 6.68776e-20)
(-0.0462348 0.0434306 -9.35886e-20)
(-0.0423513 0.0431751 2.61391e-22)
(-0.0366685 0.0429967 0)
(-0.0291432 0.0429838 -5.1124e-20)
(-0.0197248 0.043198 4.68862e-20)
(-0.00835634 0.0436766 -1.32856e-19)
(0.00502451 0.0444358 1.64512e-19)
(0.0204848 0.0454734 3.71306e-20)
(0.0380986 0.0467732 -1.22736e-21)
(0.0579449 0.0483097 -1.33474e-19)
(0.0800782 0.0500575 -6.14483e-20)
(0.104562 0.0520721 2.01012e-19)
(0.131999 0.0549473 -1.33926e-19)
(0.165503 0.0607591 0)
(-0.00486498 0.00925142 5.33973e-20)
(-0.0134488 0.0227901 5.48598e-20)
(-0.0218281 0.0322945 -5.20438e-20)
(-0.029114 0.0387926 -9.77129e-20)
(-0.0348044 0.0430122 9.20062e-20)
(-0.0386536 0.0454916 -8.62635e-20)
(-0.0405085 0.0466663 1.21716e-19)
(-0.0402735 0.0468928 -3.78287e-20)
(-0.037892 0.0464641 7.12867e-20)
(-0.0333255 0.0456222 0)
(-0.026538 0.0445663 6.17122e-20)
(-0.0174882 0.0434587 -1.1629e-19)
(-0.00612519 0.0424275 1.08008e-19)
(0.00761165 0.0415715 -1.01446e-19)
(0.0237903 0.0409626 0)
(0.0424829 0.0406494 8.76867e-20)
(0.0637609 0.0406592 1.61997e-19)
(0.0876911 0.0409996 -1.52428e-19)
(0.114332 0.0416592 -7.02175e-20)
(0.143733 0.0426073 -6.53433e-20)
(0.175888 0.0437864 1.84031e-19)
(0.210962 0.0451365 5.59727e-20)
(0.247723 0.0467533 -5.29387e-20)
(0.2975 0.051344 4.882e-20)
(-0.00617583 0.0103882 -5.34046e-20)
(-0.0161747 0.0252229 1.6632e-19)
(-0.0247139 0.0353011 -5.23195e-20)
(-0.0311173 0.0418351 9.81425e-20)
(-0.0350316 0.0457207 -9.24101e-20)
(-0.036311 0.0476321 3.38951e-22)
(-0.0348712 0.0481043 4.0784e-20)
(-0.0306581 0.0475645 1.5174e-19)
(-0.0236321 0.0463537 -7.80112e-22)
(-0.0137526 0.044746 -6.68585e-20)
(-0.000968845 0.0429628 0)
(0.0147828 0.0411828 -5.73291e-20)
(0.0335774 0.0395486 1.08322e-19)
(0.055496 0.0381729 1.0005e-19)
(0.0806179 0.0371427 -4.73036e-20)
(0.109011 0.0365219 -2.78364e-22)
(0.140724 0.0363534 -4.06078e-20)
(0.175773 0.0366602 7.4948e-20)
(0.214133 0.0374444 7.02059e-20)
(0.25576 0.0386962 -6.52741e-20)
(0.30028 0.040317 6.02033e-20)
(0.348915 0.0425119 -5.59487e-20)
(0.394843 0.0441658 0)
(0.465632 0.0496558 -4.87605e-20)
(-0.00754104 0.0111637 5.41191e-20)
(-0.0188693 0.0266365 -5.56075e-20)
(-0.0273147 0.0367427 5.2858e-20)
(-0.0324083 0.0428872 0)
(-0.03394 0.0461289 0)
(-0.0318599 0.0472723 8.72293e-20)
(-0.026141 0.0469415 -8.16642e-20)
(-0.0167532 0.0456291 7.57822e-20)
(-0.00365525 0.0437219 -3.55934e-19)
(0.0132118 0.041527 4.24171e-22)
(0.0339243 0.0392906 6.19708e-20)
(0.058567 0.0372113 0)
(0.0872211 0.03545 -1.07081e-19)
(0.119949 0.0341355 2.00194e-19)
(0.156778 0.0333683 -1.4021e-19)
(0.197681 0.0332223 -2.15592e-19)
(0.242563 0.0337463 1.65131e-21)
(0.291248 0.034964 1.49797e-19)
(0.343455 0.0368658 0)
(0.39898 0.0394902 0)
(0.456433 0.0424672 -6.01986e-20)
(0.519478 0.0469003 5.5943e-20)
(0.572197 0.0494917 -2.0651e-19)
(0.662801 0.0580152 1.93803e-19)
(-0.00890813 0.011613 0)
(-0.0212939 0.0270974 0)
(-0.0291332 0.0367204 -1.58988e-19)
(-0.0321796 0.0420963 5.05353e-20)
(-0.0303643 0.0444541 4.63017e-22)
(-0.0237152 0.0447165 8.83708e-20)
(-0.0122517 0.0435938 0)
(0.00405208 0.0416437 -7.66467e-20)
(0.02525 0.0392994 7.12847e-20)
(0.0514153 0.0369032 -1.32645e-19)
(0.0826213 0.0347285 4.97272e-22)
(0.118916 0.0329955 1.14916e-19)
(0.160293 0.0318794 -1.04288e-21)
(0.206661 0.0315141 9.83714e-20)
(0.257822 0.031994 -1.40275e-19)
(0.313453 0.0333739 0)
(0.373093 0.0356693 1.59338e-19)
(0.436157 0.0388579 -2.24117e-19)
(0.501881 0.0428483 6.88778e-20)
(0.569775 0.0477178 0)
(0.637299 0.0526558 5.94523e-20)
(0.709936 0.0596802 2.21353e-19)
(0.765689 0.0634384 -2.0773e-19)
(0.863749 0.075033 -2.42251e-19)
(-0.0101944 0.0117382 1.66223e-19)
(-0.0231168 0.0266243 -2.28828e-19)
(-0.0295071 0.0353132 4.06317e-22)
(-0.0293699 0.0396399 5.09391e-20)
(-0.0227894 0.0409936 -9.49421e-20)
(-0.00986116 0.0404123 -8.79411e-20)
(0.00936866 0.0386984 1.64178e-19)
(0.0349121 0.0364696 -1.71763e-21)
(0.0668051 0.0342054 -1.43955e-19)
(0.105067 0.0322817 2.66413e-19)
(0.149653 0.0309931 -1.34233e-21)
(0.200404 0.0305652 -1.1616e-19)
(0.257008 0.0311588 0)
(0.318964 0.0328716 0)
(0.385573 0.0357369 -4.63857e-20)
(0.45594 0.0397232 -8.58756e-20)
(0.529004 0.0447365 -1.58721e-19)
(0.603579 0.0506257 1.48987e-19)
(0.678364 0.0571683 -6.89024e-20)
(0.75231 0.0642629 1.2691e-19)
(0.823014 0.0711153 -6.06911e-20)
(0.894098 0.0792581 1.09085e-19)
(0.948256 0.0838829 -2.57165e-19)
(1.03342 0.0955005 4.7852e-20)
(-0.0112674 0.0115065 5.60997e-20)
(-0.0238763 0.0251894 0)
(-0.0275742 0.0325813 1.08877e-19)
(-0.0226711 0.0357152 -1.02568e-19)
(-0.00940953 0.0361259 9.50284e-20)
(0.0120365 0.0349705 0)
(0.0415683 0.0331295 0)
(0.0791218 0.031275 -7.69488e-20)
(0.124596 0.0299214 1.45211e-21)
(0.177771 0.0294572 6.79062e-20)
(0.238233 0.0301622 -6.17675e-20)
(0.305316 0.0322146 1.16514e-19)
(0.378071 0.0356913 0)
(0.455268 0.0405689 1.98421e-19)
(0.535437 0.0467263 -3.70271e-19)
(0.61693 0.0539525 2.58642e-19)
(0.698017 0.0619634 1.57908e-19)
(0.776968 0.0704036 -1.48227e-19)
(0.852192 0.0789388 0)
(0.922184 0.087071 0)
(0.985893 0.0946699 0)
(1.04301 0.101172 0)
(1.089 0.106065 5.09986e-20)
(1.14377 0.112411 -1.90513e-19)
(-0.15683 0.108414 -4.96423e-21)
(-0.158336 0.122847 4.98846e-21)
(-0.158863 0.136859 -1.50218e-22)
(-0.158564 0.149881 0)
(-0.15743 0.161191 -4.58363e-21)
(-0.155424 0.169946 8.93616e-21)
(-0.15251 0.175208 3.45543e-23)
(-0.148622 0.175936 -4.26769e-21)
(-0.143637 0.171026 0)
(-0.137475 0.159523 0)
(-0.130028 0.140307 -2.66521e-22)
(-0.12112 0.112522 -2.64765e-22)
(-0.110602 0.0755959 -4.2995e-21)
(-0.0984123 0.0294376 3.92388e-21)
(-0.0847057 -0.0256058 0)
(-0.0694458 -0.0882426 0)
(-0.0532827 -0.155036 3.39441e-21)
(-0.0375786 -0.222971 -1.82033e-22)
(-0.0238465 -0.28825 -2.83889e-21)
(-0.0139017 -0.347073 -1.67849e-22)
(-0.00919733 -0.396135 0)
(-0.00941773 -0.432461 0)
(-0.0112468 -0.451894 0)
(-0.00813246 -0.448194 0)
(0.00752627 -0.414357 0)
(0.0405788 -0.344598 0)
(0.0895731 -0.23986 6.88113e-22)
(0.149766 -0.111236 -1.06267e-21)
(0.21566 0.0277387 0)
(0.281605 0.160099 0)
(0.342018 0.268929 -6.03729e-22)
(0.390649 0.344201 5.86737e-22)
(0.420619 0.386901 2.07187e-22)
(0.42184 0.409826 0)
(0.387313 0.426265 0)
(0.333697 0.428555 2.57023e-22)
(0.304015 0.385509 -2.49841e-22)
(0.329088 0.278568 0)
(0.397824 0.129641 2.71376e-22)
(0.482434 -0.0182254 -4.02135e-22)
(0.561712 -0.134662 1.10511e-22)
(0.624394 -0.207728 0)
(0.66673 -0.240091 -7.53407e-23)
(0.691163 -0.241539 7.32598e-23)
(0.692393 -0.226701 0)
(0.669788 -0.206713 0)
(0.634339 -0.180032 4.04602e-24)
(0.616899 -0.138466 -1.69583e-23)
(0.628546 -0.0820938 0)
(0.668111 -0.0223135 0)
(0.710961 0.0266342 3.86863e-24)
(0.753001 0.0604587 1.55116e-24)
(0.775949 0.0757324 -1.29052e-24)
(0.794499 0.082459 -7.56382e-24)
(0.793871 0.0744775 0)
(0.803291 0.0667173 0)
(0.802046 0.0454252 0)
(0.821661 0.0298436 0)
(0.827462 0.0098488 0)
(0.854355 -0.00761864 0)
(-0.125906 0.108525 -4.7053e-22)
(-0.125451 0.122277 -1.96758e-20)
(-0.123675 0.135483 5.62977e-23)
(-0.120808 0.147772 1.84107e-20)
(-0.116895 0.158399 2.88108e-22)
(-0.111858 0.166507 0)
(-0.105629 0.171128 -1.78518e-20)
(-0.0981385 0.171162 3.56586e-20)
(-0.0891165 0.16538 -1.78078e-20)
(-0.0785553 0.153116 1.79446e-20)
(-0.0664734 0.132991 -1.71752e-20)
(-0.0527383 0.104156 1.7536e-20)
(-0.0373423 0.0660537 -1.70748e-20)
(-0.0204806 0.0186416 -5.59464e-22)
(-0.00275877 -0.0372777 -1.67519e-20)
(0.0161984 -0.0999644 1.62796e-20)
(0.035518 -0.166625 -1.48514e-20)
(0.0530083 -0.233568 1.39794e-20)
(0.066947 -0.296515 -1.22131e-20)
(0.074852 -0.35163 2.23052e-20)
(0.0741853 -0.396267 -1.01585e-20)
(0.0639283 -0.428878 -5.03745e-22)
(0.0462092 -0.447522 -6.6367e-21)
(0.0271504 -0.447852 1.2445e-20)
(0.0167568 -0.422487 -5.82641e-21)
(0.0247036 -0.363459 3.18823e-22)
(0.0533669 -0.267974 6.0903e-21)
(0.1001 -0.144686 3.50631e-22)
(0.159461 -0.00743107 -1.13114e-20)
(0.223106 0.126172 1.0504e-20)
(0.283764 0.239856 -4.91612e-21)
(0.333748 0.323781 4.62532e-22)
(0.363626 0.379153 -2.07629e-22)
(0.363258 0.416932 3.36578e-22)
(0.332845 0.443179 0)
(0.297964 0.441751 0)
(0.298835 0.382519 -1.30872e-21)
(0.350262 0.258703 9.08208e-22)
(0.433859 0.100858 9.23741e-22)
(0.524733 -0.0478992 -2.67207e-23)
(0.604692 -0.159673 -1.16307e-21)
(0.664422 -0.225622 1.73202e-22)
(0.701771 -0.251194 0)
(0.72253 -0.246354 0)
(0.725594 -0.224594 0)
(0.707783 -0.198658 0)
(0.67093 -0.171358 -3.37721e-23)
(0.640881 -0.135403 1.30356e-23)
(0.633894 -0.0866819 0)
(0.657695 -0.0315843 0)
(0.691161 0.0166701 0)
(0.729152 0.0526903 1.50947e-23)
(0.751658 0.0708276 3.18213e-24)
(0.771601 0.0801009 1.38401e-23)
(0.775935 0.0730939 0)
(0.790524 0.0651904 0)
(0.798041 0.0429829 -7.29387e-24)
(0.82217 0.0267513 -1.43156e-23)
(0.834178 0.00647816 0)
(0.861899 -0.0102783 0)
(-0.0751589 0.104999 5.4667e-22)
(-0.0726662 0.118186 -3.88251e-20)
(-0.0683716 0.130656 3.89989e-20)
(-0.0626415 0.142241 -3.64697e-20)
(-0.0556882 0.15221 -2.90077e-22)
(-0.0474121 0.159694 0)
(-0.0377361 0.163719 -3.76593e-20)
(-0.026703 0.163211 3.69151e-20)
(-0.0137049 0.15712 2.84157e-22)
(0.00127033 0.144359 5.91585e-22)
(0.0177889 0.123711 5.97009e-22)
(0.0360485 0.094312 5.71757e-22)
(0.0558799 0.0556059 -3.79548e-20)
(0.077042 0.00752002 3.74478e-20)
(0.0990113 -0.0486928 0)
(0.121319 -0.110923 1.11559e-21)
(0.142936 -0.176975 -3.18439e-20)
(0.162079 -0.242423 3.13976e-20)
(0.176578 -0.302554 0)
(0.183606 -0.353253 0)
(0.180045 -0.392028 -1.86546e-20)
(0.163568 -0.41847 3.33865e-20)
(0.134185 -0.433329 -2.66864e-20)
(0.0964194 -0.435108 1.84264e-21)
(0.0605384 -0.417294 1.92657e-20)
(0.0395157 -0.37079 -1.8694e-20)
(0.0416351 -0.289248 1.76989e-20)
(0.0680711 -0.175387 -1.38548e-22)
(0.114996 -0.0423115 -9.0696e-21)
(0.172254 0.091536 0)
(0.230252 0.210009 0)
(0.27901 0.303282 2.44229e-21)
(0.307845 0.371763 -3.21625e-21)
(0.309215 0.422601 -1.14994e-23)
(0.290243 0.454335 2.60843e-21)
(0.280214 0.445569 -2.53492e-21)
(0.310605 0.371001 0)
(0.383147 0.234351 3.6532e-22)
(0.477794 0.071132 3.30378e-21)
(0.572336 -0.0767277 -6.00891e-21)
(0.650777 -0.182995 2.36881e-21)
(0.706089 -0.241545 2.02646e-22)
(0.737642 -0.260599 -9.16358e-22)
(0.752944 -0.250754 6.67236e-22)
(0.755277 -0.223768 3.962e-23)
(0.742383 -0.192026 -1.2849e-23)
(0.708886 -0.161967 3.38567e-23)
(0.67253 -0.129025 0)
(0.650296 -0.0870669 0)
(0.657584 -0.037586 1.64691e-22)
(0.679303 0.00855869 -7.1101e-23)
(0.710951 0.0456053 6.869e-23)
(0.732188 0.0658346 -9.1744e-23)
(0.753578 0.0769771 -1.14625e-22)
(0.764019 0.0705106 2.67929e-23)
(0.784342 0.062164 -4.14756e-23)
(0.800857 0.0392057 3.03677e-23)
(0.828708 0.0226736 -8.72278e-24)
(0.846067 0.0025157 0)
(0.873454 -0.0129666 0)
(-0.00723534 0.0972 -7.91568e-20)
(-0.00303192 0.110056 -1.4653e-22)
(0.00352061 0.121941 7.5234e-20)
(0.0120053 0.132831 -5.91627e-22)
(0.02193 0.14217 0)
(0.0333456 0.149107 0)
(0.0464022 0.152655 -7.72482e-20)
(0.0611564 0.151779 -3.46368e-21)
(0.077851 0.14563 1.14986e-19)
(0.0965873 0.132668 9.76625e-22)
(0.117121 0.111956 -3.91182e-20)
(0.139392 0.0825898 -3.89752e-20)
(0.163066 0.0440043 3.90922e-20)
(0.188014 -0.00375561 0)
(0.213509 -0.0594862 -3.82354e-20)
(0.238607 -0.121352 3.48541e-20)
(0.262231 -0.186394 0)
(0.282633 -0.250174 0)
(0.29749 -0.307563 2.62295e-20)
(0.303991 -0.3538 -3.41002e-21)
(0.299121 -0.385984 -2.08302e-20)
(0.279962 -0.404449 -1.47991e-20)
(0.244626 -0.412203 1.46397e-20)
(0.194707 -0.411078 -9.2096e-21)
(0.13811 -0.397864 1.46158e-21)
(0.0886021 -0.363437 7.23109e-21)
(0.0604062 -0.298506 8.19822e-22)
(0.0600502 -0.198997 1.63263e-22)
(0.0871903 -0.0745096 0)
(0.13229 0.0577058 6.71152e-21)
(0.183683 0.180251 -6.86729e-21)
(0.22917 0.282722 4.0578e-22)
(0.257932 0.36329 0)
(0.265722 0.424149 -3.29104e-22)
(0.2642 0.457515 5.56737e-21)
(0.281163 0.440146 -1.09448e-20)
(0.337167 0.353069 -1.76936e-21)
(0.426043 0.207654 -3.70849e-22)
(0.528609 0.0418794 6.06389e-21)
(0.624379 -0.103872 7.16348e-22)
(0.699122 -0.204108 -3.9211e-21)
(0.748443 -0.255322 3.43186e-21)
(0.773685 -0.268143 -1.41011e-23)
(0.782828 -0.254191 3.28367e-22)
(0.782158 -0.223714 -3.58953e-22)
(0.772611 -0.187252 1.69145e-22)
(0.745055 -0.153318 -2.33197e-23)
(0.70839 -0.120846 -2.44506e-22)
(0.676185 -0.0838958 4.65683e-22)
(0.668482 -0.040115 -3.13505e-22)
(0.677453 0.00275426 6.82247e-23)
(0.701025 0.0395242 -8.41366e-23)
(0.720264 0.0608238 -7.74789e-23)
(0.742967 0.0729778 1.75828e-22)
(0.759971 0.0666075 -3.09225e-24)
(0.785842 0.057641 3.65643e-23)
(0.810531 0.0342331 0)
(0.840824 0.0178278 1.21759e-23)
(0.862142 -0.00181607 -5.18265e-24)
(0.888022 -0.0155729 0)
(0.0761254 0.0856594 7.90286e-20)
(0.0822847 0.0984281 -1.55318e-19)
(0.0899694 0.109741 7.53935e-20)
(0.100317 0.119905 7.69478e-20)
(0.112618 0.128661 -1.52423e-19)
(0.126626 0.135192 -2.01709e-21)
(0.142461 0.138468 7.59196e-20)
(0.160258 0.137428 7.93924e-20)
(0.18012 0.131133 -7.77741e-20)
(0.202098 0.118328 0)
(0.22603 0.0979846 -8.30101e-20)
(0.251697 0.0691778 1.64311e-19)
(0.278685 0.0313418 -8.12578e-20)
(0.306826 -0.0153638 0)
(0.335181 -0.0700327 0)
(0.362625 -0.130792 1.18561e-21)
(0.387859 -0.19442 -6.97102e-20)
(0.408978 -0.256336 6.77171e-20)
(0.423584 -0.311018 0)
(0.42905 -0.353118 4.62415e-20)
(0.422806 -0.379299 -7.91959e-20)
(0.402418 -0.38989 6.22617e-20)
(0.365583 -0.388865 -4.8034e-20)
(0.311177 -0.381035 4.89631e-21)
(0.242832 -0.367526 2.62429e-20)
(0.171371 -0.341552 -1.12012e-20)
(0.113637 -0.292523 -3.35873e-22)
(0.0824321 -0.2111 -3.94879e-21)
(0.0832551 -0.100069 -3.90207e-22)
(0.109762 0.0268834 4.42215e-21)
(0.149922 0.151234 3.5048e-22)
(0.190329 0.26117 -4.71545e-21)
(0.220405 0.351497 9.32939e-21)
(0.238371 0.419224 -5.16702e-21)
(0.257297 0.451838 0)
(0.299665 0.426762 -7.62643e-21)
(0.376201 0.330871 7.55233e-21)
(0.477427 0.180068 -6.88868e-21)
(0.585109 0.0136559 8.61596e-21)
(0.679747 -0.128675 -8.46556e-22)
(0.748888 -0.222454 0)
(0.790704 -0.26667 -4.30797e-22)
(0.80909 -0.27376 7.68221e-22)
(0.812099 -0.25636 0)
(0.80709 -0.22382 1.95299e-22)
(0.79859 -0.184222 -1.65757e-22)
(0.777329 -0.146387 -9.91062e-23)
(0.744866 -0.112438 -1.4241e-22)
(0.708702 -0.0783222 0)
(0.689661 -0.0395114 0)
(0.686679 -0.0005872 2.96685e-22)
(0.701414 0.0346631 -4.57007e-22)
(0.718081 0.0558893 2.40725e-22)
(0.741681 0.0681212 -7.41768e-23)
(0.764828 0.0614502 -1.09251e-22)
(0.795294 0.051823 -3.6599e-23)
(0.826399 0.0283557 4.00996e-23)
(0.857564 0.0125174 0)
(0.881139 -0.00625649 1.16071e-23)
(0.904449 -0.0179888 3.70363e-24)
(0.179292 0.0728755 7.94479e-20)
(0.185583 0.0850937 -7.88776e-20)
(0.192392 0.0954379 6.06136e-22)
(0.202699 0.1046 -5.95778e-22)
(0.215822 0.112609 6.0138e-22)
(0.231075 0.11865 -6.0425e-22)
(0.248433 0.121629 1.21358e-21)
(0.268077 0.120501 0)
(0.290077 0.114303 -1.25389e-21)
(0.314395 0.101924 1.27724e-21)
(0.34084 0.0823031 1.29909e-21)
(0.369109 0.0544757 -1.31473e-21)
(0.398775 0.0176925 0)
(0.429438 -0.0272299 0)
(0.460026 -0.0801216 1.28585e-21)
(0.489269 -0.139001 0)
(0.515599 -0.20055 -1.15277e-21)
(0.536872 -0.260077 0)
(0.550502 -0.311808 -5.29792e-20)
(0.553902 -0.350169 9.68575e-20)
(0.545096 -0.371605 -7.82474e-20)
(0.522837 -0.375943 3.45831e-20)
(0.485975 -0.366854 1.90961e-20)
(0.432596 -0.350427 -1.85455e-20)
(0.362242 -0.331674 -8.68957e-21)
(0.27988 -0.308549 8.34669e-21)
(0.199946 -0.271779 0)
(0.139065 -0.208839 5.30124e-23)
(0.109931 -0.115243 0)
(0.112345 0.000924218 0)
(0.136616 0.123525 5.89311e-21)
(0.169753 0.237733 -5.94732e-21)
(0.201477 0.334764 3.75419e-22)
(0.230952 0.406762 5.61193e-22)
(0.269817 0.437871 -6.26055e-22)
(0.333441 0.407303 -7.35842e-21)
(0.425344 0.306215 7.14361e-21)
(0.535471 0.152826 -9.77535e-21)
(0.645875 -0.0131187 8.46767e-21)
(0.737308 -0.150472 1.75794e-21)
(0.799143 -0.237557 -4.49166e-21)
(0.832235 -0.27534 9.81559e-22)
(0.843198 -0.277466 2.29387e-21)
(0.840353 -0.257213 0)
(0.830666 -0.223607 -1.88341e-22)
(0.821117 -0.182481 -2.48409e-22)
(0.804839 -0.141567 2.71735e-22)
(0.778953 -0.105098 1.43312e-22)
(0.744256 -0.0717592 0)
(0.718869 -0.036585 -1.2262e-22)
(0.706526 -0.00164929 2.67738e-22)