/*--------------------------------*- C++ -*----------------------------------*\
| =========                 |                                                 |
| \\      /  F ield         | OpenFOAM: The Open Source CFD Toolbox           |
|  \\    /   O peration     | Version:  2512                                  |
|   \\  /    A nd           | Website:  www.openfoam.com                      |
|    \\/     M anipulation  |                                                 |
\*---------------------------------------------------------------------------*/
FoamFile
{
    version     2.0;
    format      ascii;
    arch        "LSB;label=32;scalar=64";
    class       volScalarField;
    location    "43";
    object      p;
}
// * * * * * * * * * * * * * * * * * * * * * * * * * * * * * * * * * * * * * //

dimensions      [0 2 -2 0 0 0 0];

internalField   nonuniform List<scalar> 
13248
(
-0.291211
-0.289637
-0.287538
-0.28508
-0.282463
-0.279888
-0.277507
-0.275412
-0.273638
-0.272175
-0.270968
-0.269927
-0.268935
-0.26786
-0.266563
-0.264915
-0.262802
-0.260138
-0.256861
-0.252972
-0.24838
-0.243301
-0.237026
-0.230589
-0.297926
-0.295773
-0.293083
-0.290034
-0.28683
-0.283691
-0.28076
-0.278114
-0.275763
-0.273662
-0.271721
-0.269821
-0.267827
-0.265605
-0.263034
-0.260018
-0.256491
-0.252422
-0.247808
-0.242668
-0.237015
-0.230909
-0.224199
-0.217604
-0.306055
-0.303135
-0.299739
-0.29604
-0.292214
-0.288475
-0.28495
-0.281676
-0.278621
-0.275699
-0.27279
-0.269762
-0.266492
-0.262879
-0.258853
-0.254381
-0.249463
-0.244131
-0.238425
-0.232405
-0.226092
-0.219576
-0.212762
-0.206111
-0.31576
-0.311879
-0.307666
-0.303254
-0.298756
-0.294355
-0.290134
-0.286075
-0.282092
-0.278069
-0.27388
-0.269421
-0.264618
-0.259438
-0.253887
-0.248004
-0.241846
-0.235477
-0.228957
-0.222337
-0.215641
-0.208935
-0.202133
-0.195713
-0.327126
-0.322102
-0.316969
-0.311779
-0.306535
-0.301357
-0.29626
-0.291161
-0.285937
-0.280471
-0.274681
-0.268532
-0.262037
-0.255249
-0.248245
-0.241109
-0.233919
-0.226739
-0.219613
-0.212567
-0.205613
-0.198777
-0.192008
-0.185635
-0.340143
-0.333826
-0.327693
-0.321658
-0.315554
-0.309406
-0.303151
-0.296656
-0.289802
-0.282531
-0.274856
-0.266849
-0.258618
-0.250288
-0.241971
-0.233761
-0.225721
-0.21789
-0.210283
-0.202901
-0.195738
-0.188793
-0.182027
-0.175675
-0.35469
-0.346981
-0.339791
-0.332826
-0.325684
-0.31827
-0.310462
-0.302129
-0.293231
-0.283833
-0.274084
-0.264166
-0.254262
-0.244524
-0.235061
-0.225942
-0.217196
-0.208827
-0.200822
-0.193162
-0.185822
-0.178781
-0.172014
-0.165648
-0.370495
-0.361358
-0.353073
-0.345052
-0.3366
-0.327512
-0.317663
-0.307023
-0.295711
-0.283969
-0.27208
-0.26031
-0.248864
-0.237881
-0.227432
-0.217542
-0.2082
-0.199378
-0.191039
-0.183145
-0.175657
-0.168543
-0.161782
-0.155403
-0.387101
-0.376571
-0.367156
-0.357887
-0.34775
-0.336485
-0.324082
-0.310719
-0.296746
-0.282583
-0.268617
-0.255137
-0.242324
-0.230265
-0.218977
-0.208436
-0.198594
-0.189395
-0.180783
-0.172703
-0.165106
-0.157951
-0.151213
-0.14484
-0.403837
-0.39201
-0.381409
-0.370615
-0.358328
-0.344359
-0.328954
-0.312598
-0.295888
-0.279384
-0.263508
-0.248516
-0.234526
-0.221554
-0.209563
-0.198481
-0.188231
-0.178732
-0.169912
-0.161702
-0.154043
-0.146887
-0.140191
-0.133851
-0.419812
-0.406823
-0.394935
-0.382254
-0.367314
-0.350168
-0.331459
-0.312021
-0.292663
-0.274009
-0.256451
-0.240167
-0.22519
-0.211467
-0.198905
-0.187397
-0.176838
-0.167129
-0.158179
-0.149911
-0.142254
-0.135154
-0.128534
-0.122283
-0.433994
-0.420027
-0.406724
-0.391749
-0.373657
-0.352938
-0.330742
-0.308249
-0.286412
-0.265846
-0.246851
-0.229501
-0.213738
-0.19944
-0.186464
-0.17467
-0.163928
-0.154123
-0.145153
-0.136926
-0.129368
-0.122412
-0.11595
-0.109917
-0.245653
-0.24745
-0.248613
-0.249413
-0.250094
-0.250719
-0.251316
-0.251903
-0.252486
-0.253062
-0.253623
-0.254158
-0.254654
-0.255097
-0.255471
-0.255761
-0.255951
-0.256029
-0.255978
-0.255791
-0.255467
-0.255014
-0.254458
-0.253843
-0.248211
-0.249832
-0.250899
-0.251657
-0.252329
-0.252979
-0.253635
-0.254316
-0.255029
-0.255772
-0.256538
-0.257316
-0.258094
-0.258857
-0.259587
-0.260265
-0.260869
-0.261373
-0.261753
-0.261985
-0.262046
-0.261916
-0.261599
-0.261178
-0.251338
-0.252706
-0.253625
-0.254302
-0.254931
-0.255573
-0.256258
-0.257004
-0.25782
-0.258705
-0.259651
-0.260649
-0.261687
-0.262748
-0.263813
-0.264856
-0.265847
-0.266748
-0.267516
-0.268109
-0.268479
-0.268561
-0.268311
-0.267986
-0.254865
-0.255925
-0.256652
-0.257208
-0.257754
-0.258347
-0.259018
-0.259788
-0.260665
-0.261648
-0.262731
-0.263906
-0.265159
-0.266472
-0.267824
-0.269184
-0.27051
-0.271753
-0.27285
-0.273731
-0.274322
-0.274499
-0.274151
-0.27362
-0.258613
-0.259337
-0.259839
-0.260234
-0.260649
-0.26114
-0.261742
-0.262477
-0.263354
-0.264373
-0.265528
-0.266812
-0.268209
-0.269702
-0.271262
-0.272856
-0.274434
-0.275933
-0.277271
-0.278353
-0.279082
-0.279308
-0.278692
-0.277578
-0.26242
-0.26281
-0.263063
-0.263257
-0.263487
-0.263811
-0.264274
-0.264898
-0.265697
-0.26667
-0.267813
-0.269117
-0.270565
-0.272136
-0.273799
-0.275514
-0.277222
-0.278849
-0.280298
-0.28145
-0.28217
-0.282279
-0.281448
-0.279433
-0.26617
-0.266252
-0.266242
-0.266192
-0.266181
-0.266257
-0.266503
-0.266932
-0.267561
-0.268395
-0.269428
-0.27065
-0.272042
-0.273578
-0.275222
-0.276924
-0.278617
-0.280216
-0.281612
-0.282666
-0.283225
-0.283057
-0.282174
-0.2789
-0.269819
-0.269631
-0.269349
-0.269009
-0.268687
-0.268461
-0.268399
-0.26854
-0.268906
-0.269505
-0.270332
-0.271373
-0.272606
-0.273997
-0.275501
-0.27706
-0.278597
-0.280011
-0.281182
-0.281957
-0.282214
-0.281508
-0.280679
-0.276021
-0.273412
-0.272994
-0.272428
-0.271755
-0.271063
-0.270455
-0.270009
-0.269782
-0.269803
-0.270085
-0.270623
-0.271399
-0.272385
-0.273537
-0.2748
-0.276098
-0.277342
-0.278419
-0.279205
-0.279526
-0.27938
-0.278019
-0.277232
-0.271976
-0.27709
-0.276463
-0.275591
-0.274539
-0.273422
-0.272368
-0.271477
-0.270819
-0.270434
-0.270337
-0.270523
-0.270969
-0.271633
-0.272458
-0.273368
-0.274272
-0.27506
-0.275614
-0.275817
-0.2755
-0.274773
-0.272828
-0.271712
-0.266444
-0.281086
-0.280231
-0.279012
-0.277531
-0.275939
-0.27439
-0.273008
-0.271876
-0.27104
-0.270518
-0.270299
-0.270345
-0.270598
-0.270978
-0.271385
-0.271705
-0.271814
-0.271589
-0.270922
-0.269711
-0.268054
-0.265553
-0.263711
-0.258964
-0.285693
-0.284538
-0.282911
-0.280951
-0.278841
-0.276764
-0.274862
-0.27323
-0.271918
-0.270935
-0.270253
-0.269815
-0.269536
-0.269307
-0.269003
-0.268493
-0.267645
-0.266343
-0.264486
-0.262042
-0.25898
-0.255426
-0.251943
-0.247763
-0.253053
-0.251715
-0.250124
-0.248271
-0.246175
-0.243885
-0.241473
-0.23904
-0.236716
-0.234646
-0.232964
-0.231779
-0.231128
-0.230935
-0.230967
-0.230805
-0.229814
-0.227346
-0.222922
-0.215807
-0.205836
-0.19344
-0.17981
-0.166769
-0.155906
-0.148641
-0.145496
-0.145226
-0.144412
-0.139095
-0.126698
-0.107283
-0.0832974
-0.058407
-0.035708
-0.0169614
-0.00281016
0.00673709
0.0121377
0.0145586
0.0154846
0.0161626
0.0170762
0.0181181
0.0189475
0.0192745
0.0189342
0.0179595
0.0164228
0.0146525
0.0127711
0.0111368
0.00963111
0.00842626
0.00719642
0.00611282
0.00479426
0.00362929
0.00207381
0.000895993
-0.260735
-0.259171
-0.25712
-0.254535
-0.251384
-0.247688
-0.243489
-0.238868
-0.233966
-0.228966
-0.224058
-0.219441
-0.215276
-0.21165
-0.208527
-0.205701
-0.202751
-0.199317
-0.195328
-0.189984
-0.183252
-0.175503
-0.167757
-0.161699
-0.158202
-0.158084
-0.161234
-0.16524
-0.166407
-0.160414
-0.145318
-0.121858
-0.0934418
-0.0644987
-0.0384802
-0.0171501
-0.000956085
0.0102844
0.0170183
0.0201496
0.0209672
0.020839
0.0205825
0.0204263
0.0202368
0.0197819
0.0188617
0.0174781
0.0156879
0.0138206
0.0119776
0.0104738
0.00914199
0.0081099
0.00703196
0.0060632
0.00483021
0.0037054
0.00215857
0.000945206
-0.268284
-0.266459
-0.263983
-0.260733
-0.256602
-0.251585
-0.245689
-0.238958
-0.231548
-0.223705
-0.215656
-0.207689
-0.200085
-0.193082
-0.18683
-0.181335
-0.176378
-0.171766
-0.168222
-0.164459
-0.160801
-0.15758
-0.155532
-0.156488
-0.159963
-0.166299
-0.174925
-0.182638
-0.185373
-0.178714
-0.161326
-0.134379
-0.102224
-0.0699319
-0.0412152
-0.0178078
1.92847e-05
0.0126428
0.0205882
0.0245871
0.0256861
0.0251711
0.0240552
0.0228016
0.0215994
0.0203059
0.0187424
0.0169166
0.0148778
0.0129462
0.0111781
0.0098281
0.00867694
0.00781067
0.00687083
0.00600411
0.0048507
0.00376301
0.00223375
0.000984645
-0.275288
-0.273036
-0.270212
-0.266446
-0.261508
-0.255366
-0.247985
-0.239358
-0.22965
-0.219266
-0.208353
-0.197322
-0.186562
-0.176446
-0.167294
-0.159319
-0.152504
-0.146548
-0.14356
-0.141098
-0.140166
-0.141113
-0.143954
-0.151818
-0.16092
-0.17304
-0.186119
-0.19679
-0.200802
-0.193969
-0.174607
-0.144888
-0.109813
-0.0749543
-0.0441887
-0.0191882
-7.59294e-05
0.0136718
0.0226808
0.027597
0.0292573
0.0287625
0.0271351
0.0250211
0.0229072
0.0207861
0.0185655
0.0163022
0.0140425
0.0120865
0.0104191
0.00924533
0.00825783
0.0075394
0.00671732
0.00593651
0.00485346
0.00379868
0.00229442
0.00101107
-0.280565
-0.278568
-0.275305
-0.271155
-0.265654
-0.25864
-0.250059
-0.239875
-0.228196
-0.21592
-0.202572
-0.188932
-0.175468
-0.162675
-0.151023
-0.140921
-0.13258
-0.125138
-0.122852
-0.121366
-0.122453
-0.12722
-0.134759
-0.14645
-0.160941
-0.177647
-0.194229
-0.207231
-0.212275
-0.205508
-0.18497
-0.153355
-0.116283
-0.0796868
-0.0475148
-0.0213691
-0.00127153
0.0133886
0.0233092
0.0291083
0.0314697
0.0312923
0.0294887
0.026833
0.0239874
0.0211311
0.0183078
0.015658
0.013228
0.0112884
0.00973359
0.00872363
0.0078919
0.00729717
0.00657016
0.00585866
0.00483577
0.00380988
0.0023366
0.00102279
-0.283727
-0.282357
-0.278688
-0.274207
-0.268431
-0.260925
-0.251591
-0.240459
-0.227652
-0.21357
-0.198433
-0.182781
-0.167186
-0.152259
-0.138612
-0.126851
-0.117659
-0.112315
-0.107028
-0.105909
-0.108689
-0.115666
-0.126617
-0.141702
-0.159916
-0.179879
-0.199022
-0.213785
-0.219691
-0.213326
-0.192342
-0.159782
-0.121682
-0.0841707
-0.0511931
-0.0242952
-0.00346277
0.0119368
0.0226328
0.0292344
0.032331
0.0326378
0.0309461
0.0280428
0.024694
0.021266
0.0179572
0.0150112
0.0124735
0.0105795
0.00915091
0.00827862
0.00757683
0.00707874
0.00642493
0.00576776
0.00479554
0.00379561
0.00235783
0.00102305
-0.28442
-0.283703
-0.279785
-0.275091
-0.269285
-0.261665
-0.252055
-0.2405
-0.227114
-0.212155
-0.195962
-0.179052
-0.162039
-0.145603
-0.130449
-0.117287
-0.106819
-0.0996609
-0.0951383
-0.0946209
-0.0984533
-0.106911
-0.119941
-0.137266
-0.157792
-0.179796
-0.200591
-0.216572
-0.223552
-0.217545
-0.196758
-0.1642
-0.126038
-0.0883955
-0.0551528
-0.0278387
-0.00647528
0.00952923
0.0208911
0.0282067
0.0320096
0.032875
0.0314826
0.028578
0.0249688
0.0211703
0.0175299
0.0143954
0.0118102
0.00997113
0.00866333
0.00790959
0.00730473
0.00687651
0.00627687
0.00566155
0.00473214
0.00375653
0.00235741
0.001007
-0.281405
-0.281515
-0.277806
-0.273395
-0.267916
-0.260562
-0.251154
-0.239722
-0.22635
-0.211247
-0.194754
-0.177358
-0.159666
-0.14238
-0.126251
-0.112044
-0.100489
-0.0922053
-0.0876453
-0.0872746
-0.0915046
-0.100606
-0.114572
-0.132963
-0.154613
-0.177613
-0.199245
-0.215936
-0.223656
-0.218291
-0.198286
-0.166639
-0.129335
-0.0922782
-0.0592455
-0.0318047
-0.0100857
0.00640925
0.0183448
0.0262971
0.03076
0.0322011
0.0312141
0.0284986
0.0248492
0.02088
0.0170652
0.0138455
0.0112494
0.00948082
0.00827081
0.00760523
0.0070655
0.00668357
0.00612273
0.00553938
0.00464675
0.00369487
0.00233644
0.000980298
-0.276802
-0.276543
-0.272935
-0.26894
-0.264077
-0.257388
-0.24869
-0.237926
-0.225149
-0.210554
-0.194461
-0.177309
-0.159655
-0.14217
-0.125599
-0.110724
-0.0983266
-0.0892045
-0.0841307
-0.0834229
-0.0873966
-0.0963653
-0.110314
-0.128752
-0.150499
-0.173593
-0.195353
-0.21253
-0.220592
-0.215949
-0.197191
-0.167194
-0.13155
-0.0957172
-0.0633127
-0.0359996
-0.0140792
0.00280785
0.0152395
0.0237595
0.0288373
0.0308544
0.0303294
0.0279351
0.0244241
0.0204567
0.016605
0.0133851
0.0107808
0.00911057
0.00796407
0.00735072
0.0068498
0.006495
0.00596135
0.00540245
0.00454221
0.00361408
0.00229748
0.000946282
-0.269384
-0.26851
-0.266118
-0.26252
-0.257551
-0.251763
-0.244319
-0.234791
-0.223175
-0.209673
-0.194596
-0.178338
-0.16138
-0.144327
-0.127886
-0.11282
-0.0999021
-0.0900507
-0.0840547
-0.0825752
-0.0857368
-0.0938936
-0.107035
-0.124673
-0.145668
-0.168097
-0.189267
-0.206406
-0.214759
-0.211031
-0.194024
-0.166338
-0.132999
-0.0989365
-0.0675252
-0.0405345
-0.0184992
-0.0012504
0.0116638
0.0207311
0.0264026
0.0290157
0.0290142
0.0270304
0.0237865
0.0199565
0.0161745
0.0130093
0.0104082
0.00882532
0.00772641
0.00713401
0.00665079
0.00630808
0.00579318
0.00525317
0.00442231
0.0035183
0.00224416
0.00090817
-0.259639
-0.258657
-0.257871
-0.255705
-0.251304
-0.24501
-0.238578
-0.230549
-0.220505
-0.208506
-0.194839
-0.179862
-0.163988
-0.147768
-0.131807
-0.116804
-0.103508
-0.0921503
-0.0862405
-0.0839993
-0.0859011
-0.0927031
-0.104432
-0.120664
-0.140345
-0.161617
-0.181982
-0.198395
-0.206366
-0.203872
-0.189234
-0.164547
-0.134081
-0.1022
-0.0720762
-0.0455599
-0.0234586
-0.00583724
0.00759368
0.0172402
0.0235211
0.0267506
0.0273455
0.025915
0.0230065
0.0194192
0.0157883
0.0126908
0.01027
0.00862149
0.00754022
0.00694499
0.00646332
0.00612136
0.005619
0.00509378
0.00429027
0.00341099
0.00217986
0.000868862
-0.247955
-0.248228
-0.247945
-0.245815
-0.242799
-0.23885
-0.232279
-0.224862
-0.216472
-0.206422
-0.194814
-0.18185
-0.167769
-0.153024
-0.138219
-0.124061
-0.111271
-0.100657
-0.0917549
-0.0878002
-0.088272
-0.0931188
-0.102669
-0.116578
-0.133917
-0.153048
-0.171896
-0.186995
-0.195496
-0.193966
-0.181737
-0.160157
-0.132672
-0.103124
-0.074575
-0.0489776
-0.027283
-0.009699
0.00392534
0.0139083
0.0206141
0.0243433
0.0254312
0.024571
0.0220258
0.0187861
0.0153899
0.0123956
0.0100805
0.0084406
0.00736515
0.00676103
0.00627654
0.00593171
0.00543938
0.00492647
0.00414887
0.00329447
0.00210644
0.000830124
-0.234901
-0.240397
-0.239653
-0.236822
-0.233824
-0.230402
-0.225941
-0.219647
-0.211172
-0.201415
-0.190678
-0.178745
-0.165734
-0.152055
-0.13824
-0.124898
-0.112611
-0.102155
-0.0943187
-0.090398
-0.0902762
-0.0943678
-0.102942
-0.115706
-0.131767
-0.149562
-0.166907
-0.180484
-0.18777
-0.185778
-0.173759
-0.153209
-0.127347
-0.0996457
-0.0728403
-0.0486778
-0.0280284
-0.0111326
0.00209872
0.0119145
0.0186222
0.0225168
0.0239057
0.0232774
0.021026
0.017999
0.0147916
0.0119338
0.0097214
0.00817631
0.00714085
0.00655191
0.00608029
0.00574205
0.0052647
0.00476417
0.0040118
0.00317953
0.00203142
0.000793793
-0.221464
-0.229315
-0.228871
-0.225305
-0.221739
-0.218239
-0.21379
-0.207752
-0.200542
-0.192164
-0.182927
-0.172351
-0.160798
-0.148646
-0.136362
-0.124476
-0.113502
-0.104318
-0.0974789
-0.0937866
-0.0936124
-0.097284
-0.10495
-0.11632
-0.130529
-0.146101
-0.160979
-0.172303
-0.177713
-0.174838
-0.163191
-0.144189
-0.120573
-0.0952787
-0.0706466
-0.0482208
-0.0288272
-0.012761
-1.48492e-05
0.00958073
0.0162662
0.0202912
0.0219205
0.0215575
0.019695
0.0170372
0.0141189
0.0114865
0.00940724
0.00794225
0.00693899
0.00635366
0.00588487
0.00554433
0.00507723
0.00458701
0.00386042
0.00305229
0.00194854
0.000753047
-0.207866
-0.216539
-0.216646
-0.213047
-0.209367
-0.206083
-0.202289
-0.197385
-0.191408
-0.184261
-0.175682
-0.166268
-0.156108
-0.14546
-0.134702
-0.124284
-0.114702
-0.106626
-0.100599
-0.0972848
-0.097092
-0.100259
-0.106865
-0.116604
-0.128652
-0.141666
-0.153812
-0.162816
-0.166478
-0.163072
-0.152249
-0.135137
-0.113935
-0.0910696
-0.0685611
-0.0478129
-0.0296398
-0.0143956
-0.00215103
0.00719152
0.0138114
0.017924
0.0197675
0.0197272
0.0182563
0.0159714
0.0133773
0.0109951
0.00906504
0.0076829
0.00671712
0.00613607
0.00567026
0.00532684
0.0048708
0.00439196
0.00369321
0.0029125
0.00185712
0.000709497
-0.194598
-0.203254
-0.204014
-0.200911
-0.197496
-0.194572
-0.19144
-0.187402
-0.182215
-0.175867
-0.168459
-0.160282
-0.151484
-0.142275
-0.132956
-0.123912
-0.1156
-0.108559
-0.103284
-0.100301
-0.0999646
-0.102478
-0.107877
-0.115856
-0.125685
-0.136242
-0.145902
-0.152781
-0.155071
-0.15144
-0.141567
-0.126306
-0.107405
-0.0868663
-0.0664232
-0.0473378
-0.0303986
-0.0160028
-0.00428872
0.00477504
0.0113106
0.0155004
0.0175601
0.0178436
0.0167485
0.0148356
0.0125753
0.010448
0.00867856
0.00738795
0.00646731
0.00589605
0.00543736
0.005094
0.00465157
0.00418609
0.00351714
0.00276633
0.00176153
0.000665582
-0.181471
-0.190008
-0.191421
-0.188996
-0.186022
-0.183479
-0.180869
-0.177499
-0.173067
-0.167616
-0.161302
-0.154308
-0.146781
-0.138897
-0.130912
-0.123153
-0.116009
-0.109912
-0.105292
-0.102559
-0.102019
-0.103845
-0.10804
-0.114324
-0.122089
-0.130386
-0.137816
-0.142837
-0.144021
-0.140293
-0.131351
-0.11783
-0.101094
-0.0827601
-0.0642941
-0.0468238
-0.0311065
-0.0175702
-0.00640853
0.00235309
0.00878652
0.0130405
0.015305
0.0158934
0.0151648
0.0136256
0.0117033
0.00983749
0.00824224
0.00705291
0.00618622
0.005632
0.00518559
0.00484603
0.00442
0.00397019
0.00333308
0.00261464
0.0016626
0.000621496
-0.168746
-0.177128
-0.179055
-0.177292
-0.174818
-0.172675
-0.170532
-0.167778
-0.164111
-0.15955
-0.154242
-0.148337
-0.14197
-0.135294
-0.12852
-0.121922
-0.115819
-0.110564
-0.10651
-0.10399
-0.103256
-0.104444
-0.107539
-0.112296
-0.118207
-0.124462
-0.129923
-0.133367
-0.133646
-0.129886
-0.121816
-0.109883
-0.0951193
-0.0788137
-0.0621981
-0.0462717
-0.0317503
-0.0190762
-0.0084842
-4.65147e-05
0.0062642
0.0105631
0.0130122
0.0138885
0.0135161
0.0123449
0.01076
0.00916049
0.00775036
0.00667246
0.00586953
0.00534086
0.00491278
0.00458158
0.0041752
0.00374384
0.00314096
0.00245755
0.00156066
0.00057737
-0.156701
-0.164722
-0.167001
-0.165844
-0.163894
-0.162177
-0.160493
-0.158326
-0.155384
-0.151655
-0.147263
-0.142346
-0.137025
-0.131432
-0.125742
-0.120176
-0.114996
-0.110487
-0.106938
-0.104613
-0.103713
-0.104341
-0.106472
-0.109895
-0.114178
-0.118666
-0.12246
-0.124591
-0.124129
-0.120376
-0.113081
-0.102542
-0.0895272
-0.0750553
-0.0601496
-0.0456838
-0.0323214
-0.020504
-0.0104934
-0.00239937
0.00376737
0.00808979
0.0107029
0.0118493
0.0118166
0.0110011
0.00974793
0.00841586
0.00719903
0.00624269
0.00551374
0.00501999
0.00461713
0.00429971
0.00391672
0.00350709
0.00294106
0.00229559
0.00145626
0.000533475
-0.145253
-0.152815
-0.155351
-0.154742
-0.153307
-0.152024
-0.150785
-0.149162
-0.146879
-0.143907
-0.140344
-0.136315
-0.13193
-0.127302
-0.122572
-0.117919
-0.113554
-0.109706
-0.106606
-0.104461
-0.103427
-0.103582
-0.104895
-0.107187
-0.110112
-0.11312
-0.115535
-0.11658
-0.115516
-0.111783
-0.105154
-0.0958144
-0.0843322
-0.0715008
-0.0581602
-0.0450633
-0.0328136
-0.0218395
-0.0124169
-0.00468359
0.00131853
0.00564274
0.00839784
0.00979262
0.0100789
0.00960272
0.00867138
0.00760504
0.00658724
0.00576174
0.00511675
0.00466766
0.00429736
0.00399977
0.0036443
0.0032601
0.00273371
0.00212921
0.00134979
0.00048995
-0.134371
-0.141488
-0.144206
-0.144068
-0.143108
-0.142238
-0.141416
-0.140283
-0.13859
-0.136295
-0.133475
-0.130239
-0.126686
-0.12291
-0.119026
-0.115175
-0.111526
-0.10826
-0.105558
-0.103581
-0.10245
-0.102221
-0.102862
-0.104222
-0.106027
-0.107843
-0.109136
-0.1093
-0.107754
-0.104052
-0.0979894
-0.0896783
-0.0795299
-0.0681557
-0.0562366
-0.0444124
-0.0332224
-0.0230713
-0.014238
-0.00687921
-0.00106129
0.00324231
0.00611536
0.00773382
0.00831528
0.0081592
0.00753687
0.00673179
0.00591617
0.00522938
0.00467757
0.00428274
0.00395253
0.00368121
0.00335764
0.00300289
0.00251906
0.00195871
0.00124144
0.000446808
-0.124162
-0.130807
-0.133617
-0.133867
-0.133327
-0.132835
-0.132389
-0.131691
-0.130518
-0.128821
-0.126659
-0.124124
-0.121302
-0.118273
-0.115127
-0.111977
-0.108953
-0.106197
-0.103849
-0.102035
-0.100844
-0.100318
-0.100424
-0.101043
-0.101947
-0.102808
-0.103206
-0.102673
-0.100755
-0.0970967
-0.0915233
-0.0840939
-0.0751032
-0.0650173
-0.0543818
-0.0437332
-0.0335447
-0.0241902
-0.0159423
-0.00896836
-0.00335294
0.000907274
0.0038727
0.00568822
0.00653898
0.00668122
0.00635231
0.00580141
0.00518854
0.00464658
0.00419608
0.00386463
0.00358191
0.00334349
0.0030564
0.00273541
0.00229718
0.00178425
0.00113126
0.000404001
-0.114632
-0.120768
-0.123599
-0.124163
-0.123987
-0.123825
-0.123709
-0.12339
-0.122669
-0.121492
-0.119904
-0.117982
-0.115797
-0.113416
-0.11091
-0.108367
-0.105885
-0.103576
-0.101546
-0.0998896
-0.0986753
-0.0979294
-0.0976234
-0.0976614
-0.0978662
-0.0979816
-0.0976848
-0.0966151
-0.094423
-0.0908283
-0.0856831
-0.0790134
-0.0710278
-0.0620782
-0.0525968
-0.0430273
-0.0337788
-0.0251891
-0.0175178
-0.0109354
-0.00553905
-0.00134479
0.00168661
0.00367112
0.0047634
0.00518005
0.00512665
0.00482038
0.00440833
0.00401533
0.00367294
0.0034132
0.0031851
0.00298624
0.00274035
0.00245759
0.00206809
0.00160591
0.00101925
0.000361454
-0.105721
-0.11136
-0.114166
-0.114976
-0.115102
-0.115223
-0.115387
-0.115389
-0.115052
-0.11432
-0.113226
-0.11183
-0.110194
-0.108371
-0.106415
-0.104394
-0.102382
-0.100463
-0.0987186
-0.0972179
-0.0960112
-0.0951156
-0.0945062
-0.0941073
-0.0937812
-0.093331
-0.0925107
-0.0910455
-0.0886676
-0.0851588
-0.0803965
-0.0743869
-0.0672762
-0.0593277
-0.0508803
-0.0422963
-0.033924
-0.0260631
-0.0189548
-0.012767
-0.00760408
-0.0034976
-0.00042695
0.00169747
0.00300211
0.00366753
0.00386967
0.00379615
0.00358057
0.00333859
0.00310955
0.00292889
0.00276205
0.00260929
0.00240933
0.00216941
0.00183183
0.00142374
0.000905361
0.000319077
-0.0974195
-0.102587
-0.105325
-0.106316
-0.106686
-0.107037
-0.107431
-0.107698
-0.10768
-0.107322
-0.106644
-0.105695
-0.104525
-0.103175
-0.101689
-0.100114
-0.0985073
-0.0969297
-0.0954414
-0.0940935
-0.0929214
-0.0919365
-0.0911187
-0.0904053
-0.0896919
-0.0888296
-0.0876322
-0.0858923
-0.0834069
-0.0800075
-0.0755952
-0.0701652
-0.0638193
-0.0567528
-0.0492292
-0.041541
-0.0339804
-0.026809
-0.0202461
-0.0144522
-0.00953461
-0.00553645
-0.00245302
-0.000218207
0.00126871
0.00215589
0.00259186
0.00273708
0.00271126
0.00262021
0.00250811
0.0024127
0.00231314
0.0022127
0.0020634
0.0018709
0.0015885
0.0012378
0.00078957
0.000276774
-0.0897251
-0.0944304
-0.0970652
-0.0981809
-0.098739
-0.0992729
-0.0998496
-0.100327
-0.100567
-0.100515
-0.100181
-0.0996052
-0.0988252
-0.0978741
-0.0967831
-0.0955873
-0.0943272
-0.0930469
-0.0917897
-0.0905923
-0.0894791
-0.0884564
-0.0875074
-0.0865825
-0.0856031
-0.0844574
-0.0830061
-0.081094
-0.0785688
-0.0753023
-0.0712163
-0.0663011
-0.0606271
-0.0543387
-0.047639
-0.0407617
-0.033949
-0.0274255
-0.0213867
-0.0159826
-0.0113195
-0.00744851
-0.00437793
-0.00206211
-0.00042338
0.000657611
0.00130427
0.00165226
0.00180731
0.00186494
0.00187159
0.0018663
0.00183926
0.0017969
0.00170282
0.00156224
0.00133824
0.00104816
0.000671876
0.000234457
-0.0825981
-0.0868607
-0.0893674
-0.0905611
-0.0912599
-0.0919318
-0.0926459
-0.0932844
-0.0937262
-0.0939178
-0.0938635
-0.0935921
-0.0931338
-0.0925131
-0.0917522
-0.0908754
-0.0899105
-0.0888886
-0.0878397
-0.0867895
-0.0857544
-0.0847363
-0.0837201
-0.0826688
-0.0815236
-0.0802008
-0.0785975
-0.0765986
-0.0740913
-0.0709795
-0.0672026
-0.0627497
-0.0576698
-0.0520693
-0.0461039
-0.0399584
-0.0338314
-0.0279127
-0.0223741
-0.0173526
-0.0129503
-0.00922305
-0.00618956
-0.00382142
-0.00206118
-0.000814818
1.83271e-05
0.000551441
0.000876436
0.00107839
0.00120381
0.001292
0.00134181
0.00136266
0.00132813
0.00124375
0.00108131
0.000854936
0.000552316
0.000192054
-0.0760009
-0.0798501
-0.0822133
-0.0834458
-0.0842424
-0.085012
-0.0858229
-0.0865779
-0.0871709
-0.0875509
-0.0877167
-0.0876892
-0.0874912
-0.0871403
-0.0866516
-0.0860405
-0.0853257
-0.0845274
-0.0836658
-0.0827579
-0.0818145
-0.0808345
-0.0798038
-0.0786951
-0.0774649
-0.0760513
-0.0743787
-0.0723631
-0.0699217
-0.0669835
-0.0635028
-0.0594697
-0.0549187
-0.0499282
-0.0446171
-0.0391306
-0.0336295
-0.0282727
-0.0232082
-0.018559
-0.0144208
-0.0108516
-0.00787759
-0.00548454
-0.00363243
-0.00224914
-0.00125438
-0.000555144
-7.29184e-05
0.000266974
0.000509373
0.000692886
0.00082281
0.000911216
0.000940172
0.000915956
0.000818105
0.000658314
0.000430969
0.000149514
-0.0699057
-0.0733694
-0.0755785
-0.0768173
-0.077675
-0.0785073
-0.0793799
-0.0802125
-0.0809126
-0.0814322
-0.0817661
-0.0819289
-0.081937
-0.0818027
-0.0815352
-0.0811435
-0.0806386
-0.0800331
-0.0793395
-0.0785681
-0.0777247
-0.0768075
-0.0758037
-0.0746924
-0.0734412
-0.072005
-0.070329
-0.0683524
-0.0660153
-0.0632661
-0.0600714
-0.0564232
-0.0523463
-0.0478988
-0.0431714
-0.0382774
-0.0333461
-0.0285084
-0.0238907
-0.0196011
-0.0157278
-0.0123282
-0.00943372
-0.00704141
-0.00512584
-0.00363361
-0.00250233
-0.00165695
-0.00103173
-0.000562125
-0.000206307
7.27457e-05
0.000284903
0.000444298
0.00054014
0.000579633
0.00054915
0.000458596
0.00030798
0.000106805
-0.0642811
-0.0673858
-0.0694347
-0.0706545
-0.0715434
-0.0724091
-0.0733137
-0.074191
-0.0749605
-0.0755779
-0.0760352
-0.0763416
-0.076509
-0.076545
-0.0764545
-0.0762416
-0.0759117
-0.0754715
-0.0749277
-0.0742857
-0.0735479
-0.0727106
-0.0717639
-0.0706911
-0.0694679
-0.0680617
-0.0664331
-0.0645386
-0.0623355
-0.0597869
-0.0568691
-0.0535764
-0.0499273
-0.0459653
-0.0417595
-0.037398
-0.0329839
-0.0286242
-0.0244253
-0.0204808
-0.0168703
-0.0136492
-0.0108517
-0.00848362
-0.00653137
-0.00495721
-0.00371427
-0.00274335
-0.00199055
-0.0014011
-0.000937102
-0.000563906
-0.000268653
-3.58374e-05
0.000129633
0.000235834
0.000275142
0.000256172
0.000183579
6.39361e-05
-0.0590937
-0.0618672
-0.0637549
-0.0649366
-0.0658323
-0.0667075
-0.0676196
-0.0685144
-0.0693221
-0.0700023
-0.0705449
-0.0709556
-0.071242
-0.0714087
-0.0714571
-0.0713878
-0.0712022
-0.0709025
-0.0704914
-0.0699704
-0.0693392
-0.0685937
-0.0677254
-0.0667208
-0.0655617
-0.0642244
-0.062681
-0.0609004
-0.0588528
-0.0565122
-0.0538624
-0.0509
-0.0476393
-0.0441132
-0.0403745
-0.0364917
-0.0325464
-0.0286254
-0.0248171
-0.0212017
-0.0178497
-0.0148132
-0.0121275
-0.00980459
-0.00784036
-0.00620991
-0.00487956
-0.00380385
-0.00293974
-0.00224168
-0.00167626
-0.00121187
-0.000833972
-0.000526423
-0.00028935
-0.000114035
-2.97248e-06
5.15571e-05
5.80378e-05
2.09458e-05
-0.0543132
-0.0567831
-0.0585117
-0.0596412
-0.0605247
-0.0613904
-0.0622908
-0.0631813
-0.064002
-0.0647162
-0.065313
-0.065795
-0.066167
-0.0664309
-0.0665859
-0.0666301
-0.0665619
-0.0663806
-0.0660856
-0.0656761
-0.0651498
-0.0645026
-0.0637263
-0.0628099
-0.0617398
-0.0604988
-0.0590669
-0.0574224
-0.0555444
-0.0534151
-0.051024
-0.0483693
-0.0454628
-0.0423296
-0.0390105
-0.0355582
-0.0320376
-0.0285181
-0.0250728
-0.0217694
-0.0186697
-0.0158212
-0.0132591
-0.0109997
-0.00904576
-0.00738287
-0.0059883
-0.00482833
-0.00386965
-0.00307528
-0.00241654
-0.00186535
-0.00140656
-0.00102413
-0.000714423
-0.00046831
-0.000283994
-0.000154467
-6.82462e-05
-2.213e-05
-0.0499122
-0.0521044
-0.0536785
-0.0547461
-0.0556032
-0.0564451
-0.057319
-0.0581887
-0.0590026
-0.0597281
-0.0603539
-0.0608805
-0.0613104
-0.0616439
-0.0618784
-0.0620104
-0.0620364
-0.0619537
-0.0617596
-0.0614514
-0.0610258
-0.060478
-0.0598007
-0.0589847
-0.0580195
-0.0568923
-0.0555889
-0.0540941
-0.0523934
-0.050475
-0.048332
-0.0459645
-0.0433821
-0.0406043
-0.0376627
-0.0345982
-0.0314619
-0.0283094
-0.0252003
-0.0221913
-0.0193356
-0.0166763
-0.0142468
-0.0120661
-0.0101422
-0.00846864
-0.00703161
-0.0058073
-0.00477088
-0.0038932
-0.00315035
-0.00251811
-0.00198145
-0.00152509
-0.00114267
-0.000824969
-0.000566631
-0.000361062
-0.00019467
-6.51283e-05
-0.0458648
-0.0478042
-0.0492303
-0.05023
-0.0510507
-0.0518584
-0.0526953
-0.0535319
-0.0543243
-0.0550436
-0.0556787
-0.0562286
-0.0566943
-0.0570747
-0.0573664
-0.0575647
-0.0576652
-0.0576635
-0.0575559
-0.0573383
-0.0570066
-0.0565561
-0.0559798
-0.0552699
-0.0544179
-0.0534141
-0.0522483
-0.0509097
-0.0493886
-0.0476767
-0.0457704
-0.0436704
-0.0413849
-0.0389293
-0.0363281
-0.0336133
-0.0308248
-0.028007
-0.0252084
-0.0224758
-0.0198548
-0.0173832
-0.0150928
-0.0130032
-0.0111262
-0.00946134
-0.00800187
-0.00673212
-0.00563451
-0.00468692
-0.00386998
-0.00316348
-0.00255323
-0.00202513
-0.00157085
-0.00118148
-0.000849079
-0.000567332
-0.000320813
-0.000107826
-0.0421474
-0.0438576
-0.0451436
-0.0460727
-0.0468504
-0.047617
-0.0484099
-0.0492051
-0.0499654
-0.0506656
-0.051295
-0.0518519
-0.0523359
-0.0527452
-0.0530759
-0.0533229
-0.053481
-0.053545
-0.0535105
-0.0533727
-0.0531268
-0.0527684
-0.0522912
-0.051688
-0.0509516
-0.0500743
-0.0490487
-0.0478672
-0.046523
-0.0450106
-0.0433279
-0.0414763
-0.0394628
-0.0372995
-0.0350058
-0.0326063
-0.0301326
-0.0276198
-0.025107
-0.0226328
-0.0202357
-0.0179488
-0.015801
-0.0138121
-0.0119961
-0.0103567
-0.00889282
-0.00759522
-0.00645235
-0.00544826
-0.00456783
-0.00379477
-0.0031161
-0.00251951
-0.00199544
-0.00153535
-0.00112932
-0.000771622
-0.000445889
-0.000150213
-0.0387392
-0.0402424
-0.0413973
-0.0422555
-0.0429864
-0.043708
-0.0444527
-0.0452014
-0.0459227
-0.0465947
-0.0472077
-0.0477592
-0.0482482
-0.0486725
-0.0490278
-0.0493089
-0.0495104
-0.0496268
-0.0496532
-0.0495845
-0.0494158
-0.0491427
-0.0487594
-0.0482594
-0.0476362
-0.0468836
-0.0459961
-0.0449679
-0.0437942
-0.0424712
-0.040998
-0.039376
-0.0376111
-0.035713
-0.0336968
-0.0315818
-0.0293928
-0.0271574
-0.0249071
-0.0226735
-0.0204887
-0.0183813
-0.0163773
-0.014496
-0.012752
-0.0111524
-0.00969975
-0.00839022
-0.00721708
-0.00616961
-0.00523647
-0.00440523
-0.00366435
-0.00300336
-0.00241229
-0.00188348
-0.00140559
-0.000972882
-0.000568666
-0.000191763
-0.0356221
-0.036939
-0.0379725
-0.0387612
-0.039444
-0.0401189
-0.0408138
-0.0415135
-0.0421918
-0.0428299
-0.043419
-0.0439564
-0.0444406
-0.0448691
-0.0452378
-0.0455414
-0.0457746
-0.0459318
-0.0460082
-0.0459985
-0.0458978
-0.0457021
-0.0454056
-0.0450023
-0.0444867
-0.0438533
-0.0430976
-0.0422153
-0.0412028
-0.0400573
-0.0387782
-0.0373671
-0.0358287
-0.0341705
-0.0324047
-0.030546
-0.0286141
-0.0266305
-0.0246205
-0.0226098
-0.020625
-0.0186906
-0.0168294
-0.0150596
-0.013396
-0.0118476
-0.0104197
-0.00911235
-0.0079226
-0.0068442