/*--------------------------------*- C++ -*----------------------------------*\
| =========                 |                                                 |
| \\      /  F ield         | OpenFOAM: The Open Source CFD Toolbox           |
|  \\    /   O peration     | Version:  2512                                  |
|   \\  /    A nd           | Website:  www.openfoam.com                      |
|    \\/     M anipulation  |                                                 |
\*---------------------------------------------------------------------------*/
FoamFile
{
    version     2.0;
    format      ascii;
    arch        "LSB;label=32;scalar=64";
    class       volVectorField;
    location    "43";
    object      U;
}
// * * * * * * * * * * * * * * * * * * * * * * * * * * * * * * * * * * * * * //

dimensions      [0 1 -1 0 0 0 0];

internalField   nonuniform List<vector> 
13248
(
(-0.0126899 0.0117795 6.18385e-20)
(-0.0247304 0.0257314 0)
(-0.0239778 0.0338481 -1.16795e-19)
(-0.0112285 0.0379208 1.10023e-19)
(0.0129336 0.0394269 1.02978e-19)
(0.0480706 0.039562 0)
(0.0938028 0.039253 0)
(0.149709 0.0392078 2.48733e-19)
(0.215205 0.0399478 -9.18377e-22)
(0.289414 0.0418231 -2.17863e-19)
(0.371077 0.0450152 2.03071e-19)
(0.458514 0.0495412 -1.27033e-19)
(0.549651 0.0552639 0)
(0.642122 0.0619102 -2.21393e-19)
(0.733406 0.0691013 4.14607e-19)
(0.821002 0.0763904 -9.82468e-20)
(0.902599 0.0833111 -1.79291e-19)
(0.976233 0.0893991 1.68308e-19)
(1.04043 0.0943304 0)
(1.09418 0.0975665 0)
(1.13742 0.0996576 0)
(1.16933 0.0982272 0)
(1.19339 0.0990394 5.40892e-20)
(1.2048 0.0876281 2.00433e-19)
(-0.0125138 0.0103018 -1.86796e-19)
(-0.0208817 0.0209587 1.2731e-19)
(-0.0133647 0.0264234 -1.16767e-21)
(0.00886719 0.0286912 -1.68171e-19)
(0.0450159 0.0293727 -1.02868e-19)
(0.0944207 0.0297452 -9.72911e-20)
(0.156342 0.0307529 -1.78801e-19)
(0.229784 0.0330617 1.69069e-19)
(0.313323 0.0370815 0)
(0.405004 0.0429733 5.76946e-22)
(0.502322 0.0506551 1.18641e-21)
(0.602332 0.059822 1.26993e-19)
(0.701833 0.0699854 0)
(0.797624 0.0805317 0)
(0.886758 0.0907942 1.52481e-19)
(0.966779 0.100128 -2.86431e-19)
(1.03589 0.107976 1.74236e-19)
(1.09307 0.113925 -1.63573e-19)
(1.13805 0.117737 -7.33451e-20)
(1.17138 0.119327 -1.35885e-19)
(1.19399 0.118913 -5.84381e-20)
(1.20783 0.11627 -1.10424e-19)
(1.21397 0.113614 1.59286e-19)
(1.21479 0.105887 4.67195e-20)
(-0.0115096 0.00854003 0)
(-0.0139978 0.0156941 0)
(0.00300104 0.0188127 5.94829e-20)
(0.0377705 0.0199696 5.47526e-20)
(0.0890961 0.0208408 -1.3662e-21)
(0.155799 0.0227356 -1.00473e-19)
(0.236355 0.0265376 0)
(0.328658 0.0327381 -8.40988e-20)
(0.429894 0.0414583 7.91773e-20)
(0.536567 0.0524667 5.8477e-22)
(0.644705 0.0652203 -1.36025e-19)
(0.750189 0.0789424 -1.25599e-19)
(0.849144 0.0927294 1.51221e-21)
(0.938301 0.105671 -1.062e-19)
(1.01527 0.116962 2.53009e-19)
(1.0787 0.125994 0)
(1.1283 0.13241 -1.68821e-19)
(1.16473 0.136108 8.15137e-20)
(1.18946 0.137249 7.32768e-20)
(1.20439 0.136101 0)
(1.21177 0.133308 6.15103e-20)
(1.21365 0.128803 -2.157e-19)
(1.21175 0.12478 2.02485e-19)
(1.20892 0.117064 1.31855e-19)
(-0.0093003 0.00645737 -6.61779e-20)
(-0.00313328 0.0100305 -6.8437e-20)
(0.0264623 0.0113936 6.17946e-20)
(0.0770044 0.0124958 0)
(0.146534 0.0149476 0)
(0.232875 0.019962 -2.18665e-21)
(0.333118 0.0281784 0)
(0.443441 0.0396808 -2.57225e-19)
(0.559186 0.0540472 2.39301e-19)
(0.675194 0.0704311 -2.95977e-19)
(0.786333 0.0876985 6.80787e-20)
(0.888056 0.104606 0)
(0.976876 0.119987 1.15177e-19)
(1.05066 0.132907 -2.1412e-19)
(1.1087 0.142766 5.08452e-20)
(1.15161 0.149334 1.33819e-19)
(1.18103 0.152721 -4.27948e-21)
(1.19927 0.153304 -1.50402e-19)
(1.2089 0.15162 0)
(1.21241 0.148251 0)
(1.21195 0.143834 -5.59224e-20)
(1.2091 0.138547 5.08101e-20)
(1.20511 0.133915 1.86235e-19)
(1.20075 0.126616 -1.74815e-19)
(-0.00547987 0.00409593 -6.99046e-20)
(0.012653 0.00424786 -6.95362e-20)
(0.0581988 0.00478233 1.95559e-19)
(0.127617 0.00725143 -1.18463e-19)
(0.217716 0.0129821 1.11509e-19)
(0.324678 0.0228517 2.02457e-19)
(0.443547 0.0369602 -1.43178e-19)
(0.568323 0.0546712 -1.7474e-19)
(0.692467 0.0747678 3.01256e-21)
(0.809672 0.0956796 2.24075e-19)
(0.914646 0.115762 0)
(1.00371 0.133568 6.25878e-20)
(1.07509 0.148049 0)
(1.12882 0.15866 -1.03882e-19)
(1.16646 0.165349 1.46191e-19)
(1.19057 0.168463 1.29552e-21)
(1.20414 0.168612 -3.92551e-20)
(1.21016 0.166508 7.41307e-20)
(1.21119 0.162841 6.47343e-20)
(1.20923 0.158191 -5.87359e-20)
(1.20565 0.153028 5.59092e-20)
(1.2013 0.147507 -5.07978e-20)
(1.19658 0.142527 0)
(1.1922 0.135638 -3.96377e-20)
(0.000348236 0.0016003 6.98946e-20)
(0.0341879 -0.00113276 7.34485e-20)
(0.0990432 -0.000105892 -6.55406e-20)
(0.189918 0.00548463 1.22049e-19)
(0.30175 0.0163509 -1.14879e-19)
(0.428375 0.0326683 1.03897e-19)
(0.562296 0.0536144 -4.99135e-20)
(0.695352 0.0775366 1.31186e-19)
(0.819798 0.102325 -8.26581e-20)
(0.9294 0.125839 1.47653e-19)
(1.02019 0.146292 -3.41847e-19)
(1.09072 0.162511 1.26153e-19)
(1.14177 0.174019 -1.11781e-19)
(1.17582 0.180966 1.04992e-19)
(1.19624 0.183952 9.21808e-20)
(1.20661 0.183807 8.20422e-20)
(1.21016 0.181395 -2.28692e-19)
(1.2095 0.177481 1.42353e-19)
(1.20647 0.172655 -6.47366e-20)
(1.20226 0.167332 1.71499e-19)
(1.19757 0.161789 -5.52172e-20)
(1.19275 0.15613 -1.38238e-19)
(1.18797 0.150845 1.28183e-19)
(1.1835 0.144272 3.96237e-20)
(0.00853412 -0.000777551 0)
(0.0620655 -0.00534906 6.62138e-22)
(0.149286 -0.00209291 1.37391e-19)
(0.263237 0.00860144 -1.28818e-19)
(0.396285 0.0263704 -1.1608e-19)
(0.539365 0.0502227 2.1583e-19)
(0.682447 0.0780532 -1.00272e-19)
(0.815972 0.107084 1.34147e-19)
(0.93239 0.134525 -2.5762e-21)
(1.02716 0.15813 -7.64318e-20)
(1.09899 0.176532 1.68298e-19)
(1.14933 0.189302 -2.49244e-19)
(1.18149 0.196794 0)
(1.19962 0.199863 -4.97544e-20)
(1.20783 0.199561 -1.34156e-19)
(1.20962 0.196908 4.20948e-20)
(1.20764 0.192744 1.35812e-21)
(1.20369 0.187686 -9.5866e-20)
(1.19884 0.182146 4.72164e-21)
(1.19373 0.176378 1.11481e-19)
(1.18864 0.170535 -5.06567e-20)
(1.18371 0.164704 -2.00215e-20)
(1.17894 0.159091 6.02194e-20)
(1.17447 0.152718 0)
(0.0193396 -0.00268792 0)
(0.0965247 -0.00744644 3.72962e-20)
(0.208494 0.000146326 -1.79715e-19)
(0.34577 0.0179601 6.52823e-20)
(0.497558 0.0439903 -6.14423e-20)
(0.65181 0.0756249 -5.6289e-20)
(0.796726 0.109317 -9.96433e-20)
(0.922861 0.141403 4.95912e-20)
(1.0246 0.168958 4.32272e-20)
(1.10044 0.190268 0)
(1.15234 0.204876 1.00273e-19)
(1.18438 0.213321 -1.50228e-19)
(1.2015 0.216719 1.11924e-19)
(1.20838 0.216376 4.97794e-20)
(1.20889 0.213492 -4.14723e-20)
(1.20581 0.209018 -3.52704e-20)
(1.20099 0.203625 -3.32542e-20)
(1.19548 0.197747 9.8219e-20)
(1.18988 0.191643 0)
(1.18443 0.185464 5.07922e-20)
(1.17925 0.179299 4.38012e-20)
(1.17433 0.173209 -1.07534e-19)
(1.16963 0.167233 -7.55044e-20)
(1.16517 0.160969 6.9667e-20)
(0.0328913 -0.00370579 -4.05637e-20)
(0.137335 -0.00636782 -1.65418e-21)
(0.275401 0.00790956 3.66243e-20)
(0.434603 0.034625 1.02485e-19)
(0.60079 0.0695583 2.98945e-20)
(0.759577 0.108212 -5.77774e-20)
(0.898922 0.145812 5.27033e-20)
(1.01135 0.178412 -4.63213e-20)
(1.0946 0.203673 8.35376e-20)
(1.15078 0.220951 3.58485e-20)
(1.18469 0.230915 -1.01812e-19)
(1.2021 0.234966 3.01565e-20)
(1.20843 0.234707 5.19828e-20)
(1.20804 0.231584 -2.55025e-20)
(1.20403 0.226712 0)
(1.19836 0.220857 3.88047e-20)
(1.19214 0.2145 6.64157e-20)
(1.18594 0.207919 1.19213e-20)
(1.18003 0.201272 -5.58641e-20)
(1.17448 0.194647 2.36771e-20)
(1.1693 0.188099 0)
(1.16443 0.181656 -1.9021e-20)
(1.1598 0.175293 -1.83328e-20)
(1.15536 0.169015 0)
(0.0491297 -0.00336335 0)
(0.183714 -0.00106827 2.12912e-20)
(0.347889 0.0222787 3.93613e-20)
(0.525951 0.059163 -1.04773e-19)
(0.700842 0.102731 3.39254e-20)
(0.857268 0.14671 0)
(0.984889 0.185722 5.12255e-20)
(1.07978 0.216356 -7.16032e-20)
(1.14367 0.237483 -4.18075e-20)
(1.18191 0.249784 1.89166e-20)
(1.20119 0.254952 -3.06995e-20)
(1.20787 0.254966 7.43186e-20)
(1.20703 0.251607 3.75729e-20)
(1.20224 0.24623 -2.59358e-20)
(1.19573 0.239755 -2.24243e-21)
(1.18873 0.232742 -7.2517e-20)
(1.18186 0.225509 3.3135e-20)
(1.17538 0.218229 -8.95269e-22)
(1.16938 0.210992 0)
(1.16385 0.203854 -2.37019e-20)
(1.15873 0.196846 0)
(1.15395 0.189968 5.49228e-20)
(1.14942 0.183205 -6.58347e-20)
(1.14502 0.176791 3.01844e-20)
(0.0677662 -0.00118914 -1.11941e-20)
(0.234292 0.00936953 -5.3747e-20)
(0.423114 0.0439652 6.12392e-20)
(0.615586 0.0915427 3.59522e-20)
(0.792947 0.142553 -1.71214e-20)
(0.940949 0.189524 2.89576e-20)
(1.05275 0.227385 -1.40156e-20)
(1.12882 0.254028 2.34574e-20)
(1.17466 0.269885 0)
(1.19794 0.276905 5.36094e-20)
(1.20618 0.277528 -2.11349e-21)
(1.20549 0.273992 -4.34653e-20)
(1.20016 0.268011 1.87072e-20)
(1.19285 0.260736 -2.12517e-20)
(1.18503 0.252861 -8.19491e-21)
(1.1774 0.244769 9.38294e-21)
(1.17028 0.236659 -7.30443e-21)
(1.16374 0.228632 -4.01296e-20)
(1.15778 0.220743 2.46059e-20)
(1.15235 0.213026 5.08908e-21)
(1.14736 0.205493 4.52415e-21)
(1.14272 0.198124 4.02722e-21)
(1.13832 0.190962 0)
(1.13399 0.184274 0)
(0.0883299 0.00325935 1.12018e-20)
(0.287297 0.0256455 -1.11789e-20)
(0.497906 0.073208 -2.04254e-20)
(0.699473 0.131136 0)
(0.873372 0.187644 -8.52433e-21)
(1.00841 0.235034 -7.72585e-21)
(1.10243 0.269498 -1.32384e-20)
(1.16034 0.290747 0)
(1.19063 0.300814 0)
(1.20223 0.302663 0)
(1.20261 0.299149 0)
(1.19714 0.292506 0)
(1.18915 0.284243 -1.17574e-20)
(1.1805 0.275266 5.35795e-21)
(1.17208 0.266067 9.3806e-21)
(1.16424 0.25689 4.40419e-21)
(1.15711 0.247854 1.09532e-20)
(1.15067 0.239017 0)
(1.14487 0.230409 -2.67132e-21)
(1.13964 0.22205 -2.58919e-21)
(1.13487 0.213931 -4.53137e-21)
(1.13045 0.206033 -4.03366e-21)
(1.12625 0.198476 0)
(1.1221 0.19138 2.96745e-21)
(-0.00136673 0.00909165 6.47987e-21)
(-0.00606139 0.0213565 -6.72535e-21)
(-0.0142148 0.0293726 -1.27362e-20)
(-0.0241495 0.0342189 0)
(-0.0349228 0.0367524 -1.70301e-20)
(-0.0460424 0.0376563 5.33199e-21)
(-0.0571615 0.0374547 -1.01175e-20)
(-0.0680375 0.0365218 0)
(-0.0785154 0.0350995 0)
(-0.0885009 0.0333218 0)
(-0.097938 0.0312409 0)
(-0.106794 0.0288528 0)
(-0.115048 0.0261197 -4.15572e-23)
(-0.122684 0.0229871 -6.62058e-21)
(-0.129687 0.0193966 1.25663e-20)
(-0.136042 0.0152949 1.76857e-20)
(-0.141737 0.0106398 5.61472e-21)
(-0.146763 0.0054051 0)
(-0.151117 -0.000415004 4.85313e-21)
(-0.154818 -0.00679643 -1.37749e-20)
(-0.157925 -0.0136963 -8.64959e-21)
(-0.160532 -0.0210538 -8.11e-21)
(-0.162825 -0.0288003 0)
(-0.165105 -0.0368762 0)
(-0.00214489 0.0121837 -1.95347e-20)
(-0.00763282 0.0287788 3.36585e-20)
(-0.0158718 0.0397464 -1.2785e-20)
(-0.0254746 0.0465354 -2.41895e-20)
(-0.0356633 0.0502591 3.4133e-20)
(-0.0460362 0.0517932 -2.1553e-20)
(-0.0563058 0.051814 3.03868e-20)
(-0.0662665 0.0508144 1.92534e-20)
(-0.0757847 0.0491249 0)
(-0.0847773 0.0469435 -1.69799e-20)
(-0.0931941 0.0443657 -9.65832e-23)
(-0.101005 0.0414145 1.49846e-20)
(-0.108191 0.0380662 2.14373e-20)
(-0.114738 0.0342715 2.69012e-20)
(-0.120631 0.0299716 -1.24822e-20)
(-0.125854 0.025111 -3.56009e-20)
(-0.130389 0.0196492 1.13381e-20)
(-0.134213 0.0135707 -4.23827e-20)
(-0.13731 0.00689717 0)
(-0.139679 -0.000311107 9.20682e-21)
(-0.141342 -0.0079424 8.63815e-21)
(-0.142342 -0.0158361 8.09916e-21)
(-0.142818 -0.0237724 0)
(-0.14318 -0.0314865 0)
(-0.00320842 0.0147524 0)
(-0.00979548 0.0350813 6.83858e-20)
(-0.0181394 0.0487104 -2.57754e-20)
(-0.0272319 0.0573322 2.43126e-20)
(-0.0365083 0.0622413 -6.91491e-20)
(-0.0456848 0.0644596 0)
(-0.0545525 0.0647874 -4.10568e-20)
(-0.062957 0.0638196 1.93813e-20)
(-0.0707943 0.0619685 -3.66838e-20)
(-0.0779966 0.0594947 1.75002e-20)
(-0.0845199 0.0565394 9.77012e-20)
(-0.0903358 0.0531564 -4.5909e-20)
(-0.0954244 0.04934 -7.22211e-20)
(-0.0997693 0.0450484 -2.76537e-20)
(-0.103353 0.0402217 -2.05361e-22)
(-0.106156 0.0347979 9.68646e-20)
(-0.10815 0.0287266 -4.55644e-20)
(-0.109301 0.0219837 -4.18419e-22)
(-0.10957 0.0145891 0)
(-0.108924 0.00662591 -3.8495e-20)
(-0.107348 -0.00173846 0)
(-0.104799 -0.0102311 -3.32206e-20)
(-0.101213 -0.0184094 1.2611e-19)
(-0.097235 -0.0256744 -9.09142e-24)
(-0.00445422 0.0166559 0)
(-0.0123572 0.0399251 3.57927e-22)
(-0.0208269 0.055791 2.62788e-20)
(-0.0292695 0.0660429 -2.48476e-20)
(-0.0373562 0.0720692 2.30371e-20)
(-0.044936 0.0749849 1.31943e-19)
(-0.0518914 0.0756788 -4.13576e-20)
(-0.0581294 0.074826 -3.92694e-20)
(-0.0635818 0.0729089 7.37063e-20)
(-0.0681988 0.0702464 -1.04284e-19)
(-0.0719424 0.0670261 3.28763e-20)
(-0.0747819 0.0633363 3.11494e-20)
(-0.0766906 0.0591943 0)
(-0.0776436 0.0545708 2.74102e-20)
(-0.0776145 0.0494088 0)
(-0.0765733 0.0436399 4.952e-20)
(-0.0744841 0.0371982 -9.30283e-20)
(-0.0713014 0.0300363 2.13076e-20)
(-0.0669693 0.0221463 8.23499e-20)
(-0.0614341 0.0135884 3.84575e-20)
(-0.0546627 0.00453028 0)
(-0.0465347 -0.00467311 -1.02579e-19)
(-0.0366354 -0.0133224 3.19571e-20)
(-0.0254704 -0.020288 0)
(-0.00576938 0.0178285 0)
(-0.0151034 0.0431146 -8.383e-20)
(-0.0237207 0.0606695 -2.66489e-20)
(-0.0314192 0.0722397 -4.99131e-20)
(-0.0380993 0.0792254 4.69986e-20)
(-0.0437437 0.0827804 -4.41178e-20)
(-0.0483321 0.0838449 8.3771e-20)
(-0.051838 0.0831484 3.94915e-20)
(-0.0542336 0.0812271 -1.11341e-19)
(-0.0554882 0.0784498 7.03951e-20)
(-0.0555674 0.0750479 -9.93245e-20)
(-0.0544329 0.0711455 2.19716e-19)
(-0.0520434 0.0667881 -1.17924e-19)
(-0.0483545 0.0619662 5.60911e-20)
(-0.0433189 0.0566349 1.58785e-19)
(-0.0368866 0.050729 -4.8906e-20)
(-0.0290048 0.0441762 -4.67599e-20)
(-0.0196161 0.036911 -4.39316e-20)
(-0.00865564 0.028891 0)
(0.00393588 0.0201189 -7.90628e-20)
(0.0181717 0.010685 -7.44692e-20)
(0.034107 0.000894696 1.04464e-19)
(0.0524542 -0.00836578 1.3006e-19)
(0.0739248 -0.0152714 -1.2294e-19)
(-0.00705268 0.0182867 0)
(-0.0178305 0.0446149 -1.13824e-19)
(-0.0266074 0.0632092 -3.92727e-22)
(-0.0334988 0.0756706 1.00847e-19)
(-0.0386032 0.083347 0)
(-0.0420246 0.0873857 0)
(-0.0438377 0.0887453 0)
(-0.0440835 0.0881811 -3.97682e-20)
(-0.0427744 0.0862644 -2.4971e-22)
(-0.0398983 0.0834009 7.06985e-20)
(-0.0354209 0.0798585 -1.0025e-19)
(-0.0292906 0.0757952 -2.22164e-22)
(-0.021442 0.0712861 0)
(-0.0118005 0.0663474 -5.60658e-20)
(-0.000285654 0.0609552 5.37851e-20)
(0.0131849 0.0550614 -1.5065e-19)
(0.0286917 0.0486054 1.90158e-19)
(0.046308 0.0415273 4.58146e-20)
(0.0660958 0.0337765 7.87547e-22)
(0.0880965 0.0253236 -1.59246e-19)
(0.112288 0.016184 -7.52237e-20)
(0.138629 0.00650829 2.46453e-19)
(0.167397 -0.00291515 -1.65371e-19)
(0.203329 -0.00951398 0)
(-0.00823381 0.0181236 5.61446e-20)
(-0.0203734 0.0445464 5.70841e-20)
(-0.0292859 0.0634626 -5.44684e-20)
(-0.0352987 0.0762806 -1.02005e-19)
(-0.0386619 0.0842626 9.60456e-20)
(-0.0395792 0.0885248 -9.04606e-20)
(-0.0382069 0.0900107 1.27833e-19)
(-0.0346515 0.0894794 -3.98035e-20)
(-0.0289592 0.0875181 7.55037e-20)
(-0.0211308 0.0845548 0)
(-0.011127 0.080883 6.77426e-20)
(0.00112441 0.0766885 -1.26903e-19)
(0.0157194 0.0720745 1.20182e-19)
(0.0327691 0.0670842 -1.12879e-19)
(0.0523907 0.0617205 0)
(0.0746968 0.0559611 1.00928e-19)
(0.0997871 0.0497733 1.91549e-19)
(0.127735 0.0431228 -1.79712e-19)
(0.158572 0.035985 -8.49514e-20)
(0.192286 0.0283557 -8.03536e-20)
(0.228714 0.0202499 2.2569e-19)
(0.268069 0.0117787 7.05372e-20)
(0.307796 0.00300559 -6.64001e-20)
(0.363061 -0.00209616 6.10647e-20)
(-0.009284 0.017485 -5.61523e-20)
(-0.0226182 0.0431528 1.74889e-19)
(-0.0315612 0.0616507 -5.51685e-20)
(-0.0365473 0.0742139 1.03044e-19)
(-0.0379204 0.0820246 -9.70226e-20)
(-0.0359657 0.0861553 3.4884e-22)
(-0.0309027 0.0875183 4.30439e-20)
(-0.0228804 0.0868633 1.61942e-19)
(-0.0119698 0.0847749 2.71138e-22)
(0.00182622 0.0816895 -7.1339e-20)
(0.0185622 0.0779168 0)
(0.0383366 0.0736638 -6.40036e-20)
(0.0612755 0.069059 1.19821e-19)
(0.0875164 0.0641732 1.13677e-19)
(0.117191 0.0590385 -5.3294e-20)
(0.150405 0.0536638 -7.5357e-23)
(0.187218 0.0480476 -4.77149e-20)
(0.227621 0.0421889 8.97801e-20)
(0.271515 0.0360982 8.49324e-20)
(0.31876 0.029827 -7.99769e-20)
(0.368621 0.0233266 7.46595e-20)
(0.422741 0.0172038 -6.98105e-20)
(0.471775 0.009781 0)
(0.548235 0.00780626 -6.09812e-20)
(-0.0102089 0.0165397 5.7303e-20)
(-0.0244823 0.0407439 -5.85789e-20)
(-0.0332066 0.0581118 5.57621e-20)
(-0.0368403 0.0697874 0)
(-0.0357792 0.0769069 0)
(-0.0303583 0.0805071 9.248e-20)
(-0.0208375 0.0814739 -8.63805e-20)
(-0.00738476 0.0805348 8.12949e-20)
(0.00992688 0.0782637 -3.81448e-19)
(0.0311078 0.0750976 -3.30309e-23)
(0.0562329 0.0713562 6.75483e-20)
(0.0854172 0.0672647 0)
(0.118788 0.0629748 -1.20271e-19)
(0.156456 0.0585834 2.2641e-19)
(0.198479 0.0541496 -1.6e-19)
(0.244837 0.0497077 -2.52378e-19)
(0.295402 0.0452799 -7.96182e-22)
(0.349914 0.0408882 1.77987e-19)
(0.407929 0.0365452 0)
(0.469101 0.0323969 0)
(0.531506 0.0280521 -7.46524e-20)
(0.599197 0.0252172 6.98023e-20)
(0.654314 0.0196521 -2.57248e-19)
(0.746948 0.0219496 2.41344e-19)
(-0.011035 0.0154382 0)
(-0.0258748 0.0376219 0)
(-0.0338991 0.0532325 -1.67812e-19)
(-0.0355564 0.0634388 5.33622e-20)
(-0.0312679 0.0693876 3.92408e-22)
(-0.0213912 0.0721072 9.34426e-20)
(-0.00619595 0.0724659 0)
(0.0141562 0.0711734 -8.16144e-20)
(0.0396084 0.0687931 7.6384e-20)
(0.0701829 0.0657621 -1.43811e-19)
(0.105947 0.0624086 -3.18909e-23)
(0.146967 0.0589718 1.27314e-19)
(0.193266 0.0556194 3.2739e-22)
(0.24477 0.0524625 1.13332e-19)
(0.301271 0.0495681 -1.59225e-19)
(0.362392 0.0469692 0)
(0.427564 0.0446734 1.88662e-19)
(0.49603 0.0426758 -2.66184e-19)
(0.566779 0.0409207 8.25193e-20)
(0.639063 0.0395979 0)
(0.709989 0.0379111 7.21674e-20)
(0.784495 0.0383334 2.71782e-19)
(0.841343 0.0347268 -2.55061e-19)
(0.935345 0.0406169 -2.9324e-19)
(-0.0117709 0.0142755 1.76244e-19)
(-0.0266273 0.0340182 -2.42253e-19)
(-0.0331405 0.0473801 5.48751e-22)
(-0.0317759 0.0556752 5.38504e-20)
(-0.0229737 0.0601219 -1.00267e-19)
(-0.00709442 0.0617747 -9.30013e-20)
(0.0156037 0.0615043 1.74395e-19)
(0.0449721 0.0600142 -9.57323e-22)
(0.0809483 0.057866 -1.53633e-19)
(0.123505 0.0554958 2.8776e-19)
(0.17258 0.0532317 -1.09113e-23)
(0.228017 0.0513095 -1.26929e-19)
(0.28949 0.0498845 0)
(0.356463 0.0490395 0)
(0.428152 0.0487926 -5.29624e-20)
(0.503522 0.0491049 -9.86157e-20)
(0.581312 0.0498906 -1.86252e-19)
(0.660075 0.0510243 1.7483e-19)
(0.738229 0.0523452 -8.25521e-20)
(0.814359 0.0538023 1.5243e-19)
(0.88601 0.0547746 -7.33006e-20)
(0.955667 0.0568494 1.3106e-19)
(1.00859 0.0550152 -3.08461e-19)
(1.08498 0.0614611 5.78672e-20)
(-0.0123654 0.0130702 5.94921e-20)
(-0.0264166 0.0300502 0)
(-0.0301812 0.0408529 1.15009e-19)
(-0.0242254 0.0470225 -1.08343e-19)
(-0.00902826 0.049897 1.0036e-19)
(0.0150444 0.0505885 0)
(0.0477288 0.0499904 0)
(0.0888359 0.0488118 -8.21272e-20)
(0.13818 0.0476067 6.52308e-22)
(0.195491 0.0467924 7.24389e-20)
(0.260316 0.0466647 -6.74779e-20)
(0.331941 0.0474031 1.2689e-19)
(0.409338 0.0490764 0)
(0.491155 0.0516496 2.23107e-19)
(0.575745 0.0549941 -4.18658e-19)
(0.661239 0.0589014 2.9506e-19)
(0.745645 0.0631077 1.83156e-19)
(0.826951 0.0672912 -1.71929e-19)
(0.903307 0.071199 0)
(0.972954 0.0743498 0)
(1.03478 0.0768957 0)
(1.08807 0.0779459 0)
(1.12971 0.0777488 6.04751e-20)
(1.17516 0.0791264 -2.19105e-19)
(-0.168008 -0.0466693 -4.92196e-21)
(-0.172708 -0.0597361 4.94962e-21)
(-0.176846 -0.0737284 -1.51179e-22)
(-0.180656 -0.0882109 0)
(-0.184157 -0.102808 -4.42051e-21)
(-0.187321 -0.117025 8.55554e-21)
(-0.190143 -0.130261 -4.13103e-23)
(-0.192613 -0.1418 -3.98411e-21)
(-0.19473 -0.15082 0)
(-0.196474 -0.156424 0)
(-0.197799 -0.157655 -2.17541e-22)
(-0.198614 -0.153539 -2.08764e-22)
(-0.198767 -0.143135 -3.52551e-21)
(-0.198035 -0.125604 3.23142e-21)
(-0.196117 -0.100331 0)
(-0.192744 -0.0671401 0)
(-0.187677 -0.0261747 2.93499e-21)
(-0.18102 0.0218705 -4.28127e-23)
(-0.172994 0.0750998 -2.57174e-21)
(-0.163871 0.131081 -1.49407e-22)
(-0.154218 0.186761 0)
(-0.144609 0.238525 0)
(-0.135228 0.282628 0)
(-0.125238 0.315121 0)
(-0.112043 0.331585 0)
(-0.091406 0.327169 0)
(-0.0586998 0.297579 5.15944e-22)
(-0.0114122 0.241703 -8.62832e-22)
(0.0497657 0.162185 0)
(0.120966 0.066635 0)
(0.196617 -0.0316258 -5.03589e-22)
(0.270912 -0.119897 4.89397e-22)
(0.337634 -0.187269 1.79423e-22)
(0.391157 -0.22898 0)
(0.427688 -0.246946 0)
(0.444114 -0.246944 3.72493e-23)
(0.441107 -0.235268 -3.62082e-23)
(0.426857 -0.213509 0)
(0.417671 -0.179627 -4.56531e-23)
(0.428473 -0.132061 7.32772e-23)
(0.462456 -0.0761231 -2.95022e-23)
(0.512335 -0.0204827 0)
(0.56577 0.0259733 5.3823e-23)
(0.614654 0.0591784 -5.23355e-23)
(0.652859 0.0784795 0)
(0.680811 0.0865273 0)
(0.698225 0.0854011 2.52508e-23)
(0.711707 0.0777111 -7.17225e-23)
(0.722136 0.0645543 0)
(0.737757 0.0478979 0)
(0.753283 0.0295748 1.46604e-23)
(0.775595 0.0120909 -8.94768e-25)
(0.792546 -0.00248259 1.57453e-24)
(0.814268 -0.0130151 -8.46388e-24)
(0.825882 -0.0189731 0)
(0.844321 -0.0202892 0)
(0.851168 -0.0186964 0)
(0.870795 -0.0119407 0)
(0.87499 -0.00792632 0)
(0.899435 0.00438248 0)
(-0.144247 -0.0403691 -4.96028e-22)
(-0.14963 -0.05386 -2.03104e-20)
(-0.154266 -0.0684151 3.28667e-22)
(-0.158711 -0.0834377 1.874e-20)
(-0.163086 -0.0985707 2.8721e-22)
(-0.16737 -0.11332 0)
(-0.171575 -0.127077 -1.62414e-20)
(-0.175716 -0.139113 3.1772e-20)
(-0.179831 -0.148596 -1.55248e-20)
(-0.183954 -0.154648 1.42403e-20)
(-0.188091 -0.156346 -1.36239e-20)
(-0.192198 -0.152766 1.27234e-20)
(-0.196142 -0.143024 -1.23469e-20)
(-0.199677 -0.126333 -3.54718e-22)
(-0.202431 -0.102105 -1.12936e-20)
(-0.203931 -0.0700955 1.09756e-20)
(-0.203597 -0.0304351 -1.03534e-20)
(-0.201245 0.0161961 9.77134e-21)
(-0.196719 0.0682383 -9.5296e-21)
(-0.189662 0.123309 1.80771e-20)
(-0.179984 0.178461 -8.57196e-21)
(-0.167438 0.229767 -4.64388e-22)
(-0.151332 0.273138 -7.14474e-21)
(-0.13033 0.303945 1.36832e-20)
(-0.102051 0.317051 -6.54982e-21)
(-0.0636402 0.307539 4.03317e-22)
(-0.0127195 0.27219 6.49443e-21)
(0.0503667 0.210876 2.80191e-22)
(0.122863 0.127445 -1.20182e-20)
(0.200899 0.0305241 1.12229e-20)
(0.279765 -0.0680371 -5.27228e-21)
(0.35432 -0.153681 5.36421e-22)
(0.419111 -0.2158 -1.79769e-22)
(0.469548 -0.250307 2.65783e-22)
(0.503726 -0.259909 0)
(0.519953 -0.251143 0)
(0.51726 -0.232063 6.6515e-23)
(0.498126 -0.207214 -2.41928e-23)
(0.474266 -0.176297 -1.90162e-22)
(0.461896 -0.13593 -5.55064e-23)
(0.471352 -0.0872175 2.96061e-22)
(0.501404 -0.0356294 -7.2521e-23)
(0.542204 0.0104544 0)
(0.584625 0.0458478 0)
(0.621063 0.0683523 0)
(0.650495 0.0794903 0)
(0.672138 0.0804054 -1.03021e-22)
(0.69218 0.0735881 4.72103e-23)
(0.710639 0.0601778 0)
(0.734582 0.0429727 0)
(0.757101 0.0241767 0)
(0.784527 0.0068453 2.1065e-23)
(0.804077 -0.00717953 -4.21701e-24)
(0.826654 -0.0168302 1.86725e-23)
(0.837196 -0.0220659 0)
(0.853719 -0.0227695 0)
(0.857648 -0.021048 -8.90164e-24)
(0.874224 -0.0141024 -2.16035e-23)
(0.875857 -0.0103272 0)
(0.897403 0.00214689 0)
(-0.0950844 -0.0331465 2.1806e-22)
(-0.100723 -0.0468178 -4.23638e-20)
(-0.105319 -0.0617715 4.1075e-20)
(-0.10985 -0.0772374 -3.84009e-20)
(-0.114608 -0.0928495 -2.8917e-22)
(-0.119566 -0.108122 0)
(-0.124717 -0.122435 -3.36515e-20)
(-0.130062 -0.135025 3.29596e-20)
(-0.13565 -0.145019 2.36727e-22)
(-0.141538 -0.151572 4.37914e-22)
(-0.147753 -0.153784 4.07411e-22)
(-0.154279 -0.150771 3.98894e-22)
(-0.161017 -0.141707 -2.28474e-20)
(-0.167737 -0.12588 2.25614e-20)
(-0.174044 -0.102761 0)
(-0.179345 -0.0721037 5.67428e-22)
(-0.182787 -0.0340647 -1.80431e-20)
(-0.183819 0.0106065 1.7825e-20)
(-0.181866 0.0608386 0)
(-0.175959 0.114067 0)
(-0.165395 0.16764 -1.51445e-20)
(-0.149278 0.217088 2.92352e-20)
(-0.126343 0.258258 -2.7265e-20)
(-0.0953252 0.286102 2.2205e-22)
(-0.0546207 0.295175 2.60434e-20)
(-0.00269214 0.281169 -2.70981e-20)
(0.0605611 0.241767 2.62725e-20)
(0.13283 0.177284 -4.98303e-22)
(0.210975 0.0923625 -1.35e-20)
(0.291114 -0.0048539 0)
(0.369773 -0.102296 0)
(0.442119 -0.184718 2.86259e-21)
(0.502488 -0.241548 -3.87606e-21)
(0.54729 -0.269478 2.07763e-23)
(0.576395 -0.272096 9.16609e-22)
(0.590414 -0.256129 -8.90783e-22)
(0.589345 -0.229895 0)
(0.572009 -0.199844 -4.06251e-23)
(0.543523 -0.168407 -6.86208e-22)
(0.516393 -0.132706 1.45161e-21)
(0.50456 -0.0910532 -6.54049e-22)
(0.513361 -0.0452162 -9.78382e-23)
(0.538069 -0.00178618 7.33855e-22)
(0.57061 0.034072 -5.60386e-22)
(0.603042 0.0584206 -1.29328e-22)
(0.632989 0.0716435 -1.16085e-22)
(0.658886 0.073854 1.03284e-22)
(0.685682 0.067469 0)
(0.712005 0.0537313 0)
(0.743256 0.0362709 2.48422e-22)
(0.771275 0.0175095 -1.18639e-22)
(0.801963 0.000904375 9.11284e-23)
(0.822643 -0.0120942 -1.2011e-22)
(0.844791 -0.020508 -1.35837e-22)
(0.853714 -0.0247716 3.32135e-23)
(0.867803 -0.0247149 -5.08397e-23)
(0.868865 -0.0227713 4.0604e-23)
(0.881941 -0.0156875 -1.78634e-23)
(0.881078 -0.0121663 0)
(0.898872 0.000223325 0)
(-0.0194677 -0.0263196 -9.00629e-20)
(-0.0249369 -0.0391798 1.50208e-21)
(-0.0290759 -0.0541734 8.39839e-20)
(-0.0332423 -0.0698909 -6.23957e-22)
(-0.0379946 -0.0857968 0)
(-0.0433391 -0.101459 0)
(-0.0492206 -0.116256 -6.84121e-20)
(-0.0555748 -0.129372 1.9736e-21)
(-0.0624833 -0.139874 9.17327e-20)
(-0.0699958 -0.146971 -1.80361e-21)
(-0.078063 -0.149823 -2.69945e-20)
(-0.0866213 -0.147508 -2.24647e-20)
(-0.0955491 -0.139249 2.25398e-20)
(-0.104612 -0.124403 0)
(-0.113412 -0.102521 -1.81081e-20)
(-0.121342 -0.0734151 1.65176e-20)
(-0.127479 -0.0373005 0)
(-0.130805 0.00494431 0)
(-0.130447 0.0527527 1.4064e-20)
(-0.125045 0.10323 -1.63995e-22)
(-0.113477 0.154412 -1.2678e-20)
(-0.0943652 0.200826 -1.33355e-20)
(-0.0659845 0.238744 1.33114e-20)
(-0.02763 0.262921 -1.37782e-20)
(0.0216148 0.268472 -4.63125e-22)
(0.0819752 0.251308 1.34684e-20)
(0.151842 0.209499 1.81658e-21)
(0.228157 0.14394 -5.85291e-23)
(0.307828 0.0590938 0)
(0.387602 -0.0379048 1.32533e-20)
(0.464329 -0.133329 -1.3659e-20)
(0.532411 -0.212197 5.91908e-22)
(0.586315 -0.263756 0)
(0.623527 -0.285616 -2.89838e-22)
(0.645475 -0.28244 1.98222e-21)
(0.654716 -0.261159 -2.36339e-21)
(0.653442 -0.229445 9.61994e-22)
(0.640043 -0.194017 6.5114e-22)
(0.614513 -0.159545 -8.44538e-22)
(0.582784 -0.125239 -1.75736e-22)
(0.557458 -0.0887805 1.5189e-21)
(0.548065 -0.0489648 -1.30456e-21)
(0.556156 -0.00980284 1.6792e-23)
(0.576828 0.024579 -5.76155e-22)
(0.603294 0.0491212 6.89895e-22)
(0.632393 0.0631752 8.01388e-22)
(0.661607 0.0658516 -2.31072e-22)
(0.694023 0.0595365 -3.25718e-22)
(0.726618 0.0455605 5.89269e-22)
(0.762955 0.0282624 -3.91861e-22)
(0.79418 0.0100745 9.46311e-23)
(0.825881 -0.00529106 -1.12062e-22)
(0.846115 -0.0169067 -8.42874e-23)
(0.866637 -0.02386 2.01288e-22)
(0.873562 -0.0270068 -2.99811e-24)
(0.884969 -0.0261135 5.05125e-23)
(0.883502 -0.023871 0)
(0.893028 -0.0166961 1.82491e-23)
(0.890005 -0.0134101 -2.44545e-23)
(0.903631 -0.00132945 0)
(0.0836346 -0.020405 9.313e-20)
(0.0791877 -0.031673 -1.80983e-19)
(0.0750803 -0.0461751 8.6908e-20)
(0.0715263 -0.0617646 8.25539e-20)
(0.0671372 -0.0775626 -1.59286e-19)
(0.061647 -0.0932123 2.85318e-21)
(0.0551669 -0.108129 7.24389e-20)
(0.0478665 -0.121497 6.43043e-20)
(0.0396011 -0.13253 -6.29774e-20)
(0.0301717 -0.140358 0)
(0.0198481 -0.144034 -4.93809e-20)
(0.00888878 -0.142665 9.26236e-20)
(-0.00250961 -0.1355 -4.34014e-20)
(-0.0139966 -0.121928 0)
(-0.0250898 -0.101549 0)
(-0.0351623 -0.0742385 5.11969e-22)
(-0.0433551 -0.0402434 -2.73497e-20)
(-0.048217 -0.000289949 2.65702e-20)
(-0.0488915 0.044103 0)
(-0.0436215 0.0912751 2.44008e-20)
(-0.031438 0.138217 -4.66125e-20)
(-0.0109133 0.181105 4.69351e-20)
(0.0206321 0.215629 -4.91671e-20)
(0.0633403 0.236514 -2.26315e-21)
(0.117219 0.239288 5.51223e-20)
(0.18134 0.220026 -2.85436e-20)
(0.253462 0.177423 -9.42865e-22)
(0.330348 0.112419 -1.51814e-20)
(0.409149 0.0286614 5.78229e-23)
(0.487216 -0.0671101 1.51795e-20)
(0.560786 -0.160364 7.92949e-22)
(0.623037 -0.235378 -9.25724e-21)
(0.668706 -0.281711 1.55304e-20)
(0.696802 -0.298082 -7.0137e-21)
(0.710389 -0.290185 0)
(0.713298 -0.265247 -8.5424e-22)
(0.709393 -0.230157 6.84589e-22)
(0.698583 -0.190733 9.60617e-22)
(0.678989 -0.152485 -1.18232e-21)
(0.65061 -0.116926 1.98031e-22)
(0.621214 -0.0829242 0)
(0.600534 -0.0479371 2.04814e-22)
(0.594958 -0.0134744 -5.52445e-22)
(0.603937 0.0177947 0)
(0.623357 0.0409178 -1.34722e-21)
(0.650097 0.0545141 5.49795e-22)
(0.680865 0.0568628 -2.04469e-22)
(0.71667 0.0503551 -1.65228e-22)
(0.752909 0.036331 0)
(0.791426 0.0196232 0)
(0.823257 0.00247714 2.82233e-22)
(0.853748 -0.0112781 -4.1889e-22)
(0.872117 -0.0213128 2.27464e-22)
(0.890051 -0.0267334 -7.1828e-23)
(0.894795 -0.0287318 -1.22405e-22)
(0.903508 -0.0270028 -5.05601e-23)
(0.900044 -0.0244115 8.02633e-23)
(0.906313 -0.0171869 0)
(0.90166 -0.0140891 3.98007e-23)
(0.911161 -0.00249469 1.23002e-23)
(0.214513 -0.0143385 9.6007e-20)
(0.211577 -0.024777 -9.53054e-20)
(0.207103 -0.0385676 6.97723e-22)
(0.203834 -0.0535001 -6.726e-22)
(0.199968 -0.0686495 6.35796e-22)
(0.1946 -0.0837698 -6.01232e-22)
(0.18773 -0.0983182 1.13292e-21)
(0.17943 -0.111544 0)
(0.169613 -0.122794 -9.66169e-22)
(0.158171 -0.131137 8.78888e-22)
(0.145282 -0.13557 7.91116e-22)
(0.131256 -0.135298 -7.24383e-22)
(0.11651 -0.12957 0)
(0.101614 -0.117773 0)
(0.0872835 -0.0995023 4.80675e-22)
(0.0743453 -0.0746287 0)
(0.0637655 -0.0433558 -3.78318e-22)
(0.0566476 -0.00637987 0)
(0.0544372 0.0342233 -2.10393e-20)
(0.0588703 0.0776873 4.15731e-20)
(0.0709285 0.120095 -4.15204e-20)
(0.0921339 0.159535 2.09149e-20)
(0.12457 0.19086 2.42811e-20)
(0.168535 0.209009 -2.35781e-20)
(0.223528 0.209484 -2.98483e-20)
(0.288024 0.189169 2.90765e-20)
(0.359447 0.146991 0)
(0.434763 0.0835552 1.05124e-21)
(0.511521 0.0013683 0)
(0.587242 -0.0923739 0)
(0.656684 -0.182841 2.34807e-20)
(0.711677 -0.253603 -2.44857e-20)
(0.747656 -0.29485 1.04401e-21)
(0.765557 -0.306509 6.70537e-22)
(0.770186 -0.295041 -4.22612e-22)
(0.766285 -0.267813 -8.66277e-22)
(0.758321 -0.231135 8.41164e-22)
(0.747731 -0.189644 1.09324e-21)
(0.733267 -0.148438 -9.72151e-22)
(0.711834 -0.110437 -3.97037e-22)
(0.685882 -0.0764515 1.73065e-21)
(0.662068 -0.0442533 1.81895e-22)
(0.648494 -0.0139316 -1.21826e-21)
(0.64837 0.0136136 0)
(0.660998 0.0341479 5.82371e-22)