/*--------------------------------*- C++ -*----------------------------------*\
| =========                 |                                                 |
| \\      /  F ield         | OpenFOAM: The Open Source CFD Toolbox           |
|  \\    /   O peration     | Version:  2512                                  |
|   \\  /    A nd           | Website:  www.openfoam.com                      |
|    \\/     M anipulation  |                                                 |
\*---------------------------------------------------------------------------*/
FoamFile
{
    version     2.0;
    format      ascii;
    arch        "LSB;label=32;scalar=64";
    class       surfaceScalarField;
    location    "60.75";
    object      phi;
}
// * * * * * * * * * * * * * * * * * * * * * * * * * * * * * * * * * * * * * //

dimensions      [0 3 -1 0 0 0 0];

oriented        oriented;

internalField   nonuniform List<scalar> 
26232
(
2.06982e-06
0.000945769
-0.000947839
0.00021632
0.0018476
-0.00206185
0.000820277
0.00191557
-0.00251953
0.00197514
0.00120107
-0.00235594
0.00383753
-0.000272694
-0.0015897
0.00656191
-0.00249863
-0.000225758
0.0102974
-0.00547595
0.0017405
0.0151786
-0.00920002
0.00431881
0.021313
-0.0136512
0.00751675
0.0287657
-0.018786
0.0113334
0.0375446
-0.0245322
0.0157533
0.0475902
-0.030788
0.0207423
0.0587711
-0.0374265
0.0262456
0.0708872
-0.0443038
0.0321877
0.08368
-0.051269
0.0384761
0.09685
-0.0581754
0.0450055
0.110077
-0.064891
0.051664
0.123044
-0.0713077
0.058341
0.135461
-0.0773446
0.0649277
0.147082
-0.0829691
0.071348
0.157727
-0.0881364
0.0774916
0.167251
-0.0929766
0.0834522
0.17553
-0.0972048
0.0889257
-0.101666
0.0950633
0.182132
5.33483e-05
0.000892421
0.000440759
0.00146019
0.00136348
0.000992843
0.00300973
-0.000445174
0.0055604
-0.00282336
0.00918461
-0.00612284
0.014028
-0.0103194
0.0201953
-0.0153673
0.0277304
-0.0211864
0.0366005
-0.0276561
0.0466859
-0.0346176
0.057782
-0.0418841
0.0696118
-0.0492562
0.0818478
-0.0565398
0.0941412
-0.0635624
0.106153
-0.0701871
0.117584
-0.0763218
0.128199
-0.0819232
0.13785
-0.086995
0.146465
-0.091585
0.154088
-0.0957592
0.160765
-0.0996529
0.166769
-0.103209
-0.107011
0.172114
0.000125762
0.000766659
0.00074125
0.000844703
0.00206952
-0.000335423
0.00431916
-0.00269482
0.00768193
-0.00618613
0.0123177
-0.0107586
0.0183317
-0.0163334
0.02575
-0.0227856
0.0345001
-0.0299365
0.044404
-0.0375599
0.055187
-0.0454006
0.0665032
-0.0532003
0.0779715
-0.0607245
0.0892172
-0.0677855
0.0999116
-0.0742568
0.109805
-0.0800802
0.118745
-0.0852624
0.126687
-0.0898649
0.13368
-0.093988
0.139849
-0.0977541
0.145368
-0.101278
0.150409
-0.104694
0.155182
-0.107982
-0.111562
0.159734
0.000217147
0.000549513
0.00111161
-4.97632e-05
0.00292092
-0.00214473
0.00586077
-0.00563467
0.0101097
-0.0104351
0.0157809
-0.0164298
0.0228907
-0.0234432
0.031335
-0.0312298
0.0408842
-0.0394857
0.0512016
-0.0478773
0.0618829
-0.0560819
0.072508
-0.0638255
0.0826951
-0.0709117
0.0921453
-0.0772356
0.100671
-0.0827828
0.108207
-0.0876156
0.114795
-0.0918508
0.120564
-0.0956336
0.125688
-0.0991122
0.130353
-0.102419
0.134731
-0.105656
0.138942
-0.108906
0.143118
-0.112157
-0.115673
0.147228
0.000325993
0.00022352
0.0015427
-0.00126647
0.00388983
-0.00449186
0.00756793
-0.00931277
0.0127069
-0.015574
0.0193259
-0.0230488
0.0273025
-0.0314198
0.0363671
-0.0402944
0.0461297
-0.0492484
0.0561359
-0.0578834
0.0659348
-0.0658808
0.0751452
-0.0730358
0.0835018
-0.0792683
0.0908767
-0.0846105
0.0972734
-0.0891795
0.102799
-0.0931407
0.107621
-0.0966737
0.111931
-0.0999436
0.115904
-0.103085
0.119679
-0.106194
0.123356
-0.109333
0.126993
-0.112543
0.130647
-0.115811
-0.119297
0.134271
0.000450811
-0.000227291
0.00202313
-0.00283879
0.00493892
-0.00740765
0.00935167
-0.0137255
0.0152981
-0.0215205
0.0226553
-0.0304061
0.0311293
-0.0398937
0.0402871
-0.0494522
0.0496284
-0.0585897
0.0586722
-0.0669273
0.0670343
-0.0742429
0.0744754
-0.0804769
0.080913
-0.0857058
0.0863999
-0.0900975
0.091082
-0.0938616
0.0951481
-0.0972068
0.0987868
-0.100312
0.102157
-0.103314
0.105378
-0.106306
0.108528
-0.109344
0.111656
-0.112461
0.114786
-0.115673
0.117949
-0.118973
-0.122447
0.121099
0.000589354
-0.000816644
0.00253664
-0.00478608
0.00601774
-0.0108887
0.0110987
-0.0188065
0.0176772
-0.0280989
0.0254551
-0.038184
0.0339697
-0.0484083
0.0426768
-0.0581594
0.0510585
-0.0669713
0.0587149
-0.0745836
0.0654158
-0.0809439
0.0711049
-0.086166
0.0758651
-0.090466
0.0798644
-0.0940968
0.0833002
-0.0972973
0.0863566
-0.100263
0.0891811
-0.103137
0.0918784
-0.106012
0.0945158
-0.108943
0.0971333
-0.111962
0.0997532
-0.115081
0.102386
-0.118306
0.105046
-0.121633
-0.125097
0.107696
0.000737487
-0.00155413
0.00305971
-0.0071083
0.00706075
-0.0148898
0.0126762
-0.024422
0.0196296
-0.0350523
0.0274462
-0.0460006
0.0355416
-0.0565037
0.0433498
-0.0659676
0.0504354
-0.0740569
0.0565543
-0.0807026
0.0616549
-0.0860445
0.0658333
-0.0903443
0.0692689
-0.0939016
0.072164
-0.0969919
0.0747007
-0.099834
0.0770201
-0.102583
0.0792196
-0.105336
0.0813601
-0.108152
0.0834769
-0.11106
0.0855894
-0.114074
0.0877074
-0.117199
0.0898357
-0.120434
0.0919798
-0.123777
-0.127233
0.0941153
0.000888441
-0.00244257
0.00356111
-0.00978097
0.00799118
-0.0193199
0.0139472
-0.030378
0.0209684
-0.0420734
0.0284401
-0.0534723
0.0357376
-0.0638013
0.042366
-0.0725959
0.0480398
-0.0797307
0.0526881
-0.0853509
0.0564041
-0.0897604
0.0593713
-0.0933115
0.0617963
-0.0963267
0.0638631
-0.0990587
0.065712
-0.101683
0.0674378
-0.104308
0.0690986
-0.106997
0.0707274
-0.109781
0.0723419
-0.112674
0.0739514
-0.115683
0.0755607
-0.118808
0.0771721
-0.122046
0.078787
-0.125392
-0.128837
0.0803908
0.00103299
-0.00347556
0.00400447
-0.0127525
0.00873063
-0.024046
0.0147933
-0.0364407
0.021569
-0.0488492
0.0283719
-0.0602751
0.0346233
-0.0700527
0.0399648
-0.0779374
0.0442785
-0.0840443
0.0476361
-0.0887086
0.0502177
-0.092342
0.0522339
-0.0953278
0.0538745
-0.0979673
0.0552839
-0.100468
0.0565589
-0.102958
0.0577582
-0.105508
0.0589142
-0.108153
0.0600444
-0.110911
0.0611578
-0.113788
0.0622595
-0.116785
0.0633518
-0.119901
0.064436
-0.12313
0.065511
-0.126467
-0.129896
0.0665697
0.00116093
-0.00463649
0.00435421
-0.0159457
0.00921265
-0.0289045
0.0151357
-0.0423637
0.0213889
-0.0551024
0.027294
-0.0661803
0.032386
-0.0751447
0.0364661
-0.0820176
0.0395611
-0.0871394
0.0418353
-0.0909828
0.0435015
-0.0940081
0.0447582
-0.0965845
0.0457589
-0.098968
0.0466069
-0.101316
0.0473644
-0.103715
0.0480655
-0.106209
0.0487281
-0.108816
0.0493616
-0.111544
0.0499713
-0.114397
0.0505601
-0.117374
0.0511296
-0.12047
0.0516798
-0.12368
0.0522082
-0.126995
-0.130399
0.0527119
0.00126518
-0.00590167
0.00458389
-0.0192645
0.00939484
-0.0337154
0.0149466
-0.0479155
0.0204634
-0.0606192
0.0253448
-0.0710616
0.029272
-0.079072
0.032194
-0.0849396
0.0342399
-0.0891852
0.0356173
-0.0923602
0.0365346
-0.0949255
0.0371589
-0.0972087
0.0376045
-0.0994136
0.037941
-0.101653
0.0382062
-0.103981
0.0384195
-0.106422
0.0385908
-0.108987
0.0387257
-0.111679
0.0388277
-0.114499
0.038899
-0.117445
0.0389411
-0.120512
0.0389539
-0.123693
0.0389348
-0.126976
0.0388843
-0.130349
-0.000201214
0.000351891
-0.000150677
-0.000700734
0.00110788
-0.000608365
-0.00143427
0.0019057
-0.00117216
-0.00235329
0.00270828
-0.00178926
-0.00341971
0.0034885
-0.00242208
-0.00460317
0.00423475
-0.00305129
-0.00587903
0.00494925
-0.00367339
-0.00722673
0.00564418
-0.00429649
-0.00862857
0.0063373
-0.00493545
-0.0100688
0.00704768
-0.00560742
-0.0115329
0.00779237
-0.00632833
-0.0130064
0.00858425
-0.0071107
-0.0144749
0.00943106
-0.00796261
-0.0159227
0.0103351
-0.00888731
-0.017333
0.0112936
-0.00988328
-0.0186876
0.0122988
-0.0109442
-0.0199669
0.0133382
-0.0120589
-0.0211514
0.0143953
-0.0132108
-0.022223
0.0154493
-0.0143777
-0.0231672
0.0164765
-0.0155323
-0.0239757
0.0174511
-0.0166425
-0.0246506
0.0183466
-0.0176718
-0.0252136
0.0191395
-0.0185765
0.0198282
-0.0257265
-0.0193153
-0.000166635
0.000518527
-0.000583555
0.0015248
-0.00119729
0.00251943
-0.00196583
0.00347682
-0.00285504
0.00437771
-0.00383638
0.0052161
-0.00488518
0.00599805
-0.00597929
0.00673829
-0.00709815
0.00745617
-0.00822223
0.00817175
-0.00933247
0.0089026
-0.0104099
0.00966169
-0.0114352
0.0104564
-0.0123883
0.0112882
-0.0132478
0.0121531
-0.0139908
0.0130418
-0.0145928
0.0139403
-0.0150278
0.0148304
-0.015269
0.0156905
-0.0152892
0.0164967
-0.0150636
0.0172255
-0.0145735
0.0178566
-0.013817
0.0183829
0.0188379
-0.0128267
-0.000126382
0.000644908
-0.000445925
0.00184435
-0.000916427
0.00298993
-0.00150225
0.00406264
-0.00217279
0.00504825
-0.0029009
0.0059442
-0.00366142
0.00675858
-0.00443019
0.00750706
-0.0051833
0.00820928
-0.00589676
0.00888521
-0.00654626
0.0095521
-0.00710703
0.0102225
-0.00755373
0.0109031
-0.00786008
0.0115945
-0.00799847
0.0122915
-0.00793962
0.0129829
-0.00765196
0.0136526
-0.00710122
0.0142796
-0.00624973
0.014839
-0.0050556
0.0153026
-0.00347257
0.0156425
-0.00145116
0.0158351
0.00105568
0.0158761
0.0158534
0.00404018
-8.61827e-05
0.000731091
-0.00030584
0.00206401
-0.000625919
0.00331001
-0.00101552
0.00445224
-0.00144634
0.00547908
-0.00189173
0.00638959
-0.00232554
0.00719238
-0.00272122
0.00790273
-0.00305125
0.00853931
-0.00328691
0.00912087
-0.00339824
0.00966343
-0.00335362
0.0101778
-0.00312093
0.0106704
-0.00266632
0.0111399
-0.00195451
0.0115797
-0.000948366
0.0119768
0.000391445
0.0123128
0.00210729
0.0125638
0.00424558
0.0127007
0.00685839
0.0126898
0.0100059
0.0124949
0.0137571
0.012084
0.0181924
0.0114408
0.0106248
0.0234209
-5.14262e-05
0.000782517
-0.000180702
0.00219328
-0.000359602
0.00348891
-0.000559023
0.00465166
-0.000750979
0.00567103
-0.000908022
0.00654664
-0.00100219
0.00728655
-0.00100427
0.00790481
-0.000882941
0.00841799
-0.000604588
0.00884252
-0.000133203
0.00919204
0.000568565
0.00947607
0.00154171
0.00969724
0.00282842
0.00985324
0.00447297
0.00993511
0.0065219
0.00992781
0.0090243
0.00981039
0.012032
0.00955608
0.0156004
0.00913234
0.019789
0.00850112
0.0246648
0.00761912
0.0303096
0.00643923
0.0368015
0.00494889
0.00302126
0.0444051
-2.64818e-05
0.000808999
-8.47168e-05
0.00225152
-0.000145471
0.00354967
-0.000177647
0.00468383
-0.000151033
0.00564442
-3.56932e-05
0.0064313
0.000199043
0.00705182
0.00058598
0.00751787
0.00116052
0.00784345
0.00196127
0.00804176
0.00303027
0.00812305
0.00441335
0.00809299
0.00615902
0.00795157
0.00831942
0.00769284
0.0109499
0.00730463
0.014109
0.00676872
0.0178584
0.00606094
0.0222634
0.00515115
0.0273921
0.00400364
0.0333157
0.00257748
0.0401026
0.000832201
0.0478558
-0.00131394
0.0565755
-0.00377083
-0.00717161
0.0667684
-1.3818e-05
0.000822817
-2.58548e-05
0.00226355
6.43666e-07
0.00352317
0.000102688
0.00458179
0.000315758
0.00543135
0.000674462
0.00607259
0.00121421
0.00651207
0.00197255
0.00675953
0.00299056
0.00682545
0.00431354
0.00671877
0.00599158
0.00644501
0.00807969
0.00600488
0.0106378
0.00539344
0.0137309
0.00459981
0.0174285
0.00360695
0.021805
0.00239228
0.0269378
0.000928158
0.0329082
-0.00081928
0.0397992
-0.00288732
0.047694
-0.00531735
0.0566615
-0.00813535
0.0668239
-0.0114763
0.078036
-0.0149829
-0.0201658
0.0910301
-1.31256e-05
0.000835942
-3.11709e-06
0.00225354
8.06638e-05
0.00343939
0.000285472
0.00437698
0.000655158
0.00506166
0.00123202
0.00549573
0.00205909
0.005685
0.00318221
0.00563641
0.00465173
0.00535592
0.00652377
0.00484674
0.00886087
0.00410791
0.0117324
0.00313337
0.0152143
0.00191157
0.0193881
0.000425931
0.0243416
-0.00134657
0.0301651
-0.00343117
0.0369505
-0.00585722
0.0447871
-0.00865592
0.0537572
-0.0118574
0.0639375
-0.0154976
0.0753608
-0.0195587
0.0881421
-0.0242576
0.101997
-0.028838
-0.0357976
0.117629
-2.09543e-05
0.000856897
-4.6116e-06
0.0022372
0.000118452
0.00331632
0.000410163
0.00408527
0.000926777
0.00454505
0.0017226
0.00469991
0.00285328
0.00455432
0.00437856
0.00411113
0.0063644
0.00337009
0.00888418
0.00232696
0.0120191
0.000972939
0.0158578
-0.000705318
0.0204946
-0.00272522
0.0260274
-0.00510687
0.032553
-0.00787215
0.0401642
-0.0110423
0.0489435
-0.0146365
0.0589571
-0.0186695
0.0702474
-0.0231477
0.0828308
-0.028081
0.0966682
-0.0333961
0.111746
-0.0393353
0.12779
-0.0448824
-0.0530285
0.145021
-3.10508e-05
0.000887947
-9.30604e-06
0.00221546
0.000157785
0.00314923
0.000550519
0.00369254
0.00124254
0.00385303
0.00230605
0.0036364
0.00381599
0.00304437
0.00585312
0.002074
0.00850558
0.000717628
0.011869
-0.00103647
0.0160449
-0.00320297
0.0211374
-0.00579777
0.027248
-0.00883581
0.0344698
-0.0123287
0.04288
-0.0162823
0.0525326
-0.020695
0.0634513
-0.0255552
0.0756233
-0.0308416
0.0889946
-0.036519
0.103465
-0.0425516
0.118897
-0.0488277
0.135062
-0.0555003
0.151831
-0.0616518
-0.0698555
0.168658
-3.5019e-05
0.000922966
1.0657e-05
0.00216978
0.000255372
0.00290452
0.000801693
0.00314622
0.00174602
0.0029087
0.00318472
0.00219771
0.00521811
0.00101098
0.00795244
-0.000660332
0.0114991
-0.00282905
0.0159712
-0.00550853
0.0214774
-0.0087092
0.0281143
-0.0124346
0.0359567
-0.0166782
0.0450486
-0.0214205
0.0553943
-0.026628
0.0669521
-0.0322528
0.0796307
-0.0382338
0.0932888
-0.0444997
0.107738
-0.0509682
0.122753
-0.0575664
0.138097
-0.0641716
0.153443
-0.0708467
0.168776
-0.0769846
-0.084102
0.183022
-2.48729e-05
8.30559e-05
0.000468047
0.00125833
0.00257733
0.00454928
0.00730076
0.0109592
0.0156469
0.0214718
0.0285158
0.0368235
0.0463909
0.057158
0.0690061
0.0817587
0.0951889
0.10903
0.12299
0.136771
0.150091
0.162697
0.174638
0.185599
-0.0252404
0.0263705
-0.0268567
-0.0245773
0.0263327
-0.0269958
-0.0237008
0.0253166
-0.0261931
-0.022581
0.0231159
-0.0242358
-0.0211858
0.0194603
-0.0208554
-0.0194808
0.0140821
-0.0157871
-0.0174563
0.0067293
-0.00875384
-0.0150586
-0.00275693
0.000359212
-0.0122752
-0.0143264
0.011543
-0.00924274
-0.0278851
0.0248527
-0.00606106
-0.0431123
0.0399307
-0.00290615
-0.0594299
0.056275
-1.36707e-05
-0.0760872
0.0731948
0.00230904
-0.0922183
0.0898956
0.00391612
-0.107072
0.105465
0.00506544
-0.12003
0.118881
0.00642512
-0.130239
0.128879
0.00900989
-0.1363
0.133716
0.0138517
-0.135908
0.131066
0.021619
-0.126313
0.118545
0.0320398
-0.105338
0.0949174
0.0441535
-0.0725375
0.0604238
0.0571367
-0.0297705
0.0167873
0.0703079
0.0194097
-0.0325809
0.0830508
0.0698811
-0.082624
0.0942375
0.115117
-0.126303
0.102833
0.150028
-0.158624
0.108108
0.172951
-0.178226
0.108924
0.187306
-0.188123
0.104375
0.200826
-0.196276
0.0963419
0.216794
-0.208761
0.0899496
0.223922
-0.21753
0.0896752
0.201541
-0.201267
0.0959825
0.138952
-0.145259
0.106661
0.0458174
-0.0564957
0.118408
-0.053796
0.0420491
0.128105
-0.138315
0.128617
0.134509
-0.196854
0.19045
0.13793
-0.22684
0.223419
0.136693
-0.23555
0.236787
0.129011
-0.244052
0.251735
0.117822
-0.258594
0.269783
0.109541
-0.252022
0.260304
0.108273
-0.19066
0.191928
0.113327
-0.0786278
0.0735734
0.12122
0.0486009
-0.056494
0.129286
0.150898
-0.158964
0.134341
0.212431
-0.217485
0.132478
0.247938
-0.246075
0.124242
0.273596
-0.26536
0.116322
0.27728
-0.26936
0.114863
0.216489
-0.21503
0.120069
0.111781
-0.116987
0.127877
-0.0155737
0.00776546
0.135232
-0.10243
0.0950751
0.140216
-0.155023
0.150038
0.14145
-0.173084
0.171851
0.137835
-0.153147
0.156761
0.133871
-0.165022
0.168986
-0.0787638
0.0779597
-0.0116128
0.0251566
-0.0102658
0.0249857
-0.00873619
0.023787
-0.00698946
0.0213692
-0.00501238
0.0174832
-0.00279349
0.0118632
-0.000345196
0.00428101
0.00220461
-0.00530674
0.00486784
-0.0169897
0.00761866
-0.0306359
0.0103048
-0.0457985
0.0127126
-0.0618377
0.0145407
-0.0779153
0.0154655
-0.0931431
0.0152128
-0.106819
0.0137271
-0.118544
0.0114625
-0.127974
0.00960674
-0.134445
0.00982952
-0.13613
0.0136106
-0.130094
0.021478
-0.113206
0.0327625
-0.0838221
0.0462053
-0.0432133
0.0606091
0.00500579
0.074912
0.0555782
0.0879264
0.102102
0.0984156
0.139539
0.105187
0.16618
0.106933
0.18556
0.103473
0.204286
0.0975934
0.222674
0.094097
0.227419
0.0960388
0.199599
0.103006
0.131985
0.113029
0.0357945
0.123466
-0.064233
0.131605
-0.146454
0.13618
-0.201429
0.13808
-0.22874
0.136345
-0.233816
0.128608
-0.236314
0.116956
-0.246943
0.107882
-0.242948
0.106063
-0.188841
0.111154
-0.0837188
0.1198
0.0399553
0.128771
0.141927
0.134
0.207202
0.131717
0.250221
0.12341
0.281903
0.116171
0.284519
0.115572
0.217088
0.121506
0.105847
0.129523
-0.0235908
0.136715
-0.109621
0.141768
-0.160076
0.143419
-0.174735
0.140583
-0.150311
0.136027
-0.160465
-0.0784248
0.00614257
0.0230542
0.00819791
0.0229304
0.0103657
0.0216192
0.0126709
0.019064
0.01509
0.015064
0.0176005
0.00935279
0.0201422
0.00173925
0.0228081
-0.00797255
0.0254416
-0.0196233
0.0279446
-0.0331389
0.0302002
-0.0480541
0.0320196
-0.0636571
0.0331316
-0.0790272
0.033189
-0.0932005
0.0317608
-0.105391
0.0284519
-0.115235
0.023375
-0.122897
0.0174852
-0.128555
0.0126819
-0.131327
0.0112691
-0.128681
0.0149249
-0.116861
0.0237974
-0.0926945
0.0365935
-0.0560094
0.0516843
-0.010085
0.0673076
0.0399549
0.0819696
0.0874405
0.0941202
0.127389
0.102227
0.158073
0.105123
0.182664
0.103384
0.206026
0.100207
0.22585
0.0996469
0.227979
0.103449
0.195798
0.110654
0.124779
0.119659
0.0267894
0.128483
-0.0730571
0.134987
-0.152957
0.137824
-0.204267
0.138181
-0.229097
0.135976
-0.23161
0.128442
-0.22878
0.11657
-0.23507
0.106757
-0.233135
0.104341
-0.186425
0.109438
-0.0888159
0.11875
0.0306427
0.128427
0.13225
0.133675
0.201954
0.13105
0.252846
0.122834
0.29012
0.116336
0.291017
0.116553
0.216871
0.123152
0.0992487
0.131363
-0.0318018
0.138357
-0.116615
0.143285
-0.165005
0.145177
-0.176628
0.143228
-0.148361
0.138436
-0.155673
-0.0771319
0.0261191
0.020356
0.0288706
0.0201789
0.0316709
0.018819
0.0345308
0.0162041
0.0373963
0.0121986
0.0401913
0.00655777
0.0430354
-0.00110486
0.0456977
-0.0106348
0.0481544
-0.0220799
0.0503166
-0.0353011
0.0520827
-0.0498202
0.0533137
-0.0648881
0.0537979
-0.0795115
0.0531946
-0.0925972
0.0510395
-0.103236
0.0468611
-0.111057
0.040352
-0.116388
0.0318552
-0.120058
0.0228719
-0.122344
0.0160056
-0.121815
0.014051
-0.114907
0.0186164
-0.0972599
0.029178
-0.066571
0.0437543
-0.0246613
0.060116
0.0235932
0.076076
0.0714805
0.0896678
0.113797
0.0991351
0.148606
0.103594
0.178204
0.104177
0.205444
0.104054
0.225973
0.106282
0.225751
0.111546
0.190533
0.118647
0.117678
0.12637
0.0190672
0.133375
-0.0800624
0.138172
-0.157754
0.139396
-0.205491
0.138226
-0.227927
0.135495
-0.22888
0.128377
-0.221662
0.11658
-0.223274
0.10614
-0.222694
0.103121
-0.183407
0.108193
-0.0938878
0.118048
0.020788
0.128211
0.122087
0.133371
0.196794
0.13052
0.255696
0.12254
0.2981
0.116808
0.296749
0.117776
0.215902
0.124942
0.0920822
0.133327
-0.0401862
0.140132
-0.123421
0.144797
-0.16967
0.146746
-0.178576
0.145692
-0.147308
0.140991
-0.150972
-0.0751253
0.0475229
0.0172382
0.0507512
0.0169506
0.0540467
0.0155235
0.0573529
0.0128979
0.0605857
0.00896575
0.063605
0.00353847
0.0666017
-0.0041015
0.0692349
-0.0132681
0.0714932
-0.0243382
0.0732833
-0.0370912
0.0745012
-0.0510382
0.0750106
-0.0653975
0.0746425
-0.0791434
0.0731996
-0.0911542
0.0704254
-0.100462
0.0659384
-0.10657
0.0592387
-0.109688
0.0500131
-0.110832
0.0388432
-0.111174
0.0277986
-0.11077
0.020104
-0.107212
0.0188289
-0.0959847
0.0250966
-0.0728388
0.0375155
-0.0370802
0.0534808
0.00762793
0.0701078
0.0548535
0.0848643
0.0990403
0.0958121
0.137658
0.102312
0.171704
0.105723
0.202032
0.108813
0.222883
0.113587
0.220977
0.119917
0.184203
0.126624
0.110971
0.132974
0.012717
0.138044
-0.0851321
0.141059
-0.16077
0.140795
-0.205226
0.138186
-0.225318
0.134858
-0.225552
0.128304
-0.215108
0.116902
-0.211872
0.105974
-0.211766
0.102352
-0.179784
0.107367
-0.0989029
0.117616
0.0105391
0.12806
0.111642
0.133086
0.191769
0.13015
0.258632
0.122542
0.305708
0.117569
0.301722
0.119206
0.214266
0.126837
0.0844513
0.135351
-0.0487007
0.141999
-0.130068
0.146321
-0.173992
0.14816
-0.180415
0.147924
-0.147071
0.14359
-0.146638
-0.072678
0.0699768
0.0140298
0.073357
0.0135704
0.0768837
0.0119969
0.0804043
0.00937725
0.0838145
0.00555556
0.0869646
0.000388368
0.0899458
-0.00708268
0.0924333
-0.0157556
0.0943662
-0.026271
0.0956244
-0.0383494
0.096096
-0.0515097
0.0956779
-0.0649795
0.0942813
-0.0777467
0.091835
-0.088708
0.0882724
-0.0968989
0.0834587
-0.101756
0.0770618
-0.103292
0.0685092
-0.10228
0.0574448
-0.100109
0.0446864
-0.0980116
0.032834
-0.0953599
0.0256156
-0.0887663
0.0259718
-0.073195
0.0342207
-0.0453291
0.048144
-0.00629533
0.0644081
0.0385894
0.0798798
0.0835685
0.0923565
0.125181
0.101222
0.162839
0.107739
0.195515
0.114036
0.216586
0.1211
0.213913
0.128155
0.177148
0.134303
0.104823
0.139183
0.0078374
0.142372
-0.0883209
0.143558
-0.161956
0.141917
-0.203585
0.138025
-0.221426
0.134019
-0.221546
0.128092
-0.209181
0.117417
-0.201196
0.106177
-0.200526
0.101907
-0.175514
0.106807
-0.103803
0.117315
3.12342e-05
0.127895
0.101062
0.13281
0.186854
0.129951
0.261492
0.122834
0.312824
0.118597
0.305959
0.12083
0.212033
0.128815
0.0764661
0.137396
-0.0572809
0.143906
-0.136579
0.147856
-0.177942
0.149462
-0.182021
0.149896
-0.147504
0.146136
-0.142878
-0.0700748
0.093864
0.0111959
0.0969383
0.0104961
0.100204
0.00873131
0.103469
0.00611192
0.10651
0.00251442
0.109731
-0.0028324
0.112234
-0.0095851
0.114272
-0.0177945
0.115635
-0.027634
0.116168
-0.0388817
0.115739
-0.0510816
0.114264
-0.0635045
0.111716
-0.0751982
0.108132
-0.0851239
0.103604
-0.0923712
0.0982283
-0.0963806
0.0919809
-0.0970441
0.0844965
-0.0947954
0.07505
-0.0906629
0.0632106
-0.0861722
0.0500482
-0.0821975
0.0386576
-0.0773758
0.0329931
-0.0675305
0.0354789
-0.0478149
0.0454703
-0.0162867
0.0599456
0.0241141
0.07538
0.0681341
0.0891556
0.111406
0.100393
0.151602
0.109966
0.185943
0.119238
0.207313
0.128279
0.204873
0.135874
0.169553
0.141353
0.0993437
0.144854
0.00433669
0.146249
-0.0897161
0.145589
-0.161296
0.142664
-0.200661
0.137694
-0.216456
0.13296
-0.216811
0.127624
-0.203845
0.117982
-0.191555
0.106661
-0.189205
0.101648
-0.1705
0.106295
-0.10845
0.116959
-0.010633
0.127621
0.0904001
0.132522
0.181952
0.129915
0.264099
0.123395
0.319345
0.119867
0.309486
0.122643
0.209257
0.130874
0.0682354
0.139436
-0.0658435
0.145807
-0.142949
0.149386
-0.181522
0.150691
-0.183326
0.151608
-0.148421
0.148551
-0.139822
-0.0675891
0.119468
0.00935635
0.121677
0.00828727
0.124107
0.00630198
0.126584
0.0036342
0.128937
0.000161821
0.131247
-0.00514243
0.133001
-0.0113387
0.134199
-0.018993
0.134634
-0.0280689
0.134133
-0.0383809
0.13256
-0.049508
0.129848
-0.0607925
0.126026
-0.0713764
0.121228
-0.080326
0.115677
-0.08682
0.109628
-0.0903321
0.103282
-0.0906974
0.0965965
-0.0881103
0.0890566
-0.083123
0.0797174
-0.076833
0.0681257
-0.0706057
0.0556561
-0.0649062
0.045793
-0.0576675
0.0423668
-0.0443887
0.0470194
-0.0209393
0.058121
0.0130125
0.0723848
0.0538702
0.0868018
0.096989
0.0999945
0.138409
0.112222
0.173715
0.124027
0.195508
0.134662
0.194238
0.142601
0.161613
0.147528
0.0944169
0.149803
0.00206169
0.149546
-0.0894593
0.147071
-0.158821
0.14294
-0.196529
0.137124
-0.21064
0.131666
-0.211354
0.126797
-0.198975
0.118433
-0.183191
0.107336
-0.178107
0.101474
-0.164639
0.105618
-0.112594
0.116352
-0.0213673
0.127129
0.0796225
0.132185
0.176897
0.130018
0.266265
0.124188
0.325175
0.121348
0.312326
0.124634
0.205972
0.133009
0.0598598
0.14146
-0.0742947
0.147657
-0.149146
0.150884
-0.184749
0.151876
-0.184318
0.153078
-0.149624
0.150774
-0.137517
-0.0654631
0.145491
0.00888652
0.146431
0.00734726
0.147538
0.00519482
0.148638
0.00253463
0.149953
-0.00115334
0.150808
-0.00599723
0.151309
-0.0118395
0.151227
-0.0189114
0.150365
-0.0272064
0.148536
-0.036552
0.145612
-0.0465846
0.141556
-0.056736
0.136444
-0.0662645
0.130484
-0.0743666
0.123996
-0.0803314
0.11734
-0.0836766
0.110835
-0.0841918
0.104636
-0.0819112
0.0985672
-0.0770546
0.0918825
-0.0701483
0.0834691
-0.0621924
0.0729585
-0.0543956
0.0620813
-0.0467903
0.0545131
-0.0368205
0.0536523
-0.0200785
0.0601562
0.00650868
0.0719179
0.0421085
0.0859279
0.0829789
0.100251
0.124086
0.114419
0.159547
0.128142
0.181785
0.139933
0.182448
0.148055
0.153491
0.152483
0.0899887
0.153824
0.000720747
0.152081
-0.0877164
0.147896
-0.154636
0.142619
-0.191253
0.136195
-0.204216
0.130097
-0.205256
0.125522
-0.194401
0.118584
-0.176253
0.108088
-0.16761
0.101343
-0.157894
0.104633
-0.115884
0.115331
-0.0320647
0.126313
0.0686403
0.13175
0.171459
0.130231
0.267784
0.125172
0.330234
0.123003
0.314495
0.126762
0.202213
0.13522
0.0514023
0.143454
-0.0825287
0.149421
-0.155113
0.152319
-0.187646
0.153032
-0.185031
0.15434
-0.150932
0.152769
-0.135947
-0.0638917
0.167959
0.00958619
0.167657
0.0076491
0.167362
0.00548929
0.167117
0.00278025
0.166818
-0.000854605
0.166239
-0.00541811
0.16527
-0.0108704
0.163729
-0.0173711
0.161427
-0.024904
0.158193
-0.0333177
0.153926
-0.0423179
0.148621
-0.0514307
0.142397
-0.0600408
0.135513
-0.0674827
0.128339
-0.0731568
0.121284
-0.076622
0.114714
-0.0776217
0.108869
-0.0760665
0.103791
-0.0719764
0.0991289
-0.0654862
0.093937
-0.0570004
0.0870348
-0.0474934
0.0782659
-0.0380214
0.0696732
-0.0282278
0.0648861
-0.0152914
0.0665491
0.00484568
0.0746646
0.033993
0.0870182
0.0706253
0.101379
0.109725
0.116563
0.144363
0.131492
0.166857
0.144007
0.169932
0.152209
0.145289
0.156271
0.0859269
0.156852
0.000140346
0.15376
-0.084625
0.147985
-0.148861
0.141613
-0.184881
0.134795
-0.197397
0.128222
-0.198683
0.123757
-0.189937
0.118272
-0.170768
0.108789
-0.158128
0.101265
-0.150371
0.103337
-0.117956
0.113765
-0.0424928
0.12508
0.057325
0.131153
0.165387
0.13048
0.268457
0.126281
0.334433
0.124787
0.31599
0.129018
0.197982
0.137464
0.0429556
0.145402
-0.0904662
0.151071
-0.160782
0.153659
-0.190235
0.154161
-0.185533
0.15543
-0.152201
0.154524
-0.135041
-0.0630124
0.18196
0.0106488
0.180897
0.00871197
0.179636
0.00675054
0.178363
0.00405332
0.176936
0.000572449
0.175224
-0.00370619
0.173044
-0.00869116
0.170283
-0.0146101
0.166777
-0.0213972
0.162402
-0.0289431
0.157098
-0.0370141
0.150896
-0.0452282
0.14395
-0.0530953
0.136546
-0.0600782
0.129059
-0.0656698
0.121891
-0.069454
0.115402
-0.0711334
0.10987
-0.0705343
0.105429
-0.0675353
0.101967
-0.0620245
0.0990106
-0.0540437
0.0955937
-0.0440766
0.0906521
-0.0330797
0.0842227
-0.0217984
0.0785792
-0.00964785
0.0766969
0.00672792
0.0808233
0.0298667
0.0903526
0.0610959
0.103479
0.0965984
0.118603
0.129238
0.13389
0.151571
0.146596
0.157227
0.154935
0.13695
0.159058
0.0818035
0.159072
0.000125893
0.154779
-0.0803317
0.147588
-0.14167
0.140204
-0.177497
0.133137
-0.19033
0.126266
-0.191812
0.121694
-0.185364
0.117488
-0.166562
0.109362
-0.150001
0.10131
-0.142319
0.101829
-0.118474
0.111628
-0.0522918
0.123343
0.0456097
0.130333
0.158397
0.130747
0.268043
0.127482
0.337698
0.126647
0.316824
0.131363
0.193267
0.139743
0.0345757
0.147299
-0.0980231
0.152597
-0.166079
0.15489
-0.192527
0.155256
-0.185899
0.15639
-0.153336
0.15605
-0.1347
-0.0629016
0.18492
0.0113285
0.183604
0.0100275
0.182193
0.00816134
0.180608
0.00563823
0.178836
0.00234474
0.176647
-0.00151683
0.173943
-0.00598752
0.170607
-0.0112746
0.166532
-0.0173216
0.161651
-0.0240617
0.155954
-0.031318
0.149527
-0.0388008
0.142561
-0.0461289
0.135347
-0.0528644
0.128236
-0.0585588
0.121575
-0.0627931
0.115651
-0.0652093
0.110652
-0.0655358
0.106684
-0.063567
0.103796
-0.0591369
0.101891
-0.0521383
0.100487
-0.0426729
0.0986226
-0.031215
0.0954297
-0.0186055
0.0912154
-0.0054335
0.0886594
0.00928386
0.0900538
0.0284723
0.0964767
0.054673
0.107223
0.0858516
0.120947
0.115514
0.135544
0.136974
0.148179
0.144592
0.15708
0.128049
0.161443
0.0774403
0.160727
0.000842193
0.155094
-0.0746992
0.146836
-0.133411
0.138724
-0.169385
0.131534
-0.183141
0.124522
-0.184799
0.119641
-0.180484
0.116366
-0.163287
0.109762
-0.143397
0.101526
-0.134083
0.10038
-0.117329
0.109094
-0.0610056
0.121085
0.0336187
0.129181
0.150301
0.130912
0.266312
0.128642
0.339968
0.12855
0.316916
0.133784
0.188033
0.142051
0.0263082
0.149135
-0.105107
0.154001
-0.170945
0.156004
-0.19453
0.156299
-0.186194
0.157252
-0.154289
0.157373
-0.134821
-0.0635736
0.201582
0.011903
-0.202156
0.201615
0.00999375
0.20168
0.0080972
0.201776
0.00554194
0.201705
0.00241539
0.201528
-0.00133972
0.201204
-0.00566371
0.200529
-0.0105996
0.199378
-0.0161704
0.197602
-0.0222853
0.195068
-0.0287842
0.191695
-0.0354279
0.187468
-0.0419023
0.182445
-0.0478412
0.176747
-0.0528602
0.170538
-0.0565846
0.164008
-0.0586792
0.157339
-0.0588664
0.150696
-0.0569247
0.144229
-0.0526699
0.138046
-0.0459546
0.132118
-0.0367453
0.126066
-0.0251631
0.119181
-0.0117201
0.111062
0.00268536
0.102591
0.0177549
0.0957984
0.0352648
0.0927735
0.0576979
0.0949675
0.0836577
0.102731
0.107751
0.114911
0.124794
0.13028
0.129223
0.148179
0.110151
0.165469
0.0601496
0.177254
-0.0109429
0.181776
-0.0792206
0.179315
-0.13095
0.172546
-0.162617
0.163924
-0.174518
0.154061
-0.174936
0.144837
-0.17126
0.137334
-0.155783
0.128085
-0.134149
0.116471
-0.122469
0.108513
-0.10937
0.108006
-0.0604986
0.110527
0.0310972
0.110797
0.150031
0.108357
0.268752
0.107686
0.340639
0.114432
0.31017
0.127302
0.175163
0.140027
0.0135832
0.148012
-0.113092
0.151287
-0.17422
0.150773
-0.194016
0.14844
-0.183861
0.14675
-0.152599
0.144953
-0.133023
-0.0630321
0.213328
0.0118601
-0.213286
0.213463
0.00985917
0.213796
0.00776406
0.214016
0.00532259
0.214054
0.00237653
0.213854
-0.00113907
0.213359
-0.00516879
0.21246
-0.00970045
0.211033
-0.0147433
0.20897
-0.020223
0.206185
-0.0259991
0.202628
-0.0318706
0.198301
-0.037575
0.193262
-0.0428023
0.187622
-0.0472207
0.181535
-0.0504975
0.17518
-0.0523245
0.168743
-0.0524292
0.1624
-0.0505817
0.156315
-0.0465843
0.150615
-0.0402551
0.145381
-0.0315112
0.140516
-0.0202987
0.135499
-0.00670246
0.129653
0.00853096
0.123103
0.0243055
0.11719
0.0411779
0.11414
0.0607473
0.115964
0.0818341
0.123307
0.100408
0.135293
0.112808
0.150984
0.113532
0.168861
0.0922733
0.184983
0.0440276
0.194877
-0.0208366
0.197312
-0.0816555
0.192975
-0.126614
0.18457
-0.154212
0.174874
-0.164821
0.164444
-0.164506
0.15454
-0.161356
0.146711
-0.147955
0.137909
-0.125347
0.126217
-0.110777
0.116921
-0.100074
0.114943
-0.058521
0.116993
0.0290471
0.117421
0.149603
0.115594
0.270578
0.116384
0.33985
0.125154