/*--------------------------------*- C++ -*----------------------------------*\
| =========                 |                                                 |
| \\      /  F ield         | OpenFOAM: The Open Source CFD Toolbox           |
|  \\    /   O peration     | Version:  2512                                  |
|   \\  /    A nd           | Website:  www.openfoam.com                      |
|    \\/     M anipulation  |                                                 |
\*---------------------------------------------------------------------------*/
FoamFile
{
    version     2.0;
    format      ascii;
    arch        "LSB;label=32;scalar=64";
    class       volVectorField;
    location    "60.75";
    object      U;
}
// * * * * * * * * * * * * * * * * * * * * * * * * * * * * * * * * * * * * * //

dimensions      [0 1 -1 0 0 0 0];

internalField   nonuniform List<vector> 
13248
(
(-0.0123843 0.0110589 6.39739e-20)
(-0.0240252 0.0233158 0)
(-0.0233216 0.0296027 -1.20984e-19)
(-0.0106794 0.0321356 1.1397e-19)
(0.0136421 0.0325533 1.06527e-19)
(0.049442 0.0320681 0)
(0.0965097 0.0315805 0)
(0.154515 0.0317586 2.54554e-19)
(0.222874 0.0330798 -1.69931e-21)
(0.300623 0.0358464 -2.21574e-19)
(0.386344 0.0401865 2.04844e-19)
(0.478144 0.046053 -1.27949e-19)
(0.573718 0.0532293 0)
(0.670468 0.0613488 -2.20736e-19)
(0.765677 0.0699267 4.13206e-19)
(0.856692 0.0784043 -9.75916e-20)
(0.941106 0.0862045 -1.79235e-19)
(1.01691 0.0927577 1.68255e-19)
(1.08264 0.0976575 0)
(1.13737 0.100272 0)
(1.18099 0.101169 0)
(1.21321 0.0977155 0)
(1.23643 0.0962629 5.62046e-20)
(1.24896 0.0805984 2.12705e-19)
(-0.0126239 0.0101229 -1.93253e-19)
(-0.0207621 0.0197815 1.31858e-19)
(-0.0128825 0.0238742 -1.2038e-21)
(0.010045 0.0248404 -1.74191e-19)
(0.0474274 0.0244955 -1.06412e-19)
(0.0987544 0.0241925 -1.00541e-19)
(0.163362 0.0248977 -1.83902e-19)
(0.240227 0.0272642 1.74073e-19)
(0.327794 0.0316676 0)
(0.423875 0.0382155 8.97516e-22)
(0.525672 0.0467541 2.06892e-21)
(0.629926 0.0568901 1.28493e-19)
(0.733155 0.0680354 0)
(0.831938 0.0794729 0)
(0.923207 0.0904373 1.52684e-19)
(1.00448 0.100197 -2.86776e-19)
(1.07402 0.10813 1.75062e-19)
(1.13095 0.113777 -1.64349e-19)
(1.17521 0.116877 -7.41606e-20)
(1.20755 0.117344 -1.38329e-19)
(1.22915 0.115387 -6.04254e-20)
(1.24211 0.110855 -1.14688e-19)
(1.24754 0.105852 1.63843e-19)
(1.24885 0.0958889 4.84985e-20)
(-0.0118638 0.0086652 0)
(-0.0140923 0.015294 0)
(0.00382111 0.0174562 6.16121e-20)
(0.0402077 0.0176076 5.66669e-20)
(0.0939331 0.0176307 -1.5225e-21)
(0.163843 0.0189364 -1.04055e-19)
(0.24834 0.0224483 0)
(0.345126 0.0286527 -8.64399e-20)
(0.45108 0.0376293 8.12961e-20)
(0.562328 0.0490747 8.35891e-22)
(0.674515 0.0623541 -1.38445e-19)
(0.783201 0.0765901 -1.27216e-19)
(0.884308 0.0907833 1.84423e-21)
(0.974501 0.103944 -1.06883e-19)
(1.05147 0.115216 2.54946e-19)
(1.11406 0.123964 0)
(1.16227 0.129831 -1.70305e-19)
(1.19706 0.132734 8.20648e-20)
(1.22019 0.132867 7.40946e-20)
(1.23382 0.13051 0)
(1.24034 0.126374 6.27671e-20)
(1.24184 0.120276 -2.21361e-19)
(1.23997 0.114769 2.07801e-19)
(1.23764 0.105095 1.3666e-19)
(-0.00971885 0.00668954 -6.85652e-20)
(-0.00305968 0.00998823 -7.09489e-20)
(0.0281071 0.0107111 6.40428e-20)
(0.0812274 0.0110937 0)
(0.154285 0.0129238 0)
(0.244967 0.0175112 -2.35445e-21)
(0.3501 0.025528 0)
(0.465469 0.0370351 -2.64988e-19)
(0.585949 0.051544 2.46081e-19)
(0.705927 0.0681151 -3.03526e-19)
(0.819916 0.0855158 6.94194e-20)
(0.923188 0.10242 0)
(1.01227 0.117607 1.1685e-19)
(1.08522 0.130127 -2.17038e-19)
(1.14167 0.139398 5.14487e-20)
(1.18259 0.14523 1.35278e-19)
(1.21001 0.147778 -4.24931e-21)
(1.22654 0.147461 -1.52358e-19)
(1.23494 0.144834 0)
(1.23774 0.140484 0)
(1.23703 0.135016 -5.69122e-20)
(1.23428 0.128596 5.181e-20)
(1.2305 0.122766 1.90883e-19)
(1.22666 0.114033 -1.79177e-19)
(-0.0058054 0.00430543 -7.25012e-20)
(0.0132474 0.00426036 -7.21316e-20)
(0.0611071 0.00436928 2.02815e-19)
(0.134056 0.00637171 -1.22821e-19)
(0.228687 0.0117235 1.1561e-19)
(0.340845 0.0213672 2.09582e-19)
(0.465091 0.0353981 -1.48183e-19)
(0.594854 0.0531162 -1.80304e-19)
(0.723053 0.0732072 3.52346e-21)
(0.84298 0.094002 2.30278e-19)
(0.949182 0.113785 0)
(1.03807 0.131084 6.39961e-20)
(1.10816 0.144875 0)
(1.15992 0.154668 -1.05552e-19)
(1.19535 0.160482 1.48424e-19)
(1.21739 0.162729 1.19874e-21)
(1.22931 0.162054 -3.9841e-20)
(1.23418 0.159175 7.51143e-20)
(1.23457 0.154759 6.57138e-20)
(1.23235 0.149343 -5.96587e-20)
(1.22875 0.143358 5.68997e-20)
(1.22449 0.136917 -5.17982e-20)
(1.21986 0.130951 0)
(1.21562 0.122893 -4.03899e-20)
(0.000243869 0.00172231 7.24909e-20)
(0.0356121 -0.00122791 7.62208e-20)
(0.103598 -0.000474507 -6.79846e-20)
(0.198908 0.0048825 1.26602e-19)
(0.316076 0.0156197 -1.19162e-19)
(0.448367 0.0319171 1.07621e-19)
(0.587603 0.0528854 -5.17527e-20)
(0.724965 0.0767606 1.3542e-19)
(0.852239 0.101324 -8.5339e-20)
(0.963021 0.124371 1.51721e-19)
(1.05349 0.144114 -3.50871e-19)
(1.12256 0.159439 1.29422e-19)
(1.17152 0.169964 -1.14056e-19)
(1.20333 0.175936 1.0713e-19)
(1.22173 0.178024 9.37664e-20)
(1.23052 0.177092 8.33068e-20)
(1.23298 0.173994 -2.32384e-19)
(1.23167 0.169457 1.44587e-19)
(1.22831 0.164022 -6.5717e-20)
(1.22397 0.158059 1.74196e-19)
(1.21924 0.151807 -5.61047e-20)
(1.2144 0.145363 -1.40451e-19)
(1.20957 0.139218 1.30233e-19)
(1.20503 0.131659 4.03768e-20)
(0.00875768 -0.000759107 0)
(0.0645834 -0.00558987 7.0595e-22)
(0.155797 -0.00246602 1.42628e-19)
(0.274989 0.00822967 -1.33709e-19)
(0.413892 0.0261128 -1.20415e-19)
(0.562649 0.0501116 2.23795e-19)
(0.710436 0.0779844 -1.03927e-19)
(0.847113 0.106819 1.3864e-19)
(0.964907 0.13375 -2.83696e-21)
(1.05944 0.156549 -7.88126e-20)
(1.12984 0.173937 1.72725e-19)
(1.17813 0.185613 -2.5567e-19)
(1.20811 0.192052 0)
(1.22429 0.194186 -5.08385e-20)
(1.23098 0.193099 -1.36747e-19)
(1.2317 0.189792 4.29529e-20)
(1.22903 0.185063 1.40096e-21)
(1.22467 0.179476 -9.73726e-20)
(1.21959 0.173399 4.86392e-21)
(1.21433 0.167056 1.13207e-19)
(1.20913 0.160579 -5.14349e-20)
(1.20406 0.154054 -2.02622e-20)
(1.19911 0.147681 6.1001e-20)
(1.19441 0.140485 0)
(0.0199852 -0.00275696 0)
(0.100352 -0.00777951 3.87234e-20)
(0.217175 -0.000148626 -1.86621e-19)
(0.360321 0.0179103 6.77817e-20)
(0.518124 0.0442632 -6.37939e-20)
(0.677596 0.0761235 -5.8404e-20)
(0.826187 0.109765 -1.03185e-19)
(0.954122 0.141418 5.14778e-20)
(1.05591 0.168169 4.47249e-20)
(1.13052 0.188418 0)
(1.18048 0.201865 1.03044e-19)
(1.21043 0.209193 -1.54181e-19)
(1.22566 0.211612 1.14763e-19)
(1.23106 0.210459 5.08647e-20)
(1.23049 0.206917 -4.23034e-20)
(1.22669 0.201893 -3.58575e-20)
(1.22139 0.196007 -3.37493e-20)
(1.21557 0.189648 9.99075e-20)
(1.20973 0.183046 0)
(1.20409 0.176333 5.15213e-20)
(1.1987 0.169588 4.43385e-20)
(1.19354 0.162872 -1.08977e-19)
(1.18856 0.156218 -7.6383e-20)
(1.18377 0.149252 7.04463e-20)
(0.0340424 -0.00382499 -4.2136e-20)
(0.142628 -0.00668044 -1.73403e-21)
(0.286331 0.00785209 3.80422e-20)
(0.451783 0.0350516 1.06461e-19)
(0.623761 0.0704451 3.10136e-20)
(0.786929 0.109288 -5.99542e-20)
(0.928723 0.14664 5.46601e-20)
(1.04169 0.178537 -4.79344e-20)
(1.12403 0.202758 8.62966e-20)
(1.17846 0.218845 3.68878e-20)
(1.21038 0.22764 -1.04851e-19)
(1.22596 0.230658 3.0962e-20)
(1.23081 0.229547 5.32494e-20)
(1.22934 0.225739 -2.61372e-20)
(1.22456 0.220307 0)
(1.21836 0.213966 3.95712e-20)
(1.21176 0.207153 6.76102e-20)
(1.20526 0.200116 1.20418e-20)
(1.19908 0.192994 -5.67895e-20)
(1.19327 0.185864 2.4015e-20)
(1.18781 0.178778 0)
(1.18263 0.171764 -1.92298e-20)
(1.17765 0.164796 -1.85317e-20)
(1.17282 0.157913 0)
(0.0508538 -0.00348003 0)
(0.190552 -0.0012135 2.21197e-20)
(0.361002 0.0226472 4.09064e-20)
(0.545395 0.0602212 -1.08856e-19)
(0.72551 0.104288 3.52575e-20)
(0.885264 0.148309 0)
(1.01415 0.18682 5.3057e-20)
(1.10861 0.21651 -7.4143e-20)
(1.17103 0.236455 -4.31925e-20)
(1.2074 0.247544 1.95033e-20)
(1.22489 0.251619 -3.15576e-20)
(1.23008 0.250724 7.6438e-20)
(1.22812 0.246634 3.85022e-20)
(1.22252 0.240669 -2.66335e-20)
(1.21543 0.233695 -2.3619e-21)
(1.208 0.226231 -7.4032e-20)
(1.20078 0.21856 3.37989e-20)
(1.19398 0.210836 -9.07475e-22)
(1.18768 0.203141 0)
(1.18183 0.195522 -2.40403e-20)
(1.17638 0.188012 0)
(1.17125 0.18061 5.547e-20)
(1.16633 0.173306 -6.63856e-20)
(1.1615 0.16636 3.04063e-20)
(0.0701066 -0.00123931 -1.16332e-20)
(0.242668 0.00955324 -5.58668e-20)
(0.438195 0.0449417 6.36607e-20)
(0.636782 0.0933511 3.73564e-20)
(0.818566 0.144793 -1.77965e-20)
(0.968814 0.191582 3.00313e-20)
(1.08089 0.22869 -1.45464e-20)
(1.1559 0.254213 2.42758e-20)
(1.20006 0.268835 0)
(1.22158 0.274697 5.52702e-20)
(1.22831 0.274337 -2.23052e-21)
(1.22645 0.270008 -4.47128e-20)
(1.22026 0.263394 1.92008e-20)
(1.21232 0.255593 -2.17618e-20)
(1.20402 0.247255 -8.35281e-21)
(1.196 0.238726 9.59782e-21)
(1.18852 0.230187 -7.44844e-21)
(1.18164 0.221725 -4.08155e-20)
(1.17535 0.213391 2.50197e-20)
(1.16957 0.205217 5.15868e-21)
(1.16422 0.197212 4.57589e-21)
(1.15919 0.189359 4.06361e-21)
(1.15437 0.181714 0)
(1.1496 0.174547 0)
(0.0913001 0.00334673 1.16413e-20)
(0.297111 0.0263172 -1.16209e-20)
(0.514623 0.0749436 -2.12346e-20)
(0.721843 0.133763 0)
(0.899258 0.190546 -8.85888e-21)
(1.03556 0.237503 -8.02e-21)
(1.12914 0.271 -1.37184e-20)
(1.18566 0.291028 0)
(1.21427 0.299874 0)
(1.22432 0.300651 0)
(1.22347 0.296261 0)
(1.21707 0.28892 0)
(1.2084 0.280089 -1.20688e-20)
(1.19924 0.270623 5.49839e-21)
(1.19039 0.260976 9.59959e-21)
(1.18218 0.251369 4.5018e-21)
(1.17468 0.241907 1.11734e-20)
(1.16789 0.232641 0)
(1.16173 0.223601 -2.71059e-21)
(1.15613 0.214804 -2.62205e-21)
(1.15098 0.206241 -4.5832e-21)
(1.14616 0.197897 -4.07012e-21)
(1.14154 0.189904 0)
(1.13695 0.182367 2.97134e-21)
(-0.00126556 0.0044236 7.40783e-21)
(-0.00602263 0.0145092 -7.68083e-21)
(-0.014418 0.0250271 -1.45331e-20)
(-0.0246555 0.0352584 0)
(-0.0357342 0.0447412 -1.94406e-20)
(-0.0471316 0.0533059 6.11439e-21)
(-0.0584762 0.0610162 -1.14954e-20)
(-0.0694992 0.0680797 0)
(-0.0800168 0.0747642 0)
(-0.0899032 0.0813298 0)
(-0.0990701 0.0879842 0)
(-0.107453 0.0948617 0)
(-0.115001 0.10202 3.47342e-23)
(-0.12167 0.10945 -7.53099e-21)
(-0.127419 0.117081 1.41195e-20)
(-0.132207 0.1248 1.994e-20)
(-0.135995 0.132453 6.23857e-21)
(-0.138751 0.139853 0)
(-0.140457 0.146792 5.53435e-21)
(-0.141122 0.153042 -1.56246e-20)
(-0.140785 0.158376 -9.83501e-21)
(-0.139517 0.162566 -9.28486e-21)
(-0.137476 0.165381 0)
(-0.135004 0.166655 0)
(-0.00166831 0.00754343 -2.2227e-20)
(-0.00677303 0.0218947 3.83313e-20)
(-0.0148363 0.0352602 -1.44065e-20)
(-0.0243323 0.0473281 -2.73697e-20)
(-0.0343935 0.0579054 3.87051e-20)
(-0.0445588 0.0670081 -2.43158e-20)
(-0.0545014 0.0748342 3.43623e-20)
(-0.0639843 0.0816896 2.14887e-20)
(-0.0728425 0.087914 0)
(-0.0809578 0.0938204 -1.91619e-20)
(-0.088242 0.0996556 -3.46086e-23)
(-0.094625 0.105582 1.69265e-20)
(-0.100048 0.111676 2.37999e-20)
(-0.104457 0.117938 2.99037e-20)
(-0.107802 0.124306 -1.4047e-20)
(-0.110032 0.13067 -3.96875e-20)
(-0.111096 0.136885 1.24745e-20)
(-0.110944 0.142779 -4.68745e-20)
(-0.10953 0.148167 0)
(-0.106821 0.152868 1.0414e-20)
(-0.102801 0.156714 9.8205e-21)
(-0.0974678 0.159578 9.27092e-21)
(-0.0908346 0.161415 0)
(-0.0831707 0.162354 0)
(-0.00234607 0.00995848 0)
(-0.008112 0.0276912 7.64544e-20)
(-0.0159159 0.0433773 -2.88428e-20)
(-0.0245612 0.0569734 2.72876e-20)
(-0.0333474 0.0684773 -7.69619e-20)
(-0.0418955 0.0780395 0)
(-0.0499398 0.0859546 -4.5515e-20)
(-0.0572892 0.0925985 2.13413e-20)
(-0.0638083 0.0983634 -4.01657e-20)
(-0.0693955 0.103604 1.87632e-20)
(-0.0739685 0.108602 1.06781e-19)
(-0.0774552 0.113548 -5.01627e-20)
(-0.0797896 0.118541 -7.88904e-20)
(-0.0809087 0.123601 -2.96744e-20)
(-0.0807499 0.128676 -1.54336e-22)
(-0.0792496 0.133663 1.0521e-19)
(-0.076342 0.138421 -4.94839e-20)
(-0.071957 0.142783 5.55338e-23)
(-0.0660204 0.146567 0)
(-0.0584565 0.1496 -4.18859e-20)
(-0.0491969 0.151738 0)
(-0.0381448 0.152917 -3.81383e-20)
(-0.0250656 0.153274 1.43689e-19)
(-0.0100586 0.153388 1.37566e-21)
(-0.00318939 0.0116068 0)
(-0.00985192 0.0317199 1.12461e-23)
(-0.0175184 0.0490868 2.88302e-20)
(-0.0253095 0.0637989 -2.71509e-20)
(-0.0326925 0.0759705 2.56278e-20)
(-0.0393761 0.0858392 1.4441e-19)
(-0.0451643 0.0937603 -4.53016e-20)
(-0.0499208 0.100152 -4.24897e-20)
(-0.0535496 0.105439 8.00587e-20)
(-0.0559747 0.110002 -1.12987e-19)
(-0.0571272 0.11415 3.52434e-20)
(-0.0569366 0.118097 3.31302e-20)
(-0.0553341 0.121972 0)
(-0.0522481 0.125812 2.95266e-20)
(-0.0476035 0.129584 0)
(-0.0413235 0.133198 5.20558e-20)
(-0.0333279 0.136519 -9.89486e-20)
(-0.0235315 0.13938 2.26361e-20)
(-0.0118428 0.141591 8.78701e-20)
(0.0018353 0.142958 4.18415e-20)
(0.0175908 0.143307 0)
(0.0355591 0.142554 -1.14157e-19)
(0.056294 0.140939 3.55284e-20)
(0.0802164 0.139466 0)
(-0.00410196 0.0125337 0)
(-0.0118179 0.0340166 -9.16763e-20)
(-0.019503 0.0523478 -2.88604e-20)
(-0.026525 0.0676574 -5.42611e-20)
(-0.0324913 0.0801249 5.10919e-20)
(-0.0371924 0.0900408 -4.80745e-20)
(-0.0405017 0.0977934 9.01697e-20)
(-0.0423429 0.103821 4.23639e-20)
(-0.0426657 0.108559 -1.19544e-19)
(-0.0414269 0.112401 7.47366e-20)
(-0.0385811 0.115668 -1.05475e-19)
(-0.0340624 0.118598 2.30602e-19)
(-0.0278005 0.121336 -1.24016e-19)
(-0.0197233 0.123943 5.80975e-20)
(-0.00974075 0.126409 1.64857e-19)
(0.0022396 0.128663 -5.15085e-20)
(0.0163137 0.130588 -4.80622e-20)
(0.032582 0.132024 -4.61463e-20)
(0.0511504 0.132783 0)
(0.0721298 0.132657 -8.38926e-20)
(0.0956179 0.131429 -8.112e-20)
(0.121714 0.128919 1.12351e-19)
(0.1509 0.125306 1.46042e-19)
(0.186019 0.121777 -1.37237e-19)
(-0.00502454 0.0128725 0)
(-0.013886 0.034802 -1.22485e-19)
(-0.0217511 0.0533489 4.94963e-23)
(-0.028131 0.0686483 1.08603e-19)
(-0.032732 0.0809268 0)
(-0.0354134 0.0905129 0)
(-0.0361127 0.0978142 0)
(-0.0348119 0.103272 -4.21791e-20)
(-0.0315095 0.107318 1.63315e-22)
(-0.0261972 0.110345 7.43286e-20)
(-0.0188508 0.112675 -1.04879e-19)
(-0.00942272 0.114555 7.15657e-23)
(0.0021568 0.116141 0)
(0.0159722 0.117515 -5.80717e-20)
(0.0321255 0.118691 5.43792e-20)
(0.050729 0.119623 -1.53424e-19)
(0.0719023 0.120213 1.94137e-19)
(0.0957699 0.120324 4.6898e-20)
(0.12246 0.119787 1.93087e-21)
(0.1521 0.118404 -1.64179e-19)
(0.184776 0.115952 -7.82236e-20)
(0.220748 0.112187 2.63842e-19)
(0.25904 0.107064 -1.77618e-19)
(0.308984 0.101652 0)
(-0.00594694 0.0128129 5.96842e-20)
(-0.0159984 0.0344275 6.12842e-20)
(-0.024162 0.0524641 -5.78464e-20)
(-0.0299921 0.0670992 -1.08463e-19)
(-0.0332517 0.0786229 1.02125e-19)
(-0.0338554 0.0874091 -9.54795e-20)
(-0.0317972 0.0938836 1.34606e-19)
(-0.0271091 0.0984855 -4.21059e-20)
(-0.0198296 0.101638 7.88527e-20)
(-0.00997955 0.103718 0)
(0.00244941 0.105043 6.87468e-20)
(0.0174997 0.105854 -1.29223e-19)
(0.0352468 0.106319 1.21764e-19)
(0.0557937 0.106533 -1.14362e-19)
(0.0792666 0.106527 0)
(0.105806 0.106281 1.01427e-19)
(0.135559 0.105723 1.91708e-19)
(0.168672 0.104744 -1.80498e-19)
(0.205282 0.103204 -8.53698e-20)
(0.245535 0.100936 -8.33383e-20)
(0.28929 0.0977291 2.32534e-19)
(0.337799 0.0934819 7.51561e-20)
(0.38552 0.0876595 -6.91771e-20)
(0.454887 0.0813513 6.69378e-20)
(-0.00690272 0.0125573 -5.96924e-20)
(-0.0181445 0.0332935 1.84768e-19)
(-0.0266111 0.0501716 -5.81179e-20)
(-0.0318373 0.0635044 1.08599e-19)
(-0.0336171 0.0736924 -1.02253e-19)
(-0.0319073 0.0811796 2.51092e-22)
(-0.0267446 0.0864218 4.49166e-20)
(-0.0181936 0.0898634 1.66743e-19)
(-0.00631181 0.0919166 -7.41802e-22)
(0.00887384 0.0929453 -7.38216e-20)
(0.0273789 0.0932527 0)
(0.0492636 0.0930763 -6.38715e-20)
(0.0746288 0.092586 1.20639e-19)
(0.103605 0.0918883 1.13245e-19)
(0.136342 0.0910332 -5.34064e-20)
(0.172996 0.0900193 -5.66373e-22)
(0.213704 0.0888016 -4.75924e-20)
(0.258573 0.0872992 8.89607e-20)
(0.307629 0.0853927 8.53569e-20)
(0.361004 0.0829913 -8.10943e-20)
(0.41766 0.0797434 7.6164e-20)
(0.481227 0.0761599 -7.24519e-20)
(0.537629 0.0705481 0)
(0.628641 0.0653676 -6.68764e-20)
(-0.00794335 0.0122714 6.01228e-20)
(-0.0203029 0.0317538 -6.17456e-20)
(-0.0288731 0.0469508 5.83574e-20)
(-0.033159 0.0584345 0)
(-0.0329854 0.0667817 0)
(-0.0283403 0.0725414 9.54537e-20)
(-0.0192811 0.0762215 -8.9695e-20)
(-0.00587491 0.0782848 8.28748e-20)
(0.0118364 0.0791432 -3.90043e-19)
(0.0338547 0.0791525 3.63758e-22)
(0.0602309 0.0786085 6.79955e-20)
(0.0910577 0.0777451 0)
(0.126455 0.0767353 -1.19432e-19)
(0.166548 0.0756936 2.24311e-19)
(0.211437 0.0746798 -1.58251e-19)
(0.261168 0.0737023 -2.48689e-19)
(0.315709 0.0727271 -1.11102e-21)
(0.374921 0.0716855 1.75269e-19)
(0.438447 0.0704429 0)
(0.506267 0.0690423 0)
(0.575813 0.0667484 -7.61608e-20)
(0.6534 0.0651115 7.24474e-20)
(0.716032 0.0604484 -2.7557e-19)
(0.822311 0.058576 2.58371e-19)
(-0.00910013 0.0120415 0)
(-0.022361 0.0300324 0)
(-0.0305207 0.0431784 -1.75217e-19)
(-0.0331095 0.0524295 5.57266e-20)
(-0.0299964 0.0586044 7.24959e-22)
(-0.0211938 0.0623924 9.65896e-20)
(-0.00675276 0.0643792 0)
(0.0132915 0.0650655 -8.35647e-20)
(0.0389425 0.0648787 7.79666e-20)
(0.0702444 0.0641793 -1.44768e-19)
(0.107267 0.0632634 3.28054e-22)
(0.150079 0.0623637 1.26673e-19)
(0.198705 0.0616496 -3.17205e-22)
(0.253091 0.0612274 1.11239e-19)
(0.313057 0.0611415 -1.56962e-19)
(0.378265 0.0613777 0)
(0.448191 0.0618665 1.85928e-19)
(0.522132 0.0624987 -2.62518e-19)
(0.599071 0.0630654 8.21908e-20)
(0.678438 0.0636325 0)
(0.756764 0.0631909 7.35592e-20)
(0.840264 0.0638181 2.84071e-19)
(0.90467 0.0603737 -2.66588e-19)
(1.00856 0.0619431 -3.18553e-19)
(-0.0103363 0.0118504 1.83101e-19)
(-0.024039 0.0281681 -2.51728e-19)
(-0.0308543 0.0390524 6.276e-22)
(-0.0304533 0.0459087 5.5884e-20)
(-0.0227762 0.0498384 -1.03816e-19)
(-0.00785645 0.0517001 -9.61886e-20)
(0.0142755 0.0521797 1.78868e-19)
(0.0436208 0.0518353 -1.84244e-21)
(0.0802022 0.0511251 -1.56688e-19)
(0.124031 0.0504219 2.90355e-19)
(0.175054 0.0500195 -9.07627e-22)
(0.233098 0.0501328 -1.27026e-19)
(0.297809 0.0508955 0)
(0.36861 0.0523582 0)
(0.444668 0.0544868 -5.21516e-20)
(0.524897 0.0571656 -9.73776e-20)
(0.60798 0.060207 -1.84133e-19)
(0.69241 0.0633564 1.72837e-19)
(0.776521 0.0663214 -8.22238e-20)
(0.858848 0.0688417 1.54535e-19)
(0.936712 0.0703287 -7.26907e-20)
(1.01261 0.0716416 1.3915e-19)
(1.0716 0.0692376 -3.22691e-19)
(1.15207 0.0710316 6.23525e-20)
(-0.0115118 0.0115799 6.16746e-20)
(-0.0248313 0.0260137 0)
(-0.0288766 0.0345771 1.19241e-19)
(-0.0236046 0.0391278 -1.1233e-19)
(-0.00907364 0.0410535 1.03912e-19)
(0.0146434 0.0413936 0)
(0.0475007 0.0409451 0)
(0.0894533 0.0403296 -8.3585e-20)
(0.140391 0.0400327 1.53385e-21)
(0.200051 0.0404224 7.37676e-20)
(0.267936 0.0417532 -6.7582e-20)
(0.343237 0.0441642 1.2729e-19)
(0.424802 0.0476749 0)
(0.511133 0.0521852 2.21144e-19)
(0.600433 0.0574814 -4.14739e-19)
(0.690689 0.0632501 2.91873e-19)
(0.779777 0.0691084 1.82043e-19)
(0.86557 0.0745955 -1.70881e-19)
(0.946117 0.0793516 0)
(1.01959 0.0826781 0)
(1.08476 0.0848644 0)
(1.1409 0.0842554 0)
(1.18513 0.0827205 6.36213e-20)
(1.23088 0.0789728 -2.35623e-19)
(-0.132003 0.166367 -5.86517e-21)
(-0.129155 0.16153 5.89953e-21)
(-0.125116 0.151261 -1.87853e-22)
(-0.119797 0.134806 0)
(-0.113036 0.111264 -5.71639e-21)
(-0.104646 0.079911 1.11749e-20)
(-0.0944719 0.0402681 3.06938e-23)
(-0.0824001 -0.00813665 -5.33886e-21)
(-0.0681574 -0.0642357 0)
(-0.0521094 -0.126447 0)
(-0.0349421 -0.192736 -3.04307e-22)
(-0.0174504 -0.260183 -2.81103e-22)
(-0.000946766 -0.325408 -4.01088e-21)
(0.0131948 -0.384964 3.65067e-21)
(0.0239705 -0.435795 0)
(0.0310864 -0.475264 0)
(0.0363834 -0.500061 2.37451e-21)
(0.0443955 -0.50538 -8.01585e-23)
(0.0611672 -0.484408 -2.03707e-21)
(0.0917782 -0.430206 -1.25435e-22)
(0.138041 -0.340466 0)
(0.196744 -0.218551 0)
(0.262356 -0.073811 0)
(0.33085 0.0814595 0)
(0.398838 0.229873 0)
(0.46135 0.3524 0)
(0.512367 0.436767 4.81198e-22)
(0.548716 0.481717 -7.70279e-22)
(0.567138 0.499213 0)
(0.558584 0.512418 0)
(0.520234 0.533511 -4.50743e-22)
(0.47352 0.537474 4.38088e-22)
(0.453886 0.475476 2.77033e-22)
(0.477057 0.32476 0)
(0.532219 0.112918 0)
(0.600711 -0.104254 5.79622e-22)
(0.663347 -0.279805 -5.63393e-22)
(0.705847 -0.393374 0)
(0.731717 -0.443123 3.05759e-22)
(0.743465 -0.450291 -4.31763e-22)
(0.721091 -0.458229 1.14858e-22)
(0.662655 -0.473896 0)
(0.60115 -0.445943 -2.62789e-22)
(0.575908 -0.323115 2.55539e-22)
(0.591869 -0.124725 0)
(0.633771 0.0834956 0)
(0.677558 0.238707 -1.09855e-22)
(0.721016 0.320943 2.96561e-22)
(0.734659 0.357553 0)
(0.704315 0.378594 0)
(0.646546 0.3728 -6.13031e-23)
(0.623676 0.28554 -6.88947e-24)
(0.636052 0.146781 -9.96454e-25)
(0.689921 -0.0147986 5.89576e-23)
(0.727501 -0.119673 0)
(0.775825 -0.179038 0)
(0.788601 -0.196263 0)
(0.794116 -0.171031 0)
(0.750966 -0.179169 0)
(0.760085 -0.0819403 0)
(-0.0743531 0.162525 -5.89262e-22)
(-0.0675937 0.156874 -2.51949e-20)
(-0.0592105 0.145544 -3.66764e-22)
(-0.0491939 0.127875 2.39761e-20)
(-0.0375445 0.102959 3.93605e-22)
(-0.0241525 0.070058 0)
(-0.00933802 0.0286932 -2.36645e-20)
(0.00724826 -0.0210284 4.6794e-20)
(0.0259191 -0.0781513 -2.31264e-20)
(0.0455963 -0.14129 2.13805e-20)
(0.0653263 -0.207936 -2.04767e-20)
(0.0840619 -0.274774 1.7835e-20)
(0.100121 -0.338072 -1.73944e-20)
(0.1115 -0.394244 -4.7863e-22)
(0.116186 -0.440796 -1.22817e-20)
(0.11291 -0.476419 1.19359e-20)
(0.102581 -0.499613 -9.18382e-21)
(0.0893632 -0.507454 8.67039e-21)
(0.0807285 -0.493859 -7.83448e-21)
(0.0851209 -0.450684 1.52084e-20)
(0.108136 -0.371803 -7.37896e-21)
(0.150259 -0.257523 -4.32802e-22)
(0.206333 -0.116445 -7.79273e-21)
(0.270898 0.0372874 1.49287e-20)
(0.338857 0.187319 -7.14832e-21)
(0.404775 0.315229 3.50346e-22)
(0.462576 0.408214 4.96759e-21)
(0.507089 0.464206 -3.69982e-22)
(0.531153 0.495641 -7.81607e-21)
(0.525711 0.52342 7.35119e-21)
(0.494298 0.552093 -3.57474e-21)
(0.463498 0.550666 5.1775e-22)
(0.464367 0.474316 -2.77612e-22)
(0.503957 0.309624 7.01032e-22)
(0.568642 0.0889719 0)
(0.640443 -0.13023 0)
(0.701979 -0.300828 -2.06136e-21)
(0.739012 -0.406595 1.54718e-21)
(0.755045 -0.449961 8.90922e-22)
(0.759882 -0.448501 -6.95195e-23)
(0.736742 -0.444469 -1.08382e-21)
(0.676933 -0.453455 1.93711e-22)
(0.609501 -0.430644 0)
(0.574946 -0.320462 0)
(0.582585 -0.133368 0)
(0.620598 0.0696694 0)
(0.666512 0.224725 4.11204e-22)
(0.712535 0.312408 -1.89908e-22)
(0.723735 0.359849 0)
(0.690659 0.389654 0)
(0.635551 0.382625 0)
(0.621452 0.286374 -1.48015e-22)
(0.640664 0.139071 -2.06108e-23)
(0.701526 -0.0253093 -1.15848e-22)
(0.738196 -0.129144 0)
(0.786764 -0.185635 0)
(0.799723 -0.198555 3.30044e-23)
(0.808345 -0.168006 5.87882e-23)
(0.770212 -0.175036 0)
(0.765678 -0.0826822 0)
(0.00494778 0.153765 1.90388e-21)
(0.0160137 0.148243 -5.12687e-20)
(0.0290519 0.13637 5.35995e-20)
(0.044009 0.117923 -5.00985e-20)
(0.0606554 0.0921951 -3.96262e-22)
(0.0789505 0.0584001 0)
(0.0987541 0.015995 -5.20337e-20)
(0.120048 -0.0340779 5.10098e-20)
(0.142502 -0.0914919 3.70026e-22)
(0.165208 -0.1547 7.46648e-22)
(0.187136 -0.220817 6.99459e-22)
(0.206934 -0.286215 6.10465e-22)
(0.222717 -0.346793 -3.42358e-20)
(0.232192 -0.398794 3.37529e-20)
(0.232879 -0.439754 0)
(0.222692 -0.469085 6.98538e-22)
(0.200949 -0.487501 -1.74998e-20)
(0.170079 -0.494979 1.72618e-20)
(0.137036 -0.487349 0)
(0.112863 -0.456482 0)
(0.107332 -0.392813 -1.27668e-20)
(0.126103 -0.291873 2.54917e-20)
(0.166687 -0.159186 -2.49497e-20)
(0.223225 -0.00888965 4.67929e-22)
(0.288652 0.141286 2.26717e-20)
(0.355968 0.273679 -2.10614e-20)
(0.418309 0.375173 1.77259e-20)
(0.468177 0.443332 -1.08006e-21)
(0.496063 0.489806 -7.58717e-21)
(0.495009 0.531224 0)
(0.474202 0.564952 0)
(0.461969 0.55706 3.69365e-21)
(0.482957 0.468463 -4.6265e-21)
(0.537559 0.293419 5.21704e-23)
(0.6106 0.0671162 6.05387e-21)
(0.684124 -0.152653 -5.88257e-21)
(0.742926 -0.317966 0)
(0.774414 -0.415732 4.58272e-22)
(0.780766 -0.453563 2.83012e-21)
(0.777628 -0.445758 -4.86364e-21)
(0.753743 -0.43087 1.87299e-21)
(0.693761 -0.432552 1.53289e-22)
(0.621373 -0.414288 -1.91498e-21)
(0.578197 -0.316974 1.5303e-21)
(0.577763 -0.141975 4.03574e-22)
(0.611913 0.0548523 3.98513e-22)
(0.659335 0.209591 -4.12259e-22)
(0.706015 0.303774 0)
(0.71384 0.362692 0)
(0.678611 0.400642 -1.17751e-21)
(0.626972 0.391365 5.72212e-22)
(0.621732 0.28594 -6.35732e-22)
(0.647811 0.130403 9.29421e-22)
(0.715097 -0.0360577 1.04753e-21)
(0.751088 -0.138305 -2.18933e-22)
(0.798967 -0.192073 2.9448e-22)
(0.810454 -0.201112 -1.83612e-22)
(0.821477 -0.165834 6.73522e-23)
(0.789964 -0.170383 0)
(0.773839 -0.0822586 0)
(0.100599 0.139627 -1.0825e-19)
(0.116529 0.134591 -2.68255e-21)
(0.133568 0.122745 1.05419e-19)
(0.15313 0.104129 -8.35649e-22)
(0.174495 0.0783282 0)
(0.197198 0.0445593 0)
(0.221549 0.00235555 -1.09663e-19)
(0.247042 -0.0475011 -1.32286e-21)
(0.272803 -0.104578 1.55283e-19)
(0.298085 -0.167065 -2.09961e-21)
(0.321711 -0.232028 -4.77314e-20)
(0.342118 -0.295597 -3.90743e-20)
(0.3573 -0.353303 3.92612e-20)
(0.364994 -0.400901 0)
(0.36292 -0.435523 -2.51951e-20)
(0.348808 -0.456834 2.30863e-20)
(0.320777 -0.467205 0)
(0.278936 -0.469768 0)
(0.227466 -0.464109 1.1133e-20)
(0.176974 -0.443782 -9.40426e-22)
(0.140462 -0.397525 -9.25895e-21)
(0.129551 -0.315632 -9.8261e-21)
(0.147437 -0.197803 9.70957e-21)
(0.189865 -0.0553387 -9.85172e-21)
(0.248571 0.0928122 5.75461e-22)
(0.314468 0.228692 8.73204e-21)
(0.378546 0.33865 9.61198e-22)
(0.431177 0.419551 6.44932e-23)
(0.462179 0.480851 0)
(0.467648 0.533971 7.4518e-21)
(0.460679 0.570491 -7.71271e-21)
(0.468363 0.556268 5.51552e-22)
(0.508469 0.458521 0)
(0.576609 0.277097 -7.62013e-22)
(0.656835 0.0479452 1.28727e-20)
(0.730997 -0.171208 -2.22955e-20)
(0.785676 -0.331559 6.59685e-22)
(0.811395 -0.421436 2.01535e-21)
(0.808666 -0.454085 5.90143e-21)
(0.796561 -0.442098 5.24925e-22)
(0.771431 -0.417937 -2.95141e-21)
(0.712552 -0.411517 2.51878e-21)
(0.636426 -0.396649 5.30184e-23)
(0.585538 -0.31236 1.44195e-21)
(0.577785 -0.150415 -1.80698e-21)
(0.608036 0.0392541 -2.52901e-21)
(0.655824 0.193716 7.60139e-22)
(0.701257 0.295331 1.28874e-21)
(0.705132 0.366004 -2.48913e-21)
(0.668385 0.411367 1.79289e-21)
(0.620927 0.398979 -6.64116e-22)
(0.624455 0.284387 5.56131e-22)
(0.657338 0.120889 6.80439e-22)
(0.730188 -0.0469858 -1.69898e-21)
(0.765871 -0.147116 7.69669e-23)
(0.812461 -0.198126 -3.15795e-22)
(0.821122 -0.203689 0)
(0.83348 -0.164549 -6.03045e-23)
(0.80938 -0.165559 3.28127e-23)
(0.784247 -0.0808774 0)
(0.209676 0.121693 1.10691e-19)
(0.229635 0.116534 -2.204e-19)
(0.249778 0.104863 1.08217e-19)
(0.272939 0.0866047 1.1376e-19)
(0.29829 0.0613922 -2.25691e-19)
(0.324844 0.0284081 -1.98794e-21)
(0.352902 -0.01262 1.11578e-19)
(0.381704 -0.0613579 1.10024e-19)
(0.410252 -0.117116 -1.07755e-19)
(0.437589 -0.177959 0)
(0.46228 -0.24094 -9.23775e-20)
(0.482552 -0.302031 1.72829e-19)
(0.496368 -0.356534 -8.07028e-20)
(0.501579 -0.39988 0)
(0.496274 -0.428836 0)
(0.478875 -0.442797 6.9979e-22)
(0.447786 -0.444296 -3.10318e-20)
(0.401719 -0.438418 3.01488e-20)
(0.341173 -0.428954 0)
(0.272752 -0.413798 1.53851e-20)
(0.208961 -0.382866 -2.77583e-20)
(0.165728 -0.322833 2.5746e-20)
(0.153807 -0.226159 -2.6227e-20)
(0.174313 -0.0982433 -6.70138e-22)
(0.220068 0.0441356 2.68184e-20)
(0.28011 0.181567 -1.3318e-20)
(0.342631 0.29923 -4.38909e-22)
(0.396021 0.392362 -5.8126e-21)
(0.430441 0.467198 -4.45196e-22)
(0.444813 0.529818 6.309e-21)
(0.454021 0.567721 4.78077e-22)
(0.481803 0.548533 -1.03938e-20)
(0.539451 0.445356 2.25155e-20)
(0.61925 0.261188 -1.37237e-20)
(0.705739 0.0320516 0)
(0.780177 -0.185437 -1.33996e-20)
(0.829644 -0.34117 1.27878e-20)
(0.849073 -0.423642 -5.94425e-21)
(0.83818 -0.451361 7.46046e-21)
(0.816643 -0.437164 -5.03669e-22)
(0.789462 -0.405855 0)
(0.732868 -0.390938 -2.76909e-22)
(0.65435 -0.378069 7.77807e-22)
(0.596519 -0.306675 0)
(0.582428 -0.158632 3.03697e-21)
(0.608779 0.0231445 -1.17609e-21)
(0.655557 0.177481 6.54949e-22)
(0.698064 0.28722 5.82387e-22)
(0.697745 0.369602 0)
(0.660139 0.421627 0)
(0.61749 0.405468 -2.08251e-21)
(0.629535 0.281861 3.64154e-21)
(0.669159 0.110703 -2.21027e-21)
(0.746518 -0.0580211 7.96795e-22)
(0.782203 -0.155574 1.0966e-21)
(0.827119 -0.203632 3.16091e-22)
(0.832026 -0.206046 -3.80972e-22)
(0.844479 -0.164072 0)
(0.827739 -0.160865 -6.65478e-23)
(0.79649 -0.0787896 2.02072e-23)
(0.333489 0.101511 1.12463e-19)
(0.35551 0.0958331 -1.11825e-19)
(0.377306 0.0839404 8.83776e-22)
(0.402379 0.0662223 -8.83811e-22)
(0.430087 0.0420893 8.96272e-22)
(0.459298 0.0100727 -8.99308e-22)
(0.489806 -0.0287322 1.76805e-21)
(0.520735 -0.0753578 0)
(0.551004 -0.128709 -1.68651e-21)
(0.579428 -0.186814 1.60819e-21)
(0.604257 -0.246746 1.50116e-21)
(0.623446 -0.304424 -1.37991e-21)
(0.634787 -0.355126 0)
(0.636256 -0.394321 0)
(0.626438 -0.418711 8.5094e-22)
(0.604718 -0.42727 0)
(0.570784 -0.421792 -5.14697e-22)
(0.523933 -0.407226 0)
(0.462561 -0.389795 -1.47901e-20)
(0.387843 -0.372672 2.53709e-20)
(0.307253 -0.350545 -1.87774e-20)
(0.236201 -0.310226 8.13599e-21)
(0.191448 -0.23823 7.45583e-21)
(0.18254 -0.131449 -7.24104e-21)
(0.207367 -0.00087641 -8.89502e-21)
(0.2552 0.134224 8.64896e-21)
(0.312003 0.257289 0)
(0.364353 0.360974 2.48874e-22)
(0.402757 0.44741 0)
(0.427826 0.517572 0)
(0.454251 0.556471 1.57235e-20)
(0.501203 0.534596 -1.60976e-20)
(0.574175 0.429862 1.43093e-21)
(0.663705 0.246366 1.68241e-21)
(0.755595 0.0194352 -1.76785e-21)
(0.83032 -0.195248 -1.21996e-20)
(0.874203 -0.346644 1.18437e-20)
(0.886733 -0.422604 -8.06109e-21)
(0.868683 -0.445612 6.84532e-21)
(0.837808 -0.430739 1.00383e-21)
(0.807462 -0.39473 -2.50291e-21)
(0.754061 -0.371281 2.50581e-22)
(0.674795 -0.358716 1.4187e-21)
(0.610517 -0.299857 0)
(0.59084 -0.166586 -9.83089e-22)
(0.613398 0.0067059 1.54989e-21)
(0.657903 0.161133 -2.05674e-21)
(0.696223 0.279425 -5.86109e-22)
(0.691777 0.373239 0)
(0.653974 0.431244 7.37373e-22)
(0.616675 0.410872 -1.33947e-21)
(0.636924 0.278471 6.05365e-23)
(0.683293 0.100121 -8.80892e-22)
(0.763965 -0.0690355 1.28779e-21)
(0.79977 -0.163672 -1.16805e-21)
(0.8427 -0.208494 0)
(0.843384 -0.207981 3.81145e-22)
(0.854723 -0.164239 0)
(0.84449 -0.15653 0)