/*--------------------------------*- C++ -*----------------------------------*\
| =========                 |                                                 |
| \\      /  F ield         | OpenFOAM: The Open Source CFD Toolbox           |
|  \\    /   O peration     | Version:  2512                                  |
|   \\  /    A nd           | Website:  www.openfoam.com                      |
|    \\/     M anipulation  |                                                 |
\*---------------------------------------------------------------------------*/
FoamFile
{
    version     2.0;
    format      ascii;
    arch        "LSB;label=32;scalar=64";
    class       surfaceScalarField;
    location    "109";
    object      phi;
}
// * * * * * * * * * * * * * * * * * * * * * * * * * * * * * * * * * * * * * //

dimensions      [0 3 -1 0 0 0 0];

oriented        oriented;

internalField   nonuniform List<scalar> 
26232
(
-2.03127e-05
0.00107516
-0.00105485
0.000225794
0.00205255
-0.00229865
0.000980164
0.00203766
-0.00279203
0.00245549
0.0010734
-0.00254873
0.00485137
-0.000835007
-0.00156087
0.00835643
-0.00369961
0.00019455
0.0131426
-0.00753242
0.00274622
0.0193479
-0.0123281
0.00612291
0.0270556
-0.0180474
0.0103397
0.0362713
-0.0246054
0.0153896
0.0469045
-0.0318684
0.0212352
0.0587595
-0.039658
0.027803
0.0715403
-0.0477629
0.0349821
0.0848685
-0.055956
0.0426279
0.0983135
-0.0640142
0.0505691
0.111432
-0.0717368
0.0586185
0.12381
-0.0789632
0.0665849
0.135106
-0.085586
0.0742905
0.145086
-0.0915555
0.0815753
0.153631
-0.0968934
0.0883477
0.160769
-0.101626
0.0944885
0.166532
-0.10597
0.100207
0.170879
-0.109541
0.105194
-0.113645
0.110774
0.17375
4.83849e-05
0.00102677
0.000501639
0.00159929
0.00162667
0.000912633
0.00366501
-0.000964941
0.00684
-0.00401
0.0113473
-0.00820693
0.0173346
-0.0135197
0.0248741
-0.0198676
0.0339362
-0.0271095
0.0443723
-0.0350415
0.055913
-0.0434091
0.0681861
-0.0519311
0.0807514
-0.0603281
0.0931467
-0.0683514
0.10494
-0.0758072
0.115775
-0.082572
0.125411
-0.088599
0.133739
-0.0939141
0.140785
-0.098602
0.146676
-0.102784
0.151639
-0.106589
0.155828
-0.11016
0.159747
-0.113459
-0.117109
0.16321
0.000144526
0.000882249
0.000879984
0.000863834
0.0024877
-0.000695079
0.00522423
-0.00370148
0.00931237
-0.00809813
0.0149155
-0.0138101
0.0221037
-0.0207079
0.0308215
-0.0285855
0.0408713
-0.0371593
0.0519194
-0.0460896
0.0635292
-0.0550189
0.0752141
-0.0636161
0.0865005
-0.0716145
0.0969874
-0.0788383
0.106393
-0.0852126
0.114578
-0.0907575
0.121549
-0.0955692
0.127426
-0.0997917
0.132409
-0.103585
0.136723
-0.107099
0.140578
-0.110444
0.144146
-0.113728
0.147568
-0.11688
-0.120337
0.150796
0.000261051
0.000621198
0.00133377
-0.000208885
0.00350319
-0.0028645
0.0070192
-0.00721749
0.012068
-0.0131469
0.0187298
-0.0204719
0.0269387
-0.0289167
0.0364621
-0.0381089
0.0469147
-0.0476119
0.0578068
-0.0569817
0.0686169
-0.065829
0.0788699
-0.0738691
0.0882027
-0.0809472
0.0964035
-0.0870391
0.10342
-0.0922288
0.109336
-0.0966734
0.114328
-0.100562
0.118613
-0.104077
0.122403
-0.107375
0.125871
-0.110566
0.129149
-0.113722
0.132312
-0.11689
0.13547
-0.120038
-0.123442
0.138574
0.000392558
0.00022864
0.00184061
-0.00165694
0.0046169
-0.00564079
0.00893419
-0.0115348
0.014896
-0.0191088
0.0224442
-0.0280201
0.03133
-0.0378025
0.04113
-0.0479089
0.051309
-0.0577909
0.0613131
-0.0669858
0.0706634
-0.0751793
0.0790258
-0.0822315
0.0862424
-0.0881638
0.0923215
-0.0931182
0.097397
-0.0973044
0.101672
-0.100948
0.105362
-0.104252
0.108659
-0.107374
0.11171
-0.110426
0.114617
-0.113473
0.117447
-0.116552
0.12024
-0.119683
0.123047
-0.122846
-0.12619
0.125795
0.000536568
-0.000307927
0.00238336
-0.00350373
0.00577659
-0.00903402
0.0108523
-0.0166105
0.01758
-0.0258364
0.0257173
-0.0361574
0.0348193
-0.0469045
0.0443114
-0.057401
0.0536027
-0.0670823
0.0621982
-0.0755813
0.0697751
-0.0827562
0.0762071
-0.0886636
0.0815404
-0.093497
0.0859375
-0.0975153
0.0896132
-0.10098
0.09278
-0.104115
0.0956151
-0.107087
0.098248
-0.110007
0.100765
-0.112943
0.103221
-0.115929
0.105651
-0.118981
0.108072
-0.122104
0.110516
-0.125289
-0.128612
0.112938
0.000690939
-0.000998866
0.00294348
-0.00575627
0.00692383
-0.0130144
0.0126452
-0.0223319
0.0198979
-0.0330891
0.0282378
-0.0444973
0.0370593
-0.0557259
0.0457265
-0.0660682
0.0537089
-0.0750647
0.0606703
-0.0825427
0.0664913
-0.0885771
0.0712344
-0.0934067
0.0750771
-0.0973397
0.0782406
-0.100679
0.0809351
-0.103675
0.0833294
-0.106509
0.0855437
-0.109301
0.0876556
-0.112119
0.0897119
-0.114999
0.0917403
-0.117958
0.0937579
-0.120999
0.0957752
-0.124122
0.0978074
-0.127322
-0.130625
0.0998205
0.000851391
-0.00185026
0.00349537
-0.00840025
0.0079877
-0.0175067
0.0141746
-0.0285188
0.0216428
-0.0405572
0.0297712
-0.0526257
0.0378736
-0.0638284
0.0453612
-0.0735558
0.0518544
-0.0815579
0.0572128
-0.0879011
0.0614956
-0.0928599
0.0648843
-0.0967954
0.0676047
-0.10006
0.0698681
-0.102942
0.071842
-0.105648
0.0736429
-0.10831
0.0753443
-0.111002
0.0769894
-0.113764
0.0786029
-0.116613
0.0801997
-0.119554
0.0817894
-0.122589
0.0833798
-0.125712
0.0849797
-0.128922
-0.132217
0.0865712
0.00101048
-0.00286074
0.00400551
-0.0113953
0.00888887
-0.0223901
0.0153087
-0.0349387
0.0226574
-0.0479059
0.0302022
-0.0601705
0.0372749
-0.0709011
0.0434195
-0.0797004
0.0484432
-0.0865815
0.0523791
-0.091837
0.0554022
-0.095883
0.0577411
-0.0991343
0.0596125
-0.101931
0.0611878
-0.104518
0.0625853
-0.107046
0.0638787
-0.109603
0.0651102
-0.112234
0.0663032
-0.114957
0.0674713
-0.117781
0.0686234
-0.120706
0.0697658
-0.123731
0.0709041
-0.12685
0.0720428
-0.13006
-0.133347
0.0731732
0.00115812
-0.00401886
0.00443609
-0.0146732
0.00955123
-0.0275052
0.0159462
-0.0413336
0.0228635
-0.0548233
0.0295451
-0.0668521
0.0354253
-0.0767813
0.0402218
-0.0844968
0.0439137
-0.0902735
0.0466546
-0.0945779
0.0486719
-0.0979003
0.0501904
-0.100653
0.051391
-0.103132
0.0523988
-0.105525
0.0532915
-0.107939
0.0541128
-0.110425
0.0548866
-0.113008
0.0556261
-0.115697
0.0563395
-0.118494
0.0570328
-0.1214
0.0577106
-0.124409
0.0583775
-0.127517
0.0590363
-0.130719
-0.133997
0.0596862
0.0012836
-0.00530246
0.00475216
-0.0181418
0.00991633
-0.0326694
0.016034
-0.0474513
0.0222675
-0.0610568
0.0279162
-0.0725009
0.0325673
-0.0814323
0.0361093
-0.0880389
0.0386512
-0.0928153
0.0404101
-0.0963368
0.0416193
-0.0991095
0.0424731
-0.101507
0.0431092
-0.103768
0.0436131
-0.106029
0.0440331
-0.108359
0.0443948
-0.110786
0.0447117
-0.113325
0.044992
-0.115977
0.0452414
-0.118744
0.0454645
-0.121623
0.0456648
-0.124609
0.0458453
-0.127698
0.0460067
-0.13088
-0.134142
0.0461515
0.00138006
-0.00668252
0.00493041
-0.0216921
0.0099543
-0.0376933
0.0155727
-0.0530696
0.0209464
-0.0664305
0.0254934
-0.0770479
0.0289658
-0.0849048
0.0313929
-0.090466
0.0329634
-0.0943857
0.0339135
-0.0972869
0.0344542
-0.0996502
0.0347406
-0.101793
0.0348712
-0.103899
0.0349019
-0.10606
0.0348617
-0.108319
0.0347656
-0.11069
0.0346218
-0.113181
0.0344359
-0.115791
0.0342124
-0.11852
0.0339553
-0.121366
0.033668
-0.124322
0.0333528
-0.127383
0.0330097
-0.130537
0.0326434
-0.133776
-0.000176426
0.00165468
-0.00147825
-0.000638226
0.00457695
-0.00411515
-0.00135057
0.00721007
-0.00649772
-0.00228339
0.00952681
-0.00859399
-0.00340462
0.0115287
-0.0104075
-0.00467853
0.0132558
-0.0119819
-0.00606664
0.0147735
-0.0133854
-0.00752973
0.0161549
-0.0146918
-0.0090296
0.017465
-0.0159651
-0.01053
0.0187499
-0.0172495
-0.0119961
0.0200325
-0.0185664
-0.0133934
0.021312
-0.0199147
-0.0146857
0.0225665
-0.0212743
-0.015833
0.0237561
-0.0226087
-0.0167907
0.0248254
-0.0238677
-0.0175083
0.0257058
-0.0249882
-0.0179296
0.0263167
-0.0258954
-0.0179935
0.0265668
-0.0265029
-0.0176355
0.0263567
-0.0267147
-0.0167898
0.025583
-0.0264286
-0.0153924
0.0241439
-0.0255414
-0.0133808
0.0219414
-0.023953
-0.0107153
0.0189052
-0.0215707
0.0150607
-0.00741868
-0.0183574
-7.67752e-05
0.00173145
-0.000304146
0.00480432
-0.000684102
0.00759002
-0.00121123
0.0100539
-0.00187004
0.0121875
-0.00263363
0.0140194
-0.0034651
0.015605
-0.00432078
0.0170106
-0.00515359
0.0182978
-0.00591559
0.0195119
-0.00655932
0.0206762
-0.00703774
0.0217905
-0.00730369
0.0228325
-0.00730875
0.0237611
-0.00700251
0.0245191
-0.00633254
0.0250358
-0.00524512
0.0252292
-0.00368665
0.0250084
-0.0016053
0.0242754
0.00104963
0.022928
0.00432926
0.0208643
0.00827481
0.0179958
0.012926
0.014254
0.00965139
0.0183354
1.7956e-05
0.00171349
2.13504e-05
0.00480093
-1.97141e-05
0.00763109
-0.000120127
0.0101543
-0.000278004
0.0123454
-0.000474816
0.0142162
-0.000676978
0.0158071
-0.000838889
0.0171725
-0.000906994
0.0183659
-0.000823659
0.0194285
-0.000530096
0.0203827
3.17671e-05
0.0212286
0.000919021
0.0219452
0.00218752
0.0224926
0.00389138
0.0228153
0.00608264
0.0228445
0.00881015
0.0225017
0.0121181
0.0217004
0.0160447
0.0203488
0.0206203
0.0183524
0.0258676
0.015617
0.0318114
0.012052
0.038465
0.0076004
0.00215058
0.0459658
9.54193e-05
0.00161808
0.000298462
0.00459789
0.00056388
0.00736567
0.000866975
0.00985125
0.00120016
0.0120122
0.00157441
0.0138419
0.00201876
0.0153628
0.00257759
0.0166137
0.00330661
0.0176369
0.00426845
0.0184667
0.00552875
0.0191224
0.00715318
0.0196042
0.00920525
0.0198931
0.011745
0.0199529
0.014828
0.0197322
0.0185047
0.0191678
0.0228191
0.0181873
0.0278079
0.0167116
0.0334998
0.014657
0.0399152
0.011937
0.0470661
0.0084661
0.0549685
0.00414961
0.0635908
-0.00102194
-0.00746607
0.0732075
0.000146845
0.00147123
0.000495877
0.00424885
0.00100238
0.00685917
0.0016414
0.00921223
0.00240319
0.0112504
0.00329477
0.0129503
0.00434052
0.014317
0.00558083
0.0153734
0.00706895
0.0161487
0.00886694
0.0166687
0.0110414
0.0169479
0.0136599
0.0169857
0.0167877
0.0167653
0.0204864
0.0162543
0.0248117
0.0154069
0.0298137
0.0141659
0.0355358
0.0124652
0.0420153
0.010232
0.0492854
0.00738685
0.0573707
0.00385175
0.0662903
-0.000453557
0.076116
-0.00567602
0.0867209
-0.0116269
-0.0192671
0.0985219
0.00016703
0.0013042
0.000593498
0.00382239
0.00125026
0.00620241
0.00212293
0.00833956
0.00320705
0.0101663
0.00451023
0.0116472
0.00605406
0.0127732
0.00787426
0.0135532
0.0100189
0.0140041
0.0125456
0.0141421
0.0155175
0.013976
0.0190004
0.0135028
0.0230595
0.0127062
0.0277579
0.0115559
0.0331554
0.0100093
0.0393085
0.00801282
0.0462741
0.00549963
0.0541
0.0024061
0.0628455
-0.00135863
0.0725683
-0.00587107
0.0833011
-0.0111864
0.0951243
-0.0174992
0.107869
-0.024372
-0.0334259
0.122028
0.000155336
0.00114886
0.000586925
0.0033908
0.00129395
0.00549538
0.00228152
0.007352
0.00355733
0.00889046
0.00513489
0.0100696
0.00703683
0.0108713
0.00929662
0.0112934
0.0119586
0.011342
0.0150768
0.0110239
0.0187124
0.0103403
0.0229322
0.00928303
0.0278066
0.00783184
0.0334087
0.00595374
0.0398147
0.00360336
0.0470935
0.000733985
0.0553397
-0.00274655
0.0646288
-0.00688297
0.0750293
-0.0117591
0.0866026
-0.0174443
0.0993765
-0.0239604
0.113366
-0.0314889
0.128364
-0.0393702
-0.0496384
0.144577
0.00011631
0.00103255
0.00049032
0.00301679
0.00115881
0.00482689
0.00215276
0.00635805
0.00349784
0.00754538
0.00521942
0.00834803
0.00734744
0.00874326
0.00991996
0.00872087
0.0129852
0.00827683
0.016602
0.00740708
0.0208399
0.00610241
0.0257782
0.0043447
0.0315046
0.00210548
0.0381136
-0.000655263
0.0457061
-0.00398918
0.0543894
-0.00794932
0.0642415
-0.0125987
0.0753458
-0.0179872
0.0877434
-0.0241568
0.101421
-0.0311221
0.116317
-0.0388564
0.132227
-0.0473985
0.148959
-0.0561028
-0.066723
0.166044
6.01866e-05
0.000972367
0.000337943
0.00273903
0.000913013
0.00425182
0.00184661
0.00542445
0.00318797
0.00620402
0.00498181
0.00655419
0.00727513
0.00644994
0.0101225
0.00587348
0.0135898
0.00480955
0.0177559
0.003241
0.0227127
0.00114562
0.0285638
-0.00150639
0.03542
-0.00475073
0.0433927
-0.00862793
0.0525822
-0.0131788
0.0630702
-0.0184372
0.074896
-0.0244245
0.0880481
-0.0311393
0.102442
-0.0385511
0.117902
-0.0465816
0.134177
-0.0551318
0.150818
-0.0640392
0.167639
-0.0729237
-0.0826024
0.183518
2.65907e-06
0.000969708
0.000181972
0.00255972
0.00066258
0.00377121
0.00153935
0.00454768
0.00289149
0.00485188
0.00479274
0.00465294
0.0073195
0.00392317
0.0105569
0.00263606
0.014602
0.000764505
0.0195633
-0.00172029
0.0255573
-0.00484839
0.0326999
-0.00864906
0.0410957
-0.0131465
0.0508223
-0.0183545
0.0619137
-0.0242702
0.0743444
-0.0308679
0.0880134
-0.0380935
0.102736
-0.0458615
0.118234
-0.0540496
0.134158
-0.0625059
0.150073
-0.0710464
0.165477
-0.079443
0.180071
-0.0875179
-0.0952391
0.192708
-3.83547e-05
0.00100806
8.28933e-05
0.00243847
0.000530832
0.00332327
0.00143722
0.00364129
0.00291809
0.00337101
0.00508531
0.00248573
0.00805399
0.000954491
0.0119461
-0.00125608
0.0168887
-0.00417803
0.0230062
-0.00783787
0.030409
-0.0122512
0.0391763
-0.0174164
0.0493387
-0.0233089
0.0608606
-0.0298764
0.0736266
-0.0370363
0.0874341
-0.0446755
0.101993
-0.0526527
0.116939
-0.060807
0.131846
-0.0689564
0.146284
-0.0769442
0.159803
-0.084565
0.172134
-0.0917741
0.18293
-0.0983148
-0.104101
0.191793
-4.67847e-05
9.30336e-05
0.000624269
0.00171683
0.00352697
0.00620724
0.00990796
0.0147748
0.0209364
0.0284882
0.0374723
0.0478589
0.0595321
0.0722836
0.0858165
0.0997595
0.113692
0.127175
0.139794
0.151198
0.161121
0.169554
0.176433
0.183106
-0.00250826
0.0135352
-0.0184456
0.00281814
0.00313315
-0.00845955
0.00861032
-0.00974497
0.00395279
0.0148165
-0.0248728
0.0186666
0.0212538
-0.0417673
0.03533
0.0277258
-0.0597475
0.0532755
0.0339903
-0.0778266
0.0715621
0.0395666
-0.0948093
0.089233
0.0440067
-0.109531
0.105091
0.0467524
-0.121277
0.118531
0.0473619
-0.130082
0.129472
0.0460103
-0.136644
0.137996
0.0439503
-0.141451
0.143511
0.0433984
-0.143326
0.143878
0.0465515
-0.138746
0.135593
0.0542868
-0.123264
0.115529
0.0657782
-0.094305
0.0828136
0.0794862
-0.0528499
0.0391419
0.0939681
-0.00293163
-0.0115502
0.108049
0.0494913
-0.0635723
0.120466
0.0966935
-0.109111
0.130021
0.132711
-0.142266
0.136193
0.155824
-0.161997
0.139401
0.16771
-0.170918
0.140104
0.172202
-0.172904
0.137898
0.175777
-0.173572
0.132478
0.184845
-0.179425
0.12551
0.19646
-0.189491
0.120564
0.194439
-0.189493
0.120532
0.15978
-0.159748
0.12575
0.088717
-0.0939355
0.134308
-0.00170027
-0.00685746
0.143362
-0.0870677
0.0780134
0.150614
-0.149557
0.142305
0.155263
-0.186187
0.181539
0.157154
-0.20029
0.1984
0.155278
-0.207182
0.209058
0.148932
-0.216664
0.22301
0.140046
-0.228577
0.237462
0.132841
-0.215841
0.223047
0.130852
-0.159502
0.161491
0.134555
-0.0650802
0.061377
0.141828
0.043565
-0.0508381
0.149535
0.126054
-0.133761
0.153701
0.19229
-0.196456
0.151724
0.227803
-0.225826
0.144979
0.269074
-0.262329
0.138042
0.264315
-0.257378
0.135944
0.210392
-0.208294
0.139674
0.104545
-0.108276
0.145812
-0.0372685
0.0311308
0.148883
-0.113237
0.110166
0.146703
-0.232558
0.234737
0.142544
-0.254593
0.258752
0.140793
-0.292835
0.294586
0.141728
-0.229527
0.228592
0.142607
-0.0598932
0.0590135
0.141942
0.0046834
-0.00401821
0.140037
0.276497
-0.274592
0.246767
-0.245206
0.0232713
0.00859925
0.0283343
-0.00192992
0.0335457
-0.0149564
0.0388114
-0.0301384
0.0440165
-0.0469725
0.0490376
-0.0647687
0.0536881
-0.0824771
0.0576655
-0.0987867
0.0605686
-0.112434
0.061857
-0.122565
0.060874
-0.129099
0.0572203
-0.13299
0.0514794
-0.13571
0.0457291
-0.137576
0.0430073
-0.136025
0.0457177
-0.125974
0.0542254
-0.102813
0.0670916
-0.0657161
0.0824425
-0.0182825
0.0983604
0.0335733
0.113154
0.0819003
0.125256
0.120608
0.13392
0.147161
0.139314
0.162317
0.141647
0.169868
0.140628
0.176797
0.136474
0.188999
0.131146
0.201788
0.127756
0.19783
0.128341
0.159194
0.132971
0.0840872
0.14006
-0.00878875
0.147281
-0.0942894
0.152623
-0.154898
0.155468
-0.189033
0.155986
-0.200809
0.153324
-0.20452
0.146491
-0.209832
0.137064
-0.21915
0.129389
-0.208166
0.127417
-0.157529
0.131899
-0.0695625
0.140424
0.0350397
0.149324
0.117154
0.154277
0.187338
0.152837
0.229242
0.146551
0.275359
0.139775
0.271091
0.137442
0.212726
0.140596
0.101391
0.146375
-0.0430473
0.149306
-0.116168
0.146963
-0.230215
0.142691
-0.25032
0.14083
-0.290974
0.141693
-0.23039
0.142299
-0.0604994
0.14148
0.00550244
0.139527
0.27845
0.248355
0.0503877
0.00417736
0.0550277
-0.00656988
0.0595249
-0.0194536
0.0637819
-0.0343954
0.0677035
-0.0508941
0.0712112
-0.0682764
0.0741677
-0.0854337
0.0763526
-0.100972
0.0774801
-0.113562
0.0771992
-0.122284
0.0750428
-0.126942
0.0703691
-0.128317
0.0628535
-0.128194
0.0535761
-0.128299
0.0455255
-0.127974
0.0423741
-0.122823
0.0463044
-0.106743
0.0568616
-0.0762733
0.0718665
-0.0332873
0.088989
0.0164507
0.105733
0.0651561
0.12022
0.106122
0.131388
0.135993
0.139042
0.154662
0.143151
0.165759
0.143614
0.176333
0.141093
0.191519
0.137605
0.205276
0.135669
0.199766
0.136637
0.158227
0.140325
0.0803997
0.145702
-0.0141664
0.150941
-0.0995282
0.154365
-0.158323
0.155475
-0.190142
0.154704
-0.200038
0.151417
-0.201232
0.14436
-0.202775
0.134611
-0.2094
0.126497
-0.200052
0.124399
-0.155431
0.129464
-0.0746276
0.139053
0.0254504
0.149062
0.107145
0.154851
0.181548
0.154097
0.229996
0.148418
0.281038
0.141869
0.277641
0.139249
0.215346
0.14171
0.0989297
0.147036
-0.0483738
0.149834
-0.118965
0.147332
-0.227713
0.142891
-0.245879
0.140888
-0.288971
0.141734
-0.231236
0.142132
-0.0608972
0.141174
0.00646049
0.139166
0.280458
0.249961
0.077322
6.2835e-05
0.0814647
-0.0107126
0.085339
-0.0233279
0.0887076
-0.037764
0.0914696
-0.053656
0.0935531
-0.0703598
0.0948059
-0.0866865
0.0950408
-0.101207
0.0941066
-0.112628
0.0919254
-0.120103
0.0884138
-0.123431
0.0832108
-0.123114
0.0755622
-0.120546
0.0651802
-0.117917
0.0537455
-0.116539
0.0451237
-0.114201
0.0432962
-0.104916
0.0497493
-0.0827264
0.0629813
-0.0465194
0.0802538
-0.000821729
0.0983138
0.047096
0.114877
0.0895582
0.128448
0.122422
0.138376
0.144734
0.144398
0.159737
0.146621
0.174111
0.146019
0.192121
0.1445
0.206794
0.143908
0.200358
0.144967
0.157168
0.14758
0.0777858
0.151087
-0.017673
0.154287
-0.102728
0.155833
-0.159869
0.155298
-0.189606
0.153306
-0.198047
0.149498
-0.197424
0.142448
-0.195725
0.132639
-0.199592
0.12417
-0.191583
0.1218
-0.15306
0.127203
-0.0800312
0.137662
0.0149915
0.148698
0.0961094
0.155387
0.17486
0.155475
0.229908
0.150554
0.285959
0.144307
0.283888
0.141361
0.218292
0.143016
0.0972747
0.147783
-0.0531415
0.150443
-0.121625
0.147794
-0.225064
0.143134
-0.24122
0.140947
-0.286784
0.14183
-0.232119
0.142095
-0.0611623
0.141014
0.00754084
0.138951
0.282521
0.251574
0.102852
-0.00426717
0.106647
-0.0145076
0.109989
-0.0266696
0.112548
-0.0403232
0.114192
-0.0553004
0.114814
-0.0709812
0.114269
-0.086142
0.11247
-0.0994074
0.10943
-0.109588
0.105263
-0.115936
0.100157
-0.118324
0.0942064
-0.117163
0.0869729
-0.113312
0.0774612
-0.108405
0.0655048
-0.104583
0.0535106
-0.102207
0.046053
-0.097458
0.0469409
-0.0836142
0.0565867
-0.0561652
0.0725256
-0.0167607
0.091072
0.0285496
0.109206
0.0714239
0.12489
0.106739
0.136978
0.132646
0.144994
0.15172
0.149198
0.169908
0.150748
0.190571
0.151288
0.206254
0.151969
0.199678
0.153028
0.156109
0.154409
0.0764044
0.156066
-0.01933
0.157233
-0.103896
0.156959
-0.159595
0.154896
-0.187543
0.151773
-0.194924
0.147529
-0.19318
0.140678
-0.188874
0.131076
-0.18999
0.122385
-0.182892
0.119619
-0.150294
0.125092
-0.0855036
0.136192
0.00389133
0.148165
0.0841366
0.155824
0.167201
0.156917
0.228815
0.152902
0.289974
0.147035
0.289755
0.143751
0.221576
0.144503
0.0965228
0.148601
-0.0572388
0.151108
-0.124131
0.14833
-0.222287
0.143411
-0.2363
0.140991
-0.284364
0.141957
-0.233085
0.142171
-0.0613766
0.14099
0.00872251
0.138879
0.284632
0.253176
0.126132
-0.00837055
0.129698
-0.0180738
0.132504
-0.0294762
0.134189
-0.0420082
0.134625
-0.0557356
0.133688
-0.0700442
0.131271
-0.0837254
0.127417
-0.0955533
0.122337
-0.104508
0.116344
-0.109943
0.109779
-0.111759
0.102951
-0.110335
0.095901
-0.106262
0.0878905
-0.100395
0.0776817
-0.0943741
0.065435
-0.0899604
0.0543487
-0.0863716
0.0493861
-0.0786516
0.0536853
-0.0604644
0.0663742
-0.0294496
0.0841738
0.01075
0.103114
0.0524842
0.12045
0.0894031
0.134483
0.118613
0.144501
0.141702
0.150833
0.163576
0.154683
0.186721
0.157337
0.2036
0.159295
0.197719
0.160342
0.155062
0.160602
0.0761451
0.160484
-0.0192129
0.159697
-0.103108
0.157679
-0.157577
0.154226
-0.18409
0.150075
-0.190773
0.145451
-0.188556
0.138941
-0.182364
0.129797
-0.180846
0.121069
-0.174165
0.117826
-0.147051
0.123089
-0.0907659
0.134573
-0.00759279
0.14738
0.0713295
0.156082
0.158499
0.158336
0.22656
0.155378
0.292932
0.149975
0.295158
0.146357
0.225194
0.146151
0.096728
0.149466
-0.0605537
0.151795
-0.12646
0.148919
-0.219411
0.143715
-0.231096
0.141006
-0.281655
0.142093
-0.234172
0.142344
-0.0616275
0.141087
0.00997933
0.138944
0.286774
0.254744
0.147975
-0.0117684
0.150842
-0.0209411
0.152655
-0.0312891
0.153054
-0.0424076
0.151948
-0.0546291
0.14922
-0.0673159
0.144829
-0.0793346
0.138957
-0.0896812
0.131982
-0.0975332
0.124394
-0.102356
0.116669
-0.104034
0.109168
-0.102835
0.102108
-0.0992019
0.0952727
-0.0935591
0.0875537
-0.086655
0.0776408
-0.0800475
0.066217
-0.0749478
0.0571554
-0.06959
0.0553501
-0.0586591
0.0628663
-0.0369658
0.0780179
-0.0044016
0.0965328
0.0339693
0.11485
0.0710854
0.130533
0.10293
0.142516
0.12972
0.151062
0.155029
0.157289
0.180495
0.16207
0.198819
0.165291
0.194498
0.166457
0.153896
0.165857
0.0767449
0.164192
-0.0175484
0.161578
-0.100494
0.157924
-0.153923
0.153238
-0.179404
0.14818
-0.185714
0.143212
-0.183588
0.137128
-0.17628
0.128653
-0.172371
0.120097
-0.165609
0.116363
-0.143317
0.121149
-0.0955518
0.132731
-0.0191753
0.146255
0.0578057
0.156063
0.148691
0.15963
0.222993
0.157867
0.294696
0.153023
0.300002
0.149118
0.229098
0.147908
0.0979378
0.150358
-0.0630027
0.152468
-0.128571
0.149534
-0.216477
0.144043
-0.225604
0.140985
-0.278597
0.142215
-0.235402
0.142593
-0.0620053
0.141293
0.0112794
0.139143
0.288924
0.256249
0.168041
-0.0137658
0.1694
-0.0222993
0.169492
-0.0313813
0.168056
-0.0409724
0.165054
-0.0516265
0.160378
-0.0626401
0.154076
-0.0730327
0.14645
-0.0820553
0.137977
-0.0890597
0.129216
-0.0935947
0.120707
-0.0955253
0.112845
-0.0949728
0.105841
-0.0921983
0.0997202
-0.087438
0.0939696
-0.0809045
0.0872245
-0.0733024
0.0783276
-0.0660509
0.0685477
-0.0598101
0.0621384
-0.0522498
0.0635134
-0.0383409
0.0736468
-0.0145349
0.0898971
0.0177189
0.108058
0.0529248
0.124882
0.0861056
0.138703
0.115898
0.149497
0.144235
0.158138
0.171854
0.165053
0.191904
0.169569
0.189982
0.170987
0.152479
0.169832
0.0778994
0.166987
-0.0147036
0.162775
-0.0962813
0.157624
-0.148772
0.151868
-0.173649
0.146043
-0.17989
0.140758
-0.178303
0.135128
-0.17065
0.127482
-0.164724
0.11931
-0.157436
0.115132
-0.139139
0.119217
-0.099637
0.130614
-0.0305728
0.144706
0.0437138
0.155665
0.137733
0.160672
0.217986
0.160234
0.295133
0.156058
0.304178
0.151936
0.233221
0.149731
0.100143
0.151245
-0.0645165
0.153089
-0.130415
0.150145
-0.213533
0.144389
-0.219848
0.14092
-0.275128
0.142303
-0.236785
0.1429
-0.0626024
0.141594
0.012585
0.139472
0.291046
0.257656
0.183669
-0.013916
0.183015
-0.0216458
0.180976
-0.0293426
0.177525
-0.037521
0.172647
-0.0467488
0.166248
-0.0562406
0.158461
-0.0652453
0.14965
-0.0732449
0.14031
-0.0797193
0.130985
-0.0842699
0.122184
-0.0867239
0.114287
-0.0870763
0.107499
-0.0854104
0.10188
-0.0818185
0.0972963
-0.0763208
0.0930221
-0.0690281
0.0876165
-0.0606453
0.08023
-0.0524237
0.0726106
-0.0446303
0.0690081
-0.0347383
0.0730059
-0.0185327
0.0846908
0.00603398
0.100837
0.0367785
0.117753
0.0691899
0.132985
0.100666
0.14592
0.131301
0.156979
0.160795
0.166036
0.182846
0.171908
0.18411
0.173785
0.150601
0.172378
0.0793071
0.168735
-0.0110607
0.163181
-0.0907277
0.156679
-0.14227
0.150011
-0.166981
0.143582
-0.17346
0.138011
-0.172732
0.132825
-0.165464
0.126119
-0.158018
0.118528
-0.149846
0.114003
-0.134614
0.117235
-0.102869
0.128174
-0.0415122
0.142657
0.029231
0.15478
0.12561
0.161342
0.211424
0.162354
0.294121
0.158951
0.307582
0.154707
0.237465
0.151559
0.103291
0.152092
-0.0650501
0.153615
-0.131938
0.150716
-0.210634
0.144744
-0.213877
0.140804
-0.271188
0.142334
-0.238315
0.143244
-0.0635125
0.141977
0.0138523
0.139925
0.293098
0.258927
0.191369
-0.0125772
0.188936
-0.0192131
0.185111
-0.0255172
0.180143
-0.0325528
0.173974
-0.0405797
0.166534
-0.0488014
0.158022
-0.0567327
0.148793
-0.0640161
0.139295
-0.0702214
0.130014
-0.0749885
0.121388
-0.0780986
0.113749
-0.0794372
0.107295
-0.0789567
0.102112
-0.0766351
0.0982056
-0.0724144
0.0953579
-0.0661805
0.0927178
-0.0580052
0.0889048
-0.0486107
0.0834025
-0.0391281
0.0782064
-0.0295422
0.0771654
-0.0174918
0.0830523
0.00014713
0.095025
0.0248058
0.110273
0.0539417
0.12589
0.0850485
0.140478
0.116713
0.153726
0.147547
0.16488
0.171693
0.172239
0.176751
0.17482
0.14802
0.173555
0.0805722
0.169438
-0.00694312
0.162757
-0.0840468
0.155026
-0.134539
0.14758
-0.159535
0.140725
-0.166606
0.134919
-0.166925
0.130129
-0.160674
0.124429
-0.152318
0.117597
-0.143014
0.112844
-0.129861
0.115131
-0.105155
0.125373
-0.0517538
0.140051
0.0145527
0.153319
0.112342
0.161492
0.203251
0.164054
0.291559
0.161559
0.310076
0.157312
0.241712
0.153339
0.107264
0.152872
-0.064583
0.154014
-0.13308
0.151216
-0.207836
0.145099
-0.207759
0.14064
-0.266729
0.142294
-0.239968
0.143607
-0.0648261
0.142426
0.0150331
0.1405
0.295025
0.260018
0.189848
-0.0106325
0.186465
-0.0158301
0.181836
-0.020888
0.176307
-0.027024
0.16974
-0.0340125
0.162148
-0.0412098
0.153746
-0.0483302
0.144832
-0.0551026
0.135787
-0.0611763
0.127023
-0.066224
0.118908
-0.0699834
0.111726
-0.0722552
0.10567
-0.0729009
0.100854
-0.0718196
0.0973154
-0.0688754
0.0950358
-0.0639009
0.093796
-0.0567653
0.0928117
-0.0476264
0.0908188
-0.0371351
0.0875057
-0.0262291
0.0848416
-0.0148277
0.0861649
-0.00117618
0.0928369
0.0181337
0.104456
0.042323
0.118723
0.0707807
0.1339
0.101536
0.14891
0.132537
0.162013
0.158591
0.170711
0.168052
0.174193
0.144539
0.173568
0.0811966
0.169338
-0.00271275
0.161765
-0.0764739
0.152937
-0.125711
0.14482
-0.151418
0.137685
-0.159471
0.131677
-0.160917
0.127147
-0.156144
0.122424
-0.147595
0.11648
-0.13707
0.111602
-0.124983
0.112874
-0.106428
0.122193
-0.0610723
0.136814
-6.81803e-05
0.151197
0.0979586
0.161083
0.193366
0.165296
0.287345
0.163773
0.311599
0.159679
0.245806
0.155021
0.111923
0.153598
-0.0631607
0.154277
-0.133759
0.15164
-0.205198
0.145444
-0.201563
0.140451
-0.261737
0.142189
-0.241707
0.143978
-0.0666152
0.14293
0.0160818
0.141194
0.296761
0.260886
0.181116
-0.0086433
0.1775
-0.012214
0.173179
-0.016567
0.168052
-0.021897
0.161981
-0.0279409
0.155112
-0.0343407
0.147626
-0.0408442
0.139749
-0.0472254
0.131785
-0.0532132
0.12407
-0.0585086
0.116905
-0.0628181
0.110526
-0.0658765
0.105088
-0.0674625
0.100674
-0.0674064
0.097352
-0.065553
0.0951952
-0.0617441
0.0942529
-0.055823
0.0943226
-0.0476961
0.0946307
-0.0374432
0.0941302
-0.0257286
0.0928043
-0.0135017
0.0920799
-0.00045177
0.0951341
0.0150795
0.10243
0.0350267
0.113521
0.0596902
0.127261
0.087796
0.142371
0.117428
0.156479
0.144482
0.166755
0.157777
0.17222
0.139073
0.172992
0.080425
0.168806
0.00147248
0.160265
-0.0679325
0.150574
-0.11602
0.142007
-0.142851
0.134746
-0.15221
0.128565
-0.154737
0.124093
-0.151671
0.120193
-0.143695
0.115202
-0.132079
0.110292
-0.120073
0.11055
-0.106686
0.11883
-0.0693514
0.13307
-0.0143084
0.148296
0.0827329
0.159784
0.181877
0.165747
0.281382
0.16539
0.311957
0.161657
0.249538
0.156558
0.117022
0.154232
-0.0608347
0.154396
-0.133924
0.151978
-0.20278
0.145758
-0.195343
0.140256
-0.256235
0.142044
-0.243494
0.144356
-0.0689275
0.14348
0.0169578
0.142004
0.298237
0.261481
0.209168
-0.00695312
-0.210858
0.208195
-0.011241
0.206967
-0.0153389
0.205204
-0.0201338
0.202771
-0.0255083
0.199631
-0.0312004
0.195782
-0.0369958
0.191232
-0.0426754
0.186027
-0.0480079
0.180261
-0.052743
0.174062
-0.0566185
0.167569
-0.059384
0.160925
-0.0608181
0.15426
-0.0607411
0.147701
-0.0589939
0.141375
-0.0554189
0.135424
-0.0498715
0.129971
-0.0422432
0.124894
-0.0323663
0.119598
-0.0204325
0.113548
-0.00745182
0.106908
0.00618785
0.101224
0.020764
0.0981943
0.0380561
0.0988748
0.0590097
0.103523
0.0831473
0.111731
0.10922
0.122963
0.13325
0.138064
0.142677
0.157178
0.119959
0.175352
0.0622503
0.186249
-0.00942376
0.188823
-0.0705066
0.184731
-0.111929
0.177369
-0.135489
0.168778
-0.143619
0.159939
-0.145898
0.152029
-0.143762
0.14479
-0.136457
0.136678
-0.123966
0.127958
-0.111354
0.122433
-0.101161
0.12309
-0.0700091
0.128387
-0.0196054
0.134065
0.0770553
0.137948
0.177994
0.140715
0.278615
0.143988
0.308684
0.148558
0.244969
0.152709
0.112871
0.155387
-0.0635129
0.156463
-0.134999
0.153331
-0.199648
0.145941
-0.187952
0.138555
-0.24885
0.135869
-0.240809
0.134527
-0.067585
0.130856
0.0206291
0.128866
0.300227
0.261473
0.218328
-0.0056936
-0.219588
0.216946
-0.00985886
0.215591
-0.0139838
0.213793
-0.0183365
0.211364
-0.0230791
0.208279
-0.0281148
0.204532
-0.033249
0.200133
-0.0382765
0.19512
-0.042995
0.189571
-0.047194
0.183601
-0.0506479
0.177348
-0.0531315
0.170963
-0.0544331
0.164591
-0.054369
0.158373
-0.0527759
0.152441
-0.0494873
0.146913
-0.044343
0.141916
-0.0372466
0.137546
-0.0279962
0.133572
-0.0164583
0.129257
-0.00313743
0.124319
0.0111264
0.119219
0.0258639
0.115479
0.0417957
0.114862
0.0596274
0.118497
0.0795117
0.126507
0.10121
0.138881
0.120876
0.1562
0.125358
0.176407
0.0997523
0.193551
0.0451059
0.202396
-0.0182687
0.202834
-0.0709442
0.19706
-0.106155
0.188504
-0.126933
0.179256
-0.13437
0.169988
-0.13663
0.161652
-0.135426
0.15433
-0.129134
0.146509
-0.116146
0.137704
-0.102549
0.13144
-0.0948964
0.131305
-0.0698739
0.136366
-0.0246666
0.14251
0.0709113
0.147148
0.173355
0.150966
0.274798
0.155438
0.304211
0.160936
0.239471
0.165395
0.108412
0.167633
-0.0657514
0.167986
-0.135352
0.16429
-0.195952
0.156189
-0.179851
0.147725
-0.240386
0.144708
-0.237791
0.143331
-0.0662077
0.139367
0.0245931
0.137341
0.302253
0.261322
0.227025
-0.00483722
-0.227881
0.225787
-0.0086213
0.224322
-0.0125187
0.222488
-0.0165025
0.220118
-0.0207089
0.217142
-0.0251388
0.213552
-0.0296597
0.209366
-0.0340901
0.204618
-0.0382466
0.19937
-0.0419465
0.193719
-0.0449972
0.187788
-0.0472004
0.181716
-0.0483605