/*--------------------------------*- C++ -*----------------------------------*\
| =========                 |                                                 |
| \\      /  F ield         | OpenFOAM: The Open Source CFD Toolbox           |
|  \\    /   O peration     | Version:  2512                                  |
|   \\  /    A nd           | Website:  www.openfoam.com                      |
|    \\/     M anipulation  |                                                 |
\*---------------------------------------------------------------------------*/
FoamFile
{
    version     2.0;
    format      ascii;
    arch        "LSB;label=32;scalar=64";
    class       volVectorField;
    location    "7";
    object      U;
}
// * * * * * * * * * * * * * * * * * * * * * * * * * * * * * * * * * * * * * //

dimensions      [0 1 -1 0 0 0 0];

internalField   nonuniform List<vector> 
13248
(
(-0.0144148 0.0130593 8.54601e-20)
(-0.027181 0.0289752 0)
(-0.022745 0.0389108 -1.60932e-19)
(-0.00117512 0.0443382 1.51593e-19)
(0.0374147 0.0464371 1.41403e-19)
(0.092844 0.0461604 0)
(0.164702 0.0442685 0)
(0.252138 0.0413701 3.42349e-19)
(0.353596 0.0379184 -1.26755e-22)
(0.466586 0.0341873 -3.01766e-19)
(0.587583 0.0302612 2.84318e-19)
(0.712125 0.0260483 -1.78197e-19)
(0.835121 0.021325 0)
(0.951318 0.0158066 -3.13305e-19)
(1.05585 0.00922978 5.85264e-19)
(1.1448 0.00143034 -1.40618e-19)
(1.2156 -0.00759952 -2.45835e-19)
(1.26734 -0.0177035 2.3081e-19)
(1.30079 -0.0285314 0)
(1.31809 -0.0398682 0)
(1.32246 -0.0506541 0)
(1.31673 -0.0630957 0)
(1.30472 -0.0696193 6.12921e-20)
(1.28637 -0.0924577 2.08185e-19)
(-0.0142916 0.0114313 -2.57898e-19)
(-0.0215364 0.0222987 1.75497e-19)
(-0.00731464 0.0272486 -1.83233e-21)
(0.0277178 0.0285531 -2.31459e-19)
(0.083124 0.027866 -1.41251e-19)
(0.158257 0.026409 -1.33672e-19)
(0.251825 0.0250271 -2.45696e-19)
(0.361528 0.0242476 2.32467e-19)
(0.483818 0.0242945 0)
(0.613887 0.0250879 4.25831e-22)
(0.745957 0.026274 4.95399e-22)
(0.873829 0.0273003 1.76845e-19)
(0.991586 0.0275313 0)
(1.09428 0.0263811 0)
(1.17849 0.0234328 2.09843e-19)
(1.24266 0.0185187 -3.94639e-19)
(1.28714 0.0117414 2.32114e-19)
(1.31389 0.00343855 -2.17943e-19)
(1.32602 -0.00590707 -9.35037e-20)
(1.3271 -0.0157427 -1.67663e-19)
(1.32049 -0.0255335 -6.53973e-20)
(1.30904 -0.0350253 -1.22042e-19)
(1.29449 -0.0421894 1.84284e-19)
(1.2787 -0.053521 5.04903e-20)
(-0.0130076 0.0095165 0)
(-0.0116883 0.0156888 0)
(0.0162527 0.0168943 8.18614e-20)
(0.0691469 0.0157617 7.52467e-20)
(0.145676 0.0142133 -1.91537e-21)
(0.243966 0.0136195 -1.38537e-19)
(0.360894 0.0147645 0)
(0.491766 0.0178976 -1.15781e-19)
(0.630375 0.0227784 1.09281e-19)
(0.769515 0.0287479 5.49615e-22)
(0.901828 0.0348666 -1.8812e-19)
(1.02076 0.0401061 -1.73219e-19)
(1.12142 0.043554 2.9163e-21)
(1.20105 0.0445818 -1.43287e-19)
(1.25921 0.0429374 3.4472e-19)
(1.2975 0.0387469 0)
(1.31898 0.032438 -2.1994e-19)
(1.32744 0.0246086 1.0798e-19)
(1.32666 0.0159214 9.34354e-20)
(1.31982 0.00690899 0)
(1.30937 -0.0017392 7.41827e-20)
(1.29672 -0.0103448 -2.46569e-19)
(1.28303 -0.0165255 2.3147e-19)
(1.26855 -0.0273398 1.38126e-19)
(-0.00992565 0.00705234 -9.11672e-20)
(0.00366802 0.00866412 -9.42892e-20)
(0.0493495 0.00736209 8.51316e-20)
(0.12402 0.00563746 0)
(0.224765 0.00538162 0)
(0.347545 0.00786004 -3.31352e-21)
(0.486442 0.0134994 0)
(0.63372 0.0219461 -3.55001e-19)
(0.780568 0.0322176 3.30095e-19)
(0.918296 0.0429388 -4.08004e-19)
(1.03963 0.0526472 9.38861e-20)
(1.13967 0.0600955 0)
(1.21636 0.0644726 1.55845e-19)
(1.27034 0.0654951 -2.88284e-19)
(1.30433 0.0633662 6.89145e-20)
(1.32226 0.0586363 1.74351e-19)
(1.32837 0.0520227 -9.15499e-21)
(1.32649 0.0442519 -1.91527e-19)
(1.31958 0.0359417 0)
(1.30973 0.0275835 0)
(1.29822 0.0195277 -6.6245e-20)
(1.28582 0.0118369 5.86684e-20)
(1.273 0.00570916 2.05899e-19)
(1.26 -0.00367218 -1.93343e-19)
(-0.00453811 0.00407825 -9.62255e-20)
(0.0255595 0.00137925 -9.58576e-20)
(0.092887 -0.00104958 2.69532e-19)
(0.192425 -0.00133717 -1.63502e-19)
(0.318802 0.00198663 1.5389e-19)
(0.464829 0.00967987 2.79559e-19)
(0.62111 0.0213802 -1.97768e-19)
(0.776949 0.0357723 -2.40797e-19)
(0.921985 0.0509782 4.7849e-21)
(1.0479 0.0650286 3.08093e-19)
(1.14958 0.0762983 0)
(1.2255 0.0837906 8.44517e-20)
(1.27723 0.0872169 0)
(1.30849 0.0868906 -1.37372e-19)
(1.32399 0.0835103 1.93373e-19)
(1.32834 0.0779214 2.30664e-21)
(1.32546 0.0709284 -4.99522e-20)
(1.31823 0.0631889 9.3646e-20)
(1.30856 0.0551907 7.96228e-20)
(1.29761 0.0472631 -7.0842e-20)
(1.28604 0.0396477 6.62301e-20)
(1.27419 0.0323829 -5.86542e-20)
(1.26228 0.026129 0)
(1.25036 0.0176763 -4.34061e-20)
(0.00354255 0.000865483 9.62116e-20)
(0.0546933 -0.00544108 1.01102e-19)
(0.147217 -0.00727345 -9.03569e-20)
(0.273543 -0.00388239 1.68574e-19)
(0.424903 0.00526761 -1.58655e-19)
(0.590195 0.0198849 1.43543e-19)
(0.756561 0.0383561 -6.89726e-20)
(0.911461 0.0582054 1.80712e-19)
(1.04498 0.0768206 -1.13643e-19)
(1.15133 0.0920902 2.00745e-19)
(1.22921 0.102777 -4.62706e-19)
(1.28094 0.108581 1.69521e-19)
(1.31116 0.109944 -1.48013e-19)
(1.32532 0.107744 1.39036e-19)
(1.32853 0.102982 1.19271e-19)
(1.32488 0.0965703 1.04082e-19)
(1.3173 0.0892262 -2.8882e-19)
(1.30765 0.0814611 1.79076e-19)
(1.297 0.0736162 -7.96271e-20)
(1.28593 0.065917 2.05256e-19)
(1.27472 0.0585046 -6.64553e-20)
(1.26351 0.0514624 -1.58296e-19)
(1.25235 0.0450963 1.45683e-19)
(1.24123 0.0373678 4.33941e-20)
(0.0145989 -0.0021672 0)
(0.0913947 -0.0106929 9.50267e-22)
(0.211963 -0.00977001 1.8952e-19)
(0.365433 -0.000349429 -1.77656e-19)
(0.538822 0.0165238 -1.60324e-19)
(0.716966 0.0389305 2.97894e-19)
(0.884591 0.0637297 -1.38308e-19)
(1.02938 0.0874577 1.8389e-19)
(1.14415 0.107302 -4.22047e-21)
(1.22726 0.121641 -1.03974e-19)
(1.28156 0.130103 2.26068e-19)
(1.31253 0.133263 -3.3313e-19)
(1.32643 0.132212 0)
(1.329 0.128158 -6.48968e-20)
(1.3247 0.122169 -1.72724e-19)
(1.31664 0.115059 5.43084e-20)
(1.30672 0.107391 2.41377e-21)
(1.296 0.0995294 -1.17246e-19)
(1.28504 0.0917033 8.24562e-21)
(1.27407 0.084057 1.3525e-19)
(1.26321 0.0766861 -5.97478e-20)
(1.25248 0.069666 -2.20899e-20)
(1.24189 0.0630592 6.92989e-20)
(1.23139 0.0557944 0)
(0.0287895 -0.00452173 0)
(0.135505 -0.0131026 5.14097e-20)
(0.285854 -0.00688835 -2.47269e-19)
(0.464944 0.0107767 9.00156e-20)
(0.655226 0.0365652 -8.47153e-20)
(0.838289 0.0665244 -7.73423e-20)
(0.998483 0.0961151 -1.36407e-19)
(1.12613 0.121477 6.82451e-20)
(1.21849 0.140322 5.921e-20)
(1.27846 0.152052 0)
(1.31229 0.157342 1.33767e-19)
(1.3272 0.157536 -1.98399e-19)
(1.32975 0.154122 1.47682e-19)
(1.32501 0.148392 6.49328e-20)
(1.31641 0.141316 -5.27039e-20)
(1.30604 0.133545 -4.37169e-20)
(1.29504 0.125488 -4.07402e-20)
(1.28394 0.117391 1.22524e-19)
(1.27299 0.109404 0)
(1.26227 0.101625 6.0605e-20)
(1.2518 0.0941262 5.02803e-20)
(1.24154 0.0869607 -1.2568e-19)
(1.23148 0.0800975 -8.4775e-20)
(1.22153 0.0731438 7.83782e-20)
(0.0461077 -0.00565754 -5.54277e-20)
(0.186295 -0.0113872 -2.10492e-21)
(0.366684 0.00283285 5.03579e-20)
(0.567935 0.0305036 1.40835e-19)
(0.768401 0.0654348 4.08701e-20)
(0.948259 0.101636 -7.89966e-20)
(1.094 0.133771 7.21123e-20)
(1.20054 0.158416 -6.30557e-20)
(1.27013 0.17444 1.12636e-19)
(1.30956 0.182509 4.77699e-20)
(1.32714 0.18425 -1.35567e-19)
(1.33052 0.181517 3.9868e-20)
(1.32564 0.17593 6.77484e-20)
(1.31652 0.168695 -3.33873e-20)
(1.30557 0.160608 0)
(1.29405 0.152153 4.9401e-20)
(1.28258 0.143609 8.3055e-20)
(1.27139 0.135137 1.38411e-20)
(1.26057 0.126838 -6.89481e-20)
(1.25011 0.11878 2.86473e-20)
(1.23998 0.111016 0)
(1.23014 0.103568 -2.22634e-20)
(1.22053 0.0963893 -2.09011e-20)
(1.21106 0.0895139 0)
(0.0663219 -0.00502625 0)
(0.242411 -0.00439441 2.9039e-20)
(0.451433 0.0204492 5.38194e-20)
(0.669762 0.0591512 -1.43584e-19)
(0.873102 0.102431 4.63835e-20)
(1.04272 0.142775 0)
(1.16951 0.174987 6.93077e-20)
(1.25388 0.196873 -9.66945e-20)
(1.30266 0.208821 -5.62046e-20)
(1.32526 0.212713 2.53682e-20)
(1.33075 0.210873 -4.02891e-20)
(1.3263 0.205386 9.80012e-20)
(1.31681 0.19781 4.88432e-20)
(1.30519 0.189166 -3.41077e-20)
(1.29301 0.180063 -3.34488e-21)
(1.28097 0.170837 -9.23739e-20)
(1.26937 0.161674 4.19955e-20)
(1.25827 0.152678 -1.0454e-21)
(1.24767 0.143917 0)
(1.23752 0.13544 -2.86771e-20)
(1.22777 0.127282 0)
(1.21835 0.119439 6.40863e-20)
(1.2092 0.111919 -7.59956e-20)
(1.2002 0.104953 3.45325e-20)
(0.0889397 -0.0021128 -1.51241e-20)
(0.301914 0.00878318 -7.32671e-20)
(0.536532 0.0464856 8.33494e-20)
(0.765843 0.0963431 4.89739e-20)
(0.965174 0.146301 -2.34203e-20)
(1.11943 0.188307 3.91503e-20)
(1.22531 0.218308 -1.90517e-20)
(1.28864 0.235897 3.15514e-20)
(1.31973 0.243045 0)
(1.32934 0.242619 7.10833e-20)
(1.3263 0.23734 -3.01293e-21)
(1.31679 0.229293 -5.72102e-20)
(1.30456 0.219851 2.44366e-20)
(1.29161 0.209823 -2.74779e-20)
(1.27886 0.199647 -1.0383e-20)
(1.26667 0.189545 1.20593e-20)
(1.25513 0.179637 -9.27045e-21)
(1.24423 0.169988 -5.00269e-20)
(1.23392 0.160645 3.06431e-20)
(1.22413 0.151642 6.24507e-21)
(1.21477 0.14299 5.47588e-21)
(1.20578 0.134674 4.80124e-21)
(1.19708 0.126779 0)
(1.18852 0.119515 0)
(0.113284 0.00353111 1.51346e-20)
(0.362541 0.0287316 -1.51674e-20)
(0.618374 0.0808915 -2.77766e-20)
(0.85228 0.141113 0)
(1.04187 0.195501 -1.16194e-20)
(1.1777 0.236692 -1.04263e-20)
(1.26273 0.262616 -1.77983e-20)
(1.3074 0.274902 0)
(1.32425 0.276936 0)
(1.32428 0.272265 0)
(1.3155 0.263736 0)
(1.30288 0.253275 0)
(1.28917 0.242018 -1.53517e-20)
(1.27562 0.230572 6.98966e-21)
(1.26273 0.219232 1.21045e-20)
(1.25064 0.208139 5.64596e-21)
(1.23934 0.197363 1.39359e-20)
(1.22876 0.186944 0)
(1.21884 0.176912 -3.31457e-21)
(1.20948 0.167283 -3.14308e-21)
(1.20061 0.158051 -5.48458e-21)
(1.19212 0.14921 -4.80889e-21)
(1.18393 0.140921 0)
(1.17589 0.133207 3.41241e-21)
(-0.00583789 0.00248634 8.4299e-21)
(-0.0265182 0.0048409 -8.89703e-21)
(-0.0617408 0.00550828 -1.70411e-20)
(-0.102942 0.00528168 0)
(-0.145887 0.00456729 -2.34379e-20)
(-0.188897 0.00357654 7.38367e-21)
(-0.231002 0.00242833 -1.44218e-20)
(-0.27159 0.00118359 0)
(-0.310247 -0.00013321 0)
(-0.346609 -0.00151803 0)
(-0.380296 -0.00297689 0)
(-0.410879 -0.00451969 0)
(-0.437882 -0.00615677 2.24296e-23)
(-0.460783 -0.00789656 -1.08714e-20)
(-0.479014 -0.00974317 2.09054e-20)
(-0.491976 -0.0116929 2.94003e-20)
(-0.499024 -0.0137281 9.21388e-21)
(-0.499487 -0.0158046 0)
(-0.492735 -0.0178329 7.44791e-21)
(-0.478289 -0.0197004 -2.08096e-20)
(-0.45579 -0.0213366 -1.21876e-20)
(-0.425173 -0.0224543 -1.05396e-20)
(-0.386915 -0.0228479 0)
(-0.342806 -0.0222977 0)
(-0.00700072 0.0185972 -2.55585e-20)
(-0.0279421 0.0400247 4.44865e-20)
(-0.0616282 0.0515509 -1.6908e-20)
(-0.100547 0.0571497 -3.29365e-20)
(-0.140886 0.0591472 4.66004e-20)
(-0.181073 0.0589646 -3.0382e-20)
(-0.220152 0.0574528 4.29976e-20)
(-0.257486 0.0550477 2.81461e-20)
(-0.292626 0.0519114 0)
(-0.325185 0.0480496 -2.64697e-20)
(-0.354768 0.0433933 -1.26009e-21)
(-0.380955 0.0378451 2.33426e-20)
(-0.403292 0.031302 3.49892e-20)
(-0.421298 0.0236659 4.45165e-20)
(-0.434471 0.0148511 -2.05943e-20)
(-0.442292 0.00479541 -5.91742e-20)
(-0.444212 -0.00652269 1.83305e-20)
(-0.439642 -0.0190667 -6.92132e-20)
(-0.428037 -0.0327157 0)
(-0.409131 -0.0471845 1.37971e-20)
(-0.382616 -0.0620639 1.21685e-20)
(-0.348221 -0.0765049 1.0523e-20)
(-0.305901 -0.0891775 0)
(-0.257566 -0.0982433 0)
(-0.00914553 0.0319444 0)
(-0.0302851 0.0701616 9.17095e-20)
(-0.0603668 0.0920465 -3.45928e-20)
(-0.0940661 0.103702 3.3367e-20)
(-0.128467 0.108855 -9.52418e-20)
(-0.162229 0.109906 0)
(-0.194435 0.108361 -5.95104e-20)
(-0.224409 0.105042 2.78669e-20)
(-0.251639 0.100298 -5.53329e-20)
(-0.275695 0.0941935 2.72461e-20)
(-0.29617 0.0866487 1.55218e-19)
(-0.312668 0.0775272 -7.29113e-20)
(-0.324792 0.0666779 -1.19012e-19)
(-0.332154 0.053956 -4.734e-20)
(-0.334379 0.0392341 -8.45773e-22)
(-0.331098 0.0224154 1.62688e-19)
(-0.321964 0.00344775 -7.64649e-20)
(-0.306657 -0.0176637 -1.43344e-21)
(-0.284893 -0.0408329 0)
(-0.256649 -0.0659448 -6.04651e-20)
(-0.221687 -0.0923561 0)
(-0.179731 -0.119001 -4.00218e-20)
(-0.130079 -0.144031 1.56076e-19)
(-0.0731318 -0.164319 -7.93947e-21)
(-0.0117013 0.0409222 0)
(-0.032978 0.0920424 1.06438e-21)
(-0.0581407 0.123168 3.61287e-20)
(-0.0846027 0.141007 -3.48616e-20)
(-0.11064 0.149886 3.10477e-20)
(-0.135284 0.152793 1.87567e-19)
(-0.157737 0.15173 -5.92498e-20)
(-0.177329 0.147888 -5.82703e-20)
(-0.193518 0.141856 1.11533e-19)
(-0.205852 0.133834 -1.6282e-19)
(-0.21394 0.123807 5.12143e-20)
(-0.21744 0.111663 5.06834e-20)
(-0.216054 0.0972532 0)
(-0.209525 0.0804322 4.58396e-20)
(-0.197639 0.0610709 0)
(-0.180215 0.0390713 8.48683e-20)
(-0.157115 0.0143796 -1.5761e-19)
(-0.128238 -0.0130025 3.7812e-20)
(-0.0937562 -0.0430463 1.37301e-19)
(-0.0536179 -0.0754584 6.0365e-20)
(-0.00776613 -0.109654 0)
(0.0434104 -0.144882 -1.41855e-19)
(0.0996544 -0.179649 4.48511e-20)
(0.16655 -0.210613 0)
(-0.0140173 0.0448916 0)
(-0.0353471 0.103948 -1.15346e-19)
(-0.0552179 0.142404 -3.71762e-20)
(-0.0736405 0.166087 -6.99539e-20)
(-0.0901315 0.179077 6.58722e-20)
(-0.104202 0.184466 -6.28531e-20)
(-0.115293 0.184505 1.23332e-19)
(-0.122852 0.180668 6.113e-20)
(-0.126389 0.173801 -1.68019e-19)
(-0.125493 0.164302 1.10924e-19)
(-0.11984 0.152296 -1.58398e-19)
(-0.109186 0.137758 3.58638e-19)
(-0.0933588 0.120599 -1.93984e-19)
(-0.0722526 0.100709 9.43577e-20)
(-0.0458169 0.0779802 2.71438e-19)
(-0.0140371 0.052326 -8.32529e-20)
(0.0230463 0.0237042 -8.07632e-20)
(0.0652899 -0.00788384 -7.56301e-20)
(0.112595 -0.0423081 0)
(0.164834 -0.0791212 -1.26111e-19)
(0.221542 -0.117901 -1.07799e-19)
(0.282622 -0.15773 1.60108e-19)
(0.344098 -0.197761 1.70019e-19)
(0.422249 -0.234171 -1.61441e-19)
(-0.0155735 0.0442244 0)
(-0.0368127 0.105899 -1.59189e-19)
(-0.0518945 0.148959 -1.37148e-21)
(-0.0627156 0.177352 1.41299e-19)
(-0.0698216 0.194263 0)
(-0.073229 0.202441 0)
(-0.0727251 0.204091 0)
(-0.0679975 0.200814 -6.05943e-20)
(-0.0587239 0.193655 -2.80149e-21)
(-0.0446284 0.183223 1.08493e-19)
(-0.0255108 0.16982 -1.62062e-19)
(-0.00125298 0.153558 -1.95503e-21)
(0.028191 0.134441 0)
(0.0628028 0.112424 -9.4265e-20)
(0.10252 0.0874309 9.14427e-20)
(0.147285 0.0594248 -2.55637e-19)
(0.197001 0.0283762 3.23523e-19)
(0.251526 -0.00568147 7.47125e-20)
(0.310625 -0.0425366 -4.35509e-21)
(0.374008 -0.0818026 -2.62569e-19)
(0.44054 -0.123005 -1.17296e-19)
(0.511359 -0.164407 3.60919e-19)
(0.576263 -0.206565 -2.38182e-19)
(0.6637 -0.243115 0)
(-0.0161382 0.0400853 7.94978e-20)
(-0.0370811 0.0995267 7.99592e-20)
(-0.0484699 0.143897 -7.65804e-20)
(-0.0530908 0.174971 -1.44212e-19)
(-0.0521282 0.194752 1.35779e-19)
(-0.0460256 0.205361 -1.30439e-19)
(-0.0349494 0.208704 1.84401e-19)
(-0.0189127 0.20632 -6.08461e-20)
(0.00214629 0.199338 1.12362e-19)
(0.0282991 0.188519 0)
(0.0595878 0.174327 1.06981e-19)
(0.096013 0.157012 -1.97951e-19)
(0.137559 0.136676 1.96062e-19)
(0.184174 0.11336 -1.84132e-19)
(0.235843 0.0870801 0)
(0.292562 0.057811 1.68529e-19)
(0.354214 0.0255322 3.17979e-19)
(0.420614 -0.00965499 -3.00028e-19)
(0.491295 -0.04749 -1.37561e-19)
(0.565663 -0.0872809 -1.26244e-19)
(0.641373 -0.128742 3.54462e-19)
(0.720296 -0.168682 9.80233e-20)
(0.787332 -0.210152 -9.80091e-20)
(0.877349 -0.241927 7.82182e-20)
(-0.0158268 0.0340393 -7.95085e-20)
(-0.0362556 0.0875624 2.46378e-19)
(-0.0452356 0.129886 -7.78388e-20)
(-0.0454945 0.160971 1.45295e-19)
(-0.0384224 0.181734 -1.36793e-19)
(-0.0247324 0.193602 -7.97351e-22)
(-0.00491129 0.198055 6.08555e-20)
(0.0207137 0.196423 2.35337e-19)
(0.0519405 0.189791 3.92774e-21)
(0.0886506 0.178971 -1.06473e-19)
(0.130778 0.164521 0)
(0.17828 0.146792 -9.97205e-20)
(0.2312 0.126012 1.87493e-19)
(0.289634 0.102306 1.82811e-19)
(0.353617 0.075709 -8.65074e-20)
(0.423098 0.0462205 -2.51142e-21)
(0.497839 0.0139458 -7.88026e-20)
(0.577233 -0.020846 1.43096e-19)
(0.660039 -0.057742 1.3751e-19)
(0.744713 -0.095645 -1.26504e-19)
(0.827618 -0.134507 1.10797e-19)
(0.909521 -0.169796 -9.91117e-20)
(0.97495 -0.207374 0)
(1.05574 -0.230498 -7.8191e-20)
(-0.0150365 0.0276241 8.12126e-20)
(-0.0347855 0.0730979 -8.25521e-20)
(-0.042397 0.11054 7.80701e-20)
(-0.0398995 0.138873 0)
(-0.0285388 0.158296 0)
(-0.00911153 0.169679 1.29196e-19)
(0.0177214 0.17409 -1.21928e-19)
(0.051447 0.172594 1.1648e-19)
(0.0917209 0.166145 -5.50499e-19)
(0.13836 0.155513 -1.61292e-21)
(0.191319 0.14129 9.92787e-20)
(0.250673 0.123903 0)
(0.316527 0.103621 -1.85541e-19)
(0.388911 0.0805851 3.51309e-19)
(0.467689 0.0549064 -2.51414e-19)
(0.552333 0.0267494 -3.99541e-19)
(0.641754 -0.00362216 -3.56678e-22)
(0.734167 -0.0357532 2.75337e-19)
(0.826973 -0.0690495 0)
(0.917168 -0.102234 0)
(1.00037 -0.135308 -1.10796e-19)
(1.07542 -0.163525 9.91158e-20)
(1.13105 -0.194426 -3.29101e-19)
(1.18911 -0.207742 3.08296e-19)
(-0.0142771 0.0220074 0)
(-0.0332137 0.0588271 0)
(-0.0398502 0.0895255 -2.34409e-19)
(-0.0352901 0.112878 7.44124e-20)
(-0.0204336 0.12885 5.77359e-22)
(0.00401946 0.138004 1.28823e-19)
(0.0374377 0.141116 0)
(0.0793352 0.139025 -1.1396e-19)
(0.129417 0.13253 1.09351e-19)
(0.187575 0.12233 -2.05488e-19)
(0.253817 0.108982 -1.63423e-21)
(0.328131 0.092894 1.88717e-19)
(0.410339 0.0743369 2.77519e-21)
(0.499863 0.0535336 1.73693e-19)
(0.595558 0.0306953 -2.42203e-19)
(0.695545 0.00607938 0)
(0.797167 -0.0199509 2.86991e-19)
(0.89706 -0.0468869 -4.06708e-19)
(0.991384 -0.0740608 1.20433e-19)
(1.07628 -0.100485 0)
(1.14789 -0.125894 9.88344e-20)
(1.20463 -0.146876 3.54341e-19)
(1.24124 -0.17024 -3.32599e-19)
(1.26956 -0.17636 -3.35729e-19)
(-0.0139405 0.0177867 2.46757e-19)
(-0.0317867 0.0464961 -3.37941e-19)
(-0.0368613 0.0697356 1.28534e-21)
(-0.0294918 0.0868858 7.46323e-20)
(-0.01018 0.0981057 -1.38238e-19)
(0.0206098 0.10392 -1.28951e-19)
(0.0624521 0.104981 2.41502e-19)
(0.115037 0.101985 1.03835e-21)
(0.178172 0.0956122 -2.13847e-19)
(0.251673 0.0864544 4.07159e-19)
(0.335197 0.0749803 3.73099e-21)
(0.428022 0.0615469 -1.82038e-19)
(0.528827 0.0464099 0)
(0.63552 0.0297663 0)
(0.745201 0.0117978 -7.96438e-20)
(0.854242 -0.00728389 -1.44408e-19)
(0.958537 -0.0271813 -2.73616e-19)
(1.05385 -0.0475297 2.56846e-19)
(1.13636 -0.0677507 -1.20508e-19)
(1.203 -0.0874175 2.08084e-19)
(1.25212 -0.105736 -1.08049e-19)
(1.28386 -0.121749 1.55678e-19)
(1.29828 -0.138656 -3.82382e-19)
(1.30208 -0.142581 6.78907e-20)
(-0.0140928 0.0149562 8.30277e-20)
(-0.0301239 0.0366875 0)
(-0.031885 0.0527864 1.58898e-19)
(-0.0193244 0.063664 -1.4968e-19)
(0.00737225 0.0699499 1.38373e-19)
(0.0479973 0.0723327 0)
(0.102321 0.0714793 0)
(0.17006 0.0680251 -1.13297e-19)
(0.250744 0.0625413 -5.16189e-22)
(0.343498 0.0554903 9.97574e-20)
(0.446797 0.0472091 -9.53984e-20)
(0.558293 0.0379032 1.79592e-19)
(0.674757 0.0276653 0)
(0.792175 0.0165147 3.22591e-19)
(0.906026 0.00444844 -6.05223e-19)
(1.01168 -0.00850632 4.28375e-19)
(1.10487 -0.0222345 2.59779e-19)
(1.18221 -0.0365496 -2.4388e-19)
(1.24164 -0.0510315 0)
(1.28255 -0.0656033 0)
(1.30626 -0.0790442 0)
(1.31494 -0.0929122 0)
(1.31229 -0.104247 7.22741e-20)
(1.30294 -0.112542 -2.35831e-19)
(-0.287056 -0.0207912 -3.73466e-21)
(-0.218486 -0.0188066 3.76637e-21)
(-0.140972 -0.0156973 -7.01145e-23)
(-0.056901 -0.012483 0)
(0.0313945 -0.00859852 -2.67048e-23)
(0.121214 -0.004645 -5.24744e-22)
(0.210214 -0.000834917 -4.22361e-22)
(0.296248 0.00270564 9.31007e-22)
(0.377595 0.00587877 0)
(0.453095 0.00863191 0)
(0.522118 0.0109659 8.39282e-23)
(0.584434 0.0129347 8.05895e-23)
(0.640122 0.0146036 1.25055e-21)
(0.689443 0.0160146 -1.1423e-21)
(0.732794 0.0172675 0)
(0.770693 0.0183921 0)
(0.803606 0.0193662 -7.51352e-22)
(0.831926 0.0202496 6.78909e-23)
(0.856051 0.0210938 6.05449e-22)
(0.876473 0.0217711 3.35867e-23)
(0.893652 0.0224023 0)
(0.907998 0.0229545 0)
(0.919981 0.0234765 0)
(0.930035 0.023979 0)
(0.938543 0.0244935 0)
(0.945814 0.0250599 0)
(0.952085 0.0257041 -8.16747e-23)
(0.957532 0.0264321 1.33061e-22)
(0.962286 0.0272367 0)
(0.966451 0.0281058 0)
(0.970109 0.0290284 7.32212e-23)
(0.973332 0.0299983 -7.11639e-23)
(0.976183 0.0310145 -3.13671e-23)
(0.978715 0.0320799 0)
(0.980972 0.0332003 0)
(0.982993 0.0343828 -4.70959e-23)
(0.984808 0.0356356 4.57801e-23)
(0.986444 0.0369672 0)
(0.987923 0.0383866 -3.73075e-23)
(0.989263 0.039903 5.39975e-23)
(0.99048 0.0415261 -1.64804e-23)
(0.991588 0.0432661 0)
(0.992599 0.0451338 2.79741e-23)
(0.993522 0.0471412 -2.7202e-23)
(0.99437 0.0493002 0)
(0.995147 0.0516276 0)
(0.995869 0.054128 1.05032e-23)
(0.996526 0.0568499 -3.01738e-23)
(0.997156 0.0597195 0)
(0.997713 0.0629979 0)
(0.998283 0.0661121 7.52471e-24)
(0.99876 0.0704322 6.00146e-27)
(0.999283 0.0731666 5.53961e-25)
(0.999728 0.0797023 -5.31717e-24)
(1.00018 0.0808554 0)
(1.00065 0.0907474 0)
(1.00104 0.0903854 0)
(1.00154 0.102423 0)
(1.00185 0.102539 0)
(1.00252 0.116023 0)
(-0.20008 -0.103392 -4.46846e-22)
(-0.137836 -0.110834 -1.17374e-20)
(-0.0662703 -0.113581 4.04796e-21)
(0.0116869 -0.112731 7.13661e-21)
(0.0938539 -0.108403 3.96061e-23)
(0.176862 -0.101166 0)
(0.258958 -0.0917077 3.51148e-21)
(0.338266 -0.0808534 -8.08211e-21)
(0.413209 -0.0694274 4.57584e-21)
(0.482739 -0.0581319 -5.39142e-21)
(0.546329 -0.0474809 5.15611e-21)
(0.603835 -0.0377548 -4.95719e-21)
(0.655346 -0.0290255 4.81517e-21)
(0.70118 -0.0212958 1.34568e-22)
(0.741739 -0.0144646 3.80825e-21)
(0.777352 -0.00844546 -3.70097e-21)
(0.808427 -0.00318908 3.00123e-21)
(0.835388 0.00138974 -2.83052e-21)
(0.858478 0.00538038 2.37091e-21)
(0.878132 0.00906959 -4.35555e-21)
(0.894804 0.0122695 1.99705e-21)
(0.908823 0.0148006 1.04276e-22)
(0.92061 0.0168822 1.41204e-21)
(0.930529 0.0186139 -2.62331e-21)
(0.938946 0.0200892 1.21582e-21)
(0.946162 0.0214055 -6.45364e-23)
(0.952406 0.0226435 -9.16446e-22)
(0.957844 0.0238512 3.97713e-23)
(0.962603 0.02505 1.49256e-21)
(0.96678 0.0262467 -1.34684e-21)
(0.970454 0.0274425 6.30763e-22)
(0.973696 0.0286403 -6.9125e-23)
(0.976566 0.0298466 3.14309e-23)
(0.979118 0.031071 -5.76052e-23)
(0.981396 0.0323248 0)
(0.983437 0.0336198 0)
(0.985274 0.034968 1.74639e-22)
(0.986932 0.0363809 -1.28362e-22)
(0.988433 0.0378701 -1.11458e-22)
(0.989796 0.0394467 -1.12579e-23)
(0.991038 0.0411219 1.5176e-22)
(0.992171 0.0429071 -3.07817e-23)
(0.993208 0.0448141 0)
(0.99416 0.0468557 0)
(0.995037 0.0490445 0)
(0.995844 0.0513979 0)
(0.996598 0.0539209 -4.31238e-23)
(0.99729 0.0566628 1.99778e-23)
(0.997954 0.0595486 0)
(0.998551 0.0628439 0)
(0.999158 0.0659666 0)
(0.999678 0.0703059 1.31063e-23)
(1.00025 0.0730367 -1.03568e-24)
(1.00073 0.0795976 1.12209e-23)
(1.00124 0.0807401 0)
(1.00175 0.0906491 0)
(1.00219 0.0902914 -5.75186e-24)
(1.00275 0.102327 -1.37315e-23)
(1.00309 0.10245 0)
(1.00383 0.115942 0)
(-0.0169968 -0.176918 -7.96075e-21)
(0.0354239 -0.189861 -3.61069e-20)
(0.0983932 -0.198655 1.85644e-20)
(0.16511 -0.200846 -1.73377e-20)
(0.234419 -0.19675 -3.98685e-23)
(0.304169 -0.186883 0)
(0.372587 -0.172458 5.53761e-21)
(0.43814 -0.155016 -5.43709e-21)
(0.499646 -0.13612 -7.33673e-23)
(0.556371 -0.117112 -1.39776e-22)
(0.608027 -0.0989758 -1.45894e-22)
(0.654686 -0.0823402 -1.56617e-22)
(0.696576 -0.067423 8.97117e-21)
(0.734004 -0.054192 -8.8539e-21)
(0.767329 -0.0425908 0)
(0.796888 -0.032462 -2.12038e-22)
(0.823009 -0.023589 5.93211e-21)
(0.845989 -0.015828 -5.85102e-21)
(0.866219 -0.00905172 0)
(0.88382 -0.00302254 0)
(0.898751 0.00211509 3.73375e-21)
(0.911482 0.00669392 -6.92144e-21)
(0.92245 0.010361 5.94009e-21)
(0.931832 0.0132829 -3.21484e-22)
(0.93989 0.0156862 -4.60274e-21)
(0.946872 0.0177343 4.23043e-21)
(0.952967 0.019556 -3.6076e-21)
(0.958317 0.0212374 2.35162e-22)
(0.963026 0.0228278 1.5585e-21)
(0.967178 0.0243518 0)
(0.970844 0.0258219 0)
(0.974088 0.0272493 -4.00161e-22)
(0.976967 0.0286473 5.23956e-22)
(0.979531 0.030032 -9.81742e-26)
(0.981824 0.0314201 -4.13644e-22)
(0.983883 0.0328281 4.01995e-22)
(0.985739 0.0342719 0)
(0.987417 0.0357664 -4.15644e-23)
(0.98894 0.0373254 -3.39848e-22)
(0.990327 0.038962 6.44297e-22)
(0.991592 0.0406891 -2.71992e-22)
(0.99275 0.0425193 -3.09963e-23)
(0.993814 0.0444656 2.8324e-22)
(0.994793 0.0465412 -2.19326e-22)
(0.9957 0.0487598 -5.0022e-23)
(0.996538 0.0511391 -4.65682e-23)
(0.997323 0.0536846 4.32336e-23)
(0.99805 0.0564468 0)
(0.998749 0.059349 0)
(0.999385 0.0626616 1.34752e-22)
(1.00003 0.0657933 -6.45463e-23)
(1.00059 0.0701522 5.67885e-23)
(1.00121 0.0728808 -7.656e-23)
(1.00172 0.0794676 -8.76806e-23)
(1.0023 0.080601 2.05678e-23)
(1.00284 0.09053 -3.26188e-23)
(1.00334 0.0901756 2.60328e-23)
(1.00396 0.102217 -1.12087e-23)
(1.00432 0.102345 0)
(1.00515 0.115852 0)
(0.217568 -0.233068 -8.5018e-20)
(0.261352 -0.252481 1.86098e-20)
(0.308834 -0.266858 6.28775e-20)
(0.360667 -0.272399 -2.48793e-22)
(0.413749 -0.268628 0)
(0.466172 -0.256674 0)
(0.516784 -0.238218 5.97521e-21)
(0.564642 -0.215352 6.1196e-21)
(0.609072 -0.190283 -1.93299e-20)
(0.649739 -0.164917 -1.00672e-21)
(0.686589 -0.140628 8.56307e-21)
(0.719841 -0.118308 8.55359e-21)
(0.749855 -0.0984011 -8.56075e-21)
(0.77693 -0.0808961 0)
(0.801343 -0.0655957 7.13139e-21)
(0.823358 -0.0522318 -6.51313e-21)
(0.843216 -0.0405366 0)
(0.861119 -0.0302715 0)
(0.877221 -0.0212503 -4.58074e-21)
(0.891593 -0.0135215 3.89664e-22)
(0.904463 -0.00686244 3.82706e-21)
(0.915711 -0.00101656 3.29512e-21)
(0.925355 0.00403374 -3.28296e-21)
(0.933849 0.00810078 2.60271e-21)
(0.941337 0.0113608 -2.76704e-22)
(0.947938 0.0140871 -2.18115e-21)
(0.95378 0.0164615 -2.33373e-22)
(0.958963 0.0185984 -2.22125e-25)
(0.963568 0.0205701 0)
(0.967657 0.0224168 -1.31776e-21)
(0.971288 0.0241601 1.35743e-21)
(0.974515 0.0258175 -7.00957e-23)
(0.977389 0.0274087 0)
(0.979956 0.0289552 5.83958e-23)
(0.982259 0.030479 -8.34533e-22)
(0.984331 0.0320013 1.48045e-21)
(0.986204 0.0335417 5.33178e-23)
(0.987901 0.0351184 -3.31911e-23)
(0.989444 0.0367477 -5.59288e-22)
(0.990853 0.0384448 -7.19931e-23)
(0.992142 0.040224 5.2429e-22)
(0.993325 0.0420994 -4.47285e-22)
(0.994415 0.0440849 9.93359e-26)
(0.995422 0.0461947 -2.11564e-22)
(0.996357 0.048443 2.55877e-22)
(0.997226 0.0508485 3.23654e-22)
(0.998043 0.0534166 -9.09781e-23)
(0.998805 0.0561993 -1.57493e-22)
(0.999538 0.0591181 2.98379e-22)
(1.00021 0.0624487 -2.09825e-22)
(1.0009 0.0655897 5.86011e-23)
(1.0015 0.0699691 -6.53611e-23)
(1.00217 0.0726967 -5.54884e-23)
(1.00272 0.0793103 1.33106e-22)
(1.00336 0.0804361 -2.44676e-24)
(1.00393 0.0903883 3.28298e-23)
(1.00449 0.0900366 0)
(1.00517 0.10209 1.1418e-23)
(1.00555 0.102222 -1.6091e-23)
(1.00647 0.115753 0)
(0.46142 -0.264506 9.5282e-20)
(0.496276 -0.294575 -1.68977e-19)
(0.530106 -0.315122 7.31363e-20)
(0.565354 -0.323541 3.80422e-20)
(0.599885 -0.320409 -5.98433e-20)
(0.63259 -0.307382 1.20931e-20)
(0.663243 -0.286385 9.75318e-21)
(0.691659 -0.259884 -6.48099e-21)
(0.71776 -0.230571 6.39002e-21)
(0.74166 -0.200761 0)
(0.763524 -0.172121 1.51066e-20)
(0.783536 -0.145684 -3.00959e-20)
(0.802003 -0.122054 1.50241e-20)
(0.819193 -0.101367 0)
(0.835217 -0.0833851 0)
(0.850146 -0.0677503 -2.04998e-22)
(0.864065 -0.0541171 1.11487e-20)
(0.877062 -0.0421843 -1.08308e-20)
(0.889202 -0.0317027 0)
(0.900467 -0.022507 -8.27174e-21)
(0.910842 -0.0144663 1.49182e-20)
(0.920408 -0.0077474 -1.32788e-20)
(0.928952 -0.00195853 1.20166e-20)
(0.936437 0.00310032 -4.50598e-22)
(0.943194 0.00717177 -9.55961e-21)
(0.949317 0.0105144 4.51103e-21)
(0.95483 0.0133973 1.17873e-22)
(0.959785 0.0159616 1.52487e-21)
(0.964236 0.0182967 -1.12567e-22)
(0.968224 0.0204556 -1.42913e-21)
(0.971791 0.0224667 -7.79996e-23)
(0.974979 0.0243519 1.09981e-21)
(0.977834 0.0261357 -2.07225e-21)
(0.980396 0.0278443 1.09337e-21)
(0.982701 0.0295044 0)
(0.984782 0.0311415 8.76046e-22)
(0.986667 0.0327792 -8.45992e-22)
(0.988381 0.0344385 5.77606e-22)
(0.989944 0.0361385 -7.21886e-22)
(0.991373 0.0378962 7.28249e-23)
(0.992685 0.0397278 0)
(0.993892 0.0416485 6.29014e-23)
(0.995008 0.0436732 -1.75525e-22)
(0.996042 0.0458172 0)
(0.997006 0.0480953 -4.98576e-22)
(0.997906 0.0505269 1.97144e-22)
(0.998755 0.0531178 -8.75619e-23)
(0.999552 0.0559211 -8.13107e-23)
(1.00032 0.0588567 0)
(1.00104 0.0622056 0)
(1.00176 0.0653566 1.85263e-22)
(1.0024 0.0697571 -2.86253e-22)
(1.00312 0.0724848 1.58582e-22)
(1.0037 0.079126 -5.02774e-23)
(1.00441 0.0802458 -8.34636e-23)
(1.00501 0.090224 -3.28611e-23)
(1.00563 0.0898745 5.26786e-23)
(1.00637 0.101947 0)
(1.00678 0.102083 2.57896e-23)
(1.0078 0.115643 6.09864e-24)
(0.689981 -0.27785 1.02581e-19)
(0.714316 -0.314681 -1.02027e-19)
(0.736507 -0.340384 5.44837e-22)
(0.756385 -0.351717 -4.55059e-22)
(0.772474 -0.350049 2.66347e-22)
(0.785254 -0.337431 -1.54341e-22)
(0.795896 -0.315865 2.45408e-22)
(0.805104 -0.288055 0)
(0.813438 -0.25697 7.85923e-24)
(0.821463 -0.225099 -8.40675e-23)
(0.829553 -0.194259 -1.34268e-22)
(0.837814 -0.165602 2.17427e-22)
(0.846285 -0.139742 0)
(0.855059 -0.116958 0)
(0.864115 -0.0971625 -1.81762e-22)
(0.873291 -0.0799964 0)
(0.882442 -0.0650579 1.62998e-22)
(0.891487 -0.0519875 0)
(0.90037 -0.0404877 8.48044e-21)
(0.909014 -0.0303533 -1.61202e-20)
(0.917317 -0.0214274 1.44836e-20)
(0.925179 -0.0136975 -6.85507e-21)
(0.932624 -0.00727358 -5.64357e-21)
(0.939377 -0.00178258 5.4805e-21)
(0.945381 0.00307033 4.66975e-21)
(0.950954 0.00701944 -4.52366e-21)
(0.956092 0.010379 0)
(0.960774 0.0133416 -1.06309e-22)
(0.965029 0.0160197 0)
(0.968882 0.0184779 0)
(0.972357 0.0207488 -2.28969e-21)
(0.975487 0.0228576 2.37637e-21)
(0.978307 0.0248319 -1.30869e-22)
(0.980851 0.0267019 -1.19692e-22)
(0.983151 0.0284984 1.09764e-22)
(0.985235 0.0302507 7.8675e-22)
(0.98713 0.031986 -7.63915e-22)
(0.988858 0.0337283 7.56622e-22)
(0.990438 0.0354992 -6.51374e-22)
(0.991887 0.0373179 -1.47276e-22)
(0.99322 0.0392019 5.35449e-22)
(0.994451 0.0411679 4.16855e-23)
(0.995592 0.0432319 -3.65334e-22)
(0.996653 0.0454101 0)
(0.997645 0.047718 2.04778e-22)
(0.998576 0.0501758 -2.77487e-22)
(0.999457 0.0527893 3.61828e-22)
(1.00029 0.0556135 8.18286e-23)
(1.00109 0.058566 0)
(1.00185 0.0619337 -6.54485e-23)
(1.00261 0.0650949 1.31182e-22)
(1.0033 0.0695171 -1.36767e-25)
(1.00406 0.0722461 5.18498e-23)
(1.00468 0.0789157 -8.65493e-23)
(1.00546 0.0800309 8.38282e-23)