/*--------------------------------*- C++ -*----------------------------------*\
| =========                 |                                                 |
| \\      /  F ield         | OpenFOAM: The Open Source CFD Toolbox           |
|  \\    /   O peration     | Version:  2512                                  |
|   \\  /    A nd           | Website:  www.openfoam.com                      |
|    \\/     M anipulation  |                                                 |
\*---------------------------------------------------------------------------*/
FoamFile
{
    version     2.0;
    format      ascii;
    arch        "LSB;label=32;scalar=64";
    class       volVectorField;
    location    "84";
    object      U;
}
// * * * * * * * * * * * * * * * * * * * * * * * * * * * * * * * * * * * * * //

dimensions      [0 1 -1 0 0 0 0];

internalField   nonuniform List<vector> 
13248
(
(-0.0137062 0.0122523 7.84542e-20)
(-0.0259024 0.0261174 0)
(-0.0229944 0.033772 -1.48067e-19)
(-0.00526568 0.0373563 1.39479e-19)
(0.0270832 0.0384218 1.30226e-19)
(0.0738447 0.0381078 0)
(0.134686 0.037255 0)
(0.208989 0.0364837 3.12716e-19)
(0.295666 0.0362222 -1.06976e-21)
(0.392993 0.0367074 -2.74018e-19)
(0.498532 0.0379779 2.56411e-19)
(0.609164 0.0398773 -1.60423e-19)
(0.72125 0.042077 0)
(0.830895 0.044122 -2.8353e-19)
(0.934262 0.0454938 5.32189e-19)
(1.0279 0.0456824 -1.26788e-19)
(1.10904 0.0442618 -2.3205e-19)
(1.17582 0.0409256 2.1785e-19)
(1.22743 0.0356145 0)
(1.26406 0.0281147 0)
(1.28706 0.019505 0)
(1.29779 0.00688511 0)
(1.29929 -0.000690156 6.74201e-20)
(1.29184 -0.0282305 2.44741e-19)
(-0.0137793 0.0110329 -2.36879e-19)
(-0.0212748 0.0211885 1.61442e-19)
(-0.0094945 0.0253631 -1.56552e-21)
(0.0205903 0.0261427 -2.1313e-19)
(0.0683709 0.0253893 -1.30085e-19)
(0.133203 0.0244558 -1.23081e-19)
(0.214058 0.0242724 -2.25549e-19)
(0.309247 0.0254251 2.13631e-19)
(0.416204 0.028187 0)
(0.53144 0.0325242 5.68497e-22)
(0.650681 0.0381128 1.35425e-21)
(0.769196 0.0443873 1.60639e-19)
(0.882241 0.0506236 0)
(0.985525 0.0560456 0)
(1.07562 0.0599385 1.94708e-19)
(1.15026 0.0617475 -3.65991e-19)
(1.20847 0.0611456 2.22106e-19)
(1.25059 0.0580619 -2.08532e-19)
(1.27803 0.0526556 -9.24851e-20)
(1.29304 0.0452864 -1.71288e-19)
(1.29819 0.0364306 -7.1628e-20)
(1.29621 0.0264132 -1.35352e-19)
(1.28903 0.017403 1.96934e-19)
(1.27942 0.00399218 5.63102e-20)
(-0.0126956 0.00930784 0)
(-0.0127171 0.0155916 0)
(0.0112965 0.0169691 7.54005e-20)
(0.0574522 0.0161515 6.93522e-20)
(0.124382 0.0151457 -1.78648e-21)
(0.210477 0.0154037 -1.27601e-19)
(0.313314 0.0178045 0)
(0.42935 0.0227118 -1.06232e-19)
(0.553886 0.0300141 1.00305e-19)
(0.681338 0.0391732 9.44309e-22)
(0.805781 0.0493204 -1.72112e-19)
(0.921619 0.0594029 -1.59042e-19)
(1.02422 0.0683573 1.92116e-21)
(1.11039 0.075275 -1.34343e-19)
(1.1786 0.0795272 3.20463e-19)
(1.22897 0.0808279 0)
(1.26302 0.0792326 -2.12502e-19)
(1.28326 0.0750676 1.03259e-19)
(1.29271 0.0688716 9.24138e-20)
(1.29432 0.0611504 0)
(1.29073 0.0527719 7.66816e-20)
(1.28373 0.0433953 -2.62958e-19)
(1.27481 0.036072 2.46855e-19)
(1.26506 0.0236814 1.55409e-19)
(-0.00996992 0.00701045 -8.38675e-20)
(0.000878034 0.00928191 -8.67724e-20)
(0.0407429 0.00869066 7.83748e-20)
(0.106538 0.00772087 0)
(0.195627 0.00829196 0)
(0.304715 0.011739 -3.03356e-21)
(0.429161 0.0186239 0)
(0.562896 0.0287809 -3.26469e-19)
(0.698842 0.0414251 3.03623e-19)
(0.829718 0.055325 -3.75107e-19)
(0.948999 0.069043 8.61834e-20)
(1.05174 0.0812018 0)
(1.13507 0.0907124 1.45231e-19)
(1.1983 0.0969179 -2.69709e-19)
(1.24267 0.099631 6.42278e-20)
(1.27081 0.0990771 1.67508e-19)
(1.28608 0.0957688 -6.10844e-21)
(1.29195 0.090363 -1.86669e-19)
(1.29145 0.0835158 0)
(1.28697 0.0758233 0)
(1.28011 0.0677672 -6.80824e-20)
(1.27185 0.0594931 6.13363e-20)
(1.26281 0.052466 2.22092e-19)
(1.25346 0.0420771 -2.08518e-19)
(-0.00516555 0.0042475 -8.85364e-20)
(0.0204764 0.0026171 -8.82354e-20)
(0.0798881 0.00116132 2.48079e-19)
(0.168414 0.00176516 -1.50523e-19)
(0.281468 0.00594393 1.41679e-19)
(0.413214 0.0145721 2.5737e-19)
(0.55608 0.0275038 -1.82095e-19)
(0.701256 0.0436852 -2.22041e-19)
(0.839833 0.0614481 4.12574e-21)
(0.964123 0.0788901 2.84132e-19)
(1.06873 0.0942662 0)
(1.15105 0.106294 7.88006e-20)
(1.21122 0.114309 0)
(1.25151 0.118256 -1.30026e-19)
(1.27553 0.118555 1.8307e-19)
(1.2873 0.115905 1.91627e-21)
(1.2906 0.111089 -4.85802e-20)
(1.28849 0.104829 9.18966e-20)
(1.28318 0.0977113 7.93392e-20)
(1.27606 0.0901562 -7.15508e-20)
(1.26799 0.0824975 6.80677e-20)
(1.25937 0.0747958 -6.13222e-20)
(1.25047 0.0679438 0)
(1.24159 0.0587623 -4.65938e-20)
(0.00209535 0.00127292 8.85236e-20)
(0.0468223 -0.00366869 9.30438e-20)
(0.129296 -0.00447585 -8.31664e-20)
(0.24277 -0.000285916 1.55157e-19)
(0.379881 0.00957553 -1.46032e-19)
(0.531485 0.0250444 1.3221e-19)
(0.686823 0.0448234 -6.35324e-20)
(0.83497 0.0667181 1.66672e-19)
(0.966654 0.0882319 -1.04953e-19)
(1.07568 0.107143 1.86521e-19)
(1.15951 0.121915 -4.31039e-19)
(1.21892 0.131858 1.58616e-19)
(1.25716 0.137061 -1.39815e-19)
(1.27868 0.138153 1.31332e-19)
(1.28814 0.136035 1.14487e-19)
(1.28964 0.131629 1.01337e-19)
(1.28629 0.125729 -2.81943e-19)
(1.28024 0.118938 1.75361e-19)
(1.2728 0.111677 -7.93439e-20)
(1.26471 0.104231 2.08092e-19)
(1.25634 0.0967816 -6.71679e-20)
(1.24785 0.0894382 -1.64853e-19)
(1.23933 0.0826309 1.52409e-19)
(1.23085 0.0743483 4.65801e-20)
(0.0121186 -0.00154705 0)
(0.0803429 -0.00856034 8.7301e-22)
(0.188859 -0.00674614 1.74409e-19)
(0.32817 0.00321881 -1.63494e-19)
(0.487342 0.0205961 -1.47639e-19)
(0.653556 0.0438418 2.74475e-19)
(0.813456 0.0701844 -1.27505e-19)
(0.955569 0.0963495 1.70127e-19)
(1.0723 0.119439 -3.55965e-21)
(1.16072 0.137518 -9.65958e-20)
(1.22203 0.149803 2.11554e-19)
(1.26027 0.156504 -3.12664e-19)
(1.28078 0.158479 0)
(1.28889 0.156856 -6.18706e-20)
(1.28908 0.15273 -1.66175e-19)
(1.28467 0.147004 5.21476e-20)
(1.27785 0.140333 1.9103e-21)
(1.26991 0.133158 -1.16831e-19)
(1.26156 0.125757 6.58852e-21)
(1.25311 0.118311 1.35486e-19)
(1.24471 0.110935 -6.10314e-20)
(1.23638 0.103722 -2.33863e-20)
(1.2281 0.0968122 7.16431e-20)
(1.2199 0.0891413 0)
(0.0251042 -0.0037655 0)
(0.121032 -0.0108827 4.73031e-20)
(0.257622 -0.00408057 -2.27589e-19)
(0.421954 0.0137912 8.28774e-20)
(0.599034 0.0399281 -7.7999e-20)
(0.772786 0.0708701 -7.13807e-20)
(0.928806 0.102386 -1.26239e-19)
(1.05723 0.130594 6.29506e-20)
(1.154 0.152891 5.47987e-20)
(1.22031 0.168232 0)
(1.26087 0.176894 1.25658e-19)
(1.28192 0.179973 -1.87529e-19)
(1.28959 0.178872 1.39688e-19)
(1.28894 0.174921 6.19042e-20)
(1.28363 0.169186 -5.11296e-20)
(1.27602 0.162418 -4.3163e-20)
(1.26747 0.155102 -4.05442e-20)
(1.25868 0.147538 1.20413e-19)
(1.24998 0.139904 0)
(1.24147 0.132313 6.1286e-20)
(1.23317 0.124846 5.20674e-20)
(1.22505 0.11757 -1.28733e-19)
(1.21706 0.110487 -8.88953e-20)
(1.20915 0.10322 8.20759e-20)
(0.0410972 -0.00488175 -5.10619e-20)
(0.168346 -0.00942324 -1.96867e-21)
(0.333718 0.00494716 4.63565e-20)
(0.520391 0.0324934 1.29766e-19)
(0.709474 0.0677569 3.78174e-20)
(0.883005 0.105249 -7.30347e-20)
(1.02774 0.139748 6.66875e-20)
(1.13744 0.167546 -5.85157e-20)
(1.2126 0.18703 1.05053e-19)
(1.2583 0.198405 4.48929e-20)
(1.28173 0.202998 -1.27411e-19)
(1.29001 0.202556 3.76558e-20)
(1.28903 0.198731 6.46071e-20)
(1.283 0.192827 -3.17304e-20)
(1.27459 0.18575 0)
(1.26532 0.178071 4.78856e-20)
(1.25594 0.170124 8.14997e-20)
(1.24679 0.162103 1.42843e-20)
(1.23797 0.15412 -6.82469e-20)
(1.22951 0.146251 2.8738e-20)
(1.22135 0.138553 0)
(1.21344 0.13106 -2.27871e-20)
(1.20571 0.123732 -2.17154e-20)
(1.19806 0.11664 0)
(0.0599314 -0.00437422 0)
(0.221139 -0.00305834 2.67621e-20)
(0.414435 0.0214201 4.95946e-20)
(0.619079 0.0597539 -1.32406e-19)
(0.813332 0.10352 4.27882e-20)
(0.979477 0.145569 0)
(1.10766 0.180536 6.44382e-20)
(1.19654 0.205723 -8.9988e-20)
(1.25108 0.220973 -5.24898e-20)
(1.27933 0.227782 2.37408e-20)
(1.28965 0.228307 -3.82214e-20)
(1.28904 0.224637 9.2689e-20)
(1.28256 0.21843 4.66783e-20)
(1.27339 0.210829 -3.23161e-20)
(1.26331 0.20254 -2.89983e-21)
(1.25321 0.193966 -8.96076e-20)
(1.24347 0.185325 4.08843e-20)
(1.23421 0.17674 -1.04235e-21)
(1.22544 0.168284 0)
(1.21711 0.160009 -2.87681e-20)
(1.20916 0.151952 0)
(1.2015 0.144116 6.57332e-20)
(1.19405 0.136501 -7.84405e-20)
(1.18668 0.12939 3.58306e-20)
(0.0811887 -0.00174066 -1.39728e-20)
(0.277669 0.00913216 -6.7565e-20)
(0.496429 0.0459422 7.69077e-20)
(0.713486 0.0953267 4.52514e-20)
(0.906134 0.146069 -2.15978e-20)
(1.05929 0.190211 3.63607e-20)
(1.16815 0.223246 -1.76462e-20)
(1.2365 0.244133 2.94227e-20)
(1.27301 0.254326 0)
(1.28744 0.256425 6.6939e-20)
(1.2883 0.253101 -2.67422e-21)
(1.28183 0.246523 -5.41898e-20)
(1.27202 0.238193 2.32953e-20)
(1.2611 0.229035 -2.64123e-20)
(1.25019 0.219563 -1.0158e-20)
(1.23975 0.210046 1.16277e-20)
(1.22992 0.200622 -9.05525e-21)
(1.22071 0.191368 -4.93637e-20)
(1.21209 0.182331 3.0272e-20)
(1.20397 0.173547 6.24411e-21)
(1.19627 0.16503 5.52348e-21)
(1.1889 0.156767 4.88815e-21)
(1.18174 0.148828 0)
(1.17466 0.141491 0)
(0.104265 0.00346828 1.39824e-20)
(0.335834 0.0277827 -1.40021e-20)
(0.576208 0.0785724 -2.56416e-20)
(0.7996 0.138364 0)
(0.984731 0.193912 -1.07329e-20)
(1.12124 0.237616 -9.67637e-21)
(1.2101 0.266725 -1.65771e-20)
(1.25978 0.282196 0)
(1.28144 0.286986 0)
(1.2855 0.284492 0)
(1.27986 0.277606 0)
(1.26971 0.268377 0)
(1.25802 0.258076 -1.46645e-20)
(1.24624 0.247402 6.68644e-21)
(1.23501 0.23671 1.16723e-20)
(1.22453 0.226171 5.46323e-21)
(1.21481 0.215866 1.3596e-20)
(1.2058 0.205841 0)
(1.19745 0.196124 -3.29771e-21)
(1.18965 0.186738 -3.15798e-21)
(1.1823 0.177677 -5.53227e-21)
(1.1753 0.168932 -4.89596e-21)
(1.16853 0.160639 0)
(1.16183 0.152916 3.55664e-21)
(-0.00186137 0.0327893 8.67239e-21)
(-0.00689533 0.0820942 -8.96768e-21)
(-0.0149067 0.11891 -1.69408e-20)
(-0.0247544 0.145351 0)
(-0.0356699 0.163514 -2.25889e-20)
(-0.0471473 0.175483 7.06592e-21)
(-0.0587552 0.183146 -1.34434e-20)
(-0.0701419 0.188029 0)
(-0.0810454 0.191222 0)
(-0.0912803 0.193377 0)
(-0.100718 0.194773 0)
(-0.109267 0.195399 0)
(-0.116856 0.195049 -6.72067e-23)
(-0.123417 0.193394 -9.06692e-21)
(-0.128878 0.190037 1.75925e-20)
(-0.133155 0.184552 2.50376e-20)
(-0.13615 0.176507 8.21067e-21)
(-0.137753 0.165482 0)
(-0.137843 0.1511 7.11949e-21)
(-0.1363 0.133056 -2.05633e-20)
(-0.13301 0.111158 -1.323e-20)
(-0.127879 0.0853525 -1.25921e-20)
(-0.120917 0.0557454 0)
(-0.112437 0.022828 0)
(-0.00369583 0.0345498 -2.61578e-20)
(-0.010476 0.0869961 4.49316e-20)
(-0.0180961 0.126573 -1.71169e-20)
(-0.0263079 0.155296 -3.21601e-20)
(-0.0348492 0.17518 4.53502e-20)
(-0.0434851 0.188287 -2.86594e-20)
(-0.0519565 0.196535 4.0394e-20)
(-0.0600071 0.201519 2.56845e-20)
(-0.0674076 0.204419 0)
(-0.0739641 0.205977 -2.2974e-20)
(-0.0795162 0.206547 -4.41629e-22)
(-0.0839319 0.206176 2.02497e-20)
(-0.0870988 0.204688 2.95327e-20)
(-0.0889159 0.201768 3.7708e-20)
(-0.0892856 0.197013 -1.6989e-20)
(-0.0881086 0.189985 -5.05369e-20)
(-0.0852869 0.180236 1.69415e-20)
(-0.080715 0.167319 -6.26524e-20)
(-0.074281 0.150836 0)
(-0.0658732 0.130467 1.38575e-20)
(-0.0553907 0.106016 1.32084e-20)
(-0.0427205 0.0774814 1.25712e-20)
(-0.0275783 0.0452159 0)
(-0.00986941 0.0102988 0)
(-0.00554516 0.0347216 0)
(-0.0142027 0.0883787 9.1476e-20)
(-0.0215275 0.129674 -3.44534e-20)
(-0.028058 0.160201 3.23529e-20)
(-0.0339942 0.181688 -9.19405e-20)
(-0.0393622 0.196017 0)
(-0.0440867 0.205018 -5.47056e-20)
(-0.0480282 0.210279 2.57951e-20)
(-0.051013 0.21302 -4.9064e-20)
(-0.0528574 0.214058 2.3521e-20)
(-0.0533827 0.21383 1.32903e-19)
(-0.0524237 0.212455 -6.2507e-20)
(-0.049832 0.209816 -1.00418e-19)
(-0.0454755 0.205637 -3.98016e-20)
(-0.0392335 0.199543 -1.43254e-21)
(-0.0309897 0.191109 1.40131e-19)
(-0.0206609 0.179887 -6.64851e-20)
(-0.00817061 0.165435 -9.38683e-22)
(0.0065673 0.147348 0)
(0.0236123 0.125281 -6.04753e-20)
(0.0429885 0.0989932 0)
(0.0647096 0.0684316 -5.49901e-20)
(0.0891441 0.0339755 2.09463e-19)
(0.117389 -0.00311322 1.35206e-21)
(-0.00719612 0.0334295 0)
(-0.017681 0.0863543 4.01771e-22)
(-0.0248636 0.128147 3.49536e-20)
(-0.0298495 0.159767 -3.294e-20)
(-0.0331869 0.182507 3.06636e-20)
(-0.0351245 0.197951 1.74827e-19)
(-0.0357654 0.207741 -5.48548e-20)
(-0.0351021 0.21337 -5.20641e-20)
(-0.0330431 0.216049 9.83274e-20)
(-0.0294439 0.216637 -1.40466e-19)
(-0.0241342 0.21564 4.40864e-20)
(-0.0169374 0.213261 4.2392e-20)
(-0.00768482 0.209459 0)
(0.00377681 0.204025 3.84049e-20)
(0.0175817 0.196637 0)
(0.0338453 0.18691 7.14344e-20)
(0.0526575 0.174426 -1.38728e-19)
(0.0740823 0.158779 2.92311e-20)
(0.0981653 0.139578 1.25443e-19)
(0.124927 0.116485 6.04008e-20)
(0.154335 0.0892389 0)
(0.186342 0.0577181 -1.69698e-19)
(0.220777 0.0222483 5.2755e-20)
(0.26206 -0.0159645 0)
(-0.00849891 0.0309672 0)
(-0.0206172 0.0813942 -1.11691e-19)
(-0.0278501 0.122366 -3.50882e-20)
(-0.0315766 0.154137 -6.59901e-20)
(-0.0325445 0.177511 6.21329e-20)
(-0.0311578 0.193712 -5.83404e-20)
(-0.0276735 0.204123 1.10612e-19)
(-0.0222203 0.210078 5.26326e-20)
(-0.0148112 0.212717 -1.47647e-19)
(-0.00537319 0.212896 9.41979e-20)
(0.00622284 0.21117 -1.33733e-19)
(0.020135 0.207813 2.97775e-19)
(0.0365293 0.202865 -1.60769e-19)
(0.0555658 0.196197 7.74772e-20)
(0.0773885 0.187557 2.25025e-19)
(0.102123 0.176621 -6.78844e-20)
(0.129869 0.163027 -6.52478e-20)
(0.160707 0.146409 -6.48199e-20)
(0.194682 0.126415 0)
(0.23182 0.102749 -1.24976e-19)
(0.27202 0.0751939 -1.22849e-19)
(0.315661 0.0436371 1.68645e-19)
(0.360111 0.00818347 2.19027e-19)
(0.417738 -0.0298027 -2.05496e-19)
(-0.00940068 0.0277435 0)
(-0.0228705 0.0742516 -1.50502e-19)
(-0.0303495 0.113095 7.33667e-23)
(-0.0331825 0.1439 1.32904e-19)
(-0.032157 0.167028 0)
(-0.0277553 0.183351 0)
(-0.0203485 0.19397 0)
(-0.0101889 0.200017 -5.25007e-20)
(0.00259712 0.202512 -6.90419e-22)
(0.0179915 0.202266 9.30466e-20)
(0.0360576 0.199843 -1.3476e-19)
(0.0569137 0.195565 -9.46225e-22)
(0.0807095 0.189542 0)
(0.107608 0.181718 -7.74364e-20)
(0.137773 0.171917 7.57296e-20)
(0.171362 0.159878 -2.11719e-19)
(0.208515 0.145303 2.75947e-19)
(0.24935 0.127879 7.11607e-20)
(0.293947 0.107318 6.59988e-21)
(0.342424 0.0833846 -2.42243e-19)
(0.394254 0.0558547 -1.16826e-19)
(0.451227 0.0249569 3.96185e-19)
(0.505262 -0.00990607 -2.6609e-19)
(0.581737 -0.0464167 0)
(-0.00995852 0.0242241 7.39835e-20)
(-0.0244801 0.0658566 7.5424e-20)
(-0.0323498 0.101393 -7.11324e-20)
(-0.0346206 0.130043 -1.33012e-19)
(-0.0319838 0.151861 1.25232e-19)
(-0.0249289 0.167436 -1.17349e-19)
(-0.0138923 0.177609 1.65501e-19)
(0.000780629 0.183305 -5.25072e-20)
(0.0188672 0.185397 9.79184e-20)
(0.0402657 0.184614 0)
(0.0649789 0.181494 8.88533e-20)
(0.0930932 0.176374 -1.65689e-19)
(0.124754 0.169409 1.61344e-19)
(0.160152 0.160599 -1.5153e-19)
(0.199491 0.149832 0)
(0.242982 0.136921 1.40649e-19)
(0.290819 0.121635 2.73202e-19)
(0.343156 0.103727 -2.57448e-19)
(0.399973 0.0829571 -1.24084e-19)
(0.461422 0.0592423 -1.24687e-19)
(0.525945 0.0321897 3.45562e-19)
(0.597526 0.00299242 1.10705e-19)
(0.660382 -0.0305298 -1.02235e-19)
(0.754718 -0.0635381 9.63332e-20)
(-0.0103249 0.0208558 -7.39937e-20)
(-0.0256329 0.0571629 2.27829e-19)
(-0.033908 0.0884534 -7.17884e-20)
(-0.0357564 0.113832 1.33309e-19)
(-0.0316887 0.133232 -1.25511e-19)
(-0.022148 0.14707 1.08153e-22)
(-0.00758325 0.155996 5.51154e-20)
(0.0116196 0.160752 2.06588e-19)
(0.0351909 0.162066 6.55831e-22)
(0.0629928 0.160567 -9.20145e-20)
(0.0950125 0.156739 0)
(0.131348 0.150905 -8.34566e-20)
(0.172172 0.14324 1.56648e-19)
(0.217717 0.133787 1.52168e-19)
(0.268226 0.122495 -7.13515e-20)
(0.323904 0.10923 -1.24776e-21)
(0.38484 0.0938223 -6.71001e-20)
(0.450989 0.076114 1.26231e-19)
(0.521932 0.0559291 1.24061e-19)
(0.597542 0.0334909 -1.19063e-19)
(0.674792 0.00804352 1.10268e-19)
(0.758974 -0.0177966 -1.04441e-19)
(0.828334 -0.0487724 0)
(0.932315 -0.0753402 -9.62903e-20)
(-0.010701 0.0179883 7.44848e-20)
(-0.0265626 0.0489813 -7.62031e-20)
(-0.0350135 0.0754127 7.17649e-20)
(-0.0361942 0.096626 0)
(-0.0304108 0.112639 0)
(-0.0180249 0.123831 1.16983e-19)
(0.000559319 0.130745 -1.10069e-19)
(0.0249887 0.133994 1.02672e-19)
(0.0550258 0.134184 -4.83891e-19)
(0.0905704 0.131849 -3.49492e-22)
(0.131649 0.12741 8.5829e-20)
(0.178396 0.121169 0)
(0.230999 0.113305 -1.56754e-19)
(0.289627 0.103882 2.96907e-19)
(0.354345 0.0928744 -2.12109e-19)
(0.425053 0.0802048 -3.43011e-19)
(0.501373 0.0657781 -5.34351e-21)
(0.582599 0.049538 2.43596e-19)
(0.66747 0.0313765 0)
(0.754928 0.0117463 0)
(0.841009 -0.0103823 -1.10268e-19)
(0.929636 -0.0313485 1.04442e-19)
(0.999744 -0.0583617 -3.82162e-19)
(1.09662 -0.0765616 3.57967e-19)
(-0.0112618 0.015807 0)
(-0.027393 0.0418323 0)
(-0.035398 0.0631545 -2.15257e-19)
(-0.0350696 0.0796665 6.85427e-20)
(-0.0265395 0.0916579 1.0028e-21)
(-0.010066 0.0995928 1.18089e-19)
(0.01405 0.104001 0)
(0.0455616 0.105431 -1.0264e-19)
(0.0843281 0.104409 9.65587e-20)
(0.130319 0.101399 -1.81024e-19)
(0.183576 0.0967735 -5.37731e-22)
(0.244139 0.090797 1.62698e-19)
(0.311953 0.0836262 1.88688e-21)
(0.38677 0.0753234 1.49571e-19)
(0.468039 0.0658818 -2.07624e-19)
(0.554825 0.0552472 0)
(0.645758 0.0433478 2.56396e-19)
(0.739032 0.0301307 -3.63688e-19)
(0.832383 0.0155414 1.1313e-19)
(0.923531 -0.000112242 0)
(1.00879 -0.0175573 1.00409e-19)
(1.08888 -0.0336815 3.86615e-19)
(1.1502 -0.0557579 -3.62854e-19)
(1.22168 -0.0668508 -4.0932e-19)
(-0.0120664 0.0142905 2.2568e-19)
(-0.0279739 0.0358514 -3.09654e-19)
(-0.03437 0.0521676 1.06022e-21)
(-0.0309259 0.0638885 6.85459e-20)
(-0.0176689 0.0717043 -1.26932e-19)
(0.00524996 0.0762642 -1.17675e-19)
(0.0376587 0.0781639 2.19163e-19)
(0.0794272 0.0779523 -1.29541e-21)
(0.130467 0.0761216 -1.92721e-19)
(0.190674 0.0730855 3.61645e-19)
(0.259833 0.0691614 9.70363e-22)
(0.337497 0.0645576 -1.60255e-19)
(0.42287 0.059378 0)
(0.51472 0.0536277 0)
(0.611335 0.0472298 -6.92458e-20)
(0.710532 0.0400477 -1.29157e-19)
(0.809747 0.0319274 -2.49104e-19)
(0.906141 0.0226867 2.33825e-19)
(0.996852 0.012295 -1.1319e-19)
(1.07909 0.000565862 2.08262e-19)
(1.15044 -0.0122783 -1.01527e-19)
(1.20989 -0.0255578 1.78977e-19)
(1.25267 -0.0425829 -4.20089e-19)
(1.29092 -0.0511079 8.04747e-20)
(-0.012986 0.013217 7.59468e-20)
(-0.027774 0.0307868 0)
(-0.030758 0.0424943 1.4604e-19)
(-0.0217735 0.0497948 -1.37572e-19)
(-0.000848607 0.0538293 1.27052e-19)
(0.0319244 0.0554881 0)
(0.0764287 0.055483 0)
(0.132496 0.0543991 -1.02897e-19)
(0.199813 0.0527106 7.71863e-22)
(0.277789 0.0507729 9.07557e-20)
(0.365414 0.0488123 -8.52898e-20)
(0.461153 0.0469166 1.60042e-19)
(0.562899 0.0450384 0)
(0.668015 0.0430083 2.87236e-19)
(0.773448 0.0405635 -5.4115e-19)
(0.875921 0.0373851 3.84107e-19)
(0.972167 0.033159 2.41015e-19)
(1.05917 0.027563 -2.26248e-19)
(1.13446 0.0205346 0)
(1.19617 0.0115685 0)
(1.24371 0.00177189 0)
(1.27686 -0.0111008 0)
(1.29703 -0.0230368 8.09128e-20)
(1.3085 -0.0360183 -2.81334e-19)
(-0.101512 -0.0183848 -7.66779e-21)
(-0.0908485 -0.0758736 7.72365e-21)
(-0.0776773 -0.139813 -2.42828e-22)
(-0.0628307 -0.208247 0)
(-0.0469399 -0.278576 -6.35669e-21)
(-0.030886 -0.34775 1.19676e-20)
(-0.0157832 -0.412488 -4.40556e-22)
(-0.00277904 -0.469636 -5.04159e-21)
(0.00730114 -0.516461 0)
(0.0152389 -0.550329 0)
(0.0238161 -0.567738 -2.04602e-22)
(0.0374046 -0.563705 -1.82961e-22)
(0.0614513 -0.531849 -3.07783e-21)
(0.0999719 -0.466602 2.82601e-21)
(0.153628 -0.367432 0)
(0.218813 -0.23832 0)
(0.290082 -0.0877012 2.91941e-21)
(0.363443 0.0735558 -1.20377e-22)
(0.435769 0.230649 -2.49312e-21)
(0.503087 0.364119 -1.25442e-22)
(0.560006 0.459101 0)
(0.602178 0.512079 0)
(0.629296 0.529312 0)
(0.642496 0.524643 0)
(0.637711 0.519279 0)
(0.610498 0.527803 0)
(0.569937 0.535212 4.04185e-22)
(0.541181 0.497225 -6.62313e-22)
(0.546591 0.376697 0)
(0.586833 0.181939 0)
(0.647139 -0.038027 -6.78785e-22)
(0.709855 -0.227317 6.59667e-22)
(0.760863 -0.356545 2.59218e-22)
(0.792659 -0.423685 0)
(0.809705 -0.442916 0)
(0.813922 -0.43863 2.34038e-22)
(0.795599 -0.444095 -2.27502e-22)
(0.750434 -0.459242 0)
(0.697374 -0.439165 2.64337e-22)
(0.668522 -0.334219 -3.88876e-22)
(0.676775 -0.14917 1.44242e-22)
(0.711071 0.0496763 0)
(0.75821 0.213244 -2.23412e-22)
(0.80228 0.304568 2.1724e-22)
(0.827772 0.365137 0)
(0.81527 0.397155 0)
(0.769971 0.422505 -7.02966e-23)
(0.727881 0.367731 2.20225e-22)
(0.717138 0.230855 0)
(0.741382 0.0498333 0)
(0.793462 -0.131987 -6.10729e-23)
(0.816772 -0.219377 -3.34583e-24)
(0.817882 -0.344094 -8.24584e-24)
(0.779188 -0.34589 3.08404e-23)
(0.761077 -0.356277 0)
(0.763316 -0.22566 0)
(0.786256 -0.0241396 0)
(0.778265 0.0649817 0)
(0.776363 0.345874 0)
(0.750931 0.255521 0)
(0.00989473 -0.0316052 -8.22652e-22)
(0.0248357 -0.0895321 -3.37762e-20)
(0.0426068 -0.155011 8.7342e-22)
(0.0607799 -0.224596 3.08356e-20)
(0.0785942 -0.295119 4.62965e-22)
(0.0948664 -0.363284 0)
(0.108078 -0.425537 -2.19567e-20)
(0.116424 -0.478851 4.11512e-20)
(0.118151 -0.521315 -1.91785e-20)
(0.112627 -0.551762 1.42808e-20)
(0.101438 -0.569069 -1.36766e-20)
(0.0890318 -0.57016 1.08104e-20)
(0.0828871 -0.548753 -1.04882e-20)
(0.0907759 -0.497198 -2.77572e-22)
(0.11749 -0.410534 -9.89177e-21)
(0.163018 -0.289867 9.61291e-21)
(0.222284 -0.143424 -9.75372e-21)
(0.290364 0.0164896 9.21385e-21)
(0.362552 0.175136 -8.3002e-21)
(0.433869 0.31437 1.49305e-20)
(0.498616 0.419293 -6.68748e-21)
(0.551657 0.484187 -2.88993e-22)
(0.590881 0.51317 -3.97971e-21)
(0.613942 0.520651 7.55467e-21)
(0.615212 0.528076 -3.58331e-21)
(0.593818 0.545736 2.34771e-22)
(0.564266 0.552409 4.76049e-21)
(0.552414 0.503041 1.12235e-21)
(0.574804 0.367162 -1.15328e-20)
(0.626887 0.160141 1.24428e-20)
(0.69246 -0.0657105 -6.22798e-21)
(0.754052 -0.253479 6.96934e-22)
(0.799608 -0.375363 -2.59722e-22)
(0.822947 -0.434088 4.10431e-22)
(0.830162 -0.446716 0)
(0.826733 -0.435206 0)
(0.805274 -0.431275 -8.16041e-22)
(0.757942 -0.439944 6.07683e-22)
(0.699468 -0.422701 7.30615e-22)
(0.66189 -0.329256 2.761e-22)
(0.662707 -0.15678 -1.16119e-21)
(0.69484 0.0341169 2.39911e-22)
(0.744013 0.196128 0)
(0.793107 0.292103 0)
(0.820932 0.362483 0)
(0.811054 0.404915 0)
(0.76766 0.434676 2.86456e-22)
(0.730701 0.375739 -1.52006e-22)
(0.723608 0.229755 0)
(0.74859 0.0409283 0)
(0.80137 -0.141758 0)
(0.823703 -0.222224 -9.74423e-23)
(0.826359 -0.339772 2.08777e-23)
(0.784969 -0.339592 -7.02825e-23)
(0.766929 -0.354432 0)
(0.766272 -0.228032 0)
(0.785418 -0.0259838 3.92469e-23)
(0.775973 0.0662172 9.45564e-23)
(0.772285 0.348572 0)
(0.748527 0.25725 0)
(0.144421 -0.0461122 1.28446e-21)
(0.164822 -0.103452 -7.28428e-20)
(0.185519 -0.168962 7.01524e-20)
(0.206699 -0.23834 -6.55848e-20)
(0.226299 -0.307914 -4.66021e-22)
(0.242863 -0.374136 0)
(0.254858 -0.433081 -4.72129e-20)
(0.260292 -0.481426 4.62048e-20)
(0.257036 -0.517337 2.81712e-22)
(0.243413 -0.540885 4.67388e-22)
(0.218951 -0.553442 3.8032e-22)
(0.186032 -0.555362 3.41483e-22)
(0.151535 -0.542502 -1.72384e-20)
(0.12629 -0.506797 1.70333e-20)
(0.119801 -0.438805 0)
(0.137555 -0.334232 4.09281e-22)
(0.177549 -0.198075 -1.54501e-20)
(0.23461 -0.0427506 1.52792e-20)
(0.302473 0.114951 0)
(0.374579 0.258327 0)
(0.444485 0.372078 -9.87701e-21)
(0.506276 0.448711 1.80133e-20)
(0.555478 0.49078 -1.52665e-20)
(0.586642 0.512385 2.18473e-22)
(0.594047 0.533191 1.41448e-20)
(0.580681 0.558634 -1.58106e-20)
(0.564727 0.563204 1.7429e-20)
(0.57054 0.503408 1.52784e-21)
(0.60913 0.355613 -1.14675e-20)
(0.67198 0.140145 0)
(0.741692 -0.0887686 0)
(0.800863 -0.273981 3.77894e-21)
(0.83989 -0.388803 -5.06615e-21)
(0.85465 -0.439858 1.14442e-23)
(0.852216 -0.447206 2.21838e-21)
(0.841027 -0.43027 -2.15594e-21)
(0.816672 -0.418012 0)
(0.768248 -0.42008 1.8631e-22)
(0.705626 -0.40525 1.79699e-21)
(0.659795 -0.32365 -3.73509e-21)
(0.652803 -0.164903 1.744e-21)
(0.682276 0.0168708 1.70548e-22)
(0.732781 0.176914 -1.80945e-21)
(0.786108 0.277938 1.40883e-21)
(0.815821 0.358704 2.82863e-22)
(0.808726 0.41175 2.75e-22)
(0.767919 0.446021 -2.87198e-22)
(0.736505 0.383473 0)
(0.733193 0.22925 0)
(0.758489 0.0331645 -1.50726e-21)
(0.811234 -0.150872 6.88331e-22)
(0.832239 -0.224687 -5.05628e-22)
(0.836251 -0.335082 5.58907e-22)
(0.791851 -0.33304 5.05661e-22)
(0.773589 -0.352389 -1.28382e-22)
(0.770082 -0.230273 1.63223e-22)
(0.785828 -0.0274724 -1.31961e-22)
(0.774928 0.0675115 2.75084e-23)
(0.769253 0.351175 0)
(0.747051 0.25899 0)
(0.2921 -0.0593032 -1.55704e-19)
(0.317246 -0.117517 1.98276e-21)
(0.340854 -0.182476 1.46216e-19)
(0.364355 -0.250461 -1.06248e-21)
(0.385229 -0.318166 0)
(0.401589 -0.381943 0)
(0.411965 -0.437424 -9.69631e-20)
(0.41468 -0.480734 1.12721e-20)
(0.407961 -0.509601 1.13501e-19)
(0.390065 -0.524221 -5.97981e-21)
(0.359389 -0.527487 -2.68539e-20)
(0.315555 -0.523404 -1.67985e-20)
(0.261749 -0.512719 1.68734e-20)
(0.207657 -0.489784 0)
(0.166138 -0.44322 -1.14037e-20)
(0.1493 -0.362394 1.03872e-20)
(0.1616 -0.245281 0)
(0.200076 -0.101246 0)
(0.258032 0.0521832 1.00428e-20)
(0.327099 0.197513 -8.61716e-22)
(0.398924 0.318631 -8.35303e-21)
(0.466418 0.406664 -7.11617e-21)
(0.522632 0.462671 7.03731e-21)
(0.560064 0.499274 -6.85364e-21)
(0.574021 0.532938 -5.82653e-22)
(0.570773 0.564534 7.04729e-21)
(0.570226 0.566477 1.11883e-21)
(0.593837 0.498619 -1.21024e-23)
(0.647448 0.342888 0)
(0.719978 0.122961 1.45183e-20)
(0.793222 -0.106908 -1.49927e-20)
(0.849394 -0.289153 7.40144e-22)
(0.8812 -0.397584 0)
(0.887393 -0.441664 -4.26801e-22)
(0.875705 -0.444677 4.42597e-21)
(0.856647 -0.424089 -7.22626e-21)
(0.829326 -0.404895 1.55045e-22)
(0.780791 -0.400083 1.40714e-22)
(0.715643 -0.386615 2.19751e-21)
(0.662525 -0.316823 3.88785e-22)
(0.64749 -0.172956 -3.11777e-21)
(0.673629 -0.00155288 2.6165e-21)
(0.724531 0.155923 5.3178e-23)
(0.781193 0.262184 1.15378e-21)
(0.812379 0.35367 -1.40558e-21)
(0.808233 0.417374 -1.9957e-21)
(0.77065 0.456317 5.24722e-22)
(0.745097 0.39092 1.61204e-21)
(0.745737 0.229548 -3.27146e-21)
(0.770962 0.0267755 2.45878e-21)
(0.82293 -0.159215 -5.13576e-22)
(0.84225 -0.22685 7.79241e-22)
(0.847437 -0.330078 5.09109e-22)
(0.799742 -0.326161 -7.44812e-22)
(0.780899 -0.350056 2.03775e-23)
(0.774597 -0.232399 -1.09363e-22)
(0.787414 -0.028652 0)
(0.77508 0.0688654 -6.34102e-23)
(0.76724 0.35371 6.44811e-23)
(0.74651 0.260755 0)
(0.447761 -0.0723133 1.5893e-19)
(0.475738 -0.130698 -3.10522e-19)
(0.502196 -0.194345 1.49425e-19)
(0.527383 -0.259567 1.3775e-19)
(0.548468 -0.324107 -2.6083e-19)
(0.563561 -0.384514 1.11324e-20)
(0.571262 -0.436145 1.09843e-19)
(0.569997 -0.474926 8.17278e-20)
(0.558578 -0.498355 -8.0011e-20)
(0.536335 -0.505998 0)
(0.502449 -0.500147 -4.06492e-20)
(0.455637 -0.486065 7.01994e-20)
(0.395114 -0.469173 -2.98796e-20)
(0.324926 -0.45002 0)
(0.255689 -0.420171 0)
(0.203283 -0.365652 2.84801e-22)
(0.180488 -0.275847 -1.40543e-20)
(0.191274 -0.152393 1.36544e-20)
(0.231604 -0.00913425 0)
(0.292011 0.134055 1.27788e-20)
(0.361601 0.260385 -2.34871e-20)
(0.431084 0.358974 2.17956e-20)
(0.491194 0.428892 -2.16957e-20)
(0.533512 0.480284 -1.23657e-21)
(0.554804 0.525657 2.53908e-20)
(0.563523 0.56212 -1.36038e-20)
(0.579524 0.561979 -5.64942e-22)
(0.620343 0.48926 -1.19206e-20)
(0.687578 0.329942 -2.2634e-21)
(0.768786 0.108909 1.41025e-20)
(0.845319 -0.120012 8.99708e-22)
(0.898541 -0.298651 -1.12213e-20)
(0.922745 -0.40135 1.93648e-20)
(0.920441 -0.439433 -9.1021e-21)
(0.900173 -0.439082 0)
(0.873443 -0.416561 -3.71997e-21)
(0.843047 -0.392165 3.52282e-21)
(0.79517 -0.38065 -1.9591e-21)
(0.72912 -0.367374 2.45264e-21)
(0.670092 -0.308696 -2.61295e-22)
(0.647055 -0.180579 0)
(0.66901 -0.0208032 -2.85675e-22)
(0.719164 0.133445 8.29629e-22)
(0.778202 0.244861 0)
(0.810483 0.347167 2.62574e-21)
(0.809438 0.421463 -9.98238e-22)
(0.775653 0.465358 6.22515e-22)
(0.756143 0.398063 8.11074e-22)
(0.760898 0.230782 0)
(0.785824 0.0219153 0)
(0.836344 -0.166629 -1.99133e-21)
(0.853586 -0.228687 2.73735e-21)
(0.859789 -0.324713 -1.29525e-21)
(0.808579 -0.318867 3.12367e-22)
(0.788731 -0.347375 4.16139e-22)
(0.779658 -0.234447 1.09466e-22)
(0.790077 -0.0295871 -9.43725e-23)
(0.776366 0.0702806 0)
(0.766219 0.356198 -1.06355e-22)
(0.74691 0.262555 -9.415e-24)
(0.609584 -0.086966 1.59011e-19)
(0.637794 -0.143471 -1.58337e-19)
(0.665955 -0.203788 1.18012e-21)
(0.691571 -0.264607 -1.08379e-21)
(0.711116 -0.324622 1.03014e-21)
(0.72316 -0.380427 -9.29153e-22)
(0.726525 -0.427386 1.58915e-21)
(0.719752 -0.4617 0)
(0.702127 -0.480979 -1.11671e-21)
(0.673934 -0.484462 8.87959e-22)
(0.635807 -0.473342 6.7841e-22)
(0.587874 -0.451446 -5.28457e-22)
(0.528645 -0.425043 0)
(0.456924 -0.400121 0)
(0.375975 -0.37577 1.36408e-22)
(0.297864 -0.341259 0)
(0.239845 -0.281024 -5.61226e-23)
(0.215395 -0.186449 0)
(0.227832 -0.0628091 -6.86217e-21)
(0.270796 0.0718931 1.34474e-20)
(0.332123 0.199613 -1.36425e-20)
(0.399091 0.306629 6.79083e-21)
(0.460274 0.389386 8.24257e-21)
(0.506741 0.454511 -8.00437e-21)
(0.536333 0.5102 -1.23819e-20)
(0.558438 0.550795 1.21096e-20)
(0.591357 0.549884 0)
(0.64818 0.47594 6.71276e-22)
(0.727336 0.317366 0)
(0.816462 0.0977761 0)
(0.896641 -0.128216 2.60666e-20)
(0.947291 -0.302565 -2.70867e-20)
(0.963839 -0.40025 1.22187e-21)
(0.953195 -0.433532 8.89864e-22)
(0.925194 -0.430682 -6.22121e-22)
(0.891209 -0.407687 -3.13553e-21)
(0.85753 -0.379954 3.04469e-21)
(0.810842 -0.36225 -2.19469e-21)
(0.74544 -0.347927 1.87001e-21)
(0.682129 -0.299226 4.71822e-22)
(0.651425 -0.187291 -2.08865e-21)
(0.668405 -0.040466 -1.39306e-22)
(0.716545 0.109777 1.41928e-21)
(0.776917 0.225959 0)
(0.809958 0.338946 -9.41714e-22)
(0.812129 0.423725 1.83562e-21)
(0.78261 0.472948 -2.30167e-21)
(0.769212 0.404883 -8.16267e-22)
(0.778264 0.232929 0)
(0.802826 0.0187362 7.71236e-22)
(0.851317 -0.172946 -1.71086e-21)
(0.866075 -0.230182 1.56669e-23)
(0.873137 -0.318986 -3.86544e-22)
(0.818312 -0.311078 3.78358e-22)
(0.796987 -0.344254 -3.88903e-22)
(0.785104 -0.236453 0)
(0.7937 -0.0303574 9.4416e-23)
(0.778715 0.0717537 0)
(0.766157 0.358654 0)
(0.748248 0.264392 1.534e-23)
(0.777482 -0.101602 -1.56426e-19)
(0.802316 -0.154317 1.54728e-19)
(0.828833 -0.209068 -1.11589e-21)