/*--------------------------------*- C++ -*----------------------------------*\
| =========                 |                                                 |
| \\      /  F ield         | OpenFOAM: The Open Source CFD Toolbox           |
|  \\    /   O peration     | Version:  2512                                  |
|   \\  /    A nd           | Website:  www.openfoam.com                      |
|    \\/     M anipulation  |                                                 |
\*---------------------------------------------------------------------------*/
FoamFile
{
    version     2.0;
    format      ascii;
    arch        "LSB;label=32;scalar=64";
    class       surfaceScalarField;
    location    "40.25";
    object      phi;
}
// * * * * * * * * * * * * * * * * * * * * * * * * * * * * * * * * * * * * * //

dimensions      [0 3 -1 0 0 0 0];

oriented        oriented;

internalField   nonuniform List<scalar> 
26232
(
5.86702e-05
0.000963961
-0.00102263
0.00037843
0.00190857
-0.00222833
0.00109156
0.00201296
-0.00272609
0.00232603
0.0013301
-0.00256457
0.00421169
-0.000106097
-0.00177957
0.00688168
-0.00227638
-0.000393607
0.0104673
-0.00516799
0.00158239
0.0150901
-0.0087684
0.00414553
0.0208499
-0.0130545
0.00729472
0.02781
-0.0179839
0.0110238
0.0359848
-0.0234895
0.0153148
0.0453287
-0.0294772
0.0201333
0.0557323
-0.0358282
0.0254246
0.0670246
-0.0424063
0.031114
0.0789818
-0.0490658
0.0371086
0.0913426
-0.055663
0.0433021
0.103828
-0.0620656
0.0495805
0.116161
-0.0681631
0.0558302
0.128089
-0.0738702
0.0619418
0.139406
-0.0791453
0.0678286
0.149946
-0.0839447
0.0734044
0.159628
-0.0883563
0.0786747
0.168323
-0.0922111
0.0835156
-0.0960217
0.0885719
0.175773
9.5162e-05
0.0008688
0.000557496
0.00144624
0.00154966
0.00102079
0.00322727
-0.000347506
0.00574429
-0.00262313
0.00924809
-0.00578017
0.0138696
-0.00978948
0.0197066
-0.0146054
0.026806
-0.0201539
0.0351479
-0.0263258
0.0446356
-0.0329773
0.0550956
-0.0399372
0.0662867
-0.0470193
0.077919
-0.0540386
0.0896793
-0.0608261
0.101259
-0.067243
0.112383
-0.0731896
0.122831
-0.0786111
0.132459
-0.0834974
0.141195
-0.0878814
0.149066
-0.0918161
0.156135
-0.0954251
0.162592
-0.0986683
-0.102038
0.168608
0.000149206
0.000719594
0.000800757
0.000794686
0.0021456
-0.000324055
0.00436335
-0.00256525
0.00762186
-0.00588163
0.0120644
-0.0102227
0.0177898
-0.0155148
0.0248292
-0.0216448
0.033128
-0.0284527
0.0425369
-0.0357347
0.0528174
-0.0432579
0.063662
-0.0507817
0.0747248
-0.0580821
0.0856587
-0.0649724
0.0961516
-0.0713191
0.105958
-0.0770492
0.114919
-0.0821506
0.122972
-0.0866645
0.130147
-0.0906725
0.136548
-0.0942826
0.142337
-0.097605
0.14768
-0.100767
0.152796
-0.103784
-0.107004
0.157761
0.000223771
0.000495822
0.00111596
-9.75043e-05
0.00288877
-0.00209687
0.00573438
-0.00541087
0.00981411
-0.00996136
0.015234
-0.0156426
0.0220164
-0.0222972
0.0300775
-0.0297059
0.0392199
-0.037595
0.0491453
-0.0456601
0.0594873
-0.0535998
0.0698562
-0.0611506
0.0798877
-0.0681137
0.0892857
-0.0743704
0.0978517
-0.0798851
0.105498
-0.0846955
0.112242
-0.0888951
0.118189
-0.092611
0.123498
-0.095981
0.12835
-0.0991354
0.132926
-0.10218
0.137367
-0.105209
0.141814
-0.108231
-0.11147
0.14628
0.000319368
0.000176454
0.00150137
-0.0012795
0.00376636
-0.00436186
0.00729851
-0.00894301
0.01222
-0.0148829
0.0185558
-0.0219784
0.0262043
-0.0299457
0.0349296
-0.0384312
0.0443814
-0.0470469
0.0541417
-0.0554204
0.0637851
-0.0632432
0.0729389
-0.0703045
0.0813303
-0.076505
0.0888101
-0.0818503
0.0953544
-0.0864293
0.101043
-0.0903842
0.106027
-0.0938789
0.110488
-0.0970719
0.114605
-0.100099
0.118533
-0.103063
0.122387
-0.106035
0.126243
-0.109065
0.130164
-0.112152
-0.115439
0.134133
0.00043441
-0.000257956
0.00194657
-0.00279166
0.00474474
-0.00716004
0.00897454
-0.0131728
0.0146771
-0.0205854
0.0217498
-0.0290511
0.0299328
-0.0381287
0.0388337
-0.0473321
0.0479878
-0.0562011
0.0569361
-0.0643687
0.0652973
-0.0716044
0.0728176
-0.0778248
0.0793883
-0.0830757
0.0850335
-0.0874955
0.089875
-0.0912708
0.094088
-0.0945972
0.0978588
-0.0976497
0.101354
-0.100567
0.104705
-0.10345
0.108004
-0.106362
0.111312
-0.109342
0.114661
-0.112414
0.118086
-0.115576
-0.118908
0.121554
0.000565514
-0.00082347
0.00243326
-0.0046594
0.00577151
-0.0104983
0.0106487
-0.01805
0.0169805
-0.0269172
0.0245024
-0.036573
0.0327928
-0.0464192
0.0413445
-0.0558838
0.0496604
-0.0645169
0.0573411
-0.0720493
0.0641387
-0.078402
0.0699692
-0.0836553
0.0748873
-0.0879938
0.0790396
-0.0916478
0.0826131
-0.0948443
0.085792
-0.0977761
0.0887314
-0.100589
0.0915466
-0.103382
0.0943157
-0.106219
0.0970877
-0.109134
0.0998918
-0.112146
0.102744
-0.115266
0.105658
-0.118491
-0.121858
0.108608
0.000707529
-0.001531
0.00293586
-0.00688773
0.00677896
-0.0143414
0.0121865
-0.0234576
0.018913
-0.0336436
0.0265254
-0.0441855
0.0344787
-0.0543724
0.0422297
-0.0636348
0.0493444
-0.0716317
0.0555612
-0.0782661
0.0608008
-0.0836416
0.0651317
-0.0879863
0.068714
-0.0915761
0.0717407
-0.0946745
0.0743946
-0.0974981
0.0768232
-0.100205
0.079133
-0.102899
0.0813935
-0.105643
0.0836474
-0.108473
0.0859195
-0.111406
0.0882235
-0.11445
0.0905663
-0.117609
0.0929544
-0.120879
-0.12427
0.0953666
0.000853317
-0.00238432
0.00342252
-0.00945693
0.00768982
-0.0186087
0.0134498
-0.0292175
0.0202821
-0.040476
0.0276144
-0.0515178
0.03485
-0.061608
0.0414992
-0.0702841
0.0472616
-0.077394
0.0520399
-0.0830445
0.0559007
-0.0875023
0.0590084
-0.0910939
0.0615606
-0.0941282
0.063741
-0.0968549
0.0656953
-0.0994524
0.0675259
-0.102035
0.0692984
-0.104671
0.0710515
-0.107396
0.0728076
-0.110229
0.0745789
-0.113177
0.076372
-0.116244
0.0781901
-0.119427
0.080035
-0.122724
-0.126128
0.0818925
0.000993813
-0.00337813
0.00385736
-0.0123205
0.00842609
-0.0231774
0.0143181
-0.0351096
0.0209542
-0.0471121
0.027683
-0.0582465
0.0339386
-0.0678636
0.0393524
-0.0756979
0.0437829
-0.0818244
0.0472758
-0.0865374
0.0499916
-0.0902181
0.052131
-0.0932334
0.0538824
-0.0958796
0.0553944
-0.0983669
0.0567702
-0.100828
0.0580745
-0.10334
0.059345
-0.105942
0.0606027
-0.108654
0.0618592
-0.111485
0.063121
-0.114439
0.0643915
-0.117514
0.065672
-0.120707
0.0669615
-0.124013
-0.127418
0.068252
0.00111918
-0.00449731
0.00420546
-0.0154068
0.00892106
-0.027893
0.0147083
-0.0408968
0.0208738
-0.0532776
0.0267617
-0.0641344
0.0319047
-0.0730066
0.0360847
-0.0798779
0.0393037
-0.0850434
0.0417055
-0.0889392
0.0434912
-0.0920039
0.0448565
-0.0945986
0.0459574
-0.0969806
0.0469026
-0.0993122
0.0477597
-0.101685
0.0485673
-0.104147
0.0493462
-0.106721
0.0501081
-0.109416
0.0508593
-0.112236
0.0516038
-0.115183
0.0523433
-0.118253
0.0530778
-0.121442
0.0538045
-0.12474
-0.128133
0.0545193
0.00122255
-0.00571986
0.00444052
-0.0186247
0.00913048
-0.032583
0.0145856
-0.0463519
0.0200626
-0.0587546
0.0249701
-0.0690419
0.0289769
-0.0770134
0.0320093
-0.0829103
0.0341752
-0.0872093
0.0356685
-0.0904325
0.0366925
-0.0930278
0.0374151
-0.0953212
0.0379552
-0.0975206
0.0383867
-0.0997437
0.0387517
-0.10205
0.0390723
-0.104468
0.0393603
-0.107009
0.0396221
-0.109678
0.0398621
-0.112476
0.0400828
-0.115404
0.0402854
-0.118456
0.0404696
-0.121626
0.0406323
-0.124903
0.0407728
-0.128274
-0.00020522
0.000274225
-6.90056e-05
-0.000716643
0.000606275
-9.48516e-05
-0.0014688
0.000792602
-4.04423e-05
-0.00241169
0.000872377
7.05093e-05
-0.00350633
0.000875578
0.00021906
-0.00472264
0.000824217
0.000392092
-0.00603768
0.000732873
0.000582169
-0.00743407
0.00060964
0.000786754
-0.00889859
0.000457458
0.00100706
-0.0104209
0.000275579
0.00124673
-0.0119924
6.08793e-05
0.00151062
-0.0136056
-0.000190548
0.00180374
-0.0152528
-0.000483476
0.0021307
-0.016926
-0.000821891
0.00249512
-0.0186165
-0.00120901
0.00289943
-0.0203145
-0.00164661
0.00334467
-0.0220105
-0.00213435
0.00383029
-0.0236952
-0.00266923
0.00435397
-0.0253622
-0.00324445
0.00491148
-0.0270102
-0.00384875
0.00549667
-0.0286454
-0.00446635
0.00610162
-0.0302855
-0.00507657
0.00671669
-0.0319654
-0.00565042
0.00733027
-0.00615505
-0.0337415
0.00793111
-0.000198813
0.000473038
-0.00069627
0.00110373
-0.00142948
0.00152581
-0.00234957
0.00179247
-0.00341792
0.00194392
-0.00460432
0.00201062
-0.00588553
0.00201408
-0.00724385
0.00196796
-0.00866582
0.00187943
-0.010141
0.00175078
-0.011661
0.00158091
-0.0132182
0.00136657
-0.014805
0.00110334
-0.0164133
0.00078646
-0.0180338
0.000411459
-0.0196553
-2.50955e-05
-0.021266
-0.000523662
-0.022852
-0.00108325
-0.0244007
-0.00169574
-0.025902
-0.00234746
-0.0273526
-0.00301576
-0.0287602
-0.00366893
-0.0301508
-0.00425983
-0.00471884
-0.031587
-0.000181276
0.000654314
-0.000638406
0.00156086
-0.00131442
0.00220182
-0.00216333
0.00264138
-0.00314755
0.00292815
-0.00423677
0.00309984
-0.0054069
0.00318421
-0.00663896
0.00320002
-0.00791802
0.00315849
-0.00923212
0.00306488
-0.0105712
0.00292001
-0.0119262
0.00272157
-0.0132881
0.0024652
-0.014647
0.00214534
-0.0159915
0.00175602
-0.0173083
0.00129164
-0.0185801
0.000748161
-0.0197857
0.000122352
-0.020905
-0.000576476
-0.0219113
-0.0013411
-0.0227824
-0.00214464
-0.0235048
-0.00294656
-0.0240794
-0.00368524
-0.0042284
-0.0245698
-0.000154559
0.000808874
-0.000548844
0.00195515
-0.00113404
0.00278702
-0.00186813
0.00337547
-0.00271492
0.00377494
-0.00364371
0.00402863
-0.00462882
0.00416931
-0.00564883
0.00422002
-0.00668578
0.00419544
-0.00772429
0.0041034
-0.00875064
0.00394636
-0.00975189
0.00372282
-0.010715
0.00342835
-0.0116263
0.00305657
-0.0124701
0.00259985
-0.0132286
0.0020501
-0.0138799
0.00139948
-0.014399
0.000641463
-0.0147507
-0.000224767
-0.0148984
-0.00119337
-0.0147962
-0.00224689
-0.0144042
-0.00333855
-0.0136986
-0.00439079
-0.00530275
-0.0126243
-0.00012183
0.000930703
-0.000437096
0.00227041
-0.000905679
0.0032556
-0.00148959
0.00395939
-0.00215379
0.00443914
-0.00286663
0.00474147
-0.00359982
0.00490251
-0.00432812
0.00494832
-0.00502867
0.004896
-0.00568036
0.00475508
-0.00626299
0.00452899
-0.00675657
0.00421639
-0.00714056
0.00381235
-0.00739328
0.00330929
-0.00749126
0.00269782
-0.00740862
0.00196746
-0.00711703
0.00110789
-0.0065799
0.000104333
-0.00576569
-0.00103898
-0.0046229
-0.00233616
-0.00309328
-0.00377652
-0.00109848
-0.00533334
0.00144245
-0.00693172
-0.0082886
0.0044283
-8.694e-05
0.00101764
-0.000314829
0.0024983
-0.000650746
0.00359152
-0.00105964
0.00436828
-0.00150665
0.00488615
-0.00195815
0.00519297
-0.002382
0.00532635
-0.00274742
0.00531375
-0.00302459
0.00517316
-0.00318396
0.00491445
-0.00319565
0.00454069
-0.00302875
0.00404949
-0.00265073
0.00343432
-0.00202701
0.00268558
-0.00112076
0.00179157
0.000107318
0.000739379
0.00169957
-0.000484364
0.00369491
-0.001891
0.00614599
-0.00349006
0.00909868
-0.00528885
0.0126096
-0.00728742
0.0167455
-0.00946923
0.0215637
-0.01175
-0.0141242
0.0273993
-5.37611e-05
0.0010714
-0.000193807
0.00263835
-0.000390928
0.00378864
-0.000610682
0.00458803
-0.000816647
0.00509212
-0.000971584
0.0053479
-0.00103778
0.00539255
-0.00097697
0.00525294
-0.000749894
0.00494609
-0.000315732
0.00448029
0.00036847
0.00385648
0.00134832
0.00306964
0.00267242
0.00211022
0.00439245
0.000965551
0.00656291
-0.000378896
0.00924029
-0.001938
0.0124818
-0.00372583
0.0163445
-0.0057537
0.0208835
-0.00802908
0.0261484
-0.0105538
0.0321808
-0.0133198
0.0390452
-0.0163336
0.0467104
-0.0194152
-0.0230896
0.0556758
-2.54121e-05
0.00109682
-8.3472e-05
0.00269641
-0.000143452
0.00384862
-0.000168193
0.00461277
-0.000117004
0.00504093
5.33323e-05
0.00517757
0.000388423
0.00505746
0.000936704
0.00470466
0.00174975
0.00413304
0.00288277
0.00334727
0.00439497
0.00234428
0.0063496
0.00111501
0.00881359
-0.000353767
0.0118568
-0.00207763
0.0155504
-0.00407252
0.0199652
-0.00635284
0.0251688
-0.0089294
0.0312225
-0.0118074
0.0381779
-0.0149845
0.0460749
-0.0184508
0.0549249
-0.0221698
0.0647778
-0.0261865
0.0754489
-0.0300863
-0.0351729
0.0875321
-3.53698e-06
0.00110035
1.17936e-05
0.00268108
8.37962e-05
0.00377662
0.000257147
0.00443942
0.000580358
0.00471772
0.00110589
0.00465203
0.0018907
0.00427265
0.00299665
0.0035987
0.00449099
0.00263871
0.00644631
0.00139195
0.00894004
-0.000149448
0.0120535
-0.0019984
0.0158695
-0.00416984
0.0204704
-0.00667848
0.0259338
-0.00953591
0.032329
-0.0127481
0.0397126
-0.016313
0.0481241
-0.0202189
0.0575818
-0.0244422
0.0680822
-0.0289511
0.0795848
-0.0336724
0.0920791
-0.0386808
0.105328
-0.0433353
-0.0496204
0.119776
1.24087e-05
0.00108794
9.35707e-05
0.00259992
0.000295954
0.00357423
0.000676037
0.00405934
0.00129462
0.00409914
0.0022178
0.00372885
0.00351798
0.00297248
0.00527429
0.00184239
0.00757237
0.00034063
0.0105031
-0.0015388
0.0141601
-0.00380646
0.0186361
-0.00647435
0.0240182
-0.00955192
0.0303823
-0.0130427
0.0377875
-0.016941
0.0462696
-0.0212302
0.0558369
-0.0258804
0.0664667
-0.0308487
0.0781041
-0.0360796
0.0906611
-0.0415081
0.104026
-0.0470371
0.118053
-0.0527083
0.132585
-0.0578672
-0.0645257
0.14749
2.52274e-05
0.00106272
0.000172262
0.00245288
0.000513687
0.00323281
0.00112344
0.00344958
0.00207965
0.00314293
0.00346677
0.00234172
0.00537657
0.00106268
0.00790762
-0.000688663
0.0111633
-0.00291505
0.0152471
-0.00562258
0.0202571
-0.00881644
0.0262783
-0.0124956
0.0333749
-0.0166485
0.041582
-0.0212497
0.050899
-0.026258
0.0612852
-0.0316164
0.072658
-0.0372532
0.0848951
-0.0430858
0.0978394
-0.0490239
0.111308
-0.0549763
0.125116
-0.0608453
0.139021
-0.0666138
0.153023
-0.0718685
-0.0778916
0.166389
4.00857e-05
0.000264635
0.000771358
0.00165637
0.00301973
0.00496785
0.00761292
0.0110698
0.0154495
0.0208506
0.027349
0.0349866
0.0437627
0.053627
0.0644776
0.0761633
0.0884906
0.101235
0.114153
0.127005
0.139564
0.151625
0.163272
0.173953
-0.0346157
-0.0107113
0.0115856
-0.0354627
-0.0116156
0.0124625
-0.0362695
-0.0123436
0.0131504
-0.0370502
-0.0127855
0.0135662
-0.0378116
-0.0128548
0.0136161
-0.0385558
-0.0124494
0.0131935
-0.0392829
-0.0114542
0.0121814
-0.0399881
-0.00975233
0.0104575
-0.0406592
-0.00722705
0.00789822
-0.0412719
-0.00376913
0.00438182
-0.0418174
0.000712061
-0.000166541
-0.0423181
0.00622717
-0.00572655
-0.0427097
0.0127741
-0.0123824
-0.0429591
0.0202601
-0.0200107
-0.0430289
0.0285014
-0.0284317
-0.0428678
0.0371946
-0.0373556
-0.0423986
0.0458996
-0.0463688
-0.0415046
0.05403
-0.054924
-0.0400209
0.0608438
-0.0623275
-0.037732
0.0654425
-0.0677314
-0.0343959
0.0668457
-0.0701818
-0.0297524
0.0640348
-0.0686783
-0.0237093
0.0563451
-0.0623882
-0.0162794
0.0433136
-0.0507435
-0.00749536
0.0249891
-0.0337731
0.00218024
0.0026651
-0.0123407
0.0122054
-0.0218572
0.011832
0.0220924
-0.0465923
0.0367052
0.0310581
-0.0685496
0.0595839
0.0383115
-0.0854259
0.0781725
0.043338
-0.0960984
0.0910719
0.046102
-0.100715
0.0979512
0.047478
-0.0999201
0.0985441
0.0491645
-0.0938204
0.0921339
0.0529507
-0.0820197
0.0782335
0.0597534
-0.0642087
0.057406
0.0691907
-0.0418481
0.0324107
0.0799664
-0.0176101
0.00683449
0.0906202
0.00502455
-0.0156784
0.100053
0.0237445
-0.0331776
0.107701
0.0369836
-0.0446312
0.113505
0.0449584
-0.0507622
0.117826
0.0477217
-0.0520428
0.12125
0.0463486
-0.0497725
0.12443
0.0409329
-0.0441127
0.127794
0.0328168
-0.0361809
0.131518
0.0223863
-0.0261109
0.135412
0.0116616
-0.0155557
0.13925
0.00119046
-0.00502844
0.142685
-0.00715797
0.00372362
0.145675
-0.0134978
0.0105077
0.148127
-0.016848
0.0143955
0.150306
-0.0178336
0.015655
0.152256
-0.0161367
0.014187
0.154227
-0.0124026
0.0104312
0.156147
-0.00712434
0.00520423
0.158083
-0.000996987
-0.000939305
0.15984
0.00518111
-0.00693772
0.161521
0.0102407
-0.0119216
0.0160094
-0.0172772
-0.0325292
-0.00976916
-0.0334438
-0.0107009
-0.0342976
-0.0114898
-0.0351068
-0.0119762
-0.0358773
-0.0120843
-0.0366049
-0.0117217
-0.0372877
-0.0107714
-0.0379156
-0.00912441
-0.0384694
-0.00667326
-0.0389046
-0.0033339
-0.0392327
0.0010401
-0.0394316
0.00642611
-0.0394208
0.0127632
-0.0391339
0.0199732
-0.0385056
0.0278731
-0.0374571
0.0361462
-0.035885
0.0443274
-0.033655
0.0518
-0.0306091
0.0577979
-0.0265812
0.0614146
-0.0214552
0.0617197
-0.0150771
0.0576567
-0.0075015
0.0487695
0.0011175
0.0346946
0.0103268
0.0157798
0.0200372
-0.00704536
0.0300229
-0.0318428
0.0397089
-0.0562783
0.0484548
-0.0772955
0.0555354
-0.0925065
0.0603356
-0.100899
0.0625226
-0.102902
0.0624447
-0.0998421
0.0613794
-0.0927552
0.0612379
-0.0818783
0.0636572
-0.066628
0.0691311
-0.047322
0.0769423
-0.0254213
0.0857403
-0.00377342
0.0942953
0.0151895
0.101824
0.0294544
0.108098
0.0386844
0.11336
0.0424602
0.118075
0.0416339
0.122726
0.0362817
0.127528
0.0280148
0.132462
0.0174526
0.137212
0.00691085
0.141531
-0.00312859
0.145105
-0.0107318
0.147966
-0.0163589
0.150083
-0.0189645
0.151794
-0.0195453
0.153202
-0.0175442
0.154641
-0.0138417
0.15609
-0.00857326
0.157673
-0.00258028
0.159207
0.00364762
0.160777
0.00867099
0.0147261
-0.0255104
-0.00882857
-0.0264433
-0.00976804
-0.0272875
-0.0106456
-0.0280565
-0.0112073
-0.0287549
-0.0113858
-0.0293669
-0.0111097
-0.0298875
-0.0102509
-0.0303031
-0.00870875
-0.0305909
-0.0063855
-0.0307031
-0.00322169
-0.0306207
0.000957647
-0.0303613
0.00616674
-0.0297933
0.0121952
-0.0288219
0.0190019
-0.0273691
0.0264203
-0.0253497
0.0341268
-0.0226658
0.0416435
-0.0192033
0.0483374
-0.0148343
0.0534289
-0.00944243
0.0560227
-0.00296678
0.055244
0.00425005
0.0504399
0.0122532
0.0407663
0.0208507
0.0260971
0.0299972
0.00663324
0.0392632
-0.0163113
0.0486128
-0.0411925
0.0576158
-0.0652812
0.0657297
-0.0854095
0.0723514
-0.0991282
0.0769689
-0.105516
0.0792102
-0.105144
0.0790132
-0.0996451
0.0769577
-0.0906997
0.0744626
-0.0793832
0.0733472
-0.0655126
0.0748822
-0.0488569
0.0791965
-0.0297356
0.0854502
-0.0100272
0.0924922
0.00814747
0.0994712
0.0224755
0.105974
0.032182
0.112043
0.0363907
0.117917
0.03576
0.123825
0.0303736
0.129746
0.0220943
0.135498
0.0117006
0.140711
0.00169695
0.145169
-0.00758592
0.14863
-0.0141935
0.151204
-0.0189323
0.152908
-0.0206689
0.154122
-0.0207594
0.154977
-0.0183991
0.15586
-0.014724
0.156795
-0.00950901
0.157959
-0.00374344
0.159198
0.0024082
0.160578
0.00729056
0.0134821
-0.0136107
-0.0078422
-0.0145994
-0.00877933
-0.0154963
-0.00974869
-0.0162763
-0.0104273
-0.016959
-0.0107031
-0.0174909
-0.0105778
-0.0178643
-0.00987754
-0.0180572
-0.00851578
-0.0180479
-0.00639482
-0.017813
-0.00345664
-0.0172378
0.00038248
-0.0164491
0.00537804
-0.0152852
0.0110313
-0.0136148
0.0173315
-0.0113668
0.0241722
-0.008461
0.031221
-0.00481783
0.0380003
-0.000374476
0.0438941
0.00490761
0.0481468
0.0109965
0.0499338
0.017843
0.0483976
0.0253835
0.0428994
0.0334146
0.0327352
0.0417308
0.017781
0.0501289
-0.00176487
0.0585778
-0.0247602
0.0669526
-0.0495673
0.0749279
-0.0732566
0.0820258
-0.0925074
0.0877733
-0.104876
0.0918632
-0.109606
0.0941134
-0.107394
0.0943858
-0.0999175
0.0927315
-0.0890453
0.0897822
-0.0764339
0.0868922
-0.0626226
0.0855799
-0.0475446
0.0867301
-0.0308858
0.0902612
-0.0135582
0.0953995
0.00300916
0.101413
0.0164622
0.107761
0.0258338
0.114261
0.0298902
0.120873
0.0291488
0.127546
0.0237
0.134052
0.0155887
0.1401
0.00565245
0.145334
-0.00353659
0.149586
-0.0118383
0.152718
-0.0173253
0.154896
-0.0211103
0.156173
-0.0219463
0.156929
-0.0215157
0.157299
-0.0187685
0.15768
-0.0151048
0.158135
-0.00996406
0.158873
-0.00448178
0.159793
0.00148862
0.160937
0.00614647
0.0123197
0.00342038
-0.00683428
0.00214675
-0.0075057
0.000931239
-0.00853318
-0.000134127
-0.00936193
-0.000968241
-0.00986902
-0.00163177
-0.00991424
-0.00206453
-0.00944479
-0.00223975
-0.00834055
-0.00212313
-0.00651144
-0.00169431
-0.00388546
-0.000832324
-0.000479502
0.000434414
0.0041113
0.00227642
0.00918931
0.00468128
0.0149267
0.00768365
0.0211699
0.0113251
0.0275796
0.015632
0.0336935
0.0206277
0.0388984
0.0263312
0.0424433
0.0327149
0.0435501
0.0396558
0.0414566
0.0470257
0.0355295
0.0546159
0.0251451
0.0622618
0.0101351
0.0697723
-0.0092754
0.0771951
-0.032183
0.0844072
-0.0567794
0.0911092
-0.0799585
0.0968806
-0.0982789
0.101394
-0.109389
0.10456
-0.112772
0.106447
-0.10928
0.107069
-0.10054
0.106318
-0.0882939
0.104221
-0.0743373
0.101372
-0.0597737
0.0989304
-0.045103
0.0980678
-0.0300232
0.0993683
-0.0148588
0.102626
-0.000248461
0.107417
0.0116708
0.113203
0.0200483
0.119627
0.0234664
0.126394
0.0223812
0.133215
0.0168793
0.139705
0.00909864
0.145539
-0.000181139
0.150381
-0.00837932
0.154158
-0.0156154
0.156811
-0.0199781
0.158547
-0.0228463
0.159436
-0.0228348
0.159826
-0.0219058
0.159833
-0.0187758
0.15983
-0.0151024
0.159903
-0.0100365
0.160274
-0.0048525
0.160898
0.000864013
0.1618
0.00524475
0.0112596
0.0258608
-0.00529582
0.0242934
-0.00593829
0.0227628
-0.00700255
0.0213594
-0.00795854
0.0200914
-0.00860104
0.0190321
-0.00885493
0.0182431
-0.00865577
0.017791
-0.00788844
0.0177305
-0.00645093
0.0181095
-0.00426447
0.0189679
-0.00133793
0.0203757
0.0027035
0.0222983
0.00726675
0.024876
0.0123489
0.0281227
0.0179232
0.0320494
0.0236528
0.036659
0.0290838
0.0419298
0.0336276
0.0477979
0.0365752
0.0541691
0.037179
0.0608994
0.0347263
0.0678418
0.0285871
0.0748046
0.0181822
0.0816429
0.00329683
0.088223
-0.0158555
0.0945403
-0.0385003
0.100459
-0.0626986
0.10568
-0.0851795
0.109874
-0.102473
0.112899
-0.112414
0.114882
-0.114755
0.116084
-0.110483
0.116696
-0.101152
0.116683
-0.0882803
0.115838
-0.0734923
0.114149
-0.0580847
0.112138
-0.0430923
0.110743
-0.0286285
0.110815
-0.0149309
0.112695
-0.00212844
0.116284
0.00808196
0.121232
0.0151007
0.127115
0.0175836
0.133477
0.0160188
0.139867
0.0104896
0.145829
0.00313642
0.151032
-0.00538405
0.155201
-0.012548
0.158336
-0.0187507
0.160445
-0.0220869
0.16175
-0.0241516
0.162325
-0.0234092
0.162466
-0.0220476
0.162262
-0.018571
0.162029
-0.0148699
0.16186
-0.00986722
0.161969
-0.00496203
0.162369
0.00046414
0.163065
0.0045488
0.0102954
0.0534722
-0.00309222
0.0513157
-0.00378181
0.0492164
-0.00490324
0.0472005
-0.00594255
0.0452965
-0.00669707
0.043579
-0.00713743
0.0421234
-0.00720021
0.0410086
-0.00677363
0.0403127
-0.00575503
0.0401128
-0.00406461
0.0404444
-0.00166948
0.0414369
0.00171104
0.043071
0.0056326
0.0454554
0.00996452
0.0485996
0.014779
0.0524935
0.019759
0.0571026
0.0244748
0.0623585
0.0283716
0.0681481
0.0307856
0.0743193
0.0310078
0.0806999
0.0283458
0.0871236
0.0221634
0.093395
0.0119108
0.0994487
-0.00275682
0.105068
-0.0214746
0.110211
-0.0436434
0.114689
-0.067177
0.118225
-0.0887154
0.120644
-0.104892
0.122036
-0.113806
0.122732
-0.115451
0.123118
-0.110869
0.123469
-0.101502
0.123842
-0.0886535
0.124038
-0.0736886
0.123775
-0.0578212
0.123044
-0.0423614
0.122306
-0.0278903
0.122263
-0.0148877
0.12351
-0.00337582
0.126224
0.00536796
0.130299
0.0110254
0.135366
0.0125172
0.140932
0.0104526
0.146482
0.00493911
0.151591
-0.00197193
0.155911
-0.00970455
0.159272
-0.0159084
0.161716
-0.0211953
0.163296
-0.0236673
0.16423
-0.0250848
0.164584
-0.0237636
0.1646
-0.0220631
0.16433
-0.0183018
0.164027
-0.0145663
0.163772
-0.00961259
0.163755
-0.00494505
0.164032
0.000187038
0.164595
0.00398587
0.00939346
0.0845713
-0.00013136
0.0818028
-0.00101333
0.079103
-0.00220346
0.0764212
-0.00326074
0.0737854
-0.00406126
0.071297
-0.00464902
0.0690342
-0.00493744
0.0670718
-0.00481122
0.0654949
-0.00417811
0.0643864
-0.00295615
0.0638664
-0.00114945
0.0639863
0.0015912
0.0648424
0.00477643
0.0665283
0.00827863
0.0690737
0.0122336
0.0724656
0.0163671
0.0766461
0.0202943
0.0815116
0.0235061
0.0869142
0.0253831
0.0926652
0.0252568
0.0985534
0.0224575
0.104397
0.0163198
0.109963
0.00634452
0.115229
-0.00802223
0.11991
-0.0261562
0.123841
-0.0475745
0.126748
-0.0700833
0.128421
-0.0903888
0.128945
-0.105415
0.128676
-0.113537
0.128109
-0.114884
0.127686
-0.110445
0.127681
-0.101498
0.128179
-0.0891514
0.129045
-0.0745548
0.129963
-0.0587386
0.13065
-0.0430482
0.13113
-0.0283706
0.131777
-0.0155349
0.133104
-0.00470326
0.135422
0.00305063
0.138817
0.00763062
0.143034
0.00830015
0.147648
0.00583801
0.152208
0.000379684
0.156313
-0.00607741
0.159699
-0.0130899
0.162257
-0.0184664
0.164064
-0.0230027
0.165196
-0.0247988
0.165848
-0.0257369
0.166082
-0.0239976
0.166081
-0.0220622
0.165874
-0.0180954
0.165641
-0.0143325
0.165448
-0.00941978
0.165444
-0.00494136
0.165715
-8.36484e-05
0.166241
0.00345978
0.00849814
0.116074
0.00356977
0.112533
0.00252814
0.109171
0.00115842
0.106031
-0.000120952
0.102859
-0.000889029
0.0997889
-0.00157882
0.0968732
-0.00202175
0.0941827
-0.00212074
0.0918144
-0.00180979
0.0898912
-0.00103295
0.0884022
0.00033952
0.0875317
0.00246169
0.0874031
0.00490504
0.0880963
0.00758545
0.0896753
0.0106546
0.0921547
0.0138876
0.0954894
0.0169596
0.0995718
0.0194237
0.104243
0.0207122
0.109297
0.0202022
0.11449
0.0172652
0.119603
0.0112067
0.124393
0.00155432
0.128763
-0.0123926
0.132389
-0.0297815
0.134971
-0.0501565
0.136197
-0.0713098
0.135976
-0.0901675
0.134634
-0.104074
0.132816
-0.111719
0.13113
-0.113198
0.130003
-0.109318
0.129655
-0.10115
0.130142
-0.089638
0.131369
-0.0757813
0.133072
-0.0604423
0.134906
-0.044882
0.136632
-0.0300968
0.138297
-0.0171999
0.140191
-0.00659695
0.142541
0.00070087
0.145554
0.00461757
0.14908
0.00477432
0.152808
0.0021098
0.156439
-0.00325188
0.159589
-0.00922706
0.162129
-0.0156299
0.164001
-0.0203382
0.165297
-0.0242985
0.1661
-0.0256019
0.166579
-0.0262158
0.166789
-0.0242075
0.166863
-0.0221369
0.166817
-0.0180493
0.166764
-0.0142797
0.166755
-0.00940999
0.16689
-0.00507706
0.167269
-0.000462723
0.167863
0.00286615
0.00753966
0.143638
0.00742266
0.139955
0.0062109
0.136188
0.00492555
0.13231
0.00375679
0.128716
0.00270469
0.125307
0.0018303
0.122071
0.00121463
0.119046
0.000904422
0.116261
0.000974798
0.113744
0.00148404
0.111639
0.00244458
0.110156
0.00394423
0.109295
0.00576656
0.109131
0.00774978
0.109757
0.010028
0.111219
0.0124263
0.11351
0.0146678
0.116557
0.0163769
0.120223
0.017046
0.124311
0.0161147
0.128571
0.0130055
0.13273
0.00704708
0.136747
-0.00246204
0.139936
-0.0155818
0.142253
-0.0320991
0.143258
-0.0511614
0.142672
-0.0707233
0.140598
-0.0880939
0.1376
-0.101076
0.134492
-0.108611
0.131926
-0.110632
0.130267
-0.10766
0.129657
-0.10054
0.130099
-0.0900798
0.131505
-0.0771867
0.133669
-0.0626066
0.136276
-0.0474887
0.138988
-0.0328096
0.141645
-0.0198564
0.144263
-0.00921495
0.146974
-0.00201033
0.149862
0.00172954
0.152933
0.00170366
0.156016
-0.000973907
0.158861
-0.0060966
0.161255
-0.0116206
0.163136
-0.0175108
0.1645
-0.0217028
0.165446
-0.0252445
0.166058
-0.026214
0.166475
-0.0266325
0.166748
-0.0244805
0.166971
-0.0223601
0.167155
-0.0182328
0.167361
-0.0144862
0.167623
-0.00967208
0.168
-0.00545429
0.168586
-0.00104835
0.169348
0.00210463
0.00644313
0.162916
0.010895
0.15938
0.00974704
0.15563
0.00867553
0.151902
0.00748467
0.148308
0.00629896
0.14484
0.00529795
0.141523
0.00453234
0.138405
0.00402246
0.135552
0.00382726
0.133034
0.00400243
0.130893
0.00458477
0.129244
0.00559327
0.128096
0.00691522
0.127486
0.00835984
0.127544
0.00997018
0.128291
0.0116788
0.129737
0.0132215
0.131835
0.0142792
0.134483
0.0143976
0.137523
0.0130753
0.140721
0.0098069
0.143713
0.00405514
0.146496
-0.00524506
0.148473
-0.0175583
0.149268
-0.0328941
0.148543
-0.0504371
0.146175
-0.068355
0.1425
-0.0844184
0.138226
-0.0968021
0.134156
-0.104541
0.130948
-0.107424
0.1289
-0.105611
0.128081
-0.0997207
0.128453
-0.0904516
0.129919
-0.078653
0.132312
-0.0649998
0.135368
-0.0505447
0.138747
-0.036188
0.142163
-0.0232728
0.145473
-0.0125249
0.148638
-0.00517592
0.151641
-0.00127325
0.154517
-0.00117221
0.157168
-0.00362491
0.159478
-0.0084064
0.161352
-0.0134943
0.162798
-0.0189569
0.163853
-0.0227587
0.164618
-0.0260089
0.165174
-0.0267698
0.165632
-0.0270907
0.166043
-0.024892
0.166472
-0.0227886
0.166931
-0.018692
0.167447
-0.015002
0.168039
-0.0102638
0.168731
-0.00614691
0.1696
-0.00191711
0.170615
0.0010892
0.00513669
0.171658
0.0131894
0.168844
0.0125614
0.1659
0.0116198
0.162876
0.0105084
0.15981
0.0093649
0.156781
0.0083265
0.153855
0.00745876
0.151079
0.00679832
0.148512
0.00639434
0.146222
0.00629209
0.144284
0.00652341
0.142773
0.00710358
0.141728
0.00796109
0.141123
0.00896465
0.140987
0.0101055
0.141382
0.0112844
0.142315
0.0122884
0.143749
0.012845
0.145585
0.0125615
0.147677
0.0109837
0.149844
0.00764
0.151911
0.00198795
0.153246
-0.00657982
0.153693
-0.0180057
0.152915
-0.0321156
0.15065
-0.0481722
0.146984
-0.0646887
0.142398
-0.0798324
0.137589
-0.0919935
0.133178
-0.10013
0.129605
-0.103851
0.127166
-0.103173
0.126024
-0.0985788
0.126161
-0.090588
0.12748
-0.0799718
0.129834
-0.0673542
0.133008
-0.0537183
0.136698
-0.0398778
0.140574
-0.0271492
0.14437
-0.0163214
0.147923
-0.00872851
0.151139
-0.00448945
0.15399
-0.00402272
0.156433
-0.00606833
0.15845
-0.0104237
0.160044
-0.0150881
0.161276
-0.0201885
0.162212
-0.0236952
0.162951
-0.0267475
0.163571
-0.0273901
0.164162
-0.0276812
0.164775
-0.025505
0.165453
-0.0234666
0.166217
-0.0194563
0.167072
-0.0158563
0.168025
-0.0112175
0.169081
-0.00720258
0.170287
-0.00312274
0.171623
-0.000247447
0.0035579
0.190004
0.0151421
-0.191956
0.188445
0.0141201
0.186765
0.0132999
0.184942
0.0123317
0.182996
0.0113109
0.180954
0.0103678
0.178845
0.00956845
0.176692
0.0089515
0.174532
0.00855384
0.172418
0.00840653
0.170413
0.00852821
0.168596
0.00892028
0.167028
0.00952922
0.165738
0.0102551
0.164814
0.011029
0.164366
0.0117328
0.16449
0.0121645
0.165267
0.0120673
0.166737
0.0110914
0.16889
0.00883066
0.171641
0.00488939
0.174795
-0.00116639
0.177971
-0.00975585
0.180791
-0.0208248
0.182734
-0.0340588
0.183308
-0.0487469
0.182248
-0.0636287
0.179607
-0.0771909
0.175709
-0.0880959
0.171005
-0.095426
0.165972
-0.0988184
0.161057
-0.0982581
0.156622
-0.0941439
0.152941
-0.0869066
0.150198
-0.0772292
0.148498
-0.0656543
0.147858
-0.0530777
0.148183
-0.0402035
0.149296
-0.0282621
0.150977
-0.0180017
0.152985
-0.0107373
0.155082
-0.00658619
0.157059
-0.00599995
0.158741
-0.00775005
0.160001
-0.0116832
0.160779
-0.0158667
0.161094
-0.0205028
0.161011
-0.0236123
0.160629
-0.0263658
0.160057
-0.0268186
0.159401
-0.0270245
0.158745
-0.0248498
0.158154
-0.0228751
0.157667
-0.0189694
0.157304
-0.015493
0.157064
-0.0109778
0.15695
-0.00708839
0.156964
-0.00313738
0.157095
-0.000377738
0.00326389
0.202724
0.0159077
-0.20349
0.201868
0.0149764
0.200978
0.0141897
0.199916
0.0133934
0.198671
0.0125563
0.197289
0.01175