/*--------------------------------*- C++ -*----------------------------------*\
| =========                 |                                                 |
| \\      /  F ield         | OpenFOAM: The Open Source CFD Toolbox           |
|  \\    /   O peration     | Version:  2512                                  |
|   \\  /    A nd           | Website:  www.openfoam.com                      |
|    \\/     M anipulation  |                                                 |
\*---------------------------------------------------------------------------*/
FoamFile
{
    version     2.0;
    format      ascii;
    arch        "LSB;label=32;scalar=64";
    class       volScalarField;
    location    "29";
    object      p;
}
// * * * * * * * * * * * * * * * * * * * * * * * * * * * * * * * * * * * * * //

dimensions      [0 2 -2 0 0 0 0];

internalField   nonuniform List<scalar> 
13248
(
-0.291352
-0.289854
-0.287797
-0.28535
-0.28271
-0.280068
-0.277567
-0.275291
-0.273276
-0.271513
-0.26996
-0.268541
-0.267162
-0.265719
-0.264106
-0.262225
-0.259997
-0.257367
-0.254297
-0.250809
-0.246833
-0.242595
-0.237472
-0.232494
-0.298208
-0.296099
-0.293432
-0.290386
-0.287159
-0.28396
-0.280925
-0.278124
-0.275566
-0.273212
-0.270984
-0.268779
-0.266486
-0.263998
-0.261221
-0.258086
-0.254553
-0.250608
-0.246262
-0.241541
-0.236463
-0.231087
-0.225276
-0.219715
-0.306487
-0.303583
-0.300189
-0.296479
-0.292624
-0.288829
-0.285213
-0.281809
-0.278583
-0.275455
-0.272317
-0.269057
-0.26557
-0.261779
-0.257636
-0.253128
-0.248271
-0.243102
-0.237671
-0.232035
-0.22621
-0.220281
-0.214149
-0.208279
-0.316349
-0.312457
-0.308226
-0.303788
-0.299254
-0.294799
-0.290499
-0.286331
-0.28221
-0.278024
-0.273661
-0.26903
-0.264077
-0.258788
-0.253184
-0.247316
-0.241249
-0.235051
-0.228783
-0.222491
-0.216193
-0.209946
-0.203659
-0.197812
-0.327883
-0.322825
-0.317655
-0.312426
-0.307138
-0.301906
-0.29674
-0.291551
-0.286215
-0.280621
-0.274698
-0.268425
-0.261829
-0.254978
-0.247958
-0.240863
-0.233773
-0.226752
-0.219843
-0.213067
-0.206431
-0.199952
-0.193577
-0.187639
-0.341085
-0.334715
-0.328529
-0.322444
-0.31629
-0.310089
-0.303769
-0.297194
-0.290244
-0.282867
-0.275086
-0.266985
-0.258686
-0.250319
-0.242008
-0.233846
-0.225901
-0.218207
-0.21078
-0.203615
-0.196704
-0.190038
-0.183575
-0.177555
-0.355844
-0.348064
-0.340807
-0.333783
-0.326585
-0.319114
-0.311238
-0.302825
-0.293834
-0.284341
-0.2745
-0.264506
-0.254549
-0.244789
-0.235338
-0.226265
-0.217599
-0.209344
-0.201484
-0.193996
-0.186853
-0.180029
-0.173498
-0.167386
-0.371888
-0.362665
-0.354302
-0.346214
-0.337697
-0.328539
-0.31861
-0.307878
-0.296467
-0.284627
-0.272651
-0.260812
-0.249321
-0.238319
-0.227879
-0.218026
-0.208748
-0.200015
-0.191789
-0.184029
-0.176695
-0.169749
-0.16317
-0.156987
-0.38876
-0.378129
-0.368626
-0.35928
-0.349062
-0.337705
-0.325199
-0.311723
-0.297636
-0.283368
-0.269313
-0.255764
-0.242905
-0.230824
-0.219537
-0.209021
-0.199225
-0.190093
-0.181566
-0.173589
-0.166109
-0.159084
-0.152486
-0.146261
-0.405778
-0.393838
-0.38314
-0.372253
-0.359861
-0.345769
-0.330228
-0.313733
-0.29689
-0.28027
-0.264297
-0.249232
-0.23519
-0.22219
-0.21019
-0.199119
-0.188898
-0.179446
-0.170688
-0.162553
-0.154982
-0.147925
-0.141335
-0.135106
-0.42204
-0.408928
-0.396931
-0.384135
-0.369055
-0.351747
-0.332866
-0.31326
-0.293749
-0.274966
-0.257302
-0.240937
-0.225901
-0.212139
-0.199558
-0.188048
-0.177503
-0.167823
-0.158916
-0.150702
-0.143111
-0.136085
-0.129544
-0.123377
-0.436497
-0.422401
-0.408973
-0.393852
-0.375577
-0.354651
-0.332243
-0.309555
-0.287547
-0.266838
-0.247729
-0.230289
-0.214459
-0.200113
-0.187107
-0.175299
-0.164559
-0.15477
-0.145826
-0.137638
-0.130128
-0.123228
-0.116828
-0.11086
-0.250163
-0.252098
-0.253347
-0.254206
-0.254938
-0.255612
-0.256258
-0.256898
-0.257539
-0.258181
-0.258819
-0.259444
-0.260046
-0.260618
-0.261149
-0.261631
-0.262057
-0.262423
-0.262728
-0.262978
-0.263183
-0.263365
-0.263577
-0.263907
-0.251789
-0.253563
-0.254719
-0.255526
-0.256228
-0.256891
-0.257546
-0.258215
-0.258904
-0.259614
-0.260341
-0.261076
-0.261811
-0.262536
-0.263242
-0.263918
-0.264555
-0.265142
-0.265674
-0.266149
-0.266569
-0.266932
-0.267278
-0.267809
-0.254088
-0.255614
-0.25662
-0.257334
-0.25797
-0.258591
-0.259225
-0.259893
-0.260605
-0.261358
-0.262148
-0.262969
-0.26381
-0.264663
-0.265514
-0.266352
-0.26716
-0.267921
-0.268618
-0.26924
-0.269774
-0.270185
-0.270466
-0.271028
-0.256896
-0.258114
-0.258923
-0.259505
-0.260035
-0.260572
-0.261146
-0.261775
-0.262469
-0.263226
-0.264042
-0.264909
-0.265818
-0.266756
-0.26771
-0.268663
-0.269593
-0.270474
-0.271276
-0.27197
-0.272534
-0.272899
-0.27295
-0.273141
-0.260035
-0.260916
-0.261494
-0.261904
-0.262283
-0.262688
-0.263149
-0.263687
-0.26431
-0.265019
-0.265807
-0.266667
-0.267588
-0.268558
-0.269559
-0.270571
-0.271567
-0.272513
-0.273364
-0.274076
-0.274603
-0.274856
-0.27463
-0.274335
-0.26334
-0.263886
-0.264213
-0.264411
-0.26459
-0.264805
-0.265092
-0.265474
-0.265961
-0.266555
-0.26725
-0.268039
-0.268908
-0.269845
-0.270828
-0.271835
-0.272833
-0.273781
-0.274625
-0.275304
-0.27575
-0.275864
-0.27541
-0.274229
-0.266694
-0.266933
-0.266995
-0.266944
-0.266869
-0.26683
-0.266874
-0.267027
-0.267307
-0.267714
-0.268246
-0.268893
-0.269643
-0.270478
-0.271375
-0.272307
-0.273236
-0.274114
-0.274882
-0.27546
-0.275768
-0.275649
-0.275209
-0.272786
-0.270052
-0.270026
-0.269813
-0.269473
-0.269088
-0.268731
-0.268461
-0.268314
-0.268313
-0.268464
-0.268766
-0.269208
-0.269775
-0.270446
-0.271195
-0.271985
-0.272773
-0.273503
-0.274108
-0.274495
-0.27462
-0.274099
-0.273901
-0.270312
-0.273459
-0.273198
-0.272704
-0.272034
-0.271284
-0.270547
-0.269898
-0.269387
-0.269044
-0.268881
-0.268897
-0.269082
-0.269416
-0.269872
-0.270414
-0.270998
-0.271568
-0.272061
-0.272404
-0.272483
-0.272371
-0.271339
-0.271314
-0.267148
-0.277049
-0.27657
-0.275769
-0.274724
-0.273558
-0.272389
-0.27131
-0.270386
-0.269656
-0.269138
-0.26883
-0.268717
-0.268771
-0.268955
-0.269217
-0.269498
-0.269731
-0.269843
-0.26977
-0.269391
-0.268883
-0.267435
-0.267215
-0.263205
-0.281044
-0.280318
-0.279166
-0.277698
-0.276068
-0.274422
-0.272874
-0.271503
-0.270354
-0.269445
-0.268773
-0.268312
-0.268018
-0.267834
-0.267691
-0.26751
-0.267208
-0.266709
-0.265951
-0.26487
-0.26361
-0.261777
-0.260908
-0.257514
-0.285719
-0.284669
-0.2831
-0.281154
-0.279015
-0.276858
-0.274815
-0.272974
-0.271384
-0.270056
-0.268972
-0.268088
-0.267338
-0.266639
-0.265899
-0.265023
-0.263919
-0.262511
-0.260736
-0.258592
-0.256077
-0.253329
-0.250909
-0.248135
-0.264476
-0.264985
-0.26554
-0.266095
-0.266617
-0.267063
-0.267373
-0.267467
-0.267244
-0.266574
-0.265297
-0.263218
-0.260108
-0.255705
-0.249689
-0.241693
-0.231321
-0.218205
-0.20216
-0.183126
-0.161318
-0.137097
-0.110975
-0.0842226
-0.0579187
-0.0331685
-0.0110626
0.00788873
0.0226651
0.0338265
0.0416293
0.0463549
0.048628
0.0490332
0.0479726
0.0458934
0.0431505
0.0400302
0.0367306
0.0333892
0.0302215
0.0271937
0.0243668
0.021765
0.0194182
0.0172778
0.015327
0.013556
0.0119405
0.0104731
0.00912855
0.00790898
0.00678674
0.0057725
0.00481026
0.00392613
0.00303072
0.0022057
0.00130312
0.000506301
-0.268925
-0.269565
-0.270174
-0.270698
-0.271069
-0.271226
-0.271089
-0.270562
-0.269533
-0.267865
-0.265401
-0.26197
-0.25738
-0.251425
-0.24387
-0.234465
-0.222959
-0.209136
-0.192884
-0.174198
-0.153298
-0.130257
-0.105816
-0.0812442
-0.0570399
-0.0340046
-0.0132736
0.00518073
0.0192739
0.0304343
0.0384954
0.0438048
0.04665
0.047562
0.0469583
0.0452596
0.0428199
0.0399308
0.036797
0.0335834
0.0304567
0.0274526
0.0246189
0.0219722
0.0196087
0.017435
0.015445
0.0136447
0.0120028
0.0105206
0.00916195
0.00793684
0.00680872
0.00579496
0.00483014
0.0039463
0.00304748
0.00221994
0.00131257
0.000510834
-0.273032
-0.273704
-0.274343
-0.274856
-0.275113
-0.275042
-0.274551
-0.273534
-0.27187
-0.269418
-0.266023
-0.261532
-0.255789
-0.248634
-0.239905
-0.229444
-0.217109
-0.202798
-0.18648
-0.168217
-0.148224
-0.126721
-0.104338
-0.0812508
-0.0585045
-0.037024
-0.0174762
-0.000793637
0.0143614
0.0261058
0.0347664
0.0406865
0.0441705
0.0456589
0.0455611
0.0442829
0.0421816
0.0395566
0.0366236
0.0335634
0.0305227
0.027573
0.0247581
0.0221825
0.019729
0.0175377
0.0155211
0.0136991
0.0120368
0.0105449
0.00917547
0.00794762
0.00681577
0.00580486
0.00483957
0.00395841
0.00305822
0.00223003
0.00131974
0.000513529
-0.276701
-0.277032
-0.277675
-0.278188
-0.278356
-0.278107
-0.277344
-0.27596
-0.273828
-0.270804
-0.266741
-0.26151
-0.254981
-0.247033
-0.237559
-0.226471
-0.213706
-0.199238
-0.183088
-0.165352
-0.146219
-0.12591
-0.104927
-0.0835892
-0.0624045
-0.0419719
-0.0229462
-0.00601978
0.00894999
0.0211203
0.0304364
0.0370492
0.041217
0.0433237
0.0437705
0.0429475
0.0412177
0.0388902
0.0361928
0.0333156
0.0303989
0.0275352
0.0247752
0.0222027
0.0197953
0.0175756
0.0155504
0.0137167
0.0120419
0.010546
0.00917007
0.00794206
0.00680869
0.00580245
0.00483872
0.00396227
0.00306278
0.00223574
0.00132451
0.000514282
-0.278802
-0.279666
-0.280044
-0.280462
-0.280594
-0.280198
-0.279229
-0.277572
-0.275098
-0.271675
-0.267177
-0.261486
-0.254498
-0.246121
-0.236289
-0.22496
-0.212121
-0.19779
-0.182022
-0.164941
-0.146738
-0.127585
-0.10776
-0.0875805
-0.0674607
-0.0478616
-0.0292844
-0.0122739
0.00289802
0.0155938
0.0255897
0.0329169
0.0377827
0.0405329
0.0415547
0.0412259
0.0399067
0.0379153
0.0354908
0.0328302
0.0300748
0.0273293
0.0246553
0.0221246
0.0197359
0.0175464
0.0155278
0.0136947
0.0120174
0.0105241
0.00914662
0.00792108
0.00678859
0.0057883
0.00482803
0.00395783
0.00306112
0.00223684
0.00132672
0.000513047
-0.279881
-0.281329
-0.28134
-0.281514
-0.281588
-0.28113
-0.280025
-0.27818
-0.275489
-0.271829
-0.267085
-0.261157
-0.253961
-0.24543
-0.235525
-0.224233
-0.211574
-0.197599
-0.182389
-0.166063
-0.148759
-0.130623
-0.111849
-0.0926688
-0.0733853
-0.0543683
-0.0360556
-0.0189608
-0.00352163
0.00967507
0.0203108
0.0283302
0.0338881
0.0372953
0.0389186
0.0391239
0.0382572
0.0366421
0.034528
0.0321177
0.0295578
0.0269613
0.0243995
0.0219447
0.0195965
0.0174638
0.0154513
0.0136322
0.0119636
0.0104801
0.00910651
0.00788613
0.00675704
0.00576355
0.00480837
0.00394542
0.0030534
0.00223325
0.00132629
0.000509903
-0.279544
-0.281708
-0.281383
-0.281232
-0.281239
-0.280764
-0.279597
-0.277665
-0.274874
-0.271111
-0.266277
-0.260288
-0.253078
-0.244601
-0.234834
-0.223784
-0.211488
-0.19801
-0.183441
-0.16789
-0.151462
-0.134258
-0.116407
-0.0980753
-0.0794922
-0.0609645
-0.0428882
-0.0257623
-0.010104
0.00351213
0.0147115
0.023375
0.0296048
0.0336716
0.0359165
0.0366885
0.0363107
0.0351072
0.0333361
0.0312062
0.0288703
0.0264492
0.0240228
0.0216671
0.0193986
0.0172905
0.0153285
0.0135312
0.0118825
0.0104159
0.00905154
0.00783902
0.00671582
0.00572967
0.00478092
0.00392573
0.00304
0.00222512
0.00132325
0.000505067
-0.277534
-0.280246
-0.279765
-0.279459
-0.279421
-0.278887
-0.277725
-0.275829
-0.273072
-0.269344
-0.264567
-0.258676
-0.25162
-0.243363
-0.233892
-0.223226
-0.21141
-0.198511
-0.184614
-0.169815
-0.154211
-0.137867
-0.120857
-0.103294
-0.0853511
-0.0672956
-0.0494976
-0.0324399
-0.0166651
-0.0027396
0.0089301
0.0181758
0.0250461
0.0297632
0.0326384
0.0339961
0.0341335
0.0333658
0.0319602
0.0301327
0.0280425
0.0258173
0.0235452
0.0213068
0.019133
0.0170604
0.0151687
0.0133919
0.0117758
0.0103338
0.00898344
0.00778145
0.00666654
0.00568816
0.00474684
0.0038996
0.00302146
0.00221274
0.00131769
0.000498869
-0.273776
-0.276299
-0.275939
-0.275891
-0.275955
-0.275418
-0.274201
-0.27245
-0.269889
-0.266358
-0.261791
-0.256145
-0.24939
-0.241494
-0.232446
-0.222273
-0.21102
-0.19875
-0.185539
-0.171467
-0.15661
-0.141043
-0.124813
-0.10798
-0.090671
-0.0731201
-0.0556777
-0.0388034
-0.023032
-0.00891506
0.0031248
0.0128787
0.0203426
0.0256831
0.0291753
0.0311224
0.0317957
0.0314817
0.0304544
0.0289412
0.027109
0.0250928
0.0229878
0.0208794
0.0188078
0.0168197
0.0149566
0.0132193
0.0116467
0.0102364
0.00890377
0.00771483
0.00661039
0.00564031
0.0047072
0.00386797
0.00299837
0.00219659
0.00130981
0.000491743
-0.268149
-0.269633
-0.269809
-0.270331
-0.270491
-0.269991
-0.268752
-0.267087
-0.264844
-0.261727
-0.257587
-0.252384
-0.246112
-0.238738
-0.23025
-0.220675
-0.210063
-0.198469
-0.185959
-0.172601
-0.158463
-0.143604
-0.128088
-0.111966
-0.0953186
-0.0783431
-0.0613614
-0.0447969
-0.0291551
-0.0149654
-0.00265621
0.00752853
0.0155331
0.0214666
0.0255559
0.0280819
0.0293111
0.0294813
0.028854
0.0276687
0.0261043
0.0243053
0.022375
0.0204042
0.0184416
0.0165438
0.0147153
0.0130171
0.0114928
0.0101257
0.00881417
0.0076407
0.00654853
0.00558744
0.00466312
0.00383192
0.00297148
0.00217727
0.00129989
0.000484257
-0.260063
-0.260884
-0.262014
-0.262922
-0.263264
-0.263358
-0.262883
-0.261158
-0.258916
-0.256186
-0.252541
-0.247878
-0.242195
-0.235441
-0.227595
-0.21869
-0.208771
-0.197888
-0.186098
-0.173461
-0.160037
-0.14588
-0.131048
-0.115615
-0.0996556
-0.0833258
-0.066901
-0.0507491
-0.0353273
-0.0211364
-0.00860736
0.00198086
0.0105182
0.0170526
0.0217527
0.0248626
0.0266367
0.0273175
0.027126
0.0262987
0.0250242
0.0234591
0.0217157
0.0198929
0.0180477
0.016242
0.0144961
0.0129197
0.0112924
0.00999716
0.00871514
0.00756048
0.00648229
0.0055307
0.00461549
0.00379214
0.00294112
0.00215513
0.00128801
0.000477064
-0.249904
-0.251606
-0.252839
-0.25308
-0.25325
-0.253601
-0.253585
-0.252756
-0.25076
-0.248365
-0.245286
-0.241368
-0.236522
-0.230626
-0.223644
-0.215604
-0.20654
-0.196494
-0.185515
-0.173659
-0.160983
-0.147542
-0.133391
-0.118596
-0.103246
-0.0874987
-0.0716078
-0.0558935
-0.0407492
-0.0266411
-0.0139938
-0.00311334
0.00584687
0.0128813
0.0181088
0.0217338
0.0239837
0.0250961
0.0253027
0.0248217
0.0238392
0.0225162
0.0209709
0.0193085
0.0175929
0.0158922
0.0142382
0.0127075
0.0112898
0.00985521
0.00860238
0.00746795
0.0064066
0.0054655
0.00456081
0.00374625
0.00290546
0.00212919
0.00127317
0.000470452
-0.238691
-0.244544
-0.245326
-0.244857
-0.244923
-0.245423
-0.245723
-0.245415
-0.244237
-0.241717
-0.238399
-0.234612
-0.23006
-0.224521
-0.217948
-0.210357
-0.201777
-0.192246
-0.181807
-0.17051
-0.158406
-0.145546
-0.131983
-0.117783
-0.103042
-0.0879077
-0.0726076
-0.0574484
-0.0428063
-0.0291088
-0.0167487
-0.00602038
0.00292039
0.0100484
0.0154562
0.0193179
0.0218457
0.0232509
0.0237385
0.0235129
0.0227557
0.0216263
0.0202442
0.0187172
0.0171134
0.0155048
0.0139248
0.0124428
0.0110403
0.00970005
0.00846621
0.0073517
0.00631065
0.00538565
0.00449559
0.00369406
0.00286588
0.00210093
0.0012563
0.000464116
-0.226624
-0.234914
-0.23616
-0.235109
-0.234669
-0.234985
-0.235238
-0.234808
-0.233429
-0.231247
-0.228595
-0.225239
-0.221034
-0.215885
-0.209764
-0.202677
-0.194643
-0.18569
-0.175855
-0.165182
-0.153716
-0.141508
-0.128612
-0.115102
-0.101078
-0.0866882
-0.0721458
-0.057739
-0.043811
-0.0307387
-0.0188738
-0.00848677
0.000268957
0.00735479
0.0128363
0.0168558
0.0195929
0.021234
0.0219653
0.0219793
0.0214465
0.0205212
0.0193196
0.0179498
0.0164809
0.014987
0.0135025
0.0120923
0.0107463
0.00946823
0.00828006
0.00720351
0.00619059
0.00528726
0.0044158
0.00362877
0.00281645
0.00206359
0.0012347
0.000454011
-0.214159
-0.223623
-0.225484
-0.224315
-0.22355
-0.223718
-0.224016
-0.223738
-0.222669
-0.220918
-0.218513
-0.215397
-0.211477
-0.206691
-0.201011
-0.194427
-0.186943
-0.17858
-0.169366
-0.159338
-0.148538
-0.137015
-0.124829
-0.112054
-0.0987947
-0.0851949
-0.0714553
-0.057838
-0.0446505
-0.0322254
-0.0208775
-0.0108571
-0.00231622
0.00469391
0.0102137
0.0143554
0.0172695
0.0191226
0.0200838
0.0203312
0.0200225
0.0193055
0.018292
0.0170894
0.0157661
0.0143984
0.0130206
0.0116965
0.0104205
0.00920268
0.00806813
0.00703109
0.00605058
0.00517169
0.00432198
0.00355132
0.00275756
0.00201868
0.00120884
0.000441721
-0.20185
-0.211477
-0.213936
-0.213065
-0.212272
-0.212386
-0.212771
-0.212708
-0.211921
-0.210412
-0.208217
-0.205342
-0.201735
-0.197336
-0.192107
-0.186027
-0.179093
-0.171319
-0.162728
-0.153351
-0.143227
-0.132405
-0.120944
-0.10892
-0.0964368
-0.083634
-0.0706974
-0.0578635
-0.0454073
-0.0336241
-0.0227959
-0.0131529
-0.00484454
0.00206785
0.00760276
0.0118456
0.0149209
0.0169753
0.0181598
0.0186363
0.0185502
0.018042
0.0172186
0.016186
0.015012
0.013774
0.012507
0.0112732
0.0100711
0.00892241
0.00783833
0.00684288
0.00589751
0.00504527
0.00421939
0.00346691
0.00269331
0.00197
0.00118086
0.000428736
-0.189368
-0.198962
-0.201994
-0.201594
-0.200954
-0.201083
-0.201541
-0.201648
-0.201069
-0.199767
-0.1978
-0.195196
-0.191919
-0.187911
-0.183124
-0.177536
-0.171141
-0.163947
-0.155973
-0.147245
-0.137799
-0.127681
-0.116949
-0.105681
-0.0939769
-0.081969
-0.0698293
-0.0577706
-0.0460388
-0.0348956
-0.024593
-0.0153416
-0.00728632
-0.000496634
0.00502757
0.00934812
0.0125654
0.0148058
0.0162016
0.0168991
0.0170311
0.01673
0.0160974
0.0152369
0.0142153
0.0131104
0.0119577
0.0108184
0.00969493
0.00861708
0.00758791
0.00663771
0.00573046
0.00490757
0.00410777
0.00337552
0.00262375
0.00191763
0.00115073
0.000415105
-0.176954
-0.18648
-0.189945
-0.190007
-0.189598
-0.189795
-0.19032
-0.190565
-0.190178
-0.189098
-0.187381
-0.185061
-0.182113
-0.178482
-0.174123
-0.169012
-0.163141
-0.156515
-0.149147
-0.14106
-0.132287
-0.122871
-0.112869
-0.102355
-0.0914258
-0.0802063
-0.0688538
-0.0575595
-0.0465422
-0.0360338
-0.0262588
-0.0174097
-0.0096258
-0.00298255
0.0025051
0.00687836
0.0102153
0.0126226
0.0142146
0.0151222
0.0154655
0.015368
0.0149256
0.0142385
0.0133721
0.0124036
0.0113692
0.010329
0.00928907
0.00828493
0.0073152
0.00641386
0.00554779
0.00475717
0.00398591
0.00327619
0.00254809
0.001861
0.00111803
0.000400776
-0.165002
-0.174208
-0.177928
-0.178399
-0.178252
-0.178561
-0.179163
-0.179538
-0.179342
-0.178494
-0.177034
-0.174994
-0.172363
-0.169097
-0.165151
-0.160503
-0.155141
-0.149068
-0.142293
-0.134837
-0.126728
-0.118006
-0.108727
-0.0989606
-0.088798
-0.0783553
-0.0677757
-0.0572304
-0.0469138
-0.0370313
-0.0277832
-0.0193447
-0.0118489
-0.00537466
5.07641e-05
0.00445083
0.0078836
0.010437
0.0122085
0.0133135
0.0138595
0.0139606
0.0137063
0.0131927
0.0124833
0.011654
0.0107412
0.00980452
0.00885274
0.00792555
0.0070193
0.00617025
0.0053485
0.00459316
0.00385305
0.0031683
0.00246592
0.00179987
0.00108263
0.000385839
-0.153471
-0.162203
-0.166066
-0.16689
-0.167008
-0.167451
-0.168143
-0.168642
-0.168628
-0.168004
-0.166793
-0.165028
-0.162706
-0.159791
-0.156246
-0.152046
-0.147178
-0.141641
-0.135445
-0.128604
-0.121146
-0.113108
-0.10454
-0.0955086
-0.0860987
-0.0764165
-0.0665918
-0.0567776
-0.0471462
-0.0378795
-0.0291562
-0.0211352
-0.0139425
-0.00765871
-0.00232066
0.00208015
0.00558407
0.00826176
0.0101943
0.0114824
0.0122207
0.0125135
0.0124437
0.0121024
0.0115506
0.0108624
0.0100743
0.00924478
0.00838538
0.00753827
0.00669927
0.00590599
0.00513177
0.00441481
0.00370861
0.00305142
0.00237694
0.00173409
0.00104443
0.000370352
-0.142322
-0.150573
-0.154498
-0.155604
-0.15596
-0.156537
-0.15732
-0.157935
-0.158086
-0.157669
-0.156697
-0.155198
-0.153175
-0.150601
-0.147441
-0.143672
-0.139279
-0.134262
-0.128626
-0.122385
-0.115561
-0.10819
-0.100318
-0.0920047
-0.0833294
-0.0743884
-0.0652985
-0.056196
-0.0472333
-0.0385712
-0.0303691
-0.0227709
-0.0158947
-0.00982139
-0.00459495
-0.000219221
0.00333076
0.00610973
0.00818358
0.00963844
0.0105568
0.0110329
0.0111424
0.0109708
0.0105761
0.0100301
0.0093687
0.00864967
0.00788631
0.00712238
0.00635425
0.0056202
0.00489679
0.00422138
0.00355196
0.00292507
0.00228079
0.00166345
0.00100329
0.000354293
-0.131697
-0.139425
-0.143317
-0.144629
-0.145183
-0.145881
-0.146747
-0.147463
-0.14776
-0.147533
-0.146784
-0.14554
-0.143805
-0.141557
-0.138765
-0.135409
-0.131473
-0.126956
-0.12186
-0.116197
-0.109989
-0.103266
-0.0960687
-0.088454
-0.0804923
-0.0722706
-0.0638935
-0.0554819
-0.0471702
-0.0391006
-0.0314148
-0.0242428
-0.0176947
-0.0118503
-0.00675846
-0.00243307
0.00113765
0.00399415
0.00618818
0.00779221
0.00887679
0.00952589
0.00980769
0.00980175
0.00956249
0.00915868
0.00862539
0.00801932
0.00735514
0.00667736
0.00598357
0.00531215
0.0046428
0.00401213
0.00338249
0.0027887
0.00217707
0.0015877
0.000959045
0.00033759
-0.121648
-0.128792
-0.132574
-0.134026
-0.13474
-0.135538
-0.136471
-0.137271
-0.137695
-0.137639
-0.137096
-0.13609
-0.134627
-0.132688
-0.130247
-0.127284
-0.123785
-0.119745
-0.115167
-0.110062
-0.104446
-0.0983472
-0.0918029
-0.0848629
-0.0775908
-0.0700642
-0.0623761
-0.054633
-0.0469536
-0.039463
-0.0322871
-0.0255431
-0.0193329
-0.0137338
-0.00879824
-0.00454763
-0.000981304
0.0019285
0.00422067
0.00595485
0.00719012
0.00800031
0.0084459
0.00860003
0.00851308
0.00825037
0.00784575
0.00735438
0.00679193
0.00620302
0.0055867
0.00498111
0.00436917
0.00378641
0.00319957
0.00264181
0.00206539
0.00150655
0.000911496
0.000320145
-0.112129
-0.118686
-0.122313
-0.123851
-0.124684
-0.125557
-0.12654
-0.127405
-0.127934
-0.128028
-0.127674
-0.126887
-0.125674
-0.124024
-0.121915
-0.119325
-0.116239
-0.112654
-0.10857
-0.103997
-0.0989482
-0.0934485
-0.0875308
-0.0812392
-0.07463
-0.067772
-0.0607472
-0.053649
-0.0465818
-0.0396555
-0.0329818
-0.0266655
-0.0208009
-0.0154618
-0.0107023
-0.00654966
-0.00301236
-7.35644e-05
0.00229403
0.00413827
0.00550731
0.00646508
0.00706428
0.00737135
0.00743221
0.0073083
0.00703183
0.00665605
0.00619722
0.00569948
0.00516341
0.00462687
0.00407526
0.00354366
0.00300268
0.0024839
0.00194534
0.00141972
0.000860456
0.000301849
-0.103146
-0.109137
-0.112576
-0.114148
-0.115061
-0.115983
-0.116996
-0.117906
-0.118519
-0.118739
-0.118549
-0.117961
-0.116981
-0.115601
-0.1138
-0.111558
-0.108862
-0.105706
-0.10209
-0.0980215
-0.0935127
-0.088584
-0.0832643
-0.0775921
-0.071617
-0.065399
-0.0590099
-0.0525317
-0.0460553
-0.0396772
-0.033496
-0.0276055
-0.0220919
-0.0170251
-0.0124596
-0.00842674
-0.0049422
-0.00199847
0.000421516
0.00235486
0.00383955
0.00492994
0.00567103
0.00612236
0.00632509
0.00633637
0.00618642
0.00592616
0.00557206
0.0051673
0.0047139
0.00424913
0.00376101
0.00328352
0.00279138
0.00231455
0.00181656
0.00132695
0.000805752
0.000282588
-0.0947276
-0.100161
-0.103379
-0.104945
-0.105903
-0.106851
-0.107874
-0.10881
-0.109484
-0.109807
-0.10976
-0.10935
-0.108582
-0.107448
-0.105931
-0.104013
-0.10168
-0.0989255
-0.0957495
-0.0921567
-0.0881576
-0.0837693
-0.0790166
-0.0739326
-0.0685603
-0.0629519
-0.0571697
-0.0512848
-0.0453766
-0.0395291
-0.0338291
-0.0283603
-0.0232009
-0.0184164
-0.0140606
-0.0101675
-0.00675822
-0.00383302
-0.00138367
0.000617321
0.00219857
0.00340538
0.00427518
0.00486058
0.00519778
0.00533933
0.00531308
0.00516724
0.0049181
0.00460748
0.0042387
0.00384803
0.00342615
0.00300574
0.00256535
0.00213345
0.00167875
0.001228
0.000747238
0.000262261
-0.0868551
-0.091747
-0.0947281
-0.0962564
-0.0972324
-0.0981862
-0.0992026
-0.100145
-0.100861
-0.101265
-0.101338
-0.101082
-0.100503
-0.0995932
-0.0983359
-0.0967145
-0.0947166
-0.0923356
-0.0895697
-0.086422
-0.0829009
-0.0790206
-0.0748019
-0.0702731
-0.0654707
-0.0604398
-0.055234
-0.0499146
-0.0445504
-0.0392143
-0.0339825
-0.0289289
-0.0241246
-0.0196301
-0.0154973
-0.0117619
-0.00844885
-0.00556468
-0.00310862
-0.00106164
0.000596421
0.00190241
0.00288646
0.00359437
0.00405722
0.00432275
0.00441613
0.00438253
0.00423766
0.00402158
0.00373875
0.00342415
0.00307086
0.00271023
0.00232441
0.00194039
0.00153169
0.00112268
0.000684801
0.000240777
-0.0795029
-0.0838859
-0.0866255
-0.0880935
-0.0890645
-0.0900061
-0.0910011
-0.0919349
-0.0926731
-0.0931384
-0.0933085
-0.0931854
-0.0927713
-0.0920615
-0.0910385
-0.089687
-0.087996
-0.0859585
-0.0835716
-0.080837
-0.0777609
-0.0743546
-0.0706355
-0.066627
-0.0623603
-0.0578734
-0.0532122
-0.0484291
-0.0435835
-0.0387381
-0.0339596
-0.029313
-0.024862
-0.0206624
-0.0167636
-0.0132015
-0.0100039
-0.0071819
-0.00474105
-0.00266956
-0.000954782
0.000432378
0.00151519
0.00233278
0.00291113
0.003293
0.00350067
0.00357596
0.00353369
0.0034118
0.00321554
0.00297845
0.00269569
0.00239725
0.00206863
0.00173531
0.00137528
0.00101088
0.000618374
0.000218072
-0.0726615
-0.0765689
-0.079067
-0.0804578
-0.0814056
-0.0823207
-0.0832822
-0.084194
-0.0849388
-0.0854464
-0.0856943
-0.0856822
-0.0854122
-0.0848746
-0.0840599
-0.0829518
-0.081539
-0.0798147
-0.0777751
-0.0754206
-0.0727554
-0.0697882
-0.066533
-0.0630092
-0.0592426
-0.0552652
-0.0511157
-0.0468387
-0.0424849
-0.0381081
-0.0337661
-0.0295159
-0.0254143
-0.021512
-0.0178554
-0.0144798
-0.0114146
-0.00867441
-0.00626962
-0.00419457
-0.00244315
-0.00099327
0.000171985
0.00108536
0.00176789
0.00225725
0.00257261
0.00275223
0.00280977
0.00278085
0.00267105
0.00251232
0.00230162
0.00206743
0.0017983
0.00151834
0.00120955
0.00089256
0.000547945
0.000194105
-0.0663144
-0.0697788
-0.07204
-0.0733425
-0.0742539
-0.0751321
-0.0760508
-0.0769301
-0.077668
-0.0782013
-0.0785081
-0.0785866
-0.0784349
-0.0780474
-0.0774157
-0.0765257
-0.0753641
-0.0739229
-0.0721987
-0.0701908
-0.0679019
-0.0653382
-0.0625107
-0.059435
-0.0561324
-0.0526291
-0.0489577
-0.0451556
-0.0412656
-0.0373339
-0.0334101
-0.0295437
-0.0257851
-0.0221797
-0.018771
-0.0155925
-0.0126744
-0.0100336
-0.0076842
-0.00562564
-0.00385732
-0.00236328
-0.00113241
-0.000137945
0.000636333
0.00122317
0.00163856
0.00191692
0.00207039
0.00213209
0.00210779
0.00202765
0.00188997
0.00172171
0.00151404
0.00128984
0.0010347
0.000767806
0.000473565
0.000168864
-0.0604376
-0.0634942
-0.0655283
-0.0667368
-0.0676029
-0.0684368
-0.0693063
-0.0701452
-0.0708652
-0.0714102
-0.0717591
-0.0719086
-0.0718575
-0.0715999
-0.0711267
-0.0704262
-0.0694865
-0.0682989
-0.0668586
-0.0651642
-0.063217
-0.061021
-0.0585848
-0.0559205
-0.0530452
-0.0499804
-0.0467528
-0.0433936
-0.0399389
-0.0364274
-0.0329018
-0.0294046
-0.0259802
-0.022669
-0.0195108
-0.0165374
-0.0137785
-0.0112525
-0.00897622
-0.00695296
-0.00518671
-0.00366685
-0.00238741
-0.00132708
-0.000474237
0.000198995
0.000705481
0.00107589
0.00132063
0.00146985
0.00152916
0.00152685
0.00146246
0.00136135
0.00121677
0.00105041
0.000851122
0.000636828
0.00039536
0.000142375
-0.0550091
-0.0576941
-0.0595138
-0.0606264
-0.0614415
-0.0622264
-0.0630427
-0.0638357
-0.0645296
-0.0650748
-0.0654517
-0.0656564
-0.0656873
-0.0655389
-0.0652027
-0.0646669
-0.0639211
-0.062957
-0.0617695
-0.0603558
-0.0587159
-0.0568524
-0.0547713
-0.0524819
-0.0499975
-0.0473352
-0.0445171
-0.0415684
-0.0385193
-0.0354023
-0.0322535
-0.0291091
-0.026008
-0.0229855
-0.020078
-0.0173147
-0.0147246
-0.0123264
-0.0101389
-0.00816815
-0.00642188
-0.00489394
-0.00358281
-0.00247214
-0.00155446
-0.000806495
-0.000218726
0.00023573
0.000565675
0.000798457
0.000938987
0.00101324
0.00102165
0.000988104
0.000907707
0.000800937
0.000659414
0.000499986
0.000313533
0.000114684
-0.0500082
-0.0523563
-0.0539759
-0.0549936
-0.0557548
-0.0564884
-0.0572497
-0.0579936
-0.0586554
-0.059192
-0.0595854
-0.0598313
-0.0599276
-0.0598692
-0.0596485
-0.0592541
-0.0586766
-0.0579083
-0.0569437
-0.0557789
-0.0544132
-0.0528476
-0.0510862
-0.0491355
-0.0470058
-0.0447107
-0.0422675
-0.0396968
-0.0370235
-0.0342742
-0.0314795
-0.02867
-0.025879
-0.0231376
-0.0204781
-0.0179274
-0.0155128
-0.013253
-0.0111675
-0.00926461
-0.00755481
-0.00603558
-0.00470916
-0.00356356
-0.00259514
-0.00178481
-0.00112603
-0.000595832
-0.000187625
0.00012303
0.000340865
0.000489884
0.000570372
0.000604315
0.000588626
0.000542671
0.000460478
0.00035786
0.000228421
8.58898e-05
-0.0454132
-0.0474577
-0.0488928
-0.0498189
-0.0505255
-0.0512075
-0.0519137
-0.0526072
-0.0532333
-0.0537546
-0.0541549
-0.0544299
-0.0545771
-0.0545918
-0.0544675
-0.054193
-0.0537599
-0.053161
-0.0523904
-0.0514443
-0.050321
-0.0490202
-0.0475441
-0.0458972
-0.0440871
-0.0421241
-0.0400219
-0.0377968
-0.035469
-0.0330602
-0.030596
-0.0281018
-0.0256062
-0.0231357
-0.0207193
-0.0183807
-0.0161456
-0.0140319
-0.0120594
-0.0102377
-0.00857913
-0.00708415
-0.00575805
-0.00459251
-0.00358726
-0.00272727
-0.00200884
-0.00141221
-0.000932674
-0.000549312
-0.000258782
-3.90466e-05
0.000111145
0.000212124
0.000261398
0.000277043
0.00025536
0.00021115
0.000140454
5.61771e-05
-0.0412026
-0.0429754
-0.0442421
-0.0450815
-0.0457347
-0.0463662
-0.0470186
-0.047662
-0.0482503
-0.0487516
-0.0491516
-0.0494458
-0.0496322
-0.049707
-0.0496594
-0.0494847
-0.0491737
-0.0487196
-0.0481167
-0.0473611
-0.04645
-0.0453823
-0.0441587
-0.042782
-0.0412576
-0.0395928
-0.0377985
-0.0358871
-0.0338748
-0.031779
-0.0296208
-0.0274211
-0.0252044
-0.0229928
-0.0208118
-0.0186824
-0.0166281
-0.0146656
-0.0128145
-0.0110848
-0.00949034
-0.00803355
-0.00672219
-0.00555107
-0.00452272
-0.00362546
-0.00285843
-0.00220572
-0.00166419
-0.00121485
-0.000855395
-0.000567204
-0.000349936
-0.000184392
-7.12847e-05
5.98077e-06
4.53739e-05
6.06667e-05
5.00357e-05
2.55194e-05
-0.0373564
-0.0388875
-0.0400017
-0.0407604
-0.0413626
-0.0419457
-0.0425467
-0.0431413
-0.0436912
-0.0441693
-0.044563
-0.0448681
-0.0450822
-0.0451997
-0.0452156
-0.0451242
-0.0449173
-0.0445868
-0.0441278
-0.0435364
-0.0428096
-0.0419451
-0.040943
-0.0398046
-0.0385333
-0.0371342
-0.0356155
-0.0339865
-0.0322601
-0.0304498
-0.0285728
-0.0266462
-0.0246903
-0.0227238
-0.0207686
-0.0188429
-0.016968
-0.0151592
-0.0134351
-0.0118059
-0.0102861
-0.0088796
-0.00759594
-0.00643239
-0.00539389
-0.00447196
-0.00366761
-0.00296781
-0.00237221
-0.00186571
-0.0014458
-0.0010943
-0.000811824
-0.000581899
-0.000405957
-0.000267684
-0.000167156
-9.1898e-05
-4.17314e-05
-5.21954e-06
-0.0338554
-0.0351727
-0.0361501
-0.0368345
-0.0373888
-0.0379265
-0.0384791
-0.0390271
-0.039539
-0.039992
-0.0403751
-0.0406844
-0.0409173
-0.0410701
-0.0411375
-0.041113
-0.0409902
-0.0407632
-0.0404266
-0.0399755
-0.0394066
-0.038718
-0.0379085
-0.0369783
-0.0359294
-0.034765
-0.033491
-0.0321143
-0.0306448
-0.0290927
-0.027472
-0.0257961
-0.0240822
-0.0223454
-0.0206045
-0.0188748
-0.0171755
-0.0155201
-0.0139262
-0.0124035
-0.0109667
-0.00962044
-0.00837569
-0.00723158
-0.00619489
-0.00525959
-0.00442915
-0.00369356
-0.00305249
-0.00249286
-0.00201666
-0.00160983