/*--------------------------------*- C++ -*----------------------------------*\
| =========                 |                                                 |
| \\      /  F ield         | OpenFOAM: The Open Source CFD Toolbox           |
|  \\    /   O peration     | Version:  2512                                  |
|   \\  /    A nd           | Website:  www.openfoam.com                      |
|    \\/     M anipulation  |                                                 |
\*---------------------------------------------------------------------------*/
FoamFile
{
    version     2.0;
    format      ascii;
    arch        "LSB;label=32;scalar=64";
    class       volVectorField;
    location    "4.75";
    object      U;
}
// * * * * * * * * * * * * * * * * * * * * * * * * * * * * * * * * * * * * * //

dimensions      [0 1 -1 0 0 0 0];

internalField   nonuniform List<vector> 
13248
(
(-0.0169781 0.0156959 9.51063e-20)
(-0.0309726 0.0354593 0)
(-0.0222158 0.04821 -1.78003e-19)
(0.00951732 0.0546402 1.67665e-19)
(0.0641829 0.0554613 1.56268e-19)
(0.141344 0.0514114 0)
(0.239813 0.0432044 0)
(0.35726 0.0315396 3.81581e-19)
(0.489791 0.0170909 7.81632e-22)
(0.631741 0.000503712 -3.37764e-19)
(0.77588 -0.0175952 3.17599e-19)
(0.914135 -0.0365734 -1.99133e-19)
(1.03869 -0.0557749 0)
(1.1432 -0.0745249 -3.33918e-19)
(1.2238 -0.0921634 6.15165e-19)
(1.27955 -0.108104 -1.48379e-19)
(1.31226 -0.1219 -2.37743e-19)
(1.3257 -0.13329 2.23241e-19)
(1.32457 -0.142186 0)
(1.31343 -0.14875 0)
(1.29624 -0.152853 0)
(1.27526 -0.156147 0)
(1.25362 -0.154548 4.90284e-20)
(1.22784 -0.162562 1.5431e-19)
(-0.0162011 0.0131822 -2.87121e-19)
(-0.0224005 0.0256692 1.94827e-19)
(-0.00100252 0.0312758 -2.36951e-21)
(0.0474747 0.0318341 -2.56511e-19)
(0.122419 0.0287064 -1.561e-19)
(0.222425 0.0229698 -1.48206e-19)
(0.344594 0.0154281 -2.72996e-19)
(0.484059 0.00666968 2.58301e-19)
(0.63387 -0.00291298 0)
(0.785442 -0.0131056 8.69466e-22)
(0.929577 -0.0238188 9.85933e-22)
(1.05784 -0.0350011 1.95818e-19)
(1.16387 -0.0465494 0)
(1.24428 -0.0582495 0)
(1.29891 -0.0697723 2.14849e-19)
(1.33034 -0.0807231 -4.03968e-19)
(1.3429 -0.0907154 2.24859e-19)
(1.34154 -0.0994352 -2.11148e-19)
(1.33089 -0.106675 -8.68988e-20)
(1.31466 -0.112331 -1.47897e-19)
(1.2955 -0.11633 -5.33786e-20)
(1.27514 -0.118968 -9.77738e-20)
(1.25465 -0.118547 1.54816e-19)
(1.23363 -0.122869 4.08098e-20)
(-0.0140651 0.0105205 0)
(-0.00892296 0.016518 0)
(0.0296229 0.0167133 9.07504e-20)
(0.099635 0.0135221 8.32772e-20)
(0.199043 0.00872027 -2.11189e-21)
(0.324346 0.00360124 -1.54265e-19)
(0.46972 -0.0011007 0)
(0.626877 -0.00514648 -1.28873e-19)
(0.785732 -0.00871155 1.21524e-19)
(0.935792 -0.0122587 5.24696e-23)
(1.06786 -0.0163483 -2.07617e-19)
(1.1755 -0.0214334 -1.87777e-19)
(1.25585 -0.0277104 6.02062e-21)
(1.30958 -0.0350716 -1.46618e-19)
(1.34008 -0.0431608 3.5983e-19)
(1.35225 -0.0514921 0)
(1.35126 -0.0595728 -2.14006e-19)
(1.34168 -0.0669915 1.06003e-19)
(1.32702 -0.0734486 8.68343e-20)
(1.30969 -0.0787806 0)
(1.29123 -0.0828188 6.50943e-20)
(1.27239 -0.0858855 -2.10921e-19)
(1.25398 -0.0868145 1.98001e-19)
(1.23496 -0.0915722 1.12038e-19)
(-0.00982413 0.00735579 -1.01954e-19)
(0.0108444 0.00737241 -1.05434e-19)
(0.0708851 0.00390921 9.47931e-20)
(0.166287 -0.000667794 0)
(0.292484 -0.00455101 0)
(0.442687 -0.00655129 -4.1814e-21)
(0.60723 -0.0063692 0)
(0.774331 -0.00448351 -3.94995e-19)
(0.931878 -0.00189406 3.66247e-19)
(1.06958 0.000220271 -4.51494e-19)
(1.18066 0.000852462 1.03246e-19)
(1.26261 -0.000582722 0)
(1.31679 -0.00416833 1.64997e-19)
(1.34734 -0.00956711 -3.02577e-19)
(1.35969 -0.0161973 7.23744e-20)
(1.35924 -0.0234169 1.73615e-19)
(1.35056 -0.0306568 -1.35523e-20)
(1.33704 -0.0374822 -1.88159e-19)
(1.32097 -0.043602 0)
(1.30375 -0.0488376 0)
(1.28621 -0.0530888 -6.04743e-20)
(1.26881 -0.0564726 5.24704e-20)
(1.25191 -0.058211 1.76729e-19)
(1.23495 -0.0630123 -1.65995e-19)
(-0.00292211 0.00371203 -1.07999e-19)
(0.0378853 -0.00165219 -1.07399e-19)
(0.123346 -0.00689748 3.01792e-19)
(0.24667 -0.0103265 -1.82824e-19)
(0.399703 -0.0106055 1.72066e-19)
(0.571381 -0.00715648 3.12099e-19)
(0.748002 -0.00060565 -2.20858e-19)
(0.915348 0.00752844 -2.67326e-19)
(1.06143 0.0154034 6.7737e-21)
(1.17861 0.021412 3.40014e-19)
(1.26433 0.0245603 0)
(1.32051 0.0245793 9.0717e-20)
(1.35199 0.021801 0)
(1.3648 0.01691 -1.42532e-19)
(1.36477 0.0106916 2.00115e-19)
(1.35666 0.0038547 2.20945e-21)
(1.3439 -0.00305029 -4.97286e-20)
(1.32875 -0.00964069 9.09317e-20)
(1.31255 -0.0156725 7.65306e-20)
(1.29608 -0.0210046 -6.68757e-20)
(1.27973 -0.025568 6.04586e-20)
(1.26373 -0.0293887 -5.24559e-20)
(1.24821 -0.0321716 0)
(1.23277 -0.0369767 -3.81198e-20)
(0.00701983 -0.00010124 1.07983e-19)
(0.0727417 -0.00977151 1.13625e-19)
(0.186863 -0.0146161 -1.01247e-19)
(0.339018 -0.0142369 1.89082e-19)
(0.516474 -0.00841895 -1.77949e-19)
(0.703503 0.00217434 1.60542e-19)
(0.883264 0.0155568 -7.72625e-20)
(1.04124 0.029123 2.00662e-19)
(1.1681 0.0405303 -1.25965e-19)
(1.26069 0.0482814 2.18824e-19)
(1.32114 0.0518853 -5.0157e-19)
(1.355 0.0516765 1.82511e-19)
(1.36905 0.048471 -1.55647e-19)
(1.3697 0.0432284 1.46214e-19)
(1.3621 0.0368203 1.21878e-19)
(1.34988 0.0299257 1.03825e-19)
(1.33535 0.0230192 -2.87875e-19)
(1.31985 0.016407 1.7736e-19)
(1.30408 0.0102745 -7.65326e-20)
(1.28842 0.00472657 1.93518e-19)
(1.27306 -0.000186088 -6.27802e-20)
(1.2581 -0.00445035 -1.44874e-19)
(1.24361 -0.00795434 1.32606e-19)
(1.22934 -0.0127085 3.81097e-20)
(0.0202229 -0.00359303 0)
(0.115472 -0.0157676 1.18324e-21)
(0.260474 -0.0176553 2.13259e-19)
(0.44048 -0.0108461 -1.99821e-19)
(0.637595 0.00300237 -1.79919e-19)
(0.832018 0.0214093 3.3377e-19)
(1.00578 0.0409055 -1.54716e-19)
(1.14671 0.0581696 2.03631e-19)
(1.25011 0.0709803 -5.67289e-21)
(1.31787 0.0785042 -1.14024e-19)
(1.35608 0.0810532 2.43543e-19)
(1.37241 0.0796071 -3.57231e-19)
(1.37412 0.075353 0)
(1.36696 0.0693741 -6.77864e-20)
(1.35498 0.06251 -1.77366e-19)
(1.34066 0.0553416 5.61062e-20)
(1.32542 0.0482396 3.02839e-21)
(1.30999 0.0414285 -1.14307e-19)
(1.29474 0.0350404 1.01873e-20)
(1.27982 0.0291506 1.30848e-19)
(1.26532 0.0237992 -5.61244e-20)
(1.25128 0.0190142 -2.0093e-20)
(1.23769 0.0147385 6.4679e-20)
(1.22439 0.00987842 0)
(0.0367391 -0.00619973 0)
(0.165572 -0.0182762 5.79107e-20)
(0.342303 -0.0143584 -2.78518e-19)
(0.547186 0.00119105 1.0129e-19)
(0.757364 0.0241137 -9.53247e-20)
(0.950674 0.0498399 -8.65786e-20)
(1.11071 0.0737626 -1.51522e-19)
(1.22988 0.0925468 7.64755e-20)
(1.30897 0.104742 6.56368e-20)
(1.35432 0.110528 0)
(1.37458 0.111065 1.43837e-19)
(1.37811 0.107839 -2.11358e-19)
(1.37162 0.102228 1.56881e-19)
(1.35976 0.0952982 6.78237e-20)
(1.34541 0.0877803 -5.38686e-20)
(1.33017 0.0801335 -4.34572e-20)
(1.31482 0.0726314 -3.98066e-20)
(1.29972 0.0654339 1.22359e-19)
(1.28503 0.0586355 0)
(1.27079 0.0522933 5.83235e-20)
(1.25703 0.0464437 4.69508e-20)
(1.24374 0.0411014 -1.18942e-19)
(1.2309 0.0361697 -7.79333e-20)
(1.21838 0.0312006 7.22985e-20)
(0.0564371 -0.00733345 -6.2436e-20)
(0.221945 -0.0159749 -2.36974e-21)
(0.429617 -0.00333731 5.67539e-20)
(0.654612 0.0226441 1.58472e-19)
(0.870331 0.0546276 4.5542e-20)
(1.05482 0.0861763 -8.82517e-20)
(1.19579 0.112306 8.04334e-20)
(1.29151 0.130456 -6.97031e-20)
(1.34793 0.14041 1.23371e-19)
(1.37459 0.143458 5.14868e-20)
(1.38126 0.141465 -1.46392e-19)
(1.37594 0.136218 4.25488e-20)
(1.36426 0.129118 7.12702e-20)
(1.3497 0.121117 -3.52601e-20)
(1.33416 0.112805 0)
(1.31858 0.10452 5.05188e-20)
(1.30336 0.0964551 8.3671e-20)
(1.28864 0.08872 1.30009e-20)
(1.27447 0.0813809 -6.86338e-20)
(1.26084 0.0744808 2.80832e-20)
(1.24774 0.0680468 0)
(1.23513 0.0620738 -2.12821e-20)
(1.22299 0.0564812 -1.95129e-20)
(1.2112 0.0512292 0)
(0.0789473 -0.00642332 0)
(0.282892 -0.00773991 3.26984e-20)
(0.519032 0.0163095 6.06317e-20)
(0.758109 0.0535665 -1.61415e-19)
(0.971978 0.0935914 5.21472e-20)
(1.14169 0.128815 0)
(1.2609 0.154833 7.65884e-20)
(1.33386 0.170512 -1.06682e-19)
(1.37065 0.177071 -6.14865e-20)
(1.38262 0.176796 2.75668e-20)
(1.37952 0.172036 -4.29718e-20)
(1.36837 0.164673 1.04937e-19)
(1.35358 0.156003 5.13683e-20)
(1.33758 0.146816 -3.63043e-20)
(1.32155 0.137557 -4.00034e-21)
(1.30598 0.128465 -9.50249e-20)
(1.29104 0.119671 4.2975e-20)
(1.27676 0.111249 -9.55638e-22)
(1.26313 0.103246 0)
(1.25009 0.0956943 -2.81119e-20)
(1.23762 0.0886083 0)
(1.22566 0.0819684 6.12106e-20)
(1.21417 0.0757614 -7.21037e-20)
(1.20302 0.0701326 3.2558e-20)
(0.103643 -0.00295996 -1.69714e-20)
(0.346204 0.00724092 -8.24612e-20)
(0.60683 0.0448969 9.37207e-20)
(0.853416 0.0933326 5.48871e-20)
(1.05905 0.139595 -2.63422e-20)
(1.21018 0.176086 4.34254e-20)
(1.30718 0.199895 -2.12287e-20)
(1.35961 0.211709 3.46927e-20)
(1.38034 0.214154 0)
(1.3813 0.210285 7.68317e-20)
(1.37148 0.202687 -3.57225e-21)
(1.35668 0.193178 -6.12223e-20)
(1.34015 0.182874 2.58753e-20)
(1.32349 0.172391 -2.87475e-20)
(1.30738 0.162048 -1.05979e-20)
(1.29202 0.152005 1.25411e-20)
(1.27746 0.142344 -9.49341e-21)
(1.26366 0.133115 -5.04166e-20)
(1.25058 0.124347 3.08571e-20)
(1.23814 0.116061 6.20277e-21)
(1.22629 0.108252 5.3789e-21)
(1.21498 0.100901 4.66223e-21)
(1.20413 0.0940748 0)
(1.19361 0.0878968 0)
(0.129737 0.00347388 1.69831e-20)
(0.409453 0.0294106 -1.70426e-20)
(0.689462 0.0821489 -3.12076e-20)
(0.937136 0.140784 0)
(1.12962 0.191012 -1.30273e-20)
(1.26033 0.226443 -1.15941e-20)
(1.33624 0.246345 -1.96473e-20)
(1.37108 0.253355 0)
(1.37923 0.251309 0)
(1.37228 0.243759 0)
(1.35807 0.233322 0)
(1.34115 0.22164 0)
(1.32381 0.209623 -1.6245e-20)
(1.30702 0.197726 7.38522e-21)
(1.29111 0.186162 1.26212e-20)
(1.27615 0.175029 5.84851e-21)
(1.26209 0.164378 1.43029e-20)
(1.24885 0.154232 0)
(1.23638 0.144611 -3.31976e-21)
(1.2246 0.135518 -3.09578e-21)
(1.21343 0.126933 -5.38738e-21)
(1.2028 0.118853 -4.6696e-21)
(1.19262 0.111424 0)
(1.18277 0.104586 3.22702e-21)
(-0.00810545 0.00306113 8.72639e-21)
(-0.0360028 0.00598567 -9.27245e-21)
(-0.082193 0.00672553 -1.78427e-20)
(-0.134397 0.00629115 0)
(-0.186674 0.00523541 -2.48008e-20)
(-0.236762 0.00385502 7.81707e-21)
(-0.283322 0.00231085 -1.53869e-20)
(-0.325393 0.000676302 0)
(-0.362198 -0.00102451 0)
(-0.392998 -0.00278827 0)
(-0.417041 -0.0046171 0)
(-0.433578 -0.00651186 0)
(-0.441881 -0.00846841 -2.92989e-22)
(-0.441274 -0.0104728 -1.02575e-20)
(-0.431196 -0.0124902 1.82599e-20)
(-0.411466 -0.0144263 2.34766e-20)
(-0.382079 -0.016309 6.59795e-21)
(-0.343158 -0.0180765 0)
(-0.2952 -0.0196597 3.98633e-21)
(-0.23902 -0.020993 -1.06608e-20)
(-0.175709 -0.0220182 -5.00451e-21)
(-0.106557 -0.0226768 -3.33657e-21)
(-0.0328819 -0.0228636 0)
(0.0437664 -0.0221033 0)
(-0.00971169 0.0251334 -2.65507e-20)
(-0.0380245 0.0527393 4.63663e-20)
(-0.0823694 0.0659695 -1.76834e-20)
(-0.131883 0.07065 -3.48046e-20)
(-0.181168 0.0702402 4.92633e-20)
(-0.228088 0.0667585 -3.2422e-20)
(-0.27132 0.0612885 4.5882e-20)
(-0.309888 0.0542943 3.02707e-20)
(-0.343 0.0458991 0)
(-0.369916 0.0360871 -2.72306e-20)
(-0.389903 0.0248192 -2.10584e-22)
(-0.402242 0.0120908 2.39483e-20)
(-0.406251 -0.00203261 3.43782e-20)
(-0.401308 -0.0173796 4.03613e-20)
(-0.386825 -0.0336924 -2.03447e-20)
(-0.362788 -0.050811 -4.95632e-20)
(-0.329351 -0.0681385 1.25976e-20)
(-0.28663 -0.0851061 -4.88734e-20)
(-0.235254 -0.101121 0)
(-0.176184 -0.11559 6.90943e-21)
(-0.110656 -0.127999 4.99705e-21)
(-0.0401392 -0.137912 3.33157e-21)
(0.0338902 -0.145001 0)
(0.11096 -0.148246 0)
(-0.0126662 0.0435902 0)
(-0.0412647 0.09323 9.68554e-20)
(-0.0810257 0.118718 -3.65214e-20)
(-0.124109 0.12918 3.54601e-20)
(-0.166295 0.130277 -1.01816e-19)
(-0.205726 0.125493 0)
(-0.241125 0.116798 -6.43044e-20)
(-0.271503 0.1051 3.02558e-20)
(-0.296054 0.0906934 -6.01916e-20)
(-0.314059 0.0735971 2.99323e-20)
(-0.324845 0.0537676 1.63191e-19)
(-0.327776 0.0312097 -7.66169e-20)
(-0.322248 0.0060379 -1.16879e-19)
(-0.30776 -0.0214809 -4.22879e-20)
(-0.284307 -0.050883 3.78402e-21)
(-0.25165 -0.0817413 1.38694e-19)
(-0.209783 -0.112986 -6.28503e-20)
(-0.15941 -0.143597 -2.66231e-21)
(-0.10139 -0.172441 0)
(-0.0369818 -0.198322 -3.54909e-20)
(0.0323139 -0.220245 0)
(0.104764 -0.237437 -1.02021e-20)
(0.178214 -0.249413 4.7046e-20)
(0.25525 -0.255828 -7.69353e-21)
(-0.0161957 0.0561984 0)
(-0.0449594 0.123213 1.61906e-21)
(-0.0783018 0.160177 3.88824e-20)
(-0.112244 0.177243 -3.78799e-20)
(-0.144179 0.181135 3.29503e-20)
(-0.172706 0.176331 2.04427e-19)
(-0.1967 0.165566 -6.46285e-20)
(-0.215214 0.150251 -6.43921e-20)
(-0.227469 0.130949 1.22339e-19)
(-0.232806 0.107808 -1.76457e-19)
(-0.230663 0.0808367 5.65096e-20)
(-0.220568 0.0500707 5.44651e-20)
(-0.202134 0.0156758 0)
(-0.174956 -0.0219948 4.48598e-20)
(-0.139194 -0.0625369 0)
(-0.0950106 -0.104783 7.82606e-20)
(-0.0426666 -0.147568 -1.26685e-19)
(0.0168865 -0.189413 3.86662e-20)
(0.0824758 -0.2286 1.00518e-19)
(0.152433 -0.26342 3.54385e-20)
(0.224697 -0.292365 0)
(0.297566 -0.314278 -5.89638e-20)
(0.367403 -0.328545 1.88688e-20)
(0.441776 -0.335859 0)
(-0.019403 0.0619722 0)
(-0.048199 0.140191 -1.24364e-19)
(-0.0744745 0.186915 -4.05113e-20)
(-0.0980001 0.211016 -7.62467e-20)
(-0.117912 0.219 7.17999e-20)
(-0.133441 0.215683 -6.87757e-20)
(-0.143767 0.204316 1.36911e-19)
(-0.14811 0.186797 6.79972e-20)
(-0.145793 0.164035 -1.86684e-19)
(-0.136269 0.136414 1.22931e-19)
(-0.119115 0.104071 -1.73958e-19)
(-0.0940116 0.0671146 3.90998e-19)
(-0.0607685 0.0257522 -2.09045e-19)
(-0.0195564 -0.0196743 9.92359e-20)
(0.0296221 -0.0684682 2.67276e-19)
(0.08656 -0.119278 -8.58608e-20)
(0.150204 -0.17067 -8.34219e-20)
(0.219221 -0.220696 -6.54039e-20)
(0.29182 -0.267122 0)
(0.36584 -0.307778 -8.01987e-20)
(0.438695 -0.340767 -5.08777e-20)
(0.508949 -0.364521 8.9925e-20)
(0.571149 -0.378826 6.58837e-20)
(0.638072 -0.383911 -6.52586e-20)
(-0.0215501 0.061286 0)
(-0.0501755 0.14383 -1.74042e-19)
(-0.0698959 0.197417 -2.2503e-21)
(-0.0832859 0.228011 1.5467e-19)
(-0.0909988 0.240811 0)
(-0.0929859 0.240282 0)
(-0.0888793 0.229808 0)
(-0.0782297 0.211607 -6.82167e-20)
(-0.060589 0.186962 -3.4359e-21)
(-0.0355598 0.15655 1.22541e-19)
(-0.0028844 0.120692 -1.79834e-19)
(0.0375867 0.0795964 -6.95197e-22)
(0.085873 0.033519 0)
(0.141794 -0.0170612 -9.91316e-20)
(0.204979 -0.0711221 9.20671e-20)
(0.274674 -0.127435 -2.57627e-19)
(0.349444 -0.184135 2.96262e-19)
(0.427244 -0.238834 5.16279e-20)
(0.505449 -0.288877 -2.36659e-20)
(0.581226 -0.331645 -2.00588e-19)
(0.651381 -0.365204 -7.87978e-20)
(0.71496 -0.38766 2.01367e-19)
(0.765661 -0.400112 -1.3071e-19)
(0.819465 -0.400377 0)
(-0.0222797 0.0556375 8.77047e-20)
(-0.0504258 0.135939 8.75497e-20)
(-0.064927 0.192445 -8.44116e-20)
(-0.0697594 0.227655 -1.59477e-19)
(-0.0665805 0.244879 1.5015e-19)
(-0.0559944 0.247688 -1.46068e-19)
(-0.0381844 0.23917 2.06774e-19)
(-0.0131082 0.22162 -6.89492e-20)
(0.0193746 0.196581 1.27507e-19)
(0.059435 0.164973 0)
(0.107202 0.127326 1.21892e-19)
(0.162744 0.0840064 -2.2626e-19)
(0.225999 0.0354135 2.16832e-19)
(0.296648 -0.0178228 -2.03629e-19)
(0.373929 -0.0746412 0)
(0.456396 -0.133435 1.713e-19)
(0.54174 -0.191948 3.00497e-19)
(0.626853 -0.247415 -2.81382e-19)
(0.708098 -0.296926 -1.17267e-19)
(0.78203 -0.337739 -8.61025e-20)
(0.845262 -0.368282 2.52455e-19)
(0.897512 -0.386585 5.70583e-20)
(0.933427 -0.395676 -6.3625e-20)
(0.969443 -0.390122 4.06277e-20)
(-0.0217029 0.0471398 -8.77164e-20)
(-0.0489893 0.11994 2.72244e-19)
(-0.0599034 0.174956 -8.61392e-20)
(-0.0584312 0.211704 1.61045e-19)
(-0.0466064 0.23163 -1.51618e-19)
(-0.0254703 0.237173 -1.54002e-21)
(0.004318 0.230824 6.79765e-20)
(0.0423875 0.214685 2.67365e-19)
(0.08859 0.190327 5.88653e-21)
(0.142924 0.158814 -1.21464e-19)
(0.205457 0.120863 0)
(0.276222 0.0770158 -1.13281e-19)
(0.35499 0.0278305 2.13066e-19)
(0.44102 -0.025844 2.00345e-19)
(0.532753 -0.082635 -9.57461e-20)
(0.627556 -0.140534 -1.35123e-21)
(0.721727 -0.196941 -7.71322e-20)
(0.81088 -0.248908 1.34175e-19)
(0.890578 -0.293624 1.17226e-19)
(0.957325 -0.328688 -9.89449e-20)
(1.0085 -0.353264 8.20898e-20)
(1.04504 -0.36574 -6.71966e-20)
(1.06402 -0.370892 0)
(1.08051 -0.360493 -4.06473e-20)
(-0.0203247 0.0379282 9.01451e-20)
(-0.0463701 0.0999326 -9.13002e-20)
(-0.0550279 0.149423 8.63793e-20)
(-0.0493106 0.184091 0)
(-0.0310715 0.204021 0)
(-0.00148773 0.210619 1.44027e-19)
(0.0385291 0.205677 -1.36297e-19)
(0.0883656 0.190911 1.32306e-19)
(0.147721 0.167739 -6.25761e-19)
(0.216526 0.137262 -2.35416e-21)
(0.294766 0.100299 1.13705e-19)
(0.382184 0.0575393 0)
(0.477928 0.00980743 -2.09025e-19)
(0.580153 -0.0416752 3.91637e-19)
(0.68573 -0.0951502 -2.75783e-19)
(0.790262 -0.148307 -4.11422e-19)
(0.88854 -0.198459 1.54293e-20)
(0.975362 -0.242897 2.69289e-19)
(1.04649 -0.279367 0)
(1.09956 -0.306285 0)
(1.13392 -0.323645 -8.2105e-20)
(1.15232 -0.330512 6.72141e-20)
(1.15462 -0.332546 -2.03546e-19)
(1.15385 -0.319734 1.90822e-19)
(-0.0188242 0.029666 0)
(-0.0432516 0.0796588 0)
(-0.05014 0.120708 -2.59337e-19)
(-0.0411325 0.150038 8.22106e-20)
(-0.0175455 0.167098 3.20283e-22)
(0.0196148 0.172596 1.42339e-19)
(0.0694841 0.167719 0)
(0.131452 0.15376 -1.27764e-19)
(0.205189 0.131928 1.24092e-19)
(0.290452 0.10324 -2.33959e-19)
(0.386715 0.0685552 -2.15667e-21)
(0.492733 0.0287785 2.1472e-19)
(0.606083 -0.0149396 7.72936e-22)
(0.722894 -0.061064 1.87432e-19)
(0.837944 -0.107633 -2.68274e-19)
(0.945229 -0.152375 0)
(1.03891 -0.192967 2.79912e-19)
(1.11441 -0.227393 -3.92678e-19)
(1.16926 -0.254256 1.07625e-19)
(1.20347 -0.27296 0)
(1.21911 -0.284008 7.78588e-20)
(1.22052 -0.287233 2.49137e-19)
(1.20965 -0.287876 -2.33876e-19)
(1.19712 -0.275305 -2.11906e-19)
(-0.0177519 0.0232531 2.74084e-19)
(-0.0400169 0.0616857 -3.74751e-19)
(-0.0443645 0.092889 1.73537e-21)
(-0.0312218 0.114765 8.25199e-20)
(-0.00125129 0.126814 -1.52617e-19)
(0.0449148 0.129451 -1.42964e-19)
(0.106657 0.123488 2.6924e-19)
(0.183437 0.109905 3.36897e-21)
(0.274647 0.0896751 -2.39948e-19)
(0.379247 0.063706 4.61701e-19)
(0.495286 0.0329313 5.1392e-21)
(0.619453 -0.00158604 -2.06773e-19)
(0.74689 -0.0385522 0)
(0.871451 -0.0764002 0)
(0.986414 -0.113354 -8.62395e-20)
(1.08554 -0.147602 -1.49542e-19)
(1.16422 -0.177534 -2.6617e-19)
(1.22025 -0.201993 2.49899e-19)
(1.25414 -0.220375 -1.07715e-19)
(1.26859 -0.23281 1.71519e-19)
(1.26791 -0.239748 -9.40402e-20)
(1.25678 -0.241866 1.07137e-19)
(1.23838 -0.24231 -2.81058e-19)
(1.22017 -0.232079 4.46658e-20)
(-0.017253 0.0187745 9.23023e-20)
(-0.0363123 0.047059 0)
(-0.0358964 0.0684861 1.75626e-19)
(-0.0157485 0.0823022 -1.65429e-19)
(0.0239922 0.0885239 1.52766e-19)
(0.0830258 0.0876197 0)
(0.160809 0.0802622 0)
(0.256408 0.0672289 -1.26803e-19)
(0.368147 0.0493213 -1.9262e-21)
(0.493136 0.0273696 1.11515e-19)
(0.626936 0.0022615 -1.06987e-19)
(0.763545 -0.0250104 2.02434e-19)
(0.895845 -0.0533196 0)
(1.01651 -0.0814297 3.48361e-19)
(1.11917 -0.108084 -6.44016e-19)
(1.19946 -0.13214 4.47256e-19)
(1.25574 -0.152709 2.51794e-19)
(1.28911 -0.169277 -2.36422e-19)
(1.30289 -0.181686 0)
(1.30151 -0.190292 0)
(1.28983 -0.195176 0)
(1.27148 -0.197874 0)
(1.25029 -0.197652 5.28314e-20)
(1.22946 -0.19299 -1.65701e-19)
(0.130909 -0.0173678 4.86617e-22)
(0.225208 -0.0116253 -4.77668e-22)
(0.314306 -0.00647035 3.51919e-23)
(0.397961 -0.00186234 0)
(0.475319 0.00228365 1.55103e-21)
(0.545626 0.00596871 -3.02993e-21)
(0.60846 0.00918037 3.9949e-23)
(0.663777 0.0119279 1.39961e-21)
(0.711852 0.0142338 0)
(0.753082 0.0161463 0)
(0.788138 0.0178331 6.22313e-23)
(0.817793 0.019265 5.51459e-23)
(0.842665 0.0205009 7.94154e-22)
(0.863421 0.0215838 -7.24547e-22)
(0.880794 0.0223891 0)
(0.895409 0.0230728 0)
(0.907756 0.0236393 -4.57764e-22)
(0.918297 0.0241802 3.68814e-23)
(0.927388 0.0247355 3.72769e-22)
(0.9353 0.0253333 2.12732e-23)
(0.942233 0.0259883 0)
(0.948335 0.0266985 0)
(0.95372 0.027453 0)
(0.958483 0.0282408 0)
(0.962708 0.0290556 0)
(0.966464 0.0298961 0)
(0.969812 0.0307643 -6.37563e-23)
(0.972806 0.0316644 1.03674e-22)
(0.975491 0.0326015 0)
(0.977906 0.0335814 0)
(0.980083 0.0346101 6.41804e-23)
(0.98205 0.035694 -6.23772e-23)
(0.983833 0.0368396 -2.8741e-23)
(0.98545 0.0380537 0)
(0.986922 0.0393431 0)
(0.988262 0.0407151 -4.74454e-23)
(0.989485 0.0421772 4.61198e-23)
(0.990603 0.0437374 0)
(0.991626 0.0454042 -4.03452e-23)
(0.992564 0.0471868 5.86044e-23)
(0.993425 0.0490951 -1.83886e-23)
(0.994217 0.05114 0)
(0.994948 0.053333 3.26471e-23)
(0.995624 0.055687 -3.1746e-23)
(0.996249 0.0582156 0)
(0.996831 0.0609336 0)
(0.997374 0.0638571 1.29485e-23)
(0.997881 0.0670034 -3.73357e-23)
(0.99836 0.0703898 0)
(0.99881 0.0740417 0)
(0.999246 0.0779566 9.60225e-24)
(0.999648 0.0822397 2.5936e-26)
(1.00006 0.0866468 6.78055e-25)
(1.00042 0.0919726 -6.88873e-24)
(1.00083 0.0962364 0)
(1.00118 0.104078 0)
(1.00154 0.106237 0)
(1.00194 0.118686 0)
(1.00221 0.118407 0)
(1.0027 0.133387 0)
(0.193626 -0.137775 -1.29664e-23)
(0.279346 -0.122456 3.42407e-21)
(0.359413 -0.107208 1.50409e-21)
(0.434962 -0.0921551 -4.65931e-21)
(0.505198 -0.0773375 -8.49953e-23)
(0.569252 -0.0631452 0)
(0.62671 -0.0500062 5.54672e-21)
(0.677538 -0.038156 -1.07014e-20)
(0.721974 -0.0276871 5.15486e-21)
(0.760515 -0.0186012 -4.27241e-21)
(0.793589 -0.010745 4.09048e-21)
(0.821677 -0.00411273 -3.31464e-21)
(0.845451 0.00139975 3.22477e-21)
(0.865378 0.00594304 8.54064e-23)
(0.882142 0.00984778 2.32695e-21)
(0.896376 0.0130112 -2.26148e-21)
(0.908474 0.0153968 1.83735e-21)
(0.91887 0.0173363 -1.73241e-21)
(0.92786 0.0189918 1.48963e-21)
(0.935704 0.0204766 -2.76226e-21)
(0.942598 0.0218569 1.27929e-21)
(0.948682 0.023169 6.93776e-23)
(0.954063 0.0244288 9.75369e-22)
(0.958832 0.0256431 -1.83713e-21)
(0.963066 0.0268182 8.64197e-22)
(0.966834 0.0279634 -4.80108e-23)
(0.970197 0.0290895 -7.11626e-22)
(0.973206 0.0302082 1.15872e-23)
(0.975907 0.0313314 1.21274e-21)
(0.978339 0.0324702 -1.12792e-21)
(0.980533 0.0336351 5.36489e-22)
(0.982519 0.0348362 -6.15167e-23)
(0.98432 0.0360831 2.87995e-23)
(0.985958 0.0373849 -5.4284e-23)
(0.98745 0.0387506 0)
(0.988811 0.0401891 0)
(0.990056 0.0417094 1.80263e-22)
(0.991197 0.0433206 -1.31965e-22)
(0.992244 0.0450321 -1.20903e-22)
(0.993207 0.0468541 -1.55893e-23)
(0.994094 0.048797 1.67709e-22)
(0.994914 0.0508723 -3.49873e-23)
(0.995674 0.053092 0)
(0.996379 0.0554695 0)
(0.997037 0.0580188 0)
(0.997652 0.060755 0)
(0.998229 0.0636944 -5.28359e-23)
(0.998774 0.0668547 2.47661e-23)
(0.999291 0.0702533 0)
(0.999781 0.0739159 0)
(1.00026 0.0778399 0)
(1.0007 0.0821318 1.68323e-23)
(1.00116 0.086544 -1.2721e-24)
(1.00157 0.0918806 1.44955e-23)
(1.00202 0.0961408 0)
(1.00241 0.104002 0)
(1.00283 0.106149 -7.44738e-24)
(1.00326 0.118613 -1.76442e-23)
(1.00358 0.118337 0)
(1.00412 0.133323 0)
(0.327367 -0.241057 -6.17527e-21)
(0.396398 -0.218536 -1.07479e-21)
(0.458766 -0.195032 -7.5517e-21)
(0.517992 -0.171053 7.09169e-21)
(0.573524 -0.147035 8.55711e-23)
(0.624357 -0.123819 0)
(0.670166 -0.102204 1.05752e-20)
(0.711083 -0.0826375 -1.03454e-20)
(0.74736 -0.0652361 -7.5445e-23)
(0.779298 -0.0499959 -1.28877e-22)
(0.807192 -0.0369341 -1.1704e-22)
(0.83137 -0.0258427 -1.0944e-22)
(0.852249 -0.0165508 5.90421e-21)
(0.870361 -0.00885743 -5.82406e-21)
(0.885926 -0.00243919 0)
(0.899028 0.00269041 -1.33017e-22)
(0.910294 0.00702799 3.6706e-21)
(0.920195 0.0104577 -3.62041e-21)
(0.928864 0.0132167 0)
(0.936493 0.0155728 0)
(0.943241 0.0176719 2.46158e-21)
(0.949229 0.019586 -4.61587e-21)
(0.95455 0.0213534 4.06057e-21)
(0.959282 0.0229971 -1.7447e-22)
(0.963497 0.0245359 -3.32521e-21)
(0.967257 0.025989 3.14629e-21)
(0.970619 0.0273758 -2.76287e-21)
(0.973632 0.0287154 1.4636e-22)
(0.976341 0.0300261 1.24885e-21)
(0.978784 0.0313248 0)
(0.980991 0.0326265 0)
(0.982992 0.0339453 -3.62827e-22)
(0.98481 0.0352936 4.72823e-22)
(0.986465 0.0366834 -9.10944e-26)
(0.987976 0.0381255 -4.05715e-22)
(0.989358 0.0396306 3.94289e-22)
(0.990625 0.0412089 0)
(0.991788 0.0428708 -4.34351e-23)
(0.992858 0.0446269 -3.66722e-22)
(0.993846 0.046488 7.03338e-22)
(0.994759 0.0484654 -3.00089e-22)
(0.995607 0.0505709 -3.52034e-23)
(0.996395 0.0528174 3.29667e-22)
(0.997131 0.0552184 -2.55695e-22)
(0.99782 0.0577884 -5.96891e-23)
(0.998468 0.0605429 -5.63358e-23)
(0.999081 0.0634985 5.29704e-23)
(0.999662 0.0666731 0)
(1.00022 0.0700845 0)
(1.00075 0.0737586 1.70326e-22)
(1.00127 0.0776925 -8.17279e-23)
(1.00176 0.0819943 7.26595e-23)
(1.00226 0.0864129 -9.83433e-23)
(1.00271 0.0917619 -1.13233e-22)
(1.00322 0.096021 2.65607e-23)
(1.00364 0.103902 -4.22243e-23)
(1.00413 0.106042 3.37143e-23)
(1.00458 0.118524 -1.4522e-23)
(1.00495 0.118252 0)
(1.00554 0.133253 0)
(0.497356 -0.319083 -1.21995e-20)
(0.545253 -0.292794 1.14625e-20)
(0.585645 -0.263827 6.20264e-22)
(0.624411 -0.233287 1.13899e-22)
(0.661526 -0.202348 0)
(0.695871 -0.172378 0)
(0.727121 -0.144421 1.85961e-20)
(0.75555 -0.119065 1.09312e-22)
(0.781456 -0.0965092 -2.59713e-20)
(0.804983 -0.0767249 5.43749e-22)
(0.826225 -0.0596044 7.68439e-21)
(0.845295 -0.0449499 6.19849e-21)
(0.86234 -0.0325348 -6.21831e-21)
(0.877507 -0.022147 0)
(0.890909 -0.0137323 4.59668e-21)
(0.902858 -0.00688393 -4.20067e-21)
(0.913324 -0.00119463 0)
(0.922356 0.00352188 0)
(0.930429 0.0074287 -2.94163e-21)
(0.937686 0.0106514 2.07141e-22)
(0.944184 0.0134467 2.49791e-21)
(0.949997 0.0159507 2.24253e-21)
(0.955197 0.018222 -2.2375e-21)
(0.959848 0.0202951 1.86169e-21)
(0.96401 0.0221995 -1.53243e-22)
(0.967738 0.0239633 -1.60508e-21)
(0.971081 0.0256138 -1.79386e-22)
(0.974086 0.027177 5.47619e-28)
(0.976794 0.0286777 0)
(0.97924 0.0301382 -1.12207e-21)
(0.981456 0.0315782 1.1569e-21)
(0.983468 0.0330156 -6.23963e-23)
(0.9853 0.0344662 0)
(0.986972 0.0359444 5.50276e-23)
(0.9885 0.0374634 -8.18481e-22)
(0.989901 0.0390353 1.47035e-21)
(0.991188 0.040672 7.27207e-23)
(0.992373 0.0423849 -1.81284e-23)
(0.993467 0.0441855 -5.89745e-22)
(0.994479 0.0460856 -7.86393e-23)
(0.995418 0.0480972 5.89772e-22)
(0.996293 0.050233 -5.02448e-22)
(0.997109 0.0525061 9.57062e-26)
(0.997875 0.0549306 -2.50462e-22)
(0.998596 0.0575214 3.03395e-22)
(0.999278 0.0602943 3.92798e-22)
(0.999925 0.0632664 -1.10032e-22)
(1.00054 0.0664557 -1.95953e-22)
(1.00114 0.0698803 3.72933e-22)
(1.00171 0.0735665 -2.6392e-22)
(1.00227 0.0775112 7.49587e-23)
(1.0028 0.0818243 -8.2815e-23)
(1.00335 0.0862506 -7.0976e-23)
(1.00385 0.0916137 1.7184e-22)
(1.0044 0.0958742 -3.1057e-24)
(1.00486 0.103777 4.24906e-23)
(1.00542 0.105913 0)
(1.00589 0.118419 1.47111e-23)
(1.00631 0.11815 -2.07301e-23)
(1.00697 0.133175 0)
(0.673002 -0.367622 2.33246e-20)
(0.69826 -0.341441 -3.32874e-20)
(0.716113 -0.310663 1.01346e-20)
(0.733729 -0.276801 -6.9435e-21)
(0.751876 -0.241925 1.81807e-20)
(0.769533 -0.207976 2.77786e-21)
(0.786281 -0.176177 -1.36626e-20)
(0.802286 -0.147141 -1.53961e-20)
(0.817795 -0.121162 1.50917e-20)
(0.832847 -0.098303 0)
(0.847315 -0.0784419 1.32307e-20)
(0.86107 -0.0613477 -2.4979e-20)
(0.874029 -0.0467517 1.17954e-20)
(0.88613 -0.0343987 0)
(0.897287 -0.0240793 0)
(0.907467 -0.0155586 -1.33418e-22)
(0.916783 -0.00877593 7.25105e-21)
(0.925185 -0.00317359 -7.04436e-21)
(0.932607 0.00161305 0)
(0.939301 0.00572769 -5.48038e-21)
(0.945432 0.00921699 9.97196e-21)
(0.950994 0.0122905 -9.04807e-21)
(0.956013 0.015053 8.35872e-21)
(0.960536 0.0175498 -2.29452e-22)
(0.96461 0.0198176 -6.97837e-21)
(0.968279 0.0218923 3.33906e-21)
(0.971584 0.0238078 9.07301e-23)
(0.974567 0.0255963 1.22778e-21)
(0.977263 0.0272886 -5.56251e-23)
(0.979707 0.0289124 -1.18342e-21)
(0.981926 0.0304919 -6.74833e-23)
(0.983945 0.0320489 9.93451e-22)
(0.985788 0.0336023 -1.89779e-21)
(0.987474 0.0351694 1.01751e-21)
(0.989018 0.0367654 0)
(0.990437 0.0384045 8.80474e-22)
(0.991744 0.0400997 -8.52651e-22)
(0.99295 0.0418637 6.10974e-22)
(0.994066 0.043709 -7.6335e-22)
(0.995102 0.045648 7.9519e-23)
(0.996067 0.0476938 0)
(0.996969 0.0498596 7.14354e-23)
(0.997814 0.0521592 -2.02903e-22)
(0.99861 0.0546071 0)
(0.999363 0.0572187 -5.97846e-22)
(1.00008 0.0600101 2.351e-22)
(1.00076 0.0629987 -1.07217e-22)
(1.00142 0.0662031 -1.0067e-22)
(1.00205 0.0696412 0)
(1.00266 0.0733403 0)
(1.00326 0.0772965 2.35858e-22)
(1.00384 0.0816219 -3.65848e-22)
(1.00443 0.0860573 2.03382e-22)
(1.00498 0.0914361 -6.48038e-23)
(1.00558 0.0957004 -1.07785e-22)
(1.00608 0.103627 -4.25311e-23)
(1.00671 0.105762 6.82505e-23)
(1.0072 0.118296 0)
(1.00768 0.11803 3.32272e-23)
(1.0084 0.13309 7.825e-24)
(0.832882 -0.386768 3.39687e-20)
(0.836817 -0.364046 -3.37517e-20)
(0.834671 -0.335189 7.21903e-23)
(0.833299 -0.301714 -6.35592e-23)
(0.834251 -0.266351 -4.85907e-23)
(0.836911 -0.231449 7.94266e-23)
(0.840863 -0.198387 -1.18965e-22)
(0.846037 -0.167843 0)
(0.852401 -0.140165 1.69422e-22)
(0.859861 -0.115546 -1.75983e-22)
(0.868193 -0.094003 -1.74805e-22)
(0.877086 -0.0753352 1.8947e-22)
(0.886244 -0.0592419 0)
(0.895404 -0.0454465 0)
(0.904328 -0.0337491 -1.36215e-22)
(0.912838 -0.0239561 0)
(0.92081 -0.0158925 1.13385e-22)
(0.928271 -0.00938307 0)
(0.935179 -0.00399125 5.67285e-21)
(0.941372 0.000771048 -1.08256e-20)
(0.947002 0.00497499 9.83123e-21)
(0.952223 0.00861955 -4.6918e-21)
(0.957003 0.0118586 -4.01724e-21)
(0.961351 0.0147685 3.90117e-21)
(0.9653 0.0173947 3.48276e-21)
(0.968883 0.0197789 -3.3763e-21)
(0.972131 0.0219597 0)
(0.975076 0.0239747 -8.48241e-23)
(0.97775 0.02586 0)
(0.980182 0.0276484 0)
(0.982398 0.0293687 -2.01419e-21)
(0.984421 0.0310462 2.08864e-21)
(0.986272 0.0327034 -1.20144e-22)
(0.987969 0.0343598 -1.12863e-22)
(0.989528 0.0360332 1.06387e-22)
(0.990964 0.0377395 7.91957e-22)
(0.992289 0.0394932 -7.68971e-22)
(0.993516 0.0413084 7.98058e-22)
(0.994654 0.0431984 -6.87902e-22)
(0.995714 0.0451767 -1.60813e-22)
(0.996705 0.0472566 6.02135e-22)
(0.997633 0.0494522 5.79407e-23)
(0.998507 0.0517781 -4.1719e-22)
(0.999333 0.0542493 0)
(1.00012 0.0568816 2.44236e-22)
(1.00087 0.0596916 -3.38225e-22)
(1.00158 0.062697 4.40135e-22)
(1.00228 0.0659165 1.01311e-22)
(1.00295 0.0693686 0)
(1.0036 0.073081 -8.31437e-23)
(1.00425 0.0770495 1.66035e-22)
(1.00487 0.0813883 -1.69863e-25)
(1.00551 0.085834 6.6629e-23)
(1.0061 0.09123 -1.11766e-22)
(1.00676 0.0955004 1.0825e-22)
(1.0073 0.103453 0)
(1.00799 0.10559 -6.82822e-23)
(1.00852 0.118157 0)