/*--------------------------------*- C++ -*----------------------------------*\
| =========                 |                                                 |
| \\      /  F ield         | OpenFOAM: The Open Source CFD Toolbox           |
|  \\    /   O peration     | Version:  2512                                  |
|   \\  /    A nd           | Website:  www.openfoam.com                      |
|    \\/     M anipulation  |                                                 |
\*---------------------------------------------------------------------------*/
FoamFile
{
    version     2.0;
    format      ascii;
    arch        "LSB;label=32;scalar=64";
    class       surfaceScalarField;
    location    "51";
    object      phi;
}
// * * * * * * * * * * * * * * * * * * * * * * * * * * * * * * * * * * * * * //

dimensions      [0 3 -1 0 0 0 0];

oriented        oriented;

internalField   nonuniform List<scalar> 
26232
(
3.45834e-05
0.000906262
-0.000940845
0.000282357
0.00172895
-0.00197672
0.000881964
0.00172451
-0.00232411
0.00197024
0.000957501
-0.00204578
0.00368585
-0.000534075
-0.00118153
0.00616859
-0.00272915
0.000246404
0.00955492
-0.00561536
0.00222903
0.0139693
-0.00917973
0.00476538
0.0195128
-0.0133982
0.00785468
0.0262503
-0.018227
0.0114895
0.0341985
-0.0235977
0.0156495
0.0433172
-0.0294158
0.0202972
0.0535059
-0.0355649
0.0253761
0.0646071
-0.041913
0.0308118
0.0764148
-0.0483224
0.0365147
0.088689
-0.0546597
0.0423855
0.101173
-0.060805
0.0483212
0.113612
-0.0666611
0.0542223
0.125771
-0.0721555
0.0599965
0.137455
-0.0772568
0.0655719
0.148505
-0.081934
0.0708846
0.158844
-0.0862671
0.0759279
0.168387
-0.0901627
0.0806201
-0.0939657
0.0855108
0.176842
8.36932e-05
0.000822568
0.000502443
0.0013102
0.00141896
0.000807992
0.00299293
-0.000616468
0.00538289
-0.00292404
0.00874059
-0.00608684
0.0131998
-0.0100746
0.0188606
-0.0148406
0.0257726
-0.0203102
0.0339199
-0.0263743
0.0432126
-0.0328903
0.0534871
-0.0396904
0.0645162
-0.0465939
0.0760264
-0.0534233
0.0877227
-0.0600186
0.0993138
-0.0662507
0.110538
-0.0720292
0.121184
-0.077307
0.131108
-0.0820793
0.140233
-0.0863822
0.148568
-0.0902693
0.156167
-0.0938654
0.163138
-0.0971346
-0.100524
0.169697
0.000145276
0.000677292
0.000771621
0.000683851
0.00206592
-0.000486306
0.00420797
-0.00275852
0.00736728
-0.00608334
0.0116892
-0.0104088
0.017275
-0.0156603
0.0241594
-0.021725
0.0322932
-0.0284439
0.0415351
-0.0356161
0.0516576
-0.0430129
0.0623666
-0.0503994
0.0733308
-0.0575582
0.0842175
-0.0643099
0.0947261
-0.0705273
0.104618
-0.0761427
0.113736
-0.0811473
0.122013
-0.0855836
0.129467
-0.0895332
0.136187
-0.0931029
0.142321
-0.0964033
0.148016
-0.0995602
0.153479
-0.102598
-0.10584
0.158795
0.000222712
0.00045458
0.00109843
-0.000191866
0.00283343
-0.00222131
0.00561787
-0.00554296
0.00961307
-0.0100785
0.0149268
-0.0157225
0.021585
-0.0223185
0.02951
-0.02965
0.038513
-0.037447
0.048307
-0.0454102
0.0585381
-0.0532439
0.0688288
-0.0606902
0.0788255
-0.0675549
0.0882387
-0.073723
0.0968721
-0.0791607
0.104635
-0.0839058
0.111539
-0.0880511
0.117678
-0.0917225
0.123202
-0.0950568
0.128284
-0.0981851
0.133095
-0.101215
0.137777
-0.104242
0.14246
-0.107281
-0.110541
0.147162
0.000318015
0.000136565
0.00148535
-0.00135921
0.0037165
-0.00445245
0.00719302
-0.00901949
0.0120373
-0.0149228
0.0182769
-0.0219622
0.0258164
-0.029858
0.0344285
-0.038262
0.0437736
-0.0467921
0.0534449
-0.0550815
0.063027
-0.0628261
0.0721548
-0.0698179
0.0805584
-0.0759585
0.0880882
-0.0812528
0.0947156
-0.0857881
0.100515
-0.0897047
0.105629
-0.0931652
0.110234
-0.0963282
0.114508
-0.09933
0.118599
-0.102276
0.122625
-0.105241
0.126657
-0.108275
0.130757
-0.11138
-0.114696
0.134912
0.000431313
-0.000294748
0.00192703
-0.00285493
0.00469082
-0.00721623
0.00886659
-0.0131953
0.014497
-0.0205532
0.0214844
-0.0289496
0.0295768
-0.0379505
0.0383919
-0.0470771
0.047475
-0.0558752
0.0563751
-0.0639816
0.064716
-0.071167
0.0722449
-0.0773468
0.0788511
-0.0825647
0.084554
-0.0869558
0.0894706
-0.0907047
0.0937717
-0.0940058
0.0976408
-0.0970344
0.101243
-0.0999308
0.10471
-0.102797
0.108133
-0.105699
0.111571
-0.108679
0.115055
-0.111759
0.118616
-0.114941
-0.118301
0.122221
0.000560459
-0.000855206
0.00240898
-0.00470345
0.00571113
-0.0105184
0.0105355
-0.0180196
0.0168013
-0.0268189
0.024251
-0.0363993
0.0324721
-0.0461716
0.0409662
-0.0555712
0.0492432
-0.0641521
0.056907
-0.0716454
0.0637099
-0.0779698
0.0695649
-0.0832018
0.0745226
-0.0875224
0.0787261
-0.0911592
0.0823594
-0.0943381
0.0856058
-0.0972522
0.0886198
-0.100048
0.0915169
-0.102828
0.0943752
-0.105655
0.0972427
-0.108567
0.100147
-0.111583
0.103103
-0.114715
0.106121
-0.11796
-0.121355
0.109175
0.00070086
-0.00155607
0.0029076
-0.00691019
0.00671359
-0.0143244
0.0120708
-0.0233769
0.0187395
-0.0334876
0.0262947
-0.0439545
0.0341998
-0.0540766
0.0419178
-0.0632892
0.0490173
-0.0712517
0.0552363
-0.0778644
0.0604924
-0.0832259
0.0648507
-0.0875602
0.0684681
-0.0911398
0.071536
-0.0942271
0.0742364
-0.0970385
0.0767172
-0.0997329
0.079085
-0.102416
0.0814097
-0.105153
0.0837334
-0.107979
0.0860802
-0.110913
0.0884623
-0.113966
0.0908851
-0.117137
0.093353
-0.120428
-0.123846
0.0958433
0.000845514
-0.00240158
0.0033917
-0.00945637
0.00762225
-0.0185549
0.0133362
-0.0290908
0.0201205
-0.0402719
0.0274107
-0.0512448
0.0346163
-0.0612822
0.0412505
-0.0699234
0.0470122
-0.0770133
0.0518013
-0.0826535
0.0556811
-0.0871057
0.0588133
-0.0906923
0.061394
-0.0937206
0.0636068
-0.0964399
0.0655976
-0.0990292
0.0674693
-0.101605
0.0692878
-0.104235
0.0710918
-0.106957
0.072903
-0.10979
0.0747328
-0.112743
0.0765866
-0.115819
0.0784662
-0.119017
0.0803718
-0.122333
-0.125762
0.0822878
0.000985299
-0.00338688
0.0038254
-0.0122965
0.00835919
-0.0230887
0.014211
-0.0349426
0.0208093
-0.0468702
0.0275094
-0.0579448
0.0337488
-0.0675216
0.0391589
-0.0753334
0.0435955
-0.0814499
0.0471014
-0.0861595
0.0498345
-0.0898387
0.051994
-0.0928519
0.0537681
-0.0954947
0.0553057
-0.0979774
0.0567105
-0.100434
0.0580477
-0.102942
0.0593551
-0.105542
0.0606533
-0.108255
0.0619533
-0.11109
0.0632609
-0.114051
0.0645783
-0.117137
0.0659057
-0.120344
0.067241
-0.123668
-0.127095
0.0685749
0.0011103
-0.00449718
0.0041736
-0.0153598
0.0088572
-0.0277723
0.0146107
-0.0406961
0.020748
-0.0530075
0.0266177
-0.0638145
0.0317536
-0.0726575
0.0359357
-0.0795155
0.0391631
-0.0846773
0.0415769
-0.0885733
0.043377
-0.0916388
0.0447582
-0.0942331
0.0458771
-0.0966136
0.0468428
-0.0989431
0.0477233
-0.101315
0.0485573
-0.103776
0.0493658
-0.10635
0.0501597
-0.109049
0.0509451
-0.111875
0.0517251
-0.114831
0.0525006
-0.117912
0.0532707
-0.121114
0.0540316
-0.124429
-0.127842
0.0547781
0.00121359
-0.00571077
0.00440971
-0.0185559
0.00907137
-0.032434
0.0144992
-0.046124
0.019956
-0.0584644
0.0248528
-0.0687114
0.0288577
-0.0766623
0.0318945
-0.0825523
0.0340684
-0.0868513
0.0355718
-0.0900767
0.036607
-0.092674
0.0373423
-0.0949684
0.0378966
-0.0971679
0.0383446
-0.0993911
0.0387285
-0.101698
0.0390703
-0.104118
0.0393817
-0.106662
0.0396688
-0.109336
0.0399354
-0.112142
0.0401834
-0.115079
0.0404133
-0.118142
0.0406241
-0.121325
0.0408117
-0.124617
0.0409748
-0.128005
-0.00020151
-0.000477156
0.000678666
-0.000705159
-0.00117368
0.00167733
-0.001447
-0.00168214
0.00242398
-0.0023775
-0.00203598
0.00296648
-0.00345749
-0.00226821
0.0033482
-0.00465634
-0.00241017
0.00360901
-0.00595047
-0.00248908
0.00378321
-0.0073219
-0.00252626
0.00389769
-0.00875692
-0.00253612
0.00397114
-0.0102448
-0.00252618
0.00401407
-0.0117767
-0.00249779
0.00402964
-0.0133444
-0.00244723
0.00401496
-0.0149399
-0.00236697
0.00396246
-0.0165543
-0.00224676
0.00386121
-0.0181779
-0.00207439
0.00369801
-0.0197998
-0.00183626
0.00345811
-0.0214082
-0.00151748
0.00312591
-0.0229915
-0.001102
0.00268533
-0.0245402
-0.000571601
0.00212024
-0.026047
9.22117e-05
0.00141464
-0.0275096
0.000911135
0.000551417
-0.0289465
0.00190702
-0.000470087
-0.0303798
0.00311291
-0.00167966
0.00456793
-0.0318564
-0.00309131
-0.000212212
-0.000264944
-0.000738144
-0.00064775
-0.00150655
-0.000913733
-0.00246237
-0.00108016
-0.00356253
-0.00116806
-0.0047737
-0.001199
-0.00607041
-0.00119238
-0.00743315
-0.00116352
-0.00884672
-0.00112255
-0.0102987
-0.00107425
-0.0117779
-0.00101856
-0.0132736
-0.000951484
-0.0147745
-0.000866115
-0.0162678
-0.000753486
-0.0177391
-0.00060305
-0.0191722
-0.000403132
-0.0205496
-0.000140083
-0.0218512
0.000199601
-0.0230584
0.000635587
-0.0241553
0.0011891
-0.0251311
0.00188694
-0.0259851
0.00276098
-0.0267272
0.00385503
0.0052358
-0.0273951
-0.000212172
-5.27727e-05
-0.000735029
-0.000124892
-0.0014936
-0.000155158
-0.00242929
-0.000144471
-0.00349599
-0.000101364
-0.0046578
-3.71836e-05
-0.00588694
3.6769e-05
-0.00716163
0.000111167
-0.0084642
0.000180019
-0.00977944
0.000240988
-0.0110931
0.000295133
-0.0123909
0.000346254
-0.0136571
0.000400134
-0.0148745
0.000463894
-0.0160231
0.000545602
-0.0170805
0.000654171
-0.0180202
0.000799661
-0.0188144
0.000993792
-0.0194306
0.00125181
-0.0198357
0.00159423
-0.019999
0.00205023
-0.0198975
0.00265942
-0.0195195
0.00347711
0.00460172
-0.0188855
-0.000202691
0.000149918
-0.000700086
0.000372504
-0.00141654
0.000561295
-0.00229157
0.000730563
-0.00327682
0.000883882
-0.00433388
0.00101988
-0.00543221
0.00113509
-0.00654703
0.00122599
-0.00765736
0.00129035
-0.00874427
0.0013279
-0.00978943
0.0013403
-0.0107739
0.00133077
-0.0116774
0.00130358
-0.0124771
0.00126363
-0.0131477
0.00121613
-0.01366
0.00116654
-0.0139811
0.00112078
-0.0140732
0.0010858
-0.0138921
0.00107078
-0.0133877
0.00108981
-0.0125045
0.00116701
-0.0111894
0.00134434
-0.00939994
0.00168765
0.00235193
-0.00715016
-0.000185921
0.000335838
-0.000639862
0.000826445
-0.00128755
0.00120898
-0.00206775
0.00151076
-0.00293022
0.00174636
-0.00383392
0.00192358
-0.004745
0.00204618
-0.00563481
0.0021158
-0.00647794
0.00213347
-0.00725051
0.00210046
-0.00792874
0.00201853
-0.00848782
0.00188985
-0.00890106
0.00171683
-0.00913927
0.00150184
-0.00917018
0.00124704
-0.00895794
0.000954297
-0.00846269
0.000625529
-0.00763922
0.000262334
-0.00643531
-0.000133132
-0.00478959
-0.000555908
-0.00262716
-0.00099542
0.00014119
-0.00142401
0.00359835
-0.00176951
-0.00182776
0.00777804
-0.00016428
0.000500119
-0.000561579
0.00122374
-0.00111972
0.00176712
-0.00177703
0.00216808
-0.00248128
0.0024506
-0.00318819
0.00263049
-0.00385968
0.00271766
-0.00446189
0.00271801
-0.00496334
0.00263492
-0.00533323
0.00247036
-0.00554009
0.00222539
-0.0055507
0.00190046
-0.00532932
0.00149545
-0.00483721
0.00100973
-0.00403247
0.000442301
-0.00286905
-0.000209121
-0.00129891
-0.000944618
0.000731323
-0.00176789
0.003279
-0.00268081
0.00640859
-0.00368549
0.0101957
-0.00478252
0.0147328
-0.00596109
0.0201306
-0.0071674
-0.00837147
0.0266744
-0.000139974
0.000640093
-0.000471607
0.00155538
-0.000924122
0.00221964
-0.00143476
0.00267872
-0.00194842
0.00296425
-0.00241637
0.00309844
-0.00279463
0.00309592
-0.00304201
0.0029654
-0.00311837
0.00271128
-0.00298292
0.00233491
-0.00259307
0.00183554
-0.00190328
0.00121066
-0.000864691
0.000456854
0.000575417
-0.000430375
0.00247264
-0.00145492
0.00488566
-0.00262214
0.00787687
-0.00393583
0.0115088
-0.0053998
0.0158449
-0.00701695
0.0209486
-0.00878924
0.0268828
-0.0107167
0.0337355
-0.0128137
0.0415169
-0.0149488
-0.0176154
0.0507608
-0.000114583
0.000754676
-0.000374169
0.00181496
-0.000707328
0.00255279
-0.00104853
0.00301993
-0.00133799
0.00325371
-0.00152038
0.00328083
-0.00154317
0.00311871
-0.0013547
0.00277693
-0.000902467
0.00225904
-0.00013159
0.00156403
0.00101588
0.000688073
0.00260204
-0.000375504
0.00469242
-0.00163352
0.00735602
-0.00309398
0.0106645
-0.00476344
0.0146897
-0.00664735
0.0195027
-0.0087488
0.0251711
-0.0110681
0.0317567
-0.0136025
0.0393142
-0.0163468
0.0478773
-0.0192797
0.0575253
-0.0224617
0.0680977
-0.0255212
-0.029813
0.0802953
-8.87962e-05
0.000843472
-0.0002705
0.00199667
-0.000469826
0.00275212
-0.000615761
0.00316586
-0.000641003
0.00327895
-0.000480462
0.00312029
-6.94227e-05
0.00270767
0.000658242
0.00204927
0.00177145
0.00114584
0.00334387
-8.384e-06
0.00545058
-0.00141864
0.00817233
-0.00309726
0.0115911
-0.00505232
0.0157883
-0.00729114
0.0208424
-0.0098175
0.0268255
-0.0126305
0.0338003
-0.0157236
0.0418167
-0.0190845
0.0509083
-0.0226941
0.061093
-0.0265315
0.0723532
-0.03054
0.0847196
-0.0348281
0.097936
-0.0387376
-0.044445
0.112568
-6.23106e-05
0.000905782
-0.000158553
0.00209291
-0.000205506
0.00279907
-0.000123117
0.00308347
0.000167123
0.00298871
0.000744074
0.00254334
0.00168871
0.00176303
0.0030855
0.000652473
0.00502293
-0.00079159
0.00759182
-0.00257727
0.010887
-0.00471386
0.0149996
-0.00720982
0.0200162
-0.010069
0.0260136
-0.0132885
0.0330535
-0.0168574
0.0411786
-0.0207556
0.0504084
-0.0249534
0.060737
-0.0294131
0.0721318
-0.0340889
0.0845332
-0.0389329
0.0978582
-0.043865
0.112006
-0.0489758
0.12681
-0.0535415
-0.0599151
0.14228
-3.38617e-05
0.000939644
-3.30062e-05
0.00209206
9.7883e-05
0.00266818
0.000452208
0.00272915
0.00112392
0.002317
0.00220951
0.00145775
0.00380926
0.000163285
0.00602738
-0.00156565
0.00896993
-0.00373414
0.0127414
-0.00634876
0.01744
-0.0094124
0.0231503
-0.0129202
0.0299373
-0.016856
0.0378395
-0.0211906
0.0468634
-0.0258813
0.0569806
-0.0308728
0.0681267
-0.0360995
0.080203
-0.0414893
0.0930812
-0.0469672
0.106608
-0.0524596
0.120632
-0.0578896
0.134925
-0.0632688
0.149528
-0.0681445
-0.0740933
0.163707
-1.20097e-06
0.000114135
0.000458205
0.00114158
0.00227704
0.0039812
0.00637351
0.00957324
0.0136938
0.0188345
0.0250716
0.0324486
0.0409687
0.0505899
0.0612233
0.072736
0.0849577
0.0976906
0.11072
0.123832
0.136827
0.149486
0.161962
0.173379
-0.0323619
0.00720232
-0.0066968
-0.0327474
0.010566
-0.0101805
-0.0329771
0.0144884
-0.0142587
-0.0330242
0.0189523
-0.0189051
-0.0328583
0.0239065
-0.0240724
-0.0324429
0.029253
-0.0296683
-0.0317423
0.034848
-0.0355487
-0.0307218
0.040486
-0.0415065
-0.0293479
0.0458881
-0.047262
-0.0275828
0.0506872
-0.0524523
-0.025383
0.0544288
-0.0566287
-0.0226982
0.0565779
-0.0592627
-0.0194696
0.0565201
-0.0597487
-0.0156576
0.0536049
-0.0574169
-0.0111208
0.0470327
-0.0515696
-0.00596989
0.0365569
-0.0417077
-0.000205729
0.0215902
-0.0273543
0.00595983
0.00218867
-0.00835423
0.0124345
-0.0210095
0.0145348
0.0188973
-0.0471801
0.0407174
0.0249364
-0.0744372
0.068398
0.0297848
-0.100573
0.0957245
0.0326829
-0.123422
0.120524
0.0328614
-0.14212
0.141942
0.0302662
-0.157234
0.159829
0.0262829
-0.169189
0.173173
0.0238129
-0.175823
0.178293
0.0258366
-0.171019
0.168995
0.0332515
-0.147632
0.140217
0.0444628
-0.103559
0.0923476
0.0575611
-0.0439888
0.0308904
0.0710102
0.0217897
-0.0352388
0.0833522
0.0837831
-0.0961251
0.0931925
0.133512
-0.143352
0.0994994
0.166941
-0.173248
0.100536
0.186537
-0.187573
0.0944853
0.201098
-0.195048
0.0836362
0.214773
-0.203924
0.0756804
0.213632
-0.205676
0.0770872
0.17659
-0.177997
0.087193
0.102965
-0.11307
0.101026
0.0157972
-0.02963
0.114159
-0.0608134
0.0476797
0.124245
-0.114562
0.104477
0.130793
-0.143445
0.136897
0.133685
-0.15105
0.148159
0.13223
-0.145299
0.146754
0.126894
-0.134596
0.139932
0.121283
-0.12118
0.126791
0.11964
-0.0978327
0.0994761
0.123342
-0.0633116
0.0596091
0.130085
-0.0201657
0.0134234
0.137068
0.0161182
-0.0231021
0.142173
0.0463092
-0.0514135
0.144967
0.0595264
-0.0623206
0.145734
0.0680768
-0.0688434
0.145709
0.063645
-0.0636207
0.145829
0.0530721
-0.0531923
0.146977
0.0421287
-0.0432764
0.0129123
-0.0146244
-0.027353
0.00716027
-0.0271524
0.0103654
-0.026746
0.014082
-0.0261023
0.0183086
-0.0251982
0.0230023
-0.0239918
0.0280466
-0.0224461
0.0333023
-0.0205274
0.0385674
-0.0182068
0.0435674
-0.0154486
0.047929
-0.0122194
0.0511996
-0.00849866
0.0528572
-0.00426023
0.0522816
0.000516834
0.0488279
0.00554277
0.0420068
0.0110162
0.0310834
0.0167816
0.0158247
0.0226918
-0.00372145
0.0286635
-0.0269812
0.0344166
-0.0529332
0.0396327
-0.0796533
0.043724
-0.104664
0.0459024
-0.125601
0.0451813
-0.141399
0.0408652
-0.152918
0.0336893
-0.162014
0.0264523
-0.168586
0.0231801
-0.167747
0.0266325
-0.151085
0.0362395
-0.113166
0.049362
-0.0571113
0.0635531
0.00759862
0.0769293
0.0704069
0.0879155
0.122526
0.0948809
0.159976
0.0956893
0.185728
0.0895528
0.207235
0.0804845
0.223842
0.0761123
0.218004
0.0807625
0.17194
0.0924338
0.0912933
0.106527
0.0017041
0.119248
-0.0735344
0.12857
-0.123884
0.134327
-0.149202
0.137039
-0.153762
0.136312
-0.144572
0.131694
-0.129978
0.125417
-0.114904
0.121553
-0.0939688
0.122617
-0.0643753
0.127444
-0.024993
0.13343
0.0101328
0.138247
0.041492
0.141166
0.0566075
0.142476
0.0667665
0.143389
0.0627325
0.144584
0.0518773
0.146944
0.0397679
0.0105863
-0.0182752
0.00655005
-0.017473
0.00956312
-0.0164174
0.0130264
-0.0150554
0.0169466
-0.0134137
0.0213606
-0.0114195
0.0260524
-0.00904063
0.0309234
-0.00624756
0.0357743
-0.00301659
0.0403365
0.000635554
0.0442769
0.004683
0.0471522
0.00913459
0.0484056
0.0139529
0.0474633
0.0190819
0.0436989
0.0245089
0.0365798
0.030064
0.0255283
0.0356024
0.0102863
0.0410263
-0.0091453
0.0462238
-0.0321788
0.0510448
-0.0577542
0.0552705
-0.083879
0.0584729
-0.107867
0.059976
-0.127104
0.0587815
-0.140204
0.0538602
-0.147996
0.0450065
-0.15316
0.0341248
-0.157704
0.0254826
-0.159104
0.0236051
-0.149207
0.0299278
-0.119489
0.0420802
-0.0692637
0.0566885
-0.00700969
0.0709406
0.0561547
0.0827924
0.110674
0.0901097
0.152658
0.09091
0.184928
0.0856262
0.212519
0.0792749
0.230193
0.0785272
0.218752
0.085725
0.164742
0.0983378
0.0786806
0.112233
-0.0121908
0.124283
-0.0855852
0.132725
-0.132326
0.137583
-0.15406
0.139831
-0.156011
0.139611
-0.144351
0.136033
-0.1264
0.129938
-0.108808
0.124629
-0.0886602
0.123269
-0.0630154
0.125933
-0.0276568
0.130564
0.00550169
0.134883
0.0371732
0.137924
0.0535671
0.139926
0.0647644
0.141947
0.0607112
0.144311
0.0495131
0.147836
0.0362428
0.00773129
-0.00602933
0.00542922
-0.00478243
0.00831622
-0.00320757
0.0114516
-0.0012929
0.0150319
0.00110747
0.0189602
0.00389275
0.0232672
0.00704261
0.0277736
0.0105628
0.0322541
0.0144682
0.0364311
0.0187709
0.0399741
0.0234594
0.0424637
0.0284742
0.0433908
0.0337402
0.0421973
0.0391566
0.0382825
0.0446271
0.0311093
0.0500077
0.0201476
0.0550953
0.00519875
0.0598981
-0.013948
0.064238
-0.0365187
0.0680572
-0.0615733
0.0712027
-0.0870245
0.073332
-0.109996
0.0739001
-0.127672
0.0722271
-0.138531
0.0673936
-0.143163
0.0584636
-0.14423
0.045895
-0.145136
0.033022
-0.146231
0.02529
-0.141475
0.0265974
-0.120796
0.0362461
-0.0789124
0.0503154
-0.021079
0.0650933
0.0413768
0.0775823
0.0981849
0.0852633
0.144977
0.0866191
0.183572
0.0831625
0.215975
0.0800972
0.233258
0.0826438
0.216205
0.0916887
0.155697
0.104697
0.0656721
0.118047
-0.0255406
0.12913
-0.0966685
0.13657
-0.139766
0.14051
-0.158
0.142129
-0.157629
0.14212
-0.144343
0.139632
-0.123912
0.134378
-0.103554
0.128517
-0.0827993
0.125262
-0.0597611
0.125785
-0.02818
0.128843
0.00244372
0.132495
0.0335218
0.13564
0.0504217
0.13841
0.0619943
0.14159
0.0575315
0.145087
0.0460157
0.149603
0.031727
0.00448575
0.00919488
0.00401238
0.0107475
0.00676362
0.0126632
0.00953588
0.0150413
0.0126539
0.0178063
0.0161952
0.0209836
0.0200898
0.024582
0.0241751
0.0285974
0.0282387
0.0330108
0.0320177
0.0377942
0.0351907
0.0429034
0.0373545
0.04826
0.0380342
0.0537575
0.0366998
0.0592572
0.0327827
0.064621
0.0257455
0.0697013
0.0150674
0.0743697
0.000530315
0.0785176
-0.0180959
0.0820314
-0.0400325
0.0848649
-0.0644069
0.086869
-0.0890285
0.0877313
-0.110858
0.087096
-0.127036
0.084673
-0.136108
0.079971
-0.138461
0.0719509
-0.13621
0.0597709
-0.132956
0.0449057
-0.131366
0.0322208
-0.12879
0.0274804
-0.116056
0.0327134
-0.0841453
0.04489
-0.0332556
0.059414
0.0268527
0.0723099
0.085289
0.0806448
0.136642
0.0833061
0.180911
0.0824507
0.216831
0.0828283
0.232881
0.0881377
0.210896
0.0983974
0.145437
0.111343
0.0527265
0.123823
-0.0380205
0.133682
-0.106527
0.139985
-0.146069
0.143023
-0.161038
0.143972
-0.158578
0.14391
-0.144281
0.142349
-0.12235
0.138324
-0.0995293
0.132757
-0.0772325
0.128369
-0.0553734
0.127073
-0.0268838
0.128543
0.000973524
0.131431
0.0306337
0.134644
0.0472095
0.138161
0.0584769
0.14241
0.0532819
0.14688
0.0415463
0.152118
0.0264886
0.00101871
0.0277286
0.0029581
0.029006
0.00548627
0.0306893
0.00785258
0.0329263
0.0104169
0.0356844
0.0134371
0.0389391
0.0168351
0.0426849
0.0204293
0.0469027
0.0240209
0.0515503
0.0273701
0.0565705
0.0301706
0.0618876
0.0320375
0.067402
0.0325197
0.0729847
0.0311171
0.0784714
0.027296
0.0836861
0.0205308
0.0884109
0.0103426
0.0928243
-0.00388312
0.0963146
-0.0215862
0.0990272
-0.0427452
0.100836
-0.066216
0.101581
-0.0897733
0.101049
-0.110326
0.0990874
-0.125075
0.0956877
-0.132709
0.0908238
-0.133597
0.0838872
-0.129273
0.0734948
-0.122563
0.0591614
-0.117033
0.0437956
-0.113424
0.0334246
-0.105685
0.0328126
-0.0835333
0.0413712
-0.0418143
0.0544892
0.0137348
0.0674231
0.0723551
0.076728
0.127337
0.0814006
0.176238
0.0835927
0.214639
0.0872144
0.229259
0.0946626
0.203448
0.105576
0.134525
0.118087
0.0402152
0.129408
-0.0493412
0.137838
-0.114958
0.142886
-0.151117
0.145036
-0.163188
0.14536
-0.158902
0.145079
-0.144
0.144174
-0.121446
0.141482
-0.0968367
0.136867
-0.0726172
0.132194
-0.0507009
0.129654
-0.0243433
0.129754
0.000873484
0.131885
0.028502
0.135111
0.0439837
0.139261
0.0543275
0.144368
0.048175
0.149553
0.0363611
0.155195
0.0208461
-0.00249654
0.0507244
0.00299448
0.0510405
0.00517025
0.0518758
0.0070172
0.0533521
0.00894059
0.0554691
0.0113201
0.058201
0.0141032
0.0615439
0.0170865
0.0654684
0.0200964
0.0699135
0.022925
0.0747978
0.0252863
0.0800166
0.0268186
0.0854403
0.0270961
0.0909121
0.0256453
0.0962407
0.0219674
0.101235
0.015537
0.105645
0.00593263
0.109541
-0.00777995
0.112484
-0.0245289
0.114427
-0.0446882
0.115211
-0.0670005
0.114665
-0.0892267
0.112681
-0.108342
0.109338
-0.121732
0.10489
-0.128261
0.0996228
-0.12833
0.0934514
-0.123102
0.085251
-0.114363
0.0733492
-0.105131
0.0581664
-0.0982416
0.0442004
-0.0917187
0.0376394
-0.0769723
0.041071
-0.0452459
0.051414
0.00339177
0.063756
0.0600131
0.0740957
0.116998
0.0811492
0.169185
0.0864957
0.209292
0.0929091
0.222846
0.101872
0.194485
0.112982
0.123415
0.124698
0.0284988
0.134639
-0.0592813
0.141496
-0.121815
0.145211
-0.154832
0.146487
-0.164463
0.146273
-0.158689
0.145714
-0.143441
0.145191
-0.120922
0.143706
-0.0953519
0.140426
-0.0693379
0.136242
-0.046516
0.133178
-0.0212793
0.132328
0.00172339
0.13383
0.0270002
0.137022
0.0407914
0.141622
0.0497276
0.147292
0.0425051
0.152887
0.030766
0.158613
0.01512
-0.00590716
0.0787118
0.00457796
0.0776061
0.00627603
0.0771259
0.00749737
0.0773075
0.00875897
0.0781879
0.0104398
0.0797764
0.0125147
0.0820928
0.0147701
0.0851113
0.017078
0.0887712
0.0192651
0.0929852
0.0210722
0.097632
0.0221718
0.10256
0.0221683
0.107588
0.0206168
0.112499
0.0170564
0.117108
0.0109284
0.121104
0.00193662
0.124421
-0.0110965
0.126736
-0.0268445
0.127847
-0.0457993
0.127537
-0.0666906
0.125629
-0.0873187
0.122145
-0.104857
0.117415
-0.117002
0.11196
-0.122806
0.106244
-0.122614
0.100479
-0.117337
0.0941168
-0.108
0.085387
-0.0964013
0.0727962
-0.0856507
0.0582183
-0.0771408
0.0472887
-0.0660426
0.0450754
-0.0430326
0.0514021
-0.00293495
0.0622426
0.0491727
0.073278
0.105962
0.082621
0.159841
0.0908756
0.201038
0.0995254
0.214196
0.109429
0.184581
0.120334
0.11251
0.131
0.0178327
0.139363
-0.0676435
0.144558
-0.12701
0.146917
-0.157192
0.147342
-0.164888
0.146679
-0.158026
0.145872
-0.142634
0.145521
-0.120571
0.144989
-0.0948199
0.14315
-0.067499
0.140021
-0.0433873
0.137154
-0.0184125
0.135899
0.00297855
0.137007
0.0258922
0.140149
0.0376495
0.144995
0.0448811
0.150908
0.0365922
0.156608
0.025066
0.16214
0.00958782
-0.00910005
0.109618
0.00752796
0.107212
0.0086815
0.105413
0.00929659
0.104195
0.00997706
0.10363
0.0110049
0.10379
0.0123546
0.104709
0.0138506
0.106379
0.0154085
0.108767
0.0168771
0.111809
0.0180303
0.115393
0.0185881
0.119364
0.0181967
0.123535
0.0164463
0.127664
0.0129275
0.13144
0.00715168
0.134982
-0.001605
0.137419
-0.0135335
0.138875
-0.0283008
0.138961
-0.0458847
0.137398
-0.0651275
0.13404
-0.0839607
0.129073
-0.0998902
0.123062
-0.110991
0.116734
-0.116479
0.110664
-0.116544
0.105134
-0.111807
0.100014
-0.102881
0.0941343
-0.0905214
0.0853295
-0.0768459
0.0729588
-0.0647701
0.0604627
-0.0535465
0.053583
-0.0361529
0.0552935
-0.0046455
0.0635886
0.0408776
0.0745905
0.0949604
0.0856995
0.148732
0.0963116
0.190425
0.106632
0.203875
0.116989
0.174224
0.127428
0.10207
0.136783
0.00847741
0.143434
-0.0742945
0.146918
-0.130494
0.147952
-0.158225
0.147575
-0.164512
0.14655
-0.157
0.145572
-0.141656
0.14528
-0.120279
0.145419
-0.0949585
0.144905
-0.0669847
0.14314
-0.0416223
0.141058
-0.0163306
0.13996
0.00407678
0.14098
0.0248721
0.144099
0.0345301
0.149011
0.0399687
0.154879
0.0307251
0.160425
0.0195196
0.165561
0.004452
-0.0120141
0.138639
0.0111685
0.135563
0.0117573
0.13293
0.01193
0.130713
0.0121944
0.129044
0.0126739
0.128026
0.0133718
0.127681
0.0141966
0.128017
0.0150717
0.129041
0.0158539
0.130717
0.0163533
0.132966
0.0163399
0.135658
0.0155044
0.138614
0.0134902
0.141622
0.00991937
0.144443
0.00433104
0.146853
-0.00401512
0.148232
-0.0149128
0.148518
-0.0285867
0.147311
-0.0446773
0.144306
-0.0621232
0.13945
-0.0791045
0.133117
-0.0935568
0.126049
-0.103923
0.119068
-0.109497
0.112782
-0.110258
0.107474
-0.106499
0.103167
-0.0985735
0.0993441
-0.0866989
0.0942435
-0.0717453
0.0858203
-0.056347
0.0747873
-0.0425134
0.0656024
-0.026968
0.0631098
-0.00215294
0.0680688
0.0359187
0.0780704
0.0849588
0.0901247
0.136678
0.102368
0.178182
0.113798
0.192445
0.12431
0.163713
0.134064
0.0923164
0.141936
0.000604578
0.146733
-0.0790906
0.148487
-0.132248
0.148269
-0.158007
0.147175
-0.163418
0.145869
-0.155694
0.144815
-0.140602
0.144556
-0.12002
0.145129
-0.0955314
0.145697
-0.067553
0.145352
-0.0412775
0.144436
-0.0154143
0.14397
0.00454251
0.145219
0.0236227
0.148387
0.0313625
0.153239
0.0351166
0.158847
0.0251171
0.16406
0.0143068
0.168691
-0.000178576
-0.0146426
0.160292
0.0145832
0.157329
0.0147207
0.154556
0.0147023
0.152077
0.0146735
0.15002
0.0147308
0.148461
0.0149311
0.14742
0.0152378
0.146923
0.0155681
0.146983
0.0157942
0.14758
0.0157562
0.148661
0.0152591
0.150128
0.0140372
0.151844
0.0117749
0.153605
0.00815752
0.155018
0.00291876
0.156096
-0.0050934
0.156301
-0.0151179
0.155231
-0.0275164
0.15256
-0.0420067
0.148063
-0.0576265
0.14185
-0.0728913
0.134463
-0.0861692
0.126716
-0.0961764
0.119391
-0.102173
0.113041
-0.103909
0.107933
-0.101391
0.104107
-0.0947476
0.101434
-0.0840256
0.0990331
-0.0693442
0.0948262
-0.05214
0.0874548
-0.035142
0.0789948
-0.018508
0.0739218
0.00292004
0.0755133
0.0343272
0.0835404
0.0769317
0.0955
0.124719
0.108492
0.165191
0.120441
0.180496
0.131062
0.153092
0.140271
0.0831069
0.146511
-0.00563449
0.149319
-0.0818989
0.149356
-0.132285
0.147987
-0.156638
0.14626
-0.161691
0.144722
-0.154156
0.143653
-0.139532
0.143434
-0.119802
0.14427
-0.0963674
0.145637
-0.0689194
0.146577
-0.0422177
0.146975
-0.0158123
0.147464
0.00405348
0.149213
0.0218744
0.152523
0.0280519
0.157256
0.0303836
0.162489
0.0198842
0.167283
0.00951283
0.171393
-0.00428836
-0.0170302
0.171247
0.0167155
0.169082
0.0168862
0.167008
0.0167759
0.165076
0.0166052
0.163342
0.0164653
0.161889
0.0163837
0.160777
0.0163504
0.160038
0.0163067
0.159682
0.0161505
0.159693
0.0157447
0.160033
0.0149196
0.160608
0.0134616
0.161287
0.0110963
0.161932
0.00751236
0.162471
0.00237964
0.162119
-0.00474117
0.16088
-0.0138791
0.15841
-0.0250466
0.154417
-0.0380132
0.148823
-0.0520326
0.141893
-0.0659613
0.134228
-0.0785045
0.126562
-0.0885107
0.119519
-0.0951294
0.113502
-0.0978918
0.1087
-0.0965887
0.105152
-0.0911991
0.102913
-0.0817862
0.101779
-0.0682103
0.100445
-0.0508064
0.0969659
-0.031663
0.091179
-0.0127211
0.0861063
0.0079928
0.0854946
0.0349389
0.09117
0.0712562
0.101905
0.113984
0.114645
0.15245
0.1268
0.168341
0.137556
0.142335
0.145949
0.0747141
0.150415
-0.0101001
0.151164
-0.0826483
0.149678
-0.130799
0.147338
-0.154298
0.14506
-0.159413
0.143296
-0.152392
0.142213
-0.138449
0.142036
-0.119625
0.143017
-0.097349
0.144911
-0.0708132
0.146889
-0.0441956
0.148544
-0.0174672
0.150124
0.00247329
0.152547
0.0194515
0.156093
0.0245057
0.160709
0.0257681
0.165548
0.0150451
0.169929
0.00513157
0.173585
-0.00794456
-0.0192604
0.188198
0.0184581
-0.18994
0.186843
0.0182409
0.185484
0.0181352
0.184138
0.0179508
0.182886
0.0177174
0.181788
0.0174811
0.180903
0.0172361
0.180293
0.0169164
0.180021
0.0164224
0.180141
0.0156247
0.180697
0.0143636
0.181708
0.012451
0.183163
0.00964077
0.184996
0.00567971
0.186996
0.000379466
0.188956
-0.00670128
0.190557
-0.0154796
0.1914
-0.0258895
0.191048
-0.0376612
0.189166
-0.0501509
0.185632
-0.0624274
0.180573
-0.0734454
0.174296
-0.0822334
0.167187
-0.08802
0.159639
-0.0903442
0.152007
-0.0889567
0.144554
-0.0837466
0.137499
-0.0747305
0.131041
-0.0617527
0.124874
-0.0446388
0.117712
-0.0245011
0.108536
-0.0035458
0.0981968
0.0183324
0.08996
0.0431757
0.0870128
0.0742034
0.090556
0.110441
0.100128
0.142879
0.115269
0.1532
0.134318
0.123285
0.152309
0.0567239
0.164443
-0.0222349
0.169703
-0.0879084
0.169446
-0.130541
0.165877
-0.15073
0.16094
-0.154476
0.155918
-0.14737
0.151443
-0.133974
0.147874
-0.116057
0.145532
-0.0950072
0.144497
-0.0697778
0.144277
-0.0439759
0.144509
-0.017699
0.145114
0.00186866
0.146648
0.0179175
0.149123
0.0220305
0.152367
0.0225245
0.155522
0.0118895
0.158063
0.00259089
0.159758
-0.00964011
-0.0197255
0.201841
0.0188917
-0.202274
0.201428
0.0186531
0.201047
0.0185169
0.200644
0.0183537
0.20025
0.018111
0.199927
0.0178039
0.199735
0.017428
0.199724
0.0169276
0.199936
0.0162103
0.200405
0.0151559
0.20115
0.0136185
0.202171
0.0114302
0.203416
0.00839607
0.20477
0.00432496
0.206144
-0.000993743
0.207237
-0.00779474
0.207784
-0.0160267
0.207475
-0.0255804
0.205989
-0.0361756
0.203104
-0.0472659
0.198762
-0.0580845
0.193086
-0.0677701
0.186357
-0.0755039
0.178941
-0.0806045
0.171227
-0.0826295
0.163565
-0.0812947
0.156232
-0.0764137
0.149416
-0.067915
0.14332
-0.0556566
0.137994
-0.0393128
0.13271
-0.0192175
0.125984