/*--------------------------------*- C++ -*----------------------------------*\
| =========                 |                                                 |
| \\      /  F ield         | OpenFOAM: The Open Source CFD Toolbox           |
|  \\    /   O peration     | Version:  2512                                  |
|   \\  /    A nd           | Website:  www.openfoam.com                      |
|    \\/     M anipulation  |                                                 |
\*---------------------------------------------------------------------------*/
FoamFile
{
    version     2.0;
    format      ascii;
    arch        "LSB;label=32;scalar=64";
    class       volVectorField;
    location    "51";
    object      U;
}
// * * * * * * * * * * * * * * * * * * * * * * * * * * * * * * * * * * * * * //

dimensions      [0 1 -1 0 0 0 0];

internalField   nonuniform List<vector> 
13248
(
(-0.011905 0.0110062 6.07576e-20)
(-0.0222691 0.0227529 0)
(-0.0203872 0.028214 -1.15032e-19)
(-0.00715944 0.0295621 1.08363e-19)
(0.0168517 0.0284966 1.0161e-19)
(0.0512672 0.0263328 0)
(0.0957709 0.0240607 0)
(0.149988 0.0224164 2.44642e-19)
(0.213348 0.0219336 -1.61226e-21)
(0.284968 0.0229723 -2.12959e-19)
(0.363579 0.025731 1.95981e-19)
(0.447507 0.0302536 -1.22395e-19)
(0.534733 0.0364365 0)
(0.622994 0.0440431 -2.05593e-19)
(0.709939 0.0527276 3.82206e-19)
(0.793288 0.0620659 -9.02595e-20)
(0.870992 0.0715979 -1.59134e-19)
(0.941357 0.0808496 1.49385e-19)
(1.00316 0.089444 0)
(1.05559 0.0968463 0)
(1.09876 0.103326 0)
(1.13175 0.107153 0)
(1.15864 0.111966 4.57603e-20)
(1.17304 0.109259 1.68044e-19)
(-0.0117139 0.0097112 -1.83612e-19)
(-0.018526 0.0188895 1.25302e-19)
(-0.0098838 0.0226158 -1.0309e-21)
(0.0129159 0.0230544 -1.65706e-19)
(0.0490462 0.0219391 -1.01501e-19)
(0.0978555 0.0206345 -9.59807e-20)
(0.158623 0.0201452 -1.76204e-19)
(0.230367 0.0211755 1.66548e-19)
(0.311682 0.0241673 0)
(0.400637 0.0293148 1.02939e-21)
(0.494784 0.0365753 2.22419e-21)
(0.591273 0.0456885 1.22452e-19)
(0.687048 0.0562123 0)
(0.779096 0.0675752 0)
(0.86469 0.0791412 1.39994e-19)
(0.9416 0.0902774 -2.62832e-19)
(1.00824 0.100417 1.56379e-19)
(1.06374 0.109107 -1.46807e-19)
(1.10794 0.116045 -6.5099e-20)
(1.14141 0.121055 -1.18112e-19)
(1.165 0.124252 -5.02069e-20)
(1.1806 0.12528 -9.42555e-20)
(1.18909 0.126008 1.37373e-19)
(1.19239 0.121939 4.02973e-20)
(-0.0106063 0.00798975 0)
(-0.0116352 0.0140879 0)
(0.00634752 0.0160761 5.86296e-20)
(0.0415409 0.0160325 5.40393e-20)
(0.0926962 0.015672 -1.31068e-21)
(0.158627 0.0163544 -9.89356e-20)
(0.237819 0.0190107 0)
(0.328199 0.0241779 -8.27379e-20)
(0.427012 0.0320261 7.74981e-20)
(0.530856 0.0423777 4.82892e-22)
(0.635893 0.0547489 -1.31669e-19)
(0.738172 0.0684222 -1.20046e-19)
(0.834011 0.0825462 2.53656e-21)
(0.920335 0.0962479 -9.83696e-20)
(0.99493 0.108738 2.36559e-19)
(1.05657 0.119396 0)
(1.10504 0.127823 -1.53098e-19)
(1.14101 0.13385 7.39524e-20)
(1.16587 0.137546 6.50362e-20)
(1.18144 0.139093 0)
(1.18984 0.138968 5.36773e-20)
(1.19304 0.137174 -1.88525e-19)
(1.19261 0.135289 1.76973e-19)
(1.19149 0.1304 1.15066e-19)
(-0.00827803 0.00590361 -6.50849e-20)
(-0.000765031 0.00865597 -6.72859e-20)
(0.0295571 0.00925354 6.0821e-20)
(0.0802014 0.00955133 0)
(0.149207 0.0111405 0)
(0.234413 0.0152541 -1.9801e-21)
(0.332961 0.0225709 0)
(0.441113 0.0332273 -2.52035e-19)
(0.554337 0.0468649 2.3386e-19)
(0.667641 0.0627078 -2.884e-19)
(0.77607 0.0796922 6.58778e-20)
(0.87526 0.0966357 0)
(0.961878 0.112413 1.09233e-19)
(1.03391 0.126106 -2.02173e-19)
(1.09069 0.1371 4.79185e-20)
(1.13285 0.145123 1.23227e-19)
(1.16195 0.150221 -5.25567e-21)
(1.18023 0.152693 -1.38234e-19)
(1.19016 0.152997 0)
(1.19417 0.151637 0)
(1.19435 0.149188 -5.01493e-20)
(1.1923 0.145794 4.53496e-20)
(1.18928 0.14277 1.64527e-19)
(1.18602 0.137428 -1.54434e-19)
(-0.00437664 0.00355332 -6.86697e-20)
(0.0149435 0.00302839 -6.83248e-20)
(0.06088 0.00299957 1.92179e-19)
(0.129979 0.00488724 -1.16462e-19)
(0.21911 0.00997065 1.09626e-19)
(0.324532 0.0191319 1.98961e-19)
(0.441408 0.0325094 -1.40517e-19)
(0.563896 0.0495282 -1.70644e-19)
(0.685649 0.0690466 3.54446e-21)
(0.800546 0.0895711 2.18109e-19)
(0.903461 0.109523 0)
(0.990834 0.127497 6.00982e-20)
(1.06093 0.142462 0)
(1.11381 0.153854 -9.79498e-20)
(1.15094 0.161581 1.3757e-19)
(1.17481 0.165935 1.01119e-21)
(1.18835 0.167462 -3.63997e-20)
(1.19446 0.166816 6.77918e-20)
(1.19569 0.164641 5.92407e-20)
(1.19403 0.161479 -5.34387e-20)
(1.19088 0.157768 5.01371e-20)
(1.18713 0.153655 -4.53383e-20)
(1.18317 0.149916 0)
(1.17972 0.144461 -3.54774e-20)
(0.0014683 0.00110388 6.866e-20)
(0.0362769 -0.00219374 7.20734e-20)
(0.101143 -0.00162292 -6.43861e-20)
(0.191249 0.00349499 1.19806e-19)
(0.301676 0.0138224 -1.12767e-19)
(0.426424 0.0295405 1.0182e-19)
(0.558198 0.049874 -4.89028e-20)
(0.689058 0.0732419 1.28184e-19)
(0.811464 0.097613 -8.06441e-20)
(0.919339 0.120914 1.42915e-19)
(1.0088 0.141401 -3.30019e-19)
(1.07839 0.157912 1.21477e-19)
(1.12886 0.169952 -1.06358e-19)
(1.16258 0.177634 9.98982e-20)
(1.18283 0.181509 8.65665e-20)
(1.19314 0.18236 7.62295e-20)
(1.19669 0.181014 -2.12616e-19)
(1.19608 0.178206 1.31952e-19)
(1.19317 0.174506 -5.92423e-20)
(1.18919 0.170313 1.56185e-19)
(1.18486 0.165882 -5.02959e-20)
(1.18053 0.161303 -1.25065e-19)
(1.17639 0.157 1.15825e-19)
(1.17269 0.151502 3.54647e-20)
(0.00960262 -0.00119764 0)
(0.0638225 -0.00623004 6.06739e-22)
(0.150655 -0.00337604 1.34668e-19)
(0.263408 0.00688236 -1.26309e-19)
(0.39469 0.024151 -1.13689e-19)
(0.535694 0.0474616 2.11254e-19)
(0.676662 0.0747714 -9.80845e-20)
(0.808275 0.10338 1.30745e-19)
(0.923144 0.130565 -2.76657e-21)
(1.0168 0.154122 -7.41932e-20)
(1.0879 0.172691 1.62106e-19)
(1.13784 0.185823 -2.39608e-19)
(1.16981 0.193835 0)
(1.18785 0.19754 -4.72831e-20)
(1.19601 0.197958 -1.26496e-19)
(1.19778 0.196084 3.9827e-20)
(1.1958 0.19274 1.42664e-21)
(1.19188 0.188533 -8.85364e-20)
(1.18716 0.183862 4.94584e-21)
(1.18226 0.178973 1.02675e-19)
(1.1775 0.173998 -4.61727e-20)
(1.173 0.169009 -1.81776e-20)
(1.16879 0.164183 5.4924e-20)
(1.16497 0.158616 0)
(0.0202952 -0.0030171 0)
(0.0978315 -0.00814329 3.65513e-20)
(0.209013 -0.000934437 -1.76051e-19)
(0.344719 0.0164335 6.3893e-20)
(0.494496 0.0419612 -6.01351e-20)
(0.646639 0.0730877 -5.49683e-20)
(0.789645 0.106344 -9.71237e-20)
(0.91427 0.138136 4.84677e-20)
(1.01496 0.165581 4.21157e-20)
(1.0902 0.186969 0)
(1.1418 0.201822 9.65542e-20)
(1.17374 0.210638 -1.4409e-19)
(1.19084 0.214499 1.07208e-19)
(1.19772 0.214681 4.73064e-20)
(1.19822 0.212368 -3.90682e-20)
(1.19514 0.208503 -3.28307e-20)
(1.19034 0.203753 -3.07362e-20)
(1.1849 0.198543 9.15921e-20)
(1.17943 0.193127 0)
(1.1742 0.187643 4.67483e-20)
(1.16933 0.182167 3.99518e-20)
(1.16481 0.176745 -9.84596e-20)
(1.16059 0.171402 -6.86185e-20)
(1.1567 0.165752 6.33666e-20)
(0.0336829 -0.00394532 -3.97056e-20)
(0.138096 -0.00690436 -1.57678e-21)
(0.274991 0.0069761 3.58505e-20)
(0.432331 0.0332057 1.00161e-19)
(0.596398 0.0676172 2.91241e-20)
(0.753194 0.105794 -5.63324e-20)
(0.890949 0.143043 5.13891e-20)
(1.00229 0.175468 -4.50668e-20)
(1.08494 0.200733 8.10116e-20)
(1.14086 0.218169 3.45592e-20)
(1.17473 0.228402 -9.81984e-20)
(1.19217 0.232796 2.89457e-20)
(1.19856 0.232929 4.95744e-20)
(1.19821 0.230232 -2.43715e-20)
(1.19422 0.225816 0)
(1.18858 0.220447 3.65458e-20)
(1.18241 0.214603 6.21538e-20)
(1.17632 0.20856 1.08644e-20)
(1.17056 0.202466 -5.20303e-20)
(1.16524 0.1964 2.19115e-20)
(1.16036 0.190405 0)
(1.15585 0.184499 -1.74526e-20)
(1.15166 0.178649 -1.67235e-20)
(1.1477 0.172844 0)
(0.0497162 -0.00352686 0)
(0.18386 -0.00149298 2.08325e-20)
(0.346517 0.0214143 3.84725e-20)
(0.522522 0.0577565 -1.02311e-19)
(0.695313 0.100785 3.31118e-20)
(0.849978 0.144328 0)
(0.976367 0.183076 4.97908e-20)
(1.07056 0.213633 -6.95598e-20)
(1.13416 0.234842 -4.05184e-20)
(1.17237 0.247335 1.82977e-20)
(1.19173 0.252764 -2.94377e-20)
(1.19851 0.253079 7.13936e-20)
(1.19776 0.250045 3.58105e-20)
(1.19304 0.245017 -2.48634e-20)
(1.18658 0.238913 -2.29529e-21)
(1.17964 0.232298 -6.84066e-20)
(1.17287 0.225486 3.1184e-20)
(1.16652 0.218646 -8.28353e-22)
(1.1607 0.211862 0)
(1.15541 0.20518 -2.19344e-20)
(1.15058 0.198624 0)
(1.14614 0.192184 5.03528e-20)
(1.14199 0.185837 -6.02165e-20)
(1.13803 0.179794 2.75531e-20)
(0.0681159 -0.00129895 -1.09313e-20)
(0.233785 0.00899153 -5.24965e-20)
(0.420794 0.0430784 5.97777e-20)
(0.611113 0.0900535 3.50536e-20)
(0.7865 0.140518 -1.67116e-20)
(0.933027 0.187105 2.8162e-20)
(1.04393 0.224784 -1.36496e-20)
(1.11961 0.251423 2.27622e-20)
(1.16538 0.267404 0)
(1.18875 0.274625 5.16819e-20)
(1.19714 0.275487 -2.13354e-21)
(1.19659 0.272209 -4.17174e-20)
(1.19136 0.266502 1.78644e-20)
(1.18414 0.259518 -2.01732e-20)
(1.17641 0.251955 -7.67861e-21)
(1.16889 0.244196 8.89104e-21)
(1.16189 0.236438 -6.85365e-21)
(1.15551 0.228779 -3.74504e-20)
(1.14975 0.221267 2.29459e-20)
(1.14456 0.213929 4.70899e-21)
(1.13985 0.206769 4.1669e-21)
(1.13552 0.199762 3.69234e-21)
(1.13147 0.192941 0)
(1.12753 0.186553 0)
(0.0884206 0.003175 1.09388e-20)
(0.286125 0.0252403 -1.0912e-20)
(0.494694 0.0722051 -1.99273e-20)
(0.694105 0.129476 0)
(0.866224 0.185448 -8.31182e-21)
(1.00008 0.232512 -7.51534e-21)
(1.0935 0.266862 -1.28555e-20)
(1.15124 0.288158 0)
(1.1816 0.29837 0)
(1.19335 0.300413 0)
(1.19391 0.297112 0)
(1.18859 0.290693 0)
(1.18074 0.282667 -1.12075e-20)
(1.17221 0.273941 5.10086e-21)
(1.16391 0.265011 8.87998e-21)
(1.15621 0.256121 4.161e-21)
(1.14923 0.247387 1.02832e-20)
(1.14297 0.238863 0)
(1.13739 0.230575 -2.47587e-21)
(1.1324 0.222536 -2.392e-21)
(1.1279 0.214732 -4.17354e-21)
(1.12377 0.207137 -3.69824e-21)
(1.11989 0.199861 0)
(1.11608 0.193014 2.68695e-21)
(-0.00079719 -0.0100998 6.78953e-21)
(-0.00483822 -0.0242645 -7.05003e-21)
(-0.0127608 -0.0340868 -1.33526e-20)
(-0.0227137 -0.0405193 0)
(-0.0336428 -0.0444058 -1.78907e-20)
(-0.044986 -0.0464775 5.63009e-21)
(-0.0563491 -0.0473228 -1.05866e-20)
(-0.0674589 -0.0473767 0)
(-0.0781428 -0.0469267 0)
(-0.0882978 -0.0461313 0)
(-0.097864 -0.0450464 0)
(-0.106807 -0.0436538 0)
(-0.115104 -0.0418883 5.4024e-23)
(-0.122738 -0.0396582 -6.94194e-21)
(-0.129691 -0.0368606 1.2919e-20)
(-0.135943 -0.0333915 1.82244e-20)
(-0.141475 -0.0291508 5.59776e-21)
(-0.146271 -0.024046 0)
(-0.150329 -0.0179909 5.0294e-21)
(-0.153665 -0.0109094 -1.39879e-20)
(-0.156313 -0.00273769 -8.64814e-21)
(-0.158345 0.00658853 -8.06426e-21)
(-0.159921 0.0171563 0)
(-0.161552 0.0290634 0)
(-0.000553243 -0.00652396 -2.03559e-20)
(-0.00436789 -0.0158287 3.51603e-20)
(-0.0122961 -0.0224863 -1.31881e-20)
(-0.0223462 -0.026955 -2.51545e-20)
(-0.0333799 -0.0297415 3.55856e-20)
(-0.0447869 -0.0313329 -2.23785e-20)
(-0.0561429 -0.0321326 3.16327e-20)
(-0.0671572 -0.0324385 1.97835e-20)
(-0.0776487 -0.0324414 0)
(-0.0875105 -0.0322352 -1.76309e-20)
(-0.0966813 -0.0318357 8.35255e-24)
(-0.105125 -0.0312034 1.55921e-20)
(-0.112817 -0.0302639 2.17885e-20)
(-0.119736 -0.0289245 2.72539e-20)
(-0.12586 -0.0270844 -1.29766e-20)
(-0.131161 -0.0246404 -3.60645e-20)
(-0.135613 -0.0214884 1.0996e-20)
(-0.139186 -0.0175202 -4.1605e-20)
(-0.14186 -0.0126231 0)
(-0.143646 -0.00667471 9.25453e-21)
(-0.144569 0.000452436 8.63686e-21)
(-0.144619 0.00889541 8.05356e-21)
(-0.143855 0.0188528 0)
(-0.143224 0.0304945 0)
(-0.00073191 -0.00288449 0)
(-0.0047545 -0.00729398 6.99434e-20)
(-0.0127354 -0.0108178 -2.64023e-20)
(-0.0226876 -0.0133994 2.50716e-20)
(-0.0334694 -0.0151863 -7.0701e-20)
(-0.0444658 -0.0164057 0)
(-0.0552503 -0.0172654 -4.18948e-20)
(-0.0655327 -0.0179217 1.96394e-20)
(-0.0751331 -0.0184683 -3.6978e-20)
(-0.0839464 -0.0189365 1.72454e-20)
(-0.0919126 -0.0193061 9.78825e-20)
(-0.0989956 -0.0195196 -4.59587e-20)
(-0.10517 -0.0194976 -7.17789e-20)
(-0.110412 -0.0191495 -2.6498e-20)
(-0.114693 -0.0183809 2.63163e-22)
(-0.117981 -0.0170948 9.38054e-20)
(-0.120234 -0.0151905 -4.38998e-20)
(-0.121409 -0.0125571 4.74435e-22)
(-0.121465 -0.00906752 0)
(-0.120378 -0.00456463 -3.46851e-20)
(-0.118144 0.00114794 0)
(-0.114663 0.00831939 -3.03466e-20)
(-0.109784 0.0172809 1.11937e-19)
(-0.104785 0.0283406 -4.84473e-22)
(-0.00131306 0.000606958 0)
(-0.00596289 0.000878611 1.06664e-23)
(-0.0140529 0.000327334 2.64316e-20)
(-0.0237301 -0.000503211 -2.49667e-20)
(-0.0339237 -0.00140977 2.3491e-20)
(-0.0440559 -0.00236019 1.33002e-19)
(-0.0537256 -0.00336778 -4.17263e-20)
(-0.0626602 -0.00444876 -3.92178e-20)
(-0.0706916 -0.00560161 7.37821e-20)
(-0.0777217 -0.00679765 -1.03826e-19)
(-0.0836936 -0.0079823 3.24153e-20)
(-0.0885728 -0.00908242 3.03003e-20)
(-0.0923335 -0.0100148 0)
(-0.0949503 -0.0106932 2.67019e-20)
(-0.0963934 -0.0110319 0)
(-0.096626 -0.0109465 4.58485e-20)
(-0.095603 -0.0103504 -8.53406e-20)
(-0.0932692 -0.00914822 2.10855e-20)
(-0.0895613 -0.00722047 7.43235e-20)
(-0.0844251 -0.00440621 3.46534e-20)
(-0.0778326 -0.000471839 0)
(-0.0696409 0.00494546 -8.73288e-20)
(-0.0593605 0.0124165 2.77964e-20)
(-0.0479847 0.0226582 0)
(-0.00224369 0.00377748 0)
(-0.00789011 0.00830291 -8.39077e-20)
(-0.0161422 0.0104447 -2.66259e-20)
(-0.0253805 0.0111696 -4.99484e-20)
(-0.0346661 0.0110011 4.70331e-20)
(-0.0434946 0.0102151 -4.43185e-20)
(-0.0515151 0.00898303 8.33354e-20)
(-0.0584881 0.00742222 3.90965e-20)
(-0.0642651 0.00562519 -1.10416e-19)
(-0.0687579 0.00367835 6.88365e-20)
(-0.0719139 0.00166939 -9.68709e-20)
(-0.0736984 -0.000312504 2.11022e-19)
(-0.0740832 -0.00217934 -1.13164e-19)
(-0.07304 -0.00384717 5.24588e-20)
(-0.0705363 -0.0052378 1.46293e-19)
(-0.0665334 -0.00627858 -4.68255e-20)
(-0.0609863 -0.00689937 -4.30959e-20)
(-0.0538401 -0.0070295 -3.99285e-20)
(-0.0450259 -0.00658395 0)
(-0.0344726 -0.0054458 -6.60697e-20)
(-0.0221418 -0.00342526 -5.95339e-20)
(-0.00794481 -0.000150701 8.62053e-20)
(0.00887991 0.00526943 1.03059e-19)
(0.0284194 0.0144087 -9.6368e-20)
(-0.00344869 0.00650459 0)
(-0.0103793 0.0146894 -1.12534e-19)
(-0.0188192 0.0191399 -2.65774e-22)
(-0.0274466 0.0211636 1.00068e-19)
(-0.0354972 0.0215606 0)
(-0.042568 0.0208252 0)
(-0.0483767 0.0192971 0)
(-0.0527278 0.0172166 -3.9044e-20)
(-0.0554966 0.0147614 2.19042e-22)
(-0.0566045 0.0120729 6.89838e-20)
(-0.0559987 0.00927185 -9.63152e-20)
(-0.0536384 0.00646547 2.93364e-22)
(-0.0494863 0.00375047 0)
(-0.0435038 0.00121402 -5.24379e-20)
(-0.03565 -0.00106564 4.78597e-20)
(-0.0258797 -0.00301908 -1.35712e-19)
(-0.0141482 -0.00458622 1.66479e-19)
(-0.000410327 -0.00571097 3.6365e-20)
(0.015386 -0.00633968 -2.69926e-21)
(0.0332921 -0.0064153 -1.32303e-19)
(0.0533207 -0.00585609 -5.96723e-20)
(0.0755118 -0.00443113 1.91126e-19)
(0.100652 -0.00119168 -1.26317e-19)
(0.131026 0.00623991 0)
(-0.00484204 0.00871646 5.48877e-20)
(-0.0132335 0.0198472 5.63202e-20)
(-0.021824 0.0261332 -5.36121e-20)
(-0.0296191 0.0291405 -1.0068e-19)
(-0.0360536 0.0298971 9.48018e-20)
(-0.0408427 0.0290861 -8.90746e-20)
(-0.0437831 0.0271946 1.25772e-19)
(-0.0447268 0.0245731 -3.89534e-20)
(-0.0435708 0.0214768 7.37481e-20)
(-0.0402393 0.0180995 0)
(-0.0346703 0.0145963 6.39743e-20)
(-0.0268056 0.0110953 -1.206e-19)
(-0.0165877 0.00770807 1.11478e-19)
(-0.00395868 0.0045321 -1.04706e-19)
(0.011136 0.00165383 0)
(0.0287444 -0.000849418 8.96758e-20)
(0.0489073 -0.00290862 1.64074e-19)
(0.0716507 -0.00446182 -1.54274e-19)
(0.0969802 -0.0054593 -7.01212e-20)
(0.124883 -0.00586325 -6.33882e-20)
(0.155287 -0.00565648 1.79551e-19)
(0.188194 -0.00479348 5.21592e-20)
(0.2229 -0.00287324 -5.03728e-20)
(0.269227 0.00343732 4.44604e-20)
(-0.00633496 0.0103849 -5.48951e-20)
(-0.0162242 0.0236732 1.71505e-19)
(-0.0248172 0.0312529 -5.39763e-20)
(-0.0314505 0.0348782 1.01388e-19)
(-0.0357654 0.0357603 -9.54669e-20)
(-0.0376 0.0347402 4.17474e-22)
(-0.0368302 0.032431 4.22768e-20)
(-0.0333504 0.0292788 1.57774e-19)
(-0.0270696 0.0256088 -6.92582e-22)
(-0.0179028 0.0216653 -6.93194e-20)
(-0.00576832 0.01764 0)
(0.00941796 0.0136857 -5.96032e-20)
(0.0277362 0.00993455 1.12462e-19)
(0.0492552 0.00650162 1.0338e-19)
(0.0740267 0.00349066 -4.88838e-20)
(0.102075 0.000996199 -1.35045e-22)
(0.133385 -0.000896312 -4.13263e-20)
(0.167897 -0.00211333 7.58251e-20)
(0.2055 -0.00259342 7.01067e-20)
(0.246042 -0.00228482 -6.43453e-20)
(0.289116 -0.00120954 5.84876e-20)
(0.33552 0.000868061 -5.3359e-20)
(0.379436 0.00296209 0)
(0.446359 0.0105436 -4.43975e-20)
(-0.00783884 0.0115124 5.58657e-20)
(-0.019091 0.0261313 -5.73718e-20)
(-0.0273697 0.0344174 5.47104e-20)
(-0.0323305 0.0382626 0)
(-0.0338154 0.0390233 0)
(-0.031779 0.0376709 9.08184e-20)
(-0.0261662 0.0349241 -8.48146e-20)
(-0.0169018 0.031311 7.9088e-20)
(-0.00389603 0.0272208 -3.70961e-19)
(0.0129544 0.0229484 4.10082e-22)
(0.0337517 0.0187187 6.47356e-20)
(0.0585847 0.0147183 0)
(0.0875246 0.0111062 -1.11374e-19)
(0.120597 0.00801933 2.07902e-19)
(0.157767 0.00557802 -1.45206e-19)
(0.198926 0.00388726 -2.21249e-19)
(0.243879 0.00303654 3.01404e-21)
(0.292337 0.00309755 1.52572e-19)
(0.343909 0.00411648 0)
(0.39824 0.00617549 0)
(0.454023 0.00899811 -5.84805e-20)
(0.514235 0.0136946 5.33513e-20)
(0.564508 0.0168562 -1.90764e-19)
(0.6503 0.027744 1.79062e-19)
(-0.00926258 0.012118 0)
(-0.021533 0.0272284 0)
(-0.0289463 0.0356157 -1.64731e-19)
(-0.031462 0.0392776 5.23372e-20)
(-0.0291091 0.0396863 3.43691e-22)
(-0.0219438 0.0379214 9.20246e-20)
(-0.00996561 0.0347895 0)
(0.00688053 0.0308903 -8.00386e-20)
(0.0286829 0.0266719 7.43779e-20)
(0.055536 0.0224737 -1.38881e-19)
(0.0875208 0.0185635 5.43274e-22)
(0.124665 0.0151626 1.20066e-19)
(0.16691 0.0124483 -1.31453e-21)
(0.214088 0.0105676 1.01889e-19)
(0.265902 0.00963775 -1.45869e-19)
(0.321909 0.00974505 0)
(0.381526 0.0109431 1.62362e-19)
(0.444038 0.0132519 -2.27957e-19)
(0.508586 0.0166313 6.90513e-20)
(0.574533 0.0211819 0)
(0.639549 0.0261814 5.79038e-20)
(0.708344 0.0336665 2.09641e-19)
(0.760877 0.0380434 -1.96741e-19)
(0.852965 0.0518628 -2.20961e-19)
(-0.0105041 0.0122241 1.7237e-19)
(-0.0231905 0.0269947 -2.37389e-19)
(-0.0288864 0.0348969 3.37806e-22)
(-0.0278456 0.0380113 5.29092e-20)
(-0.0202699 0.0379041 -9.88031e-20)
(-0.00630308 0.0357462 -9.15444e-20)
(0.0140055 0.0324193 1.71442e-19)
(0.0406766 0.0285853 -1.65522e-21)
(0.0737532 0.0247443 -1.50537e-19)
(0.113245 0.0212798 2.78991e-19)
(0.159073 0.0184925 -1.48065e-21)
(0.211019 0.0166119 -1.21647e-19)
(0.26868 0.0158096 0)
(0.331442 0.016201 0)
(0.398483 0.0178443 -4.81202e-20)
(0.468782 0.0207395 -8.85386e-20)
(0.541162 0.0248289 -1.61739e-19)
(0.614344 0.0300003 1.51821e-19)
(0.686986 0.0360753 -6.90749e-20)
(0.757977 0.042982 1.24653e-19)
(0.82515 0.0499705 -6.09359e-20)
(0.891615 0.0586524 1.01831e-19)
(0.941788 0.0638981 -2.44076e-19)
(1.02065 0.0775275 4.40504e-20)
(-0.0114366 0.0118465 5.8227e-20)
(-0.0236178 0.0254783 0)
(-0.0263715 0.0323742 1.13167e-19)
(-0.0202557 0.0346766 -1.06609e-19)
(-0.00563754 0.0340278 9.8892e-20)
(0.0172494 0.0316766 0)
(0.0482778 0.0285658 0)
(0.0873615 0.025406 -8.05767e-20)
(0.134369 0.0227336 1.37868e-21)
(0.189032 0.0209508 7.10985e-20)
(0.250861 0.0203485 -6.4659e-20)
(0.319092 0.0211162 1.22013e-19)
(0.392659 0.0233472 0)
(0.470209 0.0270392 2.06186e-19)
(0.550156 0.0320986 -3.83754e-19)
(0.630762 0.0383467 2.6712e-19)
(0.710237 0.0455361 1.60752e-19)
(0.786839 0.0533534 -1.50898e-19)
(0.859016 0.0615002 0)
(0.925348 0.0695399 0)
(0.984953 0.0773193 0)
(1.03749 0.0844826 0)
(1.07924 0.0900054 4.81566e-20)
(1.12855 0.098416 -1.75864e-19)
(-0.164321 0.0442326 -5.03485e-21)
(-0.16729 0.0636727 5.05683e-21)
(-0.1693 0.0852906 -1.47929e-22)
(-0.170478 0.108706 0)
(-0.170656 0.133426 -4.50198e-21)
(-0.169639 0.158758 8.7172e-21)
(-0.167229 0.183827 -3.22246e-23)
(-0.163234 0.207545 -4.07083e-21)
(-0.157465 0.228596 0)
(-0.149727 0.245417 0)
(-0.139798 0.25624 -2.35656e-22)
(-0.127412 0.259169 -2.3422e-22)
(-0.11227 0.252221 -3.9404e-21)
(-0.0940535 0.233463 3.60181e-21)
(-0.0721499 0.201011 0)
(-0.0465074 0.154617 0)
(-0.0175215 0.0937315 3.67824e-21)
(0.0146076 0.0196461 1.01442e-23)
(0.0492719 -0.0648958 -3.25598e-21)
(0.084971 -0.154756 -2.13541e-22)
(0.11971 -0.243393 0)
(0.150242 -0.324017 0)
(0.172243 -0.390356 0)
(0.181172 -0.44097 0)
(0.17403 -0.477872 0)
(0.153318 -0.501259 0)
(0.131181 -0.503562 4.95098e-22)
(0.125537 -0.469061 -7.74408e-22)
(0.149739 -0.384551 0)
(0.201013 -0.253218 0)
(0.267259 -0.0936756 -7.18556e-22)
(0.338815 0.069478 6.98321e-22)
(0.40791 0.212021 2.84847e-22)
(0.466583 0.316333 0)
(0.50967 0.376708 0)
(0.532815 0.401351 2.88053e-22)
(0.521819 0.412351 -2.80006e-22)
(0.469453 0.423871 0)
(0.406698 0.412974 2.24261e-22)
(0.387903 0.339046 -3.44817e-22)
(0.428931 0.200148 1.34464e-22)
(0.503888 0.0406961 0)
(0.582477 -0.0948184 -1.78756e-22)
(0.648193 -0.185422 1.73813e-22)
(0.693068 -0.230038 0)
(0.721264 -0.237845 0)
(0.727006 -0.224894 -1.17933e-23)
(0.708371 -0.205167 2.29445e-23)
(0.671592 -0.180316 0)
(0.65082 -0.139789 0)
(0.657128 -0.0849292 -8.36677e-25)
(0.696012 -0.0230321 2.60752e-24)
(0.73471 0.0246385 -1.12902e-24)
(0.777663 0.0604887 -3.40536e-24)
(0.795368 0.0733315 0)
(0.814003 0.0800546 0)
(0.809232 0.0722689 0)
(0.820078 0.0585573 0)
(0.816143 0.0456884 0)
(0.840844 0.0141351 0)
(-0.144905 0.0455512 -4.61201e-22)
(-0.146533 0.0640556 -1.90651e-20)
(-0.146736 0.0846378 2.87514e-22)
(-0.145899 0.10694 1.76267e-20)
(-0.143812 0.130505 2.63048e-22)
(-0.140203 0.154574 0)
(-0.134787 0.178318 -1.60118e-20)
(-0.1273 0.200665 3.17153e-20)
(-0.117507 0.220303 -1.5704e-20)
(-0.105182 0.235645 1.55129e-20)
(-0.0900832 0.244909 -1.48425e-20)
(-0.0719568 0.246201 1.53285e-20)
(-0.0506085 0.237488 -1.4905e-20)
(-0.0261262 0.216863 -5.00924e-22)
(0.00225751 0.18276 -1.61705e-20)
(0.0343164 0.1344 1.57144e-20)
(0.0688811 0.0716813 -1.61663e-20)
(0.105421 -0.0037365 1.51979e-20)
(0.14317 -0.0888105 -1.52106e-20)
(0.180766 -0.178431 2.85874e-20)
(0.216125 -0.2655 -1.34237e-20)
(0.246162 -0.342102 -7.23087e-22)
(0.266699 -0.401627 -8.83551e-21)
(0.272854 -0.442506 1.58217e-20)
(0.260168 -0.468711 -7.03159e-21)
(0.227581 -0.485105 3.17927e-22)
(0.183951 -0.489284 4.64892e-21)
(0.148345 -0.466871 1.89013e-22)
(0.14177 -0.399051 -8.89445e-21)
(0.171061 -0.280424 9.30973e-21)
(0.225873 -0.126918 -4.69734e-21)
(0.292599 0.0348315 5.35109e-22)
(0.360792 0.180285 -2.85442e-22)
(0.421955 0.291015 4.25353e-22)
(0.469245 0.360649 0)
(0.492902 0.398611 0)
(0.478041 0.425112 -1.03594e-21)
(0.427942 0.444503 7.50523e-22)
(0.383505 0.425254 8.04375e-22)
(0.391113 0.332862 2.40512e-22)
(0.451381 0.179257 -1.26167e-21)
(0.536084 0.0147746 2.94478e-22)
(0.617887 -0.118617 0)
(0.682413 -0.203063 0)
(0.723114 -0.241268 0)
(0.747047 -0.243356 0)
(0.75356 -0.22405 6.50121e-23)
(0.739845 -0.198201 -1.14847e-23)
(0.703645 -0.171894 0)
(0.67248 -0.136115 0)
(0.662273 -0.0885758 0)
(0.686166 -0.0312529 6.53287e-24)
(0.716771 0.0156921 3.73498e-24)
(0.755405 0.0536927 3.90198e-24)
(0.77354 0.0693057 0)
(0.792808 0.0782941 0)
(0.793533 0.0712297 -7.29159e-24)
(0.809603 0.0572689 -1.74559e-23)
(0.812623 0.0432105 0)
(0.844191 0.0114005 0)
(-0.103817 0.0431434 -5.08797e-23)
(-0.10403 0.0606242 -3.67888e-20)
(-0.102147 0.080105 3.57308e-20)
(-0.0989729 0.10121 -3.34297e-20)
(-0.0943983 0.123667 -2.6485e-22)
(-0.0880961 0.14641 0)
(-0.0796395 0.168744 -3.2005e-20)
(-0.0687477 0.189642 3.13495e-20)
(-0.0551928 0.207823 2.42563e-22)
(-0.0387368 0.221753 4.80426e-22)
(-0.0190466 0.229658 4.86898e-22)
(0.00404129 0.229562 4.87153e-22)
(0.0305885 0.219477 -3.31078e-20)
(0.0604846 0.197537 3.26783e-20)
(0.0938116 0.162687 0)
(0.130217 0.113452 1.09594e-21)
(0.16857 0.0502352 -3.47614e-20)
(0.208007 -0.0254449 3.42907e-20)
(0.247515 -0.110107 0)
(0.285671 -0.198833 0)
(0.320464 -0.284102 -2.68886e-20)
(0.348759 -0.357171 4.88461e-20)
(0.366685 -0.410698 -3.95549e-20)
(0.37015 -0.442373 3.66282e-21)
(0.354886 -0.4569 2.49582e-20)
(0.316918 -0.462939 -2.03855e-20)
(0.259393 -0.464186 1.59481e-20)
(0.19819 -0.450757 -7.36532e-22)
(0.158651 -0.401601 -6.85995e-21)
(0.158981 -0.301613 0)
(0.196187 -0.15903 0)
(0.254777 -0.000282667 2.83041e-21)
(0.320383 0.146943 -3.68699e-21)
(0.38223 0.263942 -5.88348e-23)
(0.430687 0.344044 2.62839e-21)
(0.452453 0.396747 -2.55435e-21)
(0.435887 0.437541 0)
(0.394425 0.460745 2.57543e-22)
(0.372749 0.430368 2.78073e-21)
(0.405037 0.320984 -5.84667e-21)
(0.481429 0.155943 2.63474e-21)
(0.573601 -0.0114828 3.72119e-22)
(0.656569 -0.141446 -2.3195e-21)
(0.718509 -0.219194 1.73534e-21)
(0.754467 -0.250927 2.47593e-22)
(0.772849 -0.2482 1.41474e-22)
(0.777666 -0.224129 -6.51748e-23)
(0.768209 -0.192623 0)
(0.736139 -0.163171 0)
(0.699968 -0.129798 1.12048e-22)
(0.676412 -0.0886276 -4.96371e-23)
(0.68461 -0.0366607 5.14009e-23)
(0.70515 0.00835061 -5.12064e-23)
(0.737341 0.0474533 -6.98171e-23)
(0.755452 0.0651724 1.26896e-23)
(0.775519 0.0758243 -3.27399e-23)
(0.782975 0.0690165 2.93602e-23)
(0.804747 0.0547245 -1.05439e-23)
(0.815091 0.0394384 0)
(0.852287 0.00807828 0)
(-0.0434057 0.0372429 -7.28605e-20)
(-0.0426456 0.0537809 1.30558e-21)
(-0.0389985 0.0719271 6.78123e-20)
(-0.0335329 0.0916847 -5.26594e-22)
(-0.0265954 0.112548 0)
(-0.0180196 0.133821 0)
(-0.00689208 0.154786 -6.28497e-20)
(0.00701829 0.174335 -2.02101e-21)
(0.0238983 0.191175 9.21678e-20)
(0.0439317 0.203864 8.4875e-22)
(0.0673655 0.210659 -3.13195e-20)
(0.0943311 0.209586 -3.23316e-20)
(0.124859 0.198779 3.2404e-20)
(0.158738 0.17641 0)
(0.195651 0.141286 -3.62846e-20)
(0.235074 0.0922843 3.30065e-20)
(0.275901 0.029615 0)
(0.317178 -0.0449875 0)
(0.357766 -0.128476 3.37891e-20)
(0.396005 -0.215836 -1.94939e-21)
(0.429684 -0.299199 -2.91126e-20)
(0.455324 -0.369092 -2.35262e-20)
(0.469234 -0.417436 2.33833e-20)
(0.468517 -0.441276 -1.47453e-20)
(0.450804 -0.444994 3.43873e-21)
(0.411979 -0.438818 1.04819e-20)
(0.349662 -0.431985 8.66579e-22)
(0.272023 -0.421661 9.03008e-23)
(0.20268 -0.389102 0)
(0.169061 -0.312006 5.5306e-21)
(0.180985 -0.18689 -5.66365e-21)
(0.225864 -0.0351733 4.29334e-22)
(0.285651 0.112613 0)
(0.345754 0.235995 -3.71243e-22)
(0.392861 0.32756 4.85929e-21)
(0.412565 0.395058 -8.76142e-21)
(0.398422 0.44758 -7.02164e-22)
(0.37145 0.470951 -5.48218e-22)
(0.374351 0.428602 4.19758e-21)
(0.428569 0.30489 7.02271e-22)
(0.518331 0.131533 -6.00904e-21)
(0.615896 -0.0372084 5.16757e-21)
(0.69804 -0.162761 -4.46248e-23)
(0.755716 -0.233631 1.32914e-21)
(0.786411 -0.25894 -1.54051e-21)
(0.798839 -0.251973 -8.6683e-22)
(0.800022 -0.224633 2.82395e-22)
(0.793022 -0.188636 -1.64452e-23)
(0.766847 -0.155233 1.28878e-22)
(0.73067 -0.122054 -1.70946e-22)
(0.698348 -0.0856196 5.51081e-23)
(0.692031 -0.0390853 -7.13926e-23)
(0.70157 0.00299302 -6.98824e-23)
(0.725716 0.0420194 1.27595e-22)
(0.743365 0.0609492 -4.3246e-24)
(0.764316 0.0725158 3.62382e-23)
(0.77908 0.0655107 0)
(0.806347 0.0509086 1.47347e-23)
(0.823599 0.0345194 -5.91903e-24)
(0.864545 0.00431689 0)
(0.0363759 0.0284878 7.11654e-20)
(0.0370442 0.0441766 -1.38063e-19)
(0.0408825 0.0607187 6.61893e-20)
(0.0472879 0.0787447 6.42937e-20)
(0.0556758 0.0977857 -1.25855e-19)
(0.0661526 0.117611 -3.72254e-22)
(0.0792521 0.13725 6.07116e-20)
(0.0952952 0.155529 6.1798e-20)
(0.114529 0.171165 -6.05446e-20)
(0.137129 0.182743 0)
(0.163263 0.188608 -6.58556e-20)
(0.193006 0.186953 1.32124e-19)
(0.226306 0.175965 -6.62002e-20)
(0.262875 0.153888 0)
(0.30221 0.119417 0)
(0.343627 0.0715423 1.15686e-21)
(0.38632 0.0101526 -7.62057e-20)
(0.429058 -0.0622066 7.40243e-20)
(0.470459 -0.143763 0)
(0.508706 -0.229167 6.59253e-20)
(0.541071 -0.310154 -1.17787e-19)
(0.563506 -0.376604 1.00692e-19)
(0.572317 -0.420121 -8.34715e-20)
(0.565649 -0.437829 7.7789e-21)
(0.543578 -0.433445 4.87062e-20)
(0.504635 -0.416296 -2.05386e-20)
(0.44428 -0.398358 -4.03812e-22)
(0.361797 -0.384441 -3.56609e-21)
(0.272253 -0.362433 3.75633e-22)
(0.205365 -0.307979 3.2905e-21)
(0.184785 -0.20591 2.93317e-22)
(0.208288 -0.0674367 -4.29739e-21)
(0.257161 0.0786538 8.59924e-21)
(0.312208 0.207758 -4.76401e-21)
(0.35646 0.310753 0)
(0.375783 0.391815 -4.93752e-21)
(0.36885 0.45308 4.81128e-21)
(0.360569 0.474237 -4.82503e-21)
(0.387567 0.420834 5.98685e-21)
(0.460685 0.285916 -8.71186e-22)
(0.561362 0.106802 0)
(0.662262 -0.0614739 -7.99391e-22)
(0.741677 -0.18202 1.83568e-21)
(0.793454 -0.24608 0)
(0.818202 -0.265257 2.27488e-21)
(0.824781 -0.254471 -1.06064e-21)
(0.821289 -0.225043 1.34437e-22)
(0.814559 -0.18606 2.28889e-23)
(0.794296 -0.148798 0)
(0.761898 -0.114123 0)
(0.72596 -0.0804664 2.58219e-22)
(0.708126 -0.0387399 -4.12638e-22)
(0.70712 -0.000223885 2.20178e-22)
(0.722471 0.0375603 -6.80339e-23)
(0.739233 0.0566715 -9.84813e-23)
(0.760957 0.0683424 -3.62728e-23)
(0.782766 0.0607522 5.24228e-23)
(0.814606 0.0459593 0)
(0.837635 0.0287293 1.37812e-23)
(0.88007 0.000315248 1.97403e-24)
(0.140099 0.0194434 7.04473e-20)
(0.139184 0.0339714 -6.98949e-20)
(0.140338 0.0485852 5.20289e-22)
(0.145321 0.0644292 -4.90054e-22)
(0.153153 0.0816135 4.90599e-22)
(0.163562 0.0996754 -4.81943e-22)
(0.176868 0.117635 9.32843e-22)
(0.193451 0.134407 0)
(0.213548 0.14877 -9.47814e-22)
(0.237298 0.159337 9.69554e-22)
(0.2648 0.164524 9.99832e-22)
(0.296055 0.162618 -1.04683e-21)
(0.330934 0.151888 0)
(0.369089 0.130667 0)
(0.40991 0.0975983 1.15813e-21)
(0.452493 0.0516295 0)
(0.496786 -0.00709429 -1.19053e-21)
(0.540892 -0.076958 0)
(0.582908 -0.156001 -6.93101e-20)
(0.621116 -0.238709 1.32613e-19)
(0.651897 -0.316595 -1.183e-19)
(0.670504 -0.379145 5.521e-20)
(0.673334 -0.418045 3.72973e-20)
(0.659648 -0.430912 -3.62194e-20)
(0.631498 -0.421269 -2.07092e-20)
(0.590701 -0.396579 1.99134e-20)
(0.534534 -0.367907 0)
(0.456711 -0.34521 1.76137e-22)
(0.360406 -0.325713 0)
(0.268578 -0.288978 0)
(0.213082 -0.212098 3.96717e-21)
(0.207299 -0.092961 -3.96284e-21)
(0.238294 0.0467195 2.43258e-22)
(0.284036 0.179334 4.7184e-22)
(0.324471 0.29237 -3.60739e-22)
(0.345737 0.385006 -4.02682e-21)
(0.350009 0.45252 3.91005e-21)
(0.362312 0.470591 -6.40857e-21)
(0.411261 0.40822 5.61125e-21)
(0.50022 0.265173 1.82456e-21)
(0.609555 0.0826725 -7.19396e-21)
(0.711819 -0.0837488 6.35876e-23)
(0.786759 -0.19873 4.58047e-21)
(0.831231 -0.256249 0)
(0.849262 -0.269862 -1.1438e-21)
(0.850218 -0.255681 6.28239e-22)