/*--------------------------------*- C++ -*----------------------------------*\
| =========                 |                                                 |
| \\      /  F ield         | OpenFOAM: The Open Source CFD Toolbox           |
|  \\    /   O peration     | Version:  2512                                  |
|   \\  /    A nd           | Website:  www.openfoam.com                      |
|    \\/     M anipulation  |                                                 |
\*---------------------------------------------------------------------------*/
FoamFile
{
    version     2.0;
    format      ascii;
    arch        "LSB;label=32;scalar=64";
    class       volScalarField;
    location    "167";
    object      p;
}
// * * * * * * * * * * * * * * * * * * * * * * * * * * * * * * * * * * * * * //

dimensions      [0 2 -2 0 0 0 0];

internalField   nonuniform List<scalar> 
13248
(
-0.435367
-0.432764
-0.429158
-0.42489
-0.420427
-0.416273
-0.412844
-0.410407
-0.409045
-0.408648
-0.408914
-0.409387
-0.40951
-0.408701
-0.406423
-0.402254
-0.395933
-0.387371
-0.376627
-0.363892
-0.349254
-0.333052
-0.314143
-0.293535
-0.444402
-0.441153
-0.436998
-0.43227
-0.427379
-0.422768
-0.418765
-0.415524
-0.413011
-0.411009
-0.40915
-0.406973
-0.404001
-0.399808
-0.394077
-0.386637
-0.377456
-0.366618
-0.354278
-0.340608
-0.325749
-0.309837
-0.292679
-0.275169
-0.455806
-0.451598
-0.44672
-0.441439
-0.436044
-0.430877
-0.42613
-0.421815
-0.417771
-0.41371
-0.409273
-0.404098
-0.397882
-0.390426
-0.381651
-0.371587
-0.360342
-0.348062
-0.334895
-0.320979
-0.306394
-0.291289
-0.275516
-0.259678
-0.469496
-0.464069
-0.458305
-0.452351
-0.446309
-0.440369
-0.434558
-0.428737
-0.422662
-0.416055
-0.408668
-0.400329
-0.390964
-0.380598
-0.369325
-0.35728
-0.344605
-0.331427
-0.317849
-0.303955
-0.289811
-0.275517
-0.261018
-0.24688
-0.485311
-0.478476
-0.471693
-0.464927
-0.458021
-0.450973
-0.443639
-0.435773
-0.427138
-0.417578
-0.40705
-0.395617
-0.383414
-0.370617
-0.357398
-0.343906
-0.33025
-0.316508
-0.30273
-0.288952
-0.275208
-0.261543
-0.247935
-0.234716
-0.50304
-0.494675
-0.486775
-0.479035
-0.470963
-0.46234
-0.452897
-0.442384
-0.430699
-0.417913
-0.404235
-0.389934
-0.375283
-0.360513
-0.34579
-0.331219
-0.316857
-0.302724
-0.288827
-0.275164
-0.261742
-0.248573
-0.235648
-0.22317
-0.522339
-0.512414
-0.503326
-0.494402
-0.484746
-0.473951
-0.461733
-0.447991
-0.432888
-0.416782
-0.400105
-0.38326
-0.366559
-0.350208
-0.334316
-0.318927
-0.304036
-0.289621
-0.275651
-0.262099
-0.248944
-0.236169
-0.223772
-0.211813
-0.542726
-0.531274
-0.520925
-0.510522
-0.498744
-0.48509
-0.469438
-0.452004
-0.433299
-0.413954
-0.394546
-0.375511
-0.357118
-0.339498
-0.322686
-0.306658
-0.291362
-0.27674
-0.262733
-0.249291
-0.236374
-0.223949
-0.212007
-0.200502
-0.563484
-0.550602
-0.538893
-0.526621
-0.512088
-0.494886
-0.47526
-0.453875
-0.431597
-0.409249
-0.387449
-0.366575
-0.346804
-0.328171
-0.310635
-0.294117
-0.278523
-0.263767
-0.249769
-0.236458
-0.223778
-0.211684
-0.200148
-0.189048
-0.58365
-0.569486
-0.556266
-0.541643
-0.523705
-0.502377
-0.478462
-0.453118
-0.427496
-0.402494
-0.378671
-0.356291
-0.335414
-0.315986
-0.297895
-0.281017
-0.265227
-0.250414
-0.236479
-0.223334
-0.210907
-0.199148
-0.187992
-0.17729
-0.602042
-0.586758
-0.571814
-0.554308
-0.532376
-0.506538
-0.478269
-0.449174
-0.420565
-0.393305
-0.367822
-0.344241
-0.322507
-0.302482
-0.283999
-0.266896
-0.251022
-0.236244
-0.222445
-0.209523
-0.197396
-0.185995
-0.175217
-0.164935
-0.617375
-0.601158
-0.58425
-0.563328
-0.536906
-0.506328
-0.473784
-0.441231
-0.410023
-0.380891
-0.354096
-0.329611
-0.307272
-0.286866
-0.268179
-0.251013
-0.235195
-0.220573
-0.207014
-0.194407
-0.182661
-0.171689
-0.161359
-0.151613
-0.365716
-0.366932
-0.367712
-0.368446
-0.369536
-0.37117
-0.373423
-0.376317
-0.379836
-0.38395
-0.388619
-0.393784
-0.399364
-0.405241
-0.411253
-0.41719
-0.422786
-0.427724
-0.431618
-0.433931
-0.434342
-0.432525
-0.428147
-0.421024
-0.376777
-0.377107
-0.377442
-0.378035
-0.379189
-0.381097
-0.383852
-0.387485
-0.391992
-0.397352
-0.403533
-0.410482
-0.418117
-0.42631
-0.434868
-0.443536
-0.451979
-0.459781
-0.466445
-0.471422
-0.474119
-0.473978
-0.470384
-0.462712
-0.387074
-0.386493
-0.386327
-0.386685
-0.387771
-0.389783
-0.392832
-0.396958
-0.402164
-0.408433
-0.415733
-0.424008
-0.433164
-0.443076
-0.453492
-0.464128
-0.474594
-0.484395
-0.492938
-0.499535
-0.503458
-0.503946
-0.500188
-0.491527
-0.396077
-0.394649
-0.393951
-0.393971
-0.394824
-0.396718
-0.399784
-0.404078
-0.40961
-0.416362
-0.424295
-0.433344
-0.443401
-0.454301
-0.465792
-0.477539
-0.489101
-0.499919
-0.509315
-0.516521
-0.520692
-0.520925
-0.516468
-0.505927
-0.403462
-0.401339
-0.400119
-0.399702
-0.400142
-0.401665
-0.404436
-0.408533
-0.413977
-0.420752
-0.428811
-0.438073
-0.44841
-0.45963
-0.471458
-0.483522
-0.495335
-0.50628
-0.515637
-0.522552
-0.526131
-0.525313
-0.51975
-0.506931
-0.409139
-0.406539
-0.404847
-0.403917
-0.40378
-0.404694
-0.406866
-0.410412
-0.415376
-0.421749
-0.429479
-0.43847
-0.44857
-0.459562
-0.471138
-0.482877
-0.494257
-0.504622
-0.513181
-0.519025
-0.52129
-0.518716
-0.511592
-0.496298
-0.413258
-0.41043
-0.408347
-0.406865
-0.40603
-0.406147
-0.407478
-0.410188
-0.414355
-0.41999
-0.427043
-0.435403
-0.444894
-0.455259
-0.466146
-0.477107
-0.487536
-0.496713
-0.503815
-0.507883
-0.508157
-0.503266
-0.494094
-0.476426
-0.416188
-0.413366
-0.410986
-0.408947
-0.407356
-0.406572
-0.406918
-0.408617
-0.411793
-0.416486
-0.422649
-0.43016
-0.438795
-0.448269
-0.458166
-0.46794
-0.476924
-0.484336
-0.489327
-0.490954
-0.488615
-0.481067
-0.469529
-0.449945
-0.418481
-0.415836
-0.413235
-0.410666
-0.408326
-0.406633
-0.40597
-0.40662
-0.408756
-0.412439
-0.417621
-0.424155
-0.431795
-0.440144
-0.448697
-0.456824
-0.463788
-0.468776
-0.47099
-0.469635
-0.464325
-0.454189
-0.440487
-0.419799
-0.420827
-0.41842
-0.415637
-0.412581
-0.409556
-0.407034
-0.405451
-0.405136
-0.406294
-0.408998
-0.41319
-0.418663
-0.425076
-0.43195
-0.438676
-0.444544
-0.448791
-0.450672
-0.449548
-0.44494
-0.436756
-0.424647
-0.409764
-0.389164
-0.423981
-0.421737
-0.418758
-0.41526
-0.411645
-0.408428
-0.406073
-0.404932
-0.405215
-0.406975
-0.410094
-0.414291
-0.419126
-0.424019
-0.428294
-0.431229
-0.432131
-0.430424
-0.425712
-0.417883
-0.407116
-0.393703
-0.378735
-0.359765
-0.428651
-0.42637
-0.423123
-0.419214
-0.415109
-0.411338
-0.408365
-0.406525
-0.405991
-0.406753
-0.40861
-0.411185
-0.413948
-0.416272
-0.41749
-0.416977
-0.414216
-0.408871
-0.400793
-0.390099
-0.376973
-0.362077
-0.346051
-0.328975
-0.40993
-0.391525
-0.36859
-0.342125
-0.314006
-0.286776
-0.263169
-0.245194
-0.235044
-0.233026
-0.238361
-0.248033
-0.256825
-0.258284
-0.251558
-0.231242
-0.200798
-0.166716
-0.135888
-0.112851
-0.0991119
-0.0939842
-0.0961884
-0.105815
-0.124244
-0.149904
-0.174408
-0.185342
-0.17639
-0.151819
-0.122168
-0.0963854
-0.0786002
-0.0688462
-0.0654876
-0.0690575
-0.0810921
-0.0974982
-0.107862
-0.104053
-0.089465
-0.0735735
-0.0615607
-0.0547715
-0.0540128
-0.0603113
-0.0686723
-0.0704792
-0.0637205
-0.054939
-0.0453535
-0.0395662
-0.0353225
-0.033411
-0.0329622
-0.0313063
-0.0251785
-0.0190423
-0.0105448
-0.00275347
-0.451517
-0.429456
-0.401681
-0.369143
-0.333734
-0.298151
-0.265215
-0.237426
-0.217294
-0.205538
-0.20292
-0.207031
-0.21329
-0.216121
-0.211417
-0.196324
-0.172625
-0.145564
-0.121104
-0.103469
-0.0942556
-0.0929321
-0.0985575
-0.111788
-0.134164
-0.163465
-0.190179
-0.200649
-0.189766
-0.161857
-0.128751
-0.0999602
-0.0795248
-0.067399
-0.0617884
-0.0628079
-0.0718885
-0.0858231
-0.09519
-0.092458
-0.0805428
-0.0678264
-0.0588412
-0.0545735
-0.0564849
-0.0653318
-0.0758801
-0.0781836
-0.0698175
-0.0588612
-0.0469202
-0.0394175
-0.0330859
-0.0298161
-0.0285374
-0.0268998
-0.0221296
-0.017034
-0.0103715
-0.00327803
-0.479604
-0.455123
-0.422998
-0.385348
-0.343983
-0.301499
-0.260828
-0.224851
-0.19602
-0.17598
-0.165134
-0.163028
-0.165921
-0.168875
-0.1671
-0.157233
-0.140524
-0.120781
-0.103029
-0.091122
-0.0866346
-0.089145
-0.0981053
-0.114656
-0.140411
-0.172713
-0.201327
-0.211452
-0.19974
-0.169359
-0.13353
-0.10229
-0.0796248
-0.0654034
-0.0577403
-0.0563618
-0.0625342
-0.0739728
-0.082333
-0.0805982
-0.0712867
-0.0616345
-0.0556086
-0.0538896
-0.0585437
-0.0699783
-0.0827258
-0.0855727
-0.0756064
-0.0624636
-0.0482312
-0.0391373
-0.0309278
-0.0263654
-0.0241883
-0.0224934
-0.0190382
-0.0149826
-0.0101939
-0.00382031
-0.493027
-0.467176
-0.432432
-0.391214
-0.345505
-0.297975
-0.25167
-0.209477
-0.173869
-0.146696
-0.128802
-0.120051
-0.118589
-0.120363
-0.12088
-0.116006
-0.106096
-0.0934681
-0.0823251
-0.0760765
-0.0761223
-0.0821607
-0.0940442
-0.113343
-0.141846
-0.17669
-0.207333
-0.21954
-0.2062
-0.174123
-0.13638
-0.103364
-0.0789902
-0.0630356
-0.0535807
-0.0500346
-0.0534606
-0.062433
-0.0697152
-0.0688428
-0.0619503
-0.0551321
-0.0519091
-0.0526648
-0.0600255
-0.0740157
-0.0889618
-0.0924434
-0.0809849
-0.0656953
-0.049268
-0.0387207
-0.0288568
-0.0230829
-0.0199661
-0.0181316
-0.0159357
-0.0129057
-0.0100124
-0.00437836
-0.492584
-0.465687
-0.430443
-0.388241
-0.340657
-0.290562
-0.241059
-0.194875
-0.154367
-0.121438
-0.0973151
-0.0822868
-0.0755607
-0.0746406
-0.0759397
-0.0751071
-0.0709498
-0.064758
-0.0597013
-0.058599
-0.0626249
-0.0716722
-0.0859597
-0.107435
-0.138106
-0.175093
-0.207694
-0.221662
-0.208688
-0.176079
-0.137372
-0.103305
-0.0777521
-0.0604588
-0.0495123
-0.0440929
-0.0449873
-0.0515842
-0.0577444
-0.0575682
-0.0527609
-0.0484431
-0.0477709
-0.0508323
-0.0607791
-0.0772306
-0.0943324
-0.0985762
-0.0858301
-0.068513
-0.0500246
-0.0381678
-0.0268734
-0.0199859
-0.0159185
-0.0138592
-0.0128529
-0.0108198
-0.00982574
-0.00494873
-0.479641
-0.452097
-0.418601
-0.378165
-0.331456
-0.281568
-0.231592
-0.183954
-0.140756
-0.103784
-0.0744045
-0.0534215
-0.04089
-0.0356512
-0.0353352
-0.0366576
-0.0365814
-0.0358059
-0.035932
-0.0390949
-0.0463861
-0.0578765
-0.0740776
-0.0972152
-0.129472
-0.168137
-0.202608
-0.218423
-0.207085
-0.175199
-0.136596
-0.102238
-0.0760314
-0.0577898
-0.0456624
-0.0386939
-0.0373578
-0.0417176
-0.0467608
-0.047736
-0.0439169
-0.0416873
-0.0432349
-0.0483626
-0.060694
-0.0794377
-0.0986004
-0.103756
-0.0900275
-0.0708812
-0.0504979
-0.0374768
-0.024967
-0.0170844
-0.0120888
-0.00971479
-0.00981723
-0.00874016
-0.0096296
-0.00552687
-0.456943
-0.429111
-0.399043
-0.362566
-0.319148
-0.272044
-0.224178
-0.177561
-0.13399
-0.0950641
-0.0620556
-0.0359687
-0.0175102
-0.00669332
-0.00249827
-0.00284316
-0.0048245
-0.00773454
-0.0117192
-0.0181526
-0.0279744
-0.0413575
-0.0590393
-0.0834053
-0.116736
-0.156583
-0.192656
-0.21058
-0.201657
-0.171631
-0.134189
-0.100294
-0.0739348
-0.0551103
-0.0421007
-0.0338955
-0.0306741
-0.0329918
-0.036892
-0.0378583
-0.0355423
-0.0349979
-0.0383842
-0.0452684
-0.0596961
-0.0804909
-0.101599
-0.1078
-0.0934701
-0.0727666
-0.0506861
-0.03665
-0.0231206
-0.0143764
-0.00851208
-0.0057293
-0.00685179
-0.00667954
-0.00941777
-0.0061084
-0.427747
-0.400318
-0.374758
-0.343453
-0.304892
-0.262446
-0.218645
-0.175005
-0.13303
-0.0941272
-0.059433
-0.0299098
-0.00644628
0.0102261
0.0198804
0.023194
0.0219498
0.0180632
0.0120359
0.0034691
-0.00813843
-0.0229362
-0.0417822
-0.0670756
-0.101056
-0.141545
-0.178871
-0.198949
-0.192928
-0.165633
-0.130284
-0.0975646
-0.0715289
-0.052464
-0.0388586
-0.0297181
-0.0249573
-0.0254663
-0.0282564
-0.0291199
-0.0278695
-0.0285327
-0.0333243
-0.0416053
-0.0577714
-0.0802978
-0.103238
-0.110574
-0.0960774
-0.0741494
-0.0505947
-0.0356995
-0.0213337
-0.0118584
-0.00520925
-0.00192425
-0.00397625
-0.00464911
-0.00918384
-0.00668957
-0.395669
-0.369862
-0.349173
-0.323084
-0.289935
-0.253087
-0.214367
-0.174809
-0.135719
-0.0983427
-0.0636837
-0.0326083
-0.00595415
0.0154251
0.0306969
0.0393474
0.0418824
0.0397087
0.0338068
0.024571
0.0120702
-0.00365039
-0.0233979
-0.0494225
-0.0837691
-0.124438
-0.162504
-0.184395
-0.181489
-0.157605
-0.125155
-0.094265
-0.0689958
-0.0499966
-0.0360486
-0.026232
-0.0202514
-0.0191812
-0.0208974
-0.0215893
-0.0210525
-0.0224406
-0.0281916
-0.0374345
-0.0549153
-0.0788557
-0.10349
-0.112001
-0.0978147
-0.0750546
-0.0502703
-0.0346565
-0.0196352
-0.00955843
-0.00220589
0.00169009
-0.001207
-0.00265822
-0.00892209
-0.00726705
-0.364631
-0.341937
-0.325597
-0.303728
-0.275668
-0.24446
-0.210946
-0.175732
-0.140009
-0.104945
-0.0714344
-0.0402291
-0.0121875
0.0119021
0.0313299
0.045128
0.0526789
0.0547578
0.0512925
0.0432471
0.0309957
0.0149758
-0.00530128
-0.0317143
-0.0659569
-0.106243
-0.144426
-0.167492
-0.168073
-0.148224
-0.119396
-0.0909232
-0.066797
-0.048074
-0.0339366
-0.0236057
-0.0166249
-0.0141552
-0.0148585
-0.0153
-0.0151651
-0.0168302
-0.0230833
-0.0329072
-0.0512737
-0.076188
-0.102355
-0.112036
-0.0986647
-0.0755255
-0.0498011
-0.0335663
-0.018026
-0.00751288
0.000420061
0.00510272
0.00144374
-0.000715321
-0.00862638
-0.00783702
-0.337748
-0.319845
-0.306714
-0.287731
-0.264155
-0.238176
-0.209573
-0.178612
-0.146356
-0.113933
-0.0820443
-0.0513556
-0.0226689
0.00318753
0.0253994
0.0430515
0.0554968
0.0623294
0.0623476
0.0574696
0.0470783
0.0317704
0.011531
-0.0149202
-0.0489445
-0.0886095
-0.126092
-0.15005
-0.152972
-0.137398
-0.112866
-0.0873831
-0.0647705
-0.0465113
-0.0323
-0.0216148
-0.0138212
-0.0100939
-0.00988445
-0.0101593
-0.0100881
-0.0119362
-0.0181797
-0.0279734
-0.0467461
-0.0725109
-0.100057
-0.110577
-0.0984612
-0.0753879
-0.0490925
-0.0323727
-0.0163598
-0.0056118
0.00265507
0.00827519
0.00395776
0.00117871
-0.00829196
-0.00839567
-0.313995
-0.303056
-0.291226
-0.273502
-0.253429
-0.231856
-0.207776
-0.181123
-0.1526
-0.123083
-0.0933706
-0.0641944
-0.0363113
-0.0104618
0.012717
0.0325901
0.0490867
0.05982
0.0654676
0.0642949
0.0571909
0.0441138
0.0252971
0.00012367
-0.0322882
-0.0698928
-0.105574
-0.125864
-0.133385
-0.122631
-0.102844
-0.0807985
-0.0602804
-0.0430849
-0.0293157
-0.0187952
-0.0107056
-0.00612794
-0.0051393
-0.0053934
-0.00586104
-0.00761054
-0.0137606
-0.0232784
-0.0418669
-0.0677519
-0.0962726
-0.107731
-0.096833
-0.0741213
-0.0475777
-0.0307473
-0.0143443
-0.00357969
0.0048889
0.011322
0.00631551
0.00299734
-0.00790738
-0.00895071
-0.285723
-0.289009
-0.275772
-0.256546
-0.236765
-0.216439
-0.19423
-0.16971
-0.143374
-0.116031
-0.0884172
-0.0611629
-0.0348949
-0.0102298
0.0122918
0.0322002
0.0492934
0.0604619
0.0674015
0.0690135
0.0645334
0.0533828
0.0356884
0.0109936
-0.0217945
-0.0604936
-0.0966585
-0.122149
-0.122054
-0.110615
-0.0921
-0.0719821
-0.0533451
-0.0376132
-0.0248166
-0.0149033
-0.00703677
-0.00221058
-0.000626076
-0.000570817
-0.000900145
-0.00194277
-0.00757218
-0.016581
-0.0354117
-0.0624842
-0.0931841
-0.106586
-0.0958855
-0.0723759
-0.0452952
-0.0286901
-0.0121624
-0.00155766
0.00741079
0.0145005
0.00867984
0.00481843
-0.00745729
-0.00953243
-0.257839
-0.264934
-0.253177
-0.234215
-0.215215
-0.196679
-0.176965
-0.155212
-0.131704
-0.107182
-0.0823267
-0.0576823
-0.033769
-0.0111371
0.00970036
0.0282746
0.043439
0.0558548
0.063686
0.0665135
0.0634755
0.0539013
0.037714
0.0144221
-0.0167527
-0.0529166
-0.0853577
-0.104661
-0.105459
-0.0953475
-0.0795771
-0.0624693
-0.0463583
-0.0324025
-0.0207481
-0.0115645
-0.00406416
0.000826558
0.00272629
0.00283143
0.00240277
0.00158609
-0.00325128
-0.0115122
-0.0300415
-0.0576083
-0.0891338
-0.103323
-0.0926076
-0.0693523
-0.0425439
-0.026286
-0.00990972
0.000292951
0.0095865
0.0168526
0.0106446
0.00636136
-0.00698177
-0.00996185
-0.232973
-0.240244
-0.230736
-0.213659
-0.196182
-0.179464
-0.162031
-0.142822
-0.121911
-0.0999455
-0.0775722
-0.0552903
-0.0335567
-0.0128565
0.00633752
0.0235735
0.0381307
0.0497861
0.0574602
0.0605274
0.0581361
0.0496208
0.0348484
0.0135746
-0.0141305
-0.0449223
-0.0715093
-0.086962
-0.0883738
-0.0805533
-0.0678812
-0.0536695
-0.0398431
-0.0275044
-0.0168966
-0.00839206
-0.00130706
0.00353806
0.00568521
0.00588459
0.00544944
0.0047061
0.000172267
-0.00777405
-0.025996
-0.0530936
-0.0836893
-0.0981945
-0.0880665
-0.0656139
-0.0394614
-0.0236643
-0.00760719
0.00216484
0.0116139
0.0188923
0.0123972
0.00772168
-0.00641501
-0.0102435
-0.209977
-0.216849
-0.209432
-0.194637
-0.178881
-0.163776
-0.148273
-0.131315
-0.1128
-0.0932415
-0.0732292
-0.0532243
-0.0336222
-0.0148367
0.00270279
0.0185427
0.0320819
0.0428758
0.0501922
0.0533778
0.051634
0.0443551
0.0314467
0.0130334
-0.0102139
-0.035395
-0.0570392
-0.069954
-0.0721281
-0.0666328
-0.0567787
-0.045197
-0.033509
-0.0227472
-0.0131896
-0.00537247
0.00124595
0.00596443
0.00831363
0.00872221
0.00836995
0.00776955
0.00348072
-0.00425504
-0.0219125
-0.0477434
-0.0769838
-0.09182
-0.0824686
-0.0611141
-0.0360127
-0.0208334
-0.0052286
0.00405776
0.0134496
0.0207557
0.0140266
0.00900831
-0.00571366
-0.0103859
-0.188431
-0.19519
-0.189434
-0.176737
-0.162742
-0.149219
-0.135489
-0.1206
-0.104329
-0.0870494
-0.0692754
-0.051433
-0.0338742
-0.0169624
-0.00109649
0.0132922
0.0257008
0.0356563
0.0425791
0.0458795
0.0448845
0.0391011
0.0284794
0.0133135
-0.00559209
-0.025902
-0.0434337
-0.0544488
-0.057302
-0.0538759
-0.0465304
-0.0372998
-0.0275404
-0.0182438
-0.0096973
-0.00254256
0.00359463
0.0081253
0.0106157
0.0112845
0.0110834
0.010719
0.00682335
-0.000438329
-0.0170362
-0.0413319
-0.069232
-0.0841111
-0.0757329
-0.0558446
-0.0322158
-0.0178229
-0.00280143
0.00596164
0.0150642
0.0224073
0.0155372
0.0102601
-0.00486782
-0.0103723
-0.168916
-0.175319
-0.170771
-0.159926
-0.147674
-0.135732
-0.12367
-0.110674
-0.0964693
-0.0813096
-0.0656326
-0.0498269
-0.0342149
-0.0191169
-0.0048872
0.0080841
0.0193623
0.0285
0.0350117
0.0384025
0.0381434
0.0338527
0.025496
0.0134056
-0.00161767
-0.0176997
-0.031638
-0.0411162
-0.0444189
-0.0426329
-0.0373359
-0.0300809
-0.0219948
-0.0140266
-0.00644531
7.37849e-05
0.00573592
0.0100345
0.0126001
0.0135529
0.0136045
0.0135475
0.0101897
0.00369899
-0.0115046
-0.0341519
-0.0604602
-0.075113
-0.0679299
-0.0498709
-0.0281064
-0.0146699
-0.00035772
0.0078664
0.0164389
0.0237916
0.0168971
0.0114599
-0.00386366
-0.0101662
-0.151229
-0.15701
-0.15343
-0.144254
-0.133661
-0.123242
-0.112736
-0.101463
-0.089138
-0.0759319
-0.0622066
-0.0483094
-0.034532
-0.0211547
-0.00848733
0.00312005
0.0132955
0.0216309
0.0277172
0.0311504
0.0315243
0.0285553
0.0222308
0.0128818
0.00123531
-0.0112891
-0.0224986
-0.0302879
-0.0336604
-0.0329858
-0.0292442
-0.0235933
-0.0169306
-0.0101396
-0.00346295
0.00245118
0.00766406
0.0117095
0.0142952
0.0155364
0.0159399
0.0162566
0.0135352
0.00797388
-0.00563552
-0.0263664
-0.0507948
-0.0650478
-0.0592266
-0.0433037
-0.0237398
-0.0114187
0.00206446
0.00976171
0.0175694
0.0248715
0.0180822
0.0125991
-0.00266466
-0.00972323
-0.13486
-0.14017
-0.137451
-0.129752
-0.120671
-0.111669
-0.102597
-0.0928857
-0.0822652
-0.070845
-0.0589199
-0.0467926
-0.0347233
-0.0229574
-0.0117649
-0.0014562
0.00765945
0.0152165
0.020874
0.0243038
0.0251991
0.0233594
0.0187945
0.0117977
0.00297026
-0.00662607
-0.0154723
-0.0217642
-0.0248955
-0.0248728
-0.0222509
-0.0178623
-0.0123847
-0.00661276
-0.00076676
0.00457357
0.00937224
0.0131686
0.0157337
0.0172463
0.0180672
0.0188261
0.0168272
0.0122908
0.000470748
-0.0181273
-0.0405392
-0.0542428
-0.0498758
-0.0363074
-0.0191937
-0.00811893
0.00442503
0.0116364
0.0184776
0.025639
0.0191015
0.0137026
-0.00122638
-0.00899365
-0.119895
-0.124826
-0.122806
-0.116376
-0.108645
-0.100937
-0.0931718
-0.0848736
-0.0757898
-0.0659887
-0.055708
-0.0452064
-0.0347125
-0.0244403
-0.0146215
-0.00551601
0.00258389
0.00939749
0.0146332
0.0180248
0.0193409
0.0184397
0.0153441
0.0102949
0.00376644
-0.00341953
-0.0101638
-0.0151705
-0.0178819
-0.0181686
-0.0163081
-0.0128811
-0.00837259
-0.00346679
0.00163384
0.00643344
0.0108498
0.0144219
0.0169472
0.0187002
0.0199452
0.0212316
0.0200833
0.0166972
0.00675139
-0.00976522
-0.0301361
-0.043122
-0.040204
-0.0290939
-0.0145664
-0.00482298
0.00668532
0.0134756
0.0192262
0.0261292
0.0200065
0.014818
0.000489552
-0.00792717
-0.106413
-0.110862
-0.109375
-0.104046
-0.0975231
-0.0909832
-0.0843977
-0.0773674
-0.0696608
-0.0613158
-0.052523
-0.0435011
-0.0344472
-0.0255459
-0.0169946
-0.00901285
-0.00184579
0.00427068
0.00909648
0.0124166
0.014054
0.0139087
0.0120038
0.00853676
0.00388956
-0.00132342
-0.00631521
-0.0101644
-0.0123578
-0.012715
-0.0113395
-0.00862253
-0.00489257
-0.00071207
0.00373465
0.00803222
0.0120886
0.0154662
0.0179572
0.0199203
0.0215374
0.0234296
0.0232944
0.021176
0.0129704
-0.00177041
-0.0201161
-0.0321671
-0.0305811
-0.0219079
-0.00997276
-0.00158529
0.00881222
0.0152558
0.0199242
0.0264271
0.0208894
0.0160037
0.00250561
-0.00648888
-0.0941331
-0.0981119
-0.0970781
-0.0927139
-0.0872607
-0.0817613
-0.0762261
-0.0703224
-0.0638397
-0.0567927
-0.049333
-0.0416436
-0.0338922
-0.0262352
-0.018839
-0.0118861
-0.00557835
-0.000112058
0.00431533
0.00753101
0.00939786
0.0098457
0.00889471
0.00669928
0.00356495
-4.73089e-05
-0.0036048
-0.00642733
-0.00807284
-0.00834803
-0.00725446
-0.00504455
-0.00192833
0.00165228
0.00553522
0.00937693
0.0130897
0.0162918
0.0187648
0.0209099
0.0228283
0.0253475
0.0262292
0.0253587
0.0186329
0.00534488
-0.0109313
-0.0218264
-0.0213975
-0.0150094
-0.00553764
0.00153741
0.0107802
0.0169429
0.020711
0.0266557
0.0218733
0.0173168
0.00480665
-0.00468687
-0.082912
-0.0865171
-0.0858705
-0.0823326
-0.0778078
-0.0732211
-0.0686106
-0.0636986
-0.0582939
-0.0523938
-0.0461172
-0.0396157
-0.033031
-0.0264933
-0.0201396
-0.0141177
-0.00859515
-0.00373258
0.000308866
0.00339079
0.0054062
0.00630277
0.00609996
0.0049123
0.00297228
0.000628913
-0.00175859
-0.0036909
-0.00480257
-0.00490809
-0.00395424
-0.00209396
0.000547522
0.00363768
0.0070399
0.0104758
0.0138629
0.0168943
0.0193538
0.0216426
0.023795
0.0266512
0.0284446
0.0285493
0.0230886
0.011223
-0.00286041
-0.0124759
-0.0130189
-0.00864613
-0.00138646
0.00448448
0.0125695
0.0184916
0.0217118
0.0269482
0.0230811
0.0187816
0.00730624
-0.00260385
-0.0728067
-0.076042
-0.0756732
-0.0728195
-0.0690979
-0.0653113
-0.0615113
-0.0574646
-0.053
-0.0481035
-0.0428672
-0.0374146
-0.0318633
-0.0263233
-0.0209072
-0.0157191
-0.0109061
-0.00659996
-0.00293049
-7.65633e-06
0.00208416
0.00330424
0.00366689
0.00325913
0.0022519
0.000860836
-0.000560601
-0.00173386
-0.00235156
-0.00224625
-0.00133807
0.00029025
0.00257057
0.00526359
0.00825932
0.0113377
0.0144215
0.0172772
0.0197098
0.0220834
0.0243988
0.0273252
0.0295876
0.0302181
0.0258965
0.015705
0.00389245
-0.0044334
-0.00573066
-0.00301376
0.00237334
0.00719343
0.0141641
0.0198478
0.0229583
0.0274088
0.0245671
0.020346
0.0098208
-0.000416734
-0.0636914
-0.0665677
-0.0664039
-0.0641143
-0.0610888
-0.0579954
-0.054896
-0.0515957
-0.0479428
-0.0439156
-0.0395842
-0.0350486
-0.030406
-0.025747
-0.0211777
-0.0167136
-0.0125392
-0.00874606
-0.00543512
-0.0026931
-0.00058739
0.000848985
0.00162362
0.00180356
0.0015188
0.000885967
0.000188354
-0.00036482
-0.000550108
-0.000226319
0.000693235
0.00217332
0.00418255
0.0065557
0.00920945
0.0119736
0.0147778
0.0174501
0.0198269
0.0222066
0.0245952
0.0273583
0.0296295
0.0303893
0.0270776
0.0187654
0.00914975
0.00207829
0.00030958
0.00177909
0.00566954
0.00960952
0.0155506
0.0209571
0.0243165
0.028054
0.0262463
0.0218529
0.012078
0.00161917
-0.0554298
-0.0579919
-0.058022
-0.0562452
-0.0537737
-0.0512422
-0.0487387
-0.0460732
-0.0431133
-0.0398322
-0.0362816
-0.0325397
-0.0286814
-0.0247677
-0.0208666
-0.0171176
-0.0135364
-0.0102202
-0.00725535
-0.00471189
-0.00264508
-0.00108377
-2.73494e-05
0.000568714
0.000775715
0.00075586
0.000628885
0.000570106
0.000746242
0.00127369
0.00223427
0.00362198
0.00542868
0.00754473
0.00991096
0.0123975
0.0149441
0.0174256
0.0197122
0.0220129
0.0243123
0.026813
0.0288284
0.0294974
0.0270005
0.0205174
0.0129018
0.00704617
0.0050903
0.00571546
0.00846869
0.0116941
0.0167226
0.0217779
0.0254964
0.0287421
0.0278511
0.0230563
0.0137857
0.00324967
-0.0479655
-0.0502471
-0.050411
-0.0490379
-0.0470807
-0.0450662
-0.0430376
-0.0408931
-0.0385118
-0.0358607
-0.0329746
-0.0299195
-0.0267699
-0.0234952
-0.0202326
-0.0170449
-0.0139766
-0.0110924
-0.00845667
-0.00612417
-0.00413903
-0.00252681
-0.00129273
-0.00040752
0.000184132
0.000577983
0.000874178
0.00119444
0.00165917
0.00236158
0.00337248
0.00470213
0.00635599
0.00826429
0.0103874
0.0126273
0.0149362
0.0172207
0.019383
0.0215427
0.0236599
0.0258276
0.0275005
0.0280114
0.0261283
0.0212316
0.0153623
0.0106366
0.00871929
0.00884453
0.0107688
0.013421
0.0176723
0.0222858
0.0261898
0.0291323
0.0289513
0.0236882
0.0147461
0.00433524
-0.0412504
-0.0432651
-0.0435177
-0.042474
-0.0409278
-0.0393243
-0.037727
-0.0360318
-0.0341369
-0.0320078
-0.0296688
-0.0271643
-0.0245303
-0.0218908
-0.019206
-0.0165337
-0.0139265
-0.0114355
-0.00911097
-0.00699601
-0.00512644
-0.00352336
-0.00219696
-0.00112909
-0.000282412
0.000405354
0.00100577
0.00160509
0.00228908
0.00313057
0.00418703
0.00547674
0.00701161
0.00874929
0.0106646
0.0126847
0.014774
0.0168568
0.0188649
0.0208435
0.022744
0.0245645
0.0259049
0.0262701
0.0248518
0.0212399
0.0168235
0.0131176
0.0113756
0.01125
0.0125876
0.0147767
0.0183654
0.0224527
0.0262387
0.0289072
0.0291116
0.0235652
0.0149367
0.00489092
-0.035201
-0.0369704
-0.0372831
-0.0365084
-0.035304
-0.0340479
-0.0328013
-0.0314775
-0.0299887
-0.0283026
-0.0264351
-0.0244227
-0.0223049
-0.0201229
-0.0179003
-0.0156688
-0.0134653
-0.0113275
-0.00929347
-0.00739724
-0.00566922
-0.00412386
-0.00277327
-0.00160567
-0.000601673
0.000278857
0.00108504
0.0018781
0.00271783
0.00365981
0.00474846
0.00600446
0.0074414
0.00903486
0.0107705
0.0125936
0.0144786
0.0163602
0.0181953
0.0199732
0.0216482
0.0231573
0.0242188
0.0244796
0.0234263
0.0208198
0.0175649
0.0147358
0.013238
0.0130211
0.0139557
0.0157595
0.0187603
0.022254
0.0256265
0.0278313
0.0281573
0.0226853
0.0144819
0.0050214
-0.0297499
-0.0313028
-0.0316546
-0.0310971
-0.0301735
-0.0292038
-0.0282447
-0.0272259
-0.0260723
-0.0247531
-0.0232777
-0.0216735
-0.0199704
-0.0181947
-0.0163693
-0.0145177
-0.0126668
-0.0108442
-0.00907853
-0.00740256
-0.00581995
-0.00436907
-0.00304569
-0.00184725
-0.000766066
0.000224711
0.00115648
0.00207174
0.00301097
0.0040155
0.00511823
0.00633851
0.00768908
0.00915654
0.0107339
0.0123787
0.0140746
0.0157631
0.017417
0.0189916
0.0204496
0.0217003
0.0225492
0.0227523
0.0219934
0.0201549
0.0178034
0.0157009
0.0144679
0.0142475
0.0149099
0.0163802
0.0188369
0.0216985
0.0244721
0.0260807
0.0262883
0.0212046
0.0135656
0.00484695
-0.02485
-0.0262084
-0.0265801
-0.0261947
-0.0254995
-0.0247637
-0.0240388
-0.0232681
-0.0223875
-0.0213685
-0.0202155
-0.0189486
-0.0175898
-0.0161584
-0.0146714
-0.013146
-0.0116018
-0.0100584
-0.00853631
-0.00705445
-0.00564855
-0.00431109
-0.00305301
-0.00187663
-0.000778408
0.000257947
0.00125105
0.00222961
0.00321996
0.00425194
0.00534864
0.00652629
0.0077957
0.00914914
0.0105838
0.0120669
0.0135885
0.0150953
0.01657
0.0179532
0.0192147
0.0202597
0.0209564
0.0211407
0.0206201
0.0193581
0.0176937
0.0161811
0.015209
0.0150165
0.01549
0.0166631
0.0186067
0.0208409
0.0229694
0.0239599
0.0238753
0.0193422
0.0123786
0.00448068
-0.0204498
-0.0216324
-0.0220089
-0.0217587
-0.0212481
-0.0207018
-0.0201661
-0.0195952
-0.0189351
-0.0181596
-0.0172699
-0.0162803
-0.0152071
-0.0140639
-0.0128633
-0.0116173
-0.0103398
-0.0090465
-0.00775557
-0.00647249
-0.00522048
-0.00400625
-0.00283906
-0.00172008
-0.000648805
0.000383974
0.00138834
0.00238299
0.00338417
0.00441257
0.00548347
0.00660938
0.00779835
0.00904543
0.0103498
0.0116852
0.013046
0.0143848
0.0156906
0.0169017
0.0179925
0.018879
0.0194706
0.0196605
0.0193319
0.0184991
0.0173478
0.0162996
0.0155685
0.0154071
0.0157391
0.0166425
0.01811
0.0197636
0.0212921
0.0217098
0.021263
0.0173075
0.0110822
0.00402002
-0.0164992
-0.0175253
-0.0178964
-0.0177515
-0.0173887
-0.0169947
-0.0166103
-0.016199
-0.0157154
-0.015136
-0.0144599
-0.0136969
-0.012859
-0.0119557
-0.0109958
-0.00998734
-0.0089401
-0.007865
-0.00677367
-0.00567682
-0.00458327
-0.00350221
-0.00244202
-0.00140473
-0.000391907
0.000601176
0.00157897
0.00255306
0.00353263
0.00453136
0.00555858
0.00662302
0.00772983
0.00887524
0.0100592
0.0112597
0.0124732
0.0136592
0.0148106
0.0158705
0.0168173
0.0175825
0.0181021
0.0183109
0.0181349
0.0176159
0.0168445
0.0161466
0.0156362
0.015485
0.015703
0.016362
0.0174063
0.0185455
0.0195636
0.0194854
0.0186971
0.0152631
0.00978659
0.00353664
-0.0129574
-0.0138447
-0.0142028
-0.0141385
-0.013893
-0.0136203
-0.0133559
-0.0130709
-0.0127275
-0.0123049
-0.0118008
-0.011222
-0.0105769
-0.00987216
-0.00911338
-0.00830599
-0.00745634
-0.00657204
-0.00566152
-0.00473195
-0.00379037
-0.00284353
-0.00189868
-0.000958441
-2.53256e-05
0.000902654
0.00182649
0.00275268
0.00368566
0.00463392
0.00560234
0.00659621
0.00761846
0.00866523
0.00973612
0.0108132
0.0118934
0.0129426
0.0139555
0.0148837
0.0157095
0.0163809
0.0168516
0.017083
0.0170239
0.0167289
0.0162312
0.0157841
0.0155034
0.0153032
0.0154287
0.0158711
0.0165505
0.0171815
0.0176649
0.0173649
0.0163185
0.0133188
0.00855729
0.00307369
-0.00978771
-0.010552
-0.0108917
-0.010888
-0.0107347
-0.010558
-0.0103881
-0.0102023
-0.00996929
-0.00967122
-0.00930486
-0.0088747
-0.00838666
-0.00784524
-0.00725375
-0.00661537
-0.00593415
-0.00521478
-0.00446291
-0.00368665
-0.00288802
-0.00207199
-0.00124467
-0.000409184
0.0004315
0.00127789
0.00212906
0.00298812
0.00385639
0.00473847
0.00563631
0.00655237
0.00748756
0.00843784
0.0094021
0.0103655
0.0113254
0.0122529
0.0131424
0.0139567
0.0146818
0.0152801
0.0157144
0.0159641
0.0159917
0.015851
0.0155374
0.0152191
0.0148155
0.0148743
0.0149636
0.0152239
0.015611
0.0158882
0.0160223
0.0154345
0.0141957
0.0115405
0.00743057
0.0026529
-0.00695644
-0.00761218
-0.00793024
-0.00797149
-0.00789034
-0.00778888
-0.00769277
-0.00758414
-0.00743751
-0.00723759
-0.00698085
-0.00667008
-0.00630931
-0.00590149
-0.00544843
-0.0049517
-0.00441364
-0.00383715
-0.00322645
-0.00258557
-0.00191751
-0.00122513
-0.000512984
0.000215871
0.00095825
0.00171381
0.00248085
0.0032604
0.0040518
0.00485703
0.00567599
0.0065091
0.00735573
0.00821154
0.00907494