/*--------------------------------*- C++ -*----------------------------------*\
| =========                 |                                                 |
| \\      /  F ield         | OpenFOAM: The Open Source CFD Toolbox           |
|  \\    /   O peration     | Version:  2512                                  |
|   \\  /    A nd           | Website:  www.openfoam.com                      |
|    \\/     M anipulation  |                                                 |
\*---------------------------------------------------------------------------*/
FoamFile
{
    version     2.0;
    format      ascii;
    arch        "LSB;label=32;scalar=64";
    class       volVectorField;
    location    "158.75";
    object      U;
}
// * * * * * * * * * * * * * * * * * * * * * * * * * * * * * * * * * * * * * //

dimensions      [0 1 -1 0 0 0 0];

internalField   nonuniform List<vector> 
13248
(
(-0.0124974 0.0106299 6.5061e-20)
(-0.0239236 0.0209331 0)
(-0.023092 0.0245745 -1.23151e-19)
(-0.00988713 0.0245445 1.16012e-19)
(0.0159107 0.0228035 1.083e-19)
(0.0544715 0.0206668 0)
(0.105845 0.0190479 0)
(0.169799 0.0185788 2.54589e-19)
(0.245644 0.0196708 -2.99654e-21)
(0.332106 0.0225413 -2.19217e-19)
(0.427269 0.0272148 1.99418e-19)
(0.52861 0.0335211 -1.24207e-19)
(0.633134 0.0411043 0)
(0.737574 0.0494488 -2.07939e-19)
(0.838635 0.0579247 3.87577e-19)
(0.933241 0.0658475 -9.11689e-20)
(1.01876 0.0725488 -1.65031e-19)
(1.09316 0.0774189 1.54923e-19)
(1.15518 0.0800549 0)
(1.20431 0.0799159 0)
(1.24084 0.0776446 0)
(1.26581 0.0707425 0)
(1.28032 0.0660017 5.02558e-20)
(1.28756 0.0460055 1.88408e-19)
(-0.0131983 0.010337 -1.96666e-19)
(-0.0211179 0.0190376 1.3436e-19)
(-0.0121422 0.0213314 -1.24069e-21)
(0.0130025 0.0203047 -1.77501e-19)
(0.0540009 0.0181057 -1.0818e-19)
(0.110527 0.0162438 -1.02117e-19)
(0.181944 0.0157485 -1.85423e-19)
(0.267045 0.0172722 1.75793e-19)
(0.36384 0.0211419 0)
(0.4695 0.0273775 1.48633e-21)
(0.58045 0.0357062 3.67698e-21)
(0.692632 0.0455949 1.25617e-19)
(0.801859 0.0563115 0)
(0.904205 0.0670116 0)
(0.996357 0.0768378 1.43401e-19)
(1.07587 0.0850186 -2.69259e-19)
(1.14135 0.0909491 1.62179e-19)
(1.19246 0.0942434 -1.52259e-19)
(1.22984 0.0947541 -6.80697e-20)
(1.25499 0.0925462 -1.25536e-19)
(1.26988 0.087914 -5.39145e-20)
(1.27699 0.0809772 -1.01966e-19)
(1.27783 0.0735322 1.46796e-19)
(1.27666 0.0618306 4.28793e-20)
(-0.0125711 0.00911755 0)
(-0.0142282 0.0153165 0)
(0.00592552 0.0162848 6.27898e-20)
(0.0462556 0.0149462 5.76574e-20)
(0.10569 0.0134701 -1.72943e-21)
(0.183007 0.0134312 -1.06068e-19)
(0.276317 0.0158263 0)
(0.382765 0.0211394 -8.70499e-20)
(0.498438 0.0293847 8.16399e-20)
(0.618539 0.040146 1.13946e-21)
(0.73782 0.0526507 -1.36666e-19)
(0.851135 0.0658874 -1.23956e-19)
(0.954013 0.0787566 2.87002e-21)
(1.0431 0.0902245 -1.01196e-19)
(1.11642 0.0994561 2.43391e-19)
(1.17346 0.105902 0)
(1.21502 0.109335 -1.58531e-19)
(1.24292 0.109817 7.65887e-20)
(1.25968 0.107675 6.8014e-20)
(1.26799 0.103276 0)
(1.27045 0.0973881 5.67984e-20)
(1.26916 0.0897523 -1.98051e-19)
(1.26545 0.0830271 1.8592e-19)
(1.26181 0.0719462 1.19825e-19)
(-0.0102785 0.00710674 -7.01237e-20)
(-0.00235825 0.0101188 -7.26013e-20)
(0.0323249 0.0100057 6.53994e-20)
(0.09109 0.00928934 0)
(0.171742 0.00997017 0)
(0.271572 0.01349 -2.56765e-21)
(0.386724 0.0205597 0)
(0.512034 0.0311927 -2.67572e-19)
(0.641297 0.0447884 2.47553e-19)
(0.767906 0.0602666 -3.03731e-19)
(0.885668 0.0762705 6.86893e-20)
(0.989585 0.0914055 0)
(1.07638 0.104464 1.13303e-19)
(1.14473 0.114586 -2.09476e-19)
(1.1951 0.121341 4.95805e-20)
(1.22945 0.124709 1.27284e-19)
(1.25061 0.125 -5.40741e-21)
(1.2618 0.122731 -1.42582e-19)
(1.26607 0.118489 0)
(1.26592 0.11284 0)
(1.26319 0.10628 -5.16165e-20)
(1.25904 0.0989605 4.65708e-20)
(1.25403 0.0922108 1.69233e-19)
(1.24928 0.0824987 -1.58865e-19)
(-0.00599798 0.00454536 -7.43801e-20)
(0.0153128 0.00412066 -7.3894e-20)
(0.0680828 0.00357917 2.0769e-19)
(0.1483 0.00479318 -1.25547e-19)
(0.252081 0.00934113 1.18174e-19)
(0.374479 0.0182244 2.13511e-19)
(0.50895 0.0314954 -1.50887e-19)
(0.647672 0.0483272 -1.82374e-19)
(0.782435 0.0672473 4.5138e-21)
(0.905797 0.0864612 2.31041e-19)
(1.01213 0.104214 0)
(1.09822 0.119102 6.31281e-20)
(1.16339 0.130259 0)
(1.20912 0.137403 -1.01702e-19)
(1.2384 0.140755 1.42709e-19)
(1.25489 0.140871 1.02626e-21)
(1.2623 0.138458 -3.75376e-20)
(1.26379 0.134216 6.99539e-20)
(1.26176 0.12874 6.07848e-20)
(1.25782 0.122463 -5.46772e-20)
(1.25292 0.115725 5.16058e-20)
(1.24755 0.108579 -4.65606e-20)
(1.24189 0.101869 0)
(1.23662 0.0930223 -3.56182e-20)
(0.000592007 0.00174324 7.43694e-20)
(0.0394845 -0.00176211 7.82757e-20)
(0.113865 -0.00153608 -6.96422e-20)
(0.21792 0.00332348 1.29619e-19)
(0.34533 0.0136028 -1.21999e-19)
(0.488132 0.0294232 1.09777e-19)
(0.636712 0.049736 -5.28964e-20)
(0.780943 0.0725776 1.37076e-19)
(0.911783 0.0955813 -8.6365e-20)
(1.02268 0.116516 1.51605e-19)
(1.11033 0.13371 -3.49278e-19)
(1.17458 0.14627 1.2839e-19)
(1.21784 0.154072 -1.11134e-19)
(1.244 0.157585 1.04388e-19)
(1.25748 0.157615 8.97022e-20)
(1.26234 0.155057 7.85313e-20)
(1.26189 0.150719 -2.1899e-19)
(1.25846 0.145231 1.35779e-19)
(1.25354 0.139031 -6.07885e-20)
(1.24798 0.132406 1.59251e-19)
(1.2422 0.125531 -5.14434e-20)
(1.23638 0.118492 -1.2596e-19)
(1.23057 0.111707 1.16408e-19)
(1.22501 0.103488 3.5608e-20)
(0.00979605 -0.000936247 0)
(0.0706273 -0.00645812 7.64849e-22)
(0.169737 -0.00370674 1.46463e-19)
(0.29888 0.00680302 -1.37266e-19)
(0.448498 0.0245478 -1.23292e-19)
(0.60713 0.0482464 2.28858e-19)
(0.762419 0.0753922 -1.06145e-19)
(0.903218 0.102869 1.40519e-19)
(1.02155 0.127772 -3.37916e-21)
(1.1136 0.148014 -7.93494e-20)
(1.17953 0.162593 1.71481e-19)
(1.22251 0.17151 -2.53118e-19)
(1.2473 0.175485 0)
(1.25902 0.175584 -4.93815e-20)
(1.26218 0.172912 -1.3123e-19)
(1.26027 0.168405 4.13806e-20)
(1.25566 0.16276 1.62425e-21)
(1.24984 0.156443 -9.02564e-20)
(1.24359 0.149741 5.60777e-21)
(1.2373 0.142825 1.04461e-19)
(1.23113 0.1358 -4.67412e-20)
(1.22509 0.128739 -1.78435e-20)
(1.21913 0.121794 5.47146e-20)
(1.21337 0.114042 0)
(0.0218484 -0.00307418 0)
(0.108838 -0.00880566 3.98076e-20)
(0.234956 -0.00130966 -1.92004e-19)
(0.388839 0.0168917 6.96245e-20)
(0.557109 0.043341 -6.55271e-20)
(0.724991 0.0748973 -5.98279e-20)
(0.878653 0.107538 -1.05068e-19)
(1.00794 0.137396 5.27844e-20)
(1.10786 0.161701 4.54475e-20)
(1.1785 0.179164 0)
(1.22358 0.189836 1.02379e-19)
(1.24872 0.194675 -1.52154e-19)
(1.25981 0.19504 1.12964e-19)
(1.26193 0.192287 4.94078e-20)
(1.25891 0.187534 -4.03992e-20)
(1.2533 0.181587 -3.35244e-20)
(1.24661 0.174967 -3.1253e-20)
(1.23965 0.167988 9.38821e-20)
(1.2328 0.160826 0)
(1.2262 0.153585 4.70861e-20)
(1.21985 0.146329 3.96451e-20)
(1.21373 0.139112 -9.84603e-20)
(1.20776 0.131946 -6.76242e-20)
(1.20191 0.124491 6.23559e-20)
(0.0368431 -0.00419952 -4.34842e-20)
(0.153702 -0.00762331 -1.84991e-21)
(0.30786 0.00709917 3.91722e-20)
(0.484295 0.0347447 1.09555e-19)
(0.665787 0.0703231 3.17324e-20)
(0.835345 0.108656 -6.14375e-20)
(0.979694 0.144593 5.5909e-20)
(1.09174 0.174268 -4.86898e-20)
(1.17076 0.19579 8.71254e-20)
(1.22075 0.209098 3.67503e-20)
(1.24816 0.215358 -1.04665e-19)
(1.2598 0.216264 3.05958e-20)
(1.26154 0.2135 5.19862e-20)
(1.25772 0.208437 -2.56216e-20)
(1.25119 0.202047 0)
(1.24364 0.194947 3.77776e-20)
(1.23592 0.187496 6.36657e-20)
(1.22843 0.179891 1.07081e-20)
(1.22131 0.172239 -5.29543e-20)
(1.21457 0.164605 2.20359e-20)
(1.20817 0.157034 0)
(1.20203 0.149548 -1.72603e-20)
(1.19607 0.142117 -1.64766e-20)
(1.19021 0.134795 0)
(0.0546676 -0.00381051 0)
(0.204208 -0.00180265 2.28379e-20)
(0.38591 0.0226302 4.22243e-20)
(0.580961 0.0608727 -1.12086e-19)
(0.769101 0.105034 3.63473e-20)
(0.933046 0.148179 0)
(1.06231 0.184828 5.40101e-20)
(1.15433 0.211983 -7.53964e-20)
(1.21282 0.229165 -4.35968e-20)
(1.24495 0.237654 1.957e-20)
(1.25863 0.239522 -3.11657e-20)
(1.26077 0.236881 7.57412e-20)
(1.2565 0.23146 3.75374e-20)
(1.24919 0.224479 -2.62745e-20)
(1.24077 0.216703 -2.63298e-21)
(1.23224 0.208568 -7.07011e-20)
(1.22404 0.200306 3.21244e-20)
(1.21633 0.192038 -8.62779e-22)
(1.20912 0.18383 0)
(1.20237 0.175724 -2.20591e-20)
(1.19601 0.167747 0)
(1.18993 0.159896 4.95701e-20)
(1.18406 0.152169 -5.8836e-20)
(1.17825 0.144811 2.6786e-20)
(0.0749563 -0.00141208 -1.20294e-20)
(0.258734 0.00958774 -5.77089e-20)
(0.465882 0.0459391 6.5764e-20)
(0.674295 0.0951112 3.84732e-20)
(0.862334 0.146392 -1.83567e-20)
(1.01474 0.191862 3.07036e-20)
(1.12559 0.226724 -1.49151e-20)
(1.19735 0.24955 2.46329e-20)
(1.23756 0.261498 0)
(1.25536 0.265021 5.52393e-20)
(1.25903 0.262781 -2.45589e-21)
(1.25484 0.25701 -4.42573e-20)
(1.24692 0.249295 1.88043e-20)
(1.23766 0.240631 -2.10481e-20)
(1.22828 0.231577 -7.86152e-21)
(1.21931 0.222424 9.2474e-21)
(1.21094 0.213315 -7.02767e-21)
(1.20319 0.204323 -3.80497e-20)
(1.19602 0.195489 2.32773e-20)
(1.18937 0.18684 4.70981e-21)
(1.18312 0.178384 4.1278e-21)
(1.17718 0.170104 3.61988e-21)
(1.17145 0.162063 0)
(1.16575 0.154499 0)
(0.0971498 0.00344889 1.20377e-20)
(0.315265 0.0272172 -1.20126e-20)
(0.544324 0.0771539 -2.19332e-20)
(0.760178 0.136683 0)
(0.942058 0.192936 -9.12862e-21)
(1.07886 0.238141 -8.22896e-21)
(1.1702 0.26912 -1.3983e-20)
(1.22322 0.286426 0)
(1.2482 0.292775 0)
(1.25514 0.291489 0)
(1.25188 0.2855 0)
(1.2437 0.27694 0)
(1.23369 0.267161 -1.17847e-20)
(1.22344 0.256921 5.35599e-21)
(1.21366 0.246604 9.23396e-21)
(1.20458 0.236394 4.31183e-21)
(1.19625 0.226375 1.05565e-20)
(1.18862 0.216587 0)
(1.18163 0.207055 -2.48463e-21)
(1.17519 0.197794 -2.38462e-21)
(1.16918 0.188794 -4.1344e-21)
(1.16349 0.180043 -3.62568e-21)
(1.158 0.171671 0)
(1.15255 0.163744 2.54767e-21)
(-0.00123111 -0.0190495 8.71317e-21)
(-0.00768347 -0.034493 -9.05051e-21)
(-0.0199592 -0.035126 -1.71338e-20)
(-0.0350807 -0.0263715 0)
(-0.0514755 -0.0122579 -2.30082e-20)
(-0.0684007 0.00455648 7.30072e-21)
(-0.0853602 0.022609 -1.35259e-20)
(-0.101987 0.041336 0)
(-0.117997 0.0607488 0)
(-0.133157 0.0811297 0)
(-0.147255 0.102807 0)
(-0.160088 0.126021 0)
(-0.171453 0.150859 2.40334e-22)
(-0.181136 0.177246 -8.93809e-21)
(-0.188905 0.204939 1.62588e-20)
(-0.194512 0.233538 2.30236e-20)
(-0.197693 0.262481 6.89127e-21)
(-0.198176 0.29105 0)
(-0.195697 0.318377 6.38804e-21)
(-0.190027 0.343481 -1.76942e-20)
(-0.180973 0.365322 -1.09997e-20)
(-0.168343 0.382851 -1.03752e-20)
(-0.152042 0.39508 0)
(-0.132572 0.401344 0)
(-0.000374261 -0.0136971 -2.59351e-20)
(-0.00588103 -0.0224233 4.49086e-20)
(-0.017306 -0.0189522 -1.65419e-20)
(-0.0315769 -0.00773856 -3.18291e-20)
(-0.047024 0.0077771 4.52105e-20)
(-0.0628272 0.0252789 -2.82066e-20)
(-0.078452 0.0434864 4.00522e-20)
(-0.0935143 0.0619246 2.44915e-20)
(-0.107717 0.0806371 0)
(-0.120802 0.0999169 -2.23258e-20)
(-0.13252 0.120095 1.27339e-22)
(-0.14262 0.141408 1.97675e-20)
(-0.150841 0.163935 2.6858e-20)
(-0.156914 0.187581 3.3649e-20)
(-0.160553 0.212084 -1.63736e-20)
(-0.161459 0.23702 -4.47362e-20)
(-0.159325 0.261821 1.33444e-20)
(-0.153851 0.285773 -5.10603e-20)
(-0.144748 0.308045 0)
(-0.131767 0.327714 1.16785e-20)
(-0.114729 0.343863 1.09814e-20)
(-0.0934772 0.355601 1.03574e-20)
(-0.067828 0.362255 0)
(-0.0380743 0.363781 0)
(-7.71857e-06 -0.00897073 0)
(-0.0049519 -0.0118836 8.66735e-20)
(-0.0153753 -0.00498186 -3.27656e-20)
(-0.0283235 0.00816184 3.12716e-20)
(-0.0421241 0.024667 -8.69459e-20)
(-0.0559137 0.0425391 0)
(-0.0691375 0.0606533 -5.1201e-20)
(-0.0814091 0.0785816 2.36911e-20)
(-0.0924327 0.096362 -4.4247e-20)
(-0.101943 0.114268 1.98463e-20)
(-0.109674 0.132617 1.1701e-19)
(-0.115346 0.151641 -5.4896e-20)
(-0.118669 0.171424 -8.59372e-20)
(-0.119341 0.191875 -3.08824e-20)
(-0.11705 0.212734 3.23876e-22)
(-0.111483 0.23359 1.11725e-19)
(-0.102339 0.253904 -5.23445e-20)
(-0.0893379 0.272998 1.19545e-21)
(-0.0722439 0.290101 0)
(-0.0508264 0.304388 -4.27883e-20)
(-0.0249815 0.31502 0)
(0.0053085 0.321226 -4.10988e-20)
(0.0404307 0.322521 1.52338e-19)
(0.0805705 0.319254 2.5418e-21)
(-3.01155e-05 -0.00511291 0)
(-0.00479945 -0.00338889 -7.0049e-22)
(-0.0142832 0.00609664 3.17219e-20)
(-0.0257341 0.0205054 -2.97248e-20)
(-0.0375253 0.037463 2.8874e-20)
(-0.0487703 0.0552741 1.58806e-19)
(-0.0589068 0.07295 -4.9893e-20)
(-0.0675587 0.0900875 -4.58905e-20)
(-0.074448 0.106692 8.70155e-20)
(-0.0793289 0.122993 -1.22042e-19)
(-0.0819491 0.139273 3.7343e-20)
(-0.082036 0.155752 3.4536e-20)
(-0.0793033 0.172524 0)
(-0.0734572 0.189521 3.12466e-20)
(-0.0642 0.206519 0)
(-0.0512254 0.223156 5.20129e-20)
(-0.0342769 0.23894 -9.95802e-20)
(-0.0131451 0.253271 2.36438e-20)
(0.0123514 0.26548 8.80266e-20)
(0.0423284 0.274857 4.27355e-20)
(0.0768055 0.28065 0)
(0.115657 0.282185 -1.16782e-19)
(0.15894 0.279042 3.65414e-20)
(0.20942 0.271266 0)
(-0.000345723 -0.00214242 0)
(-0.00532604 0.00297862 -1.00184e-19)
(-0.0141269 0.0140963 -3.12132e-20)
(-0.024192 0.0289709 -5.8945e-20)
(-0.0339463 0.0456892 5.5503e-20)
(-0.0424921 0.0628446 -5.24999e-20)
(-0.0492683 0.0795848 9.65634e-20)
(-0.053919 0.09553 4.50808e-20)
(-0.0561972 0.110643 -1.27434e-19)
(-0.0559023 0.125098 7.79821e-20)
(-0.0528307 0.139123 -1.09903e-19)
(-0.0467522 0.152915 2.34876e-19)
(-0.0374237 0.166571 -1.26545e-19)
(-0.0245988 0.180051 5.74019e-20)
(-0.00802683 0.193187 1.62016e-19)
(0.0125269 0.20568 -5.24235e-20)
(0.0372584 0.217111 -4.66969e-20)
(0.0663124 0.226988 -4.55581e-20)
(0.0997819 0.234754 0)
(0.137688 0.239814 -8.12074e-20)
(0.179963 0.241568 -7.96749e-20)
(0.226646 0.239398 1.09901e-19)
(0.276232 0.233003 1.47216e-19)
(0.337101 0.221258 -1.3702e-19)
(-0.000909064 0.00010689 0)
(-0.00649457 0.00751243 -1.30588e-19)
(-0.0150021 0.0192958 6.86739e-22)
(-0.0239899 0.0337488 1.16157e-19)
(-0.0319234 0.0494029 0)
(-0.0379068 0.0651479 0)
(-0.0413898 0.0802853 0)
(-0.0420479 0.0944771 -4.40713e-20)
(-0.039671 0.107665 9.94324e-22)
(-0.0341131 0.119956 7.65824e-20)
(-0.0252467 0.131524 -1.06472e-19)
(-0.012914 0.142534 7.52066e-22)
(0.00305454 0.153072 0)
(0.0228349 0.163129 -5.7373e-20)
(0.0466026 0.172583 5.09149e-20)
(0.0745168 0.181206 -1.45849e-19)
(0.106706 0.188678 1.82893e-19)
(0.143258 0.194607 4.28133e-20)
(0.18422 0.198543 1.77406e-21)
(0.229614 0.200011 -1.53615e-19)
(0.279171 0.198526 -7.28935e-20)
(0.333948 0.19351 2.51921e-19)
(0.38885 0.18508 -1.69297e-19)
(0.462069 0.169991 0)
(-0.0017431 0.00191445 6.23604e-20)
(-0.00833693 0.0107533 6.50893e-20)
(-0.0169621 0.022326 -6.06133e-20)
(-0.0252156 0.0354795 -1.14e-19)
(-0.0316013 0.0492074 1.0734e-19)
(-0.0352476 0.0627168 -9.93489e-20)
(-0.0356288 0.0754932 1.39594e-19)
(-0.0324486 0.0872753 -4.37969e-20)
(-0.0255486 0.0980052 8.06339e-20)
(-0.0148341 0.107746 0)
(-0.00023397 0.116631 6.65393e-20)
(0.0183361 0.12479 -1.26075e-19)
(0.0409777 0.132301 1.1659e-19)
(0.0678066 0.139173 -1.09498e-19)
(0.0989475 0.145328 0)
(0.134523 0.150606 9.42743e-20)
(0.174643 0.154769 1.74847e-19)
(0.21939 0.157518 -1.65487e-19)
(0.268818 0.158497 -7.73385e-20)
(0.323114 0.157347 -7.72917e-20)
(0.381418 0.153592 2.14567e-19)
(0.44721 0.146857 7.0221e-20)
(0.508521 0.137515 -6.36058e-20)
(0.599335 0.120607 6.36574e-20)
(-0.00292307 0.00357112 -6.2369e-20)
(-0.0109032 0.0133022 1.92029e-19)
(-0.0199175 0.0239754 -6.01176e-20)
(-0.0275889 0.03509 1.12734e-19)
(-0.0324823 0.0461441 -1.06148e-19)
(-0.0337784 0.056691 1.40398e-22)
(-0.0309895 0.0664328 4.60104e-20)
(-0.0238445 0.0752193 1.67155e-19)
(-0.0122061 0.0830276 -2.61523e-21)
(0.00399856 0.0899217 -7.44027e-20)
(0.0248243 0.0960103 0)
(0.0503377 0.101404 -6.00165e-20)
(0.0806278 0.10618 1.15194e-19)
(0.115806 0.110363 1.05089e-19)
(0.155999 0.113911 -5.01135e-20)
(0.201337 0.116713 -1.11286e-21)
(0.251934 0.118592 -4.33923e-20)
(0.307873 0.119319 7.97977e-20)
(0.369101 0.118586 7.73309e-20)
(0.435948 0.116185 -7.36839e-20)
(0.506292 0.111438 6.90731e-20)
(0.586636 0.104634 -6.63628e-20)
(0.65565 0.0952494 0)
(0.766399 0.0797002 -6.36306e-20)
(-0.00451628 0.00527305 6.17884e-20)
(-0.0141442 0.015619 -6.39528e-20)
(-0.0234932 0.0249548 5.99775e-20)
(-0.0302917 0.0335546 0)
(-0.0332143 0.0414666 0)
(-0.0315183 0.0486173 9.63575e-20)
(-0.0247492 0.0549531 -9.12646e-20)
(-0.0126329 0.0604695 8.18825e-20)
(0.00499732 0.0652203 -3.86951e-19)
(0.0282543 0.0693035 1.11663e-21)
(0.0572398 0.0728353 6.55517e-20)
(0.0920608 0.075929 0)
(0.13283 0.0786677 -1.11242e-19)
(0.179651 0.0810863 2.07541e-19)
(0.232597 0.0831594 -1.45356e-19)
(0.291672 0.0847952 -2.24362e-19)
(0.356779 0.0858376 -9.61654e-23)
(0.427697 0.086083 1.56877e-19)
(0.503877 0.0852088 0)
(0.585309 0.0831699 0)
(0.668467 0.0789388 -6.90729e-20)
(0.76092 0.0738488 6.63617e-20)
(0.835892 0.0651711 -2.56145e-19)
(0.955239 0.0542154 2.39966e-19)
(-0.00650598 0.00704624 0)
(-0.0177818 0.0178634 0)
(-0.0269106 0.0256827 -1.79599e-19)
(-0.0318879 0.0316291 5.71338e-20)
(-0.0315599 0.0363249 1.15439e-21)
(-0.02527 0.0400851 9.78361e-20)
(-0.0125738 0.0431172 0)
(0.00684477 0.0455906 -8.33847e-20)
(0.0332246 0.047667 7.72013e-20)
(0.0667469 0.0495021 -1.40102e-19)
(0.107544 0.0512457 1.04919e-21)
(0.155694 0.0530245 1.19337e-19)
(0.211181 0.0549201 -1.79652e-21)
(0.27386 0.0569536 1.00879e-19)
(0.343411 0.0590742 -1.44227e-19)
(0.419302 0.0611541 0)
(0.500757 0.0629912 1.66946e-19)
(0.586759 0.0643257 -2.3549e-19)
(0.675907 0.0647934 7.39473e-20)
(0.767136 0.0642752 0)
(0.85675 0.0617316 6.65955e-20)
(0.949197 0.0587381 2.59909e-19)
(1.0231 0.0511212 -2.43912e-19)
(1.12715 0.0448964 -2.94279e-19)
(-0.00872915 0.00872792 1.86308e-19)
(-0.0212312 0.0198346 -2.56431e-19)
(-0.0289829 0.0261582 6.49335e-22)
(-0.0304438 0.0296433 5.68968e-20)
(-0.0246949 0.0314642 -1.05467e-19)
(-0.0111715 0.0323131 -9.74774e-20)
(0.0105658 0.0326631 1.79121e-19)
(0.0408652 0.032867 -3.38179e-21)
(0.0799731 0.0332018 -1.55467e-19)
(0.128012 0.0338946 2.82571e-19)
(0.18493 0.0351261 -2.76907e-21)
(0.250446 0.0370103 -1.21621e-19)
(0.323999 0.0395839 0)
(0.404712 0.042792 0)
(0.491376 0.0464793 -4.77582e-20)
(0.582464 0.0503905 -8.92058e-20)
(0.67617 0.0541876 -1.66609e-19)
(0.770475 0.0574448 1.56383e-19)
(0.863217 0.0597654 -7.39774e-20)
(0.952307 0.0606159 1.39808e-19)
(1.03514 0.0596736 -6.54088e-20)
(1.11188 0.0569504 1.27076e-19)
(1.17312 0.0503653 -2.93602e-19)
(1.24175 0.0450596 5.73856e-20)
(-0.0108645 0.0100229 6.2647e-20)
(-0.0236223 0.0210466 0)
(-0.0282389 0.0259889 1.21371e-19)
(-0.0238198 0.027456 -1.14338e-19)
(-0.00974538 0.0270819 1.05562e-19)
(0.0144151 0.0258984 0)
(0.0490203 0.0246243 0)
(0.094301 0.023777 -8.28257e-20)
(0.150269 0.0237324 3.00373e-21)
(0.216622 0.0247556 7.31783e-20)
(0.292661 0.0269991 -6.4918e-20)
(0.377226 0.0304955 1.2262e-19)
(0.468692 0.0351466 0)
(0.565007 0.0407184 2.06217e-19)
(0.663785 0.0468497 -3.8508e-19)
(0.762431 0.0530722 2.69008e-19)
(0.858295 0.0588558 1.6625e-19)
(0.948818 0.0636017 -1.56055e-19)
(1.03171 0.0668819 0)
(1.10503 0.0678641 0)
(1.16745 0.067079 0)
(1.21829 0.0623278 0)
(1.25656 0.0568499 5.77515e-20)
(1.28861 0.047086 -2.1175e-19)
(-0.10746 0.40184 -6.78373e-21)
(-0.0730043 0.389059 6.82042e-21)
(-0.0318452 0.359463 -2.2119e-22)
(0.0153048 0.312334 0)
(0.0676712 0.247292 -7.06491e-21)
(0.123442 0.164802 1.38703e-20)
(0.180928 0.0673183 2.67172e-23)
(0.238812 -0.0431005 -6.64295e-21)
(0.296025 -0.161969 0)
(0.351889 -0.283348 0)
(0.405314 -0.398039 -3.26202e-22)
(0.454038 -0.494799 -2.76026e-22)
(0.494722 -0.563875 -3.43198e-21)
(0.524496 -0.601146 3.11647e-21)
(0.542263 -0.609427 0)
(0.54731 -0.598395 0)
(0.536553 -0.583435 1.59974e-21)
(0.507908 -0.576126 -9.29075e-24)
(0.469035 -0.569089 -1.41193e-21)
(0.439354 -0.533137 -9.54258e-23)
(0.438957 -0.436908 0)
(0.473084 -0.274032 0)
(0.531567 -0.0691585 0)
(0.599571 0.136765 0)
(0.664795 0.30495 0)
(0.718385 0.416035 0)
(0.755291 0.473538 3.49176e-22)
(0.776695 0.491186 -5.60655e-22)
(0.786913 0.486699 0)
(0.783197 0.484522 0)
(0.758824 0.499779 -3.51258e-22)
(0.718148 0.513286 3.41398e-22)
(0.683494 0.470866 2.24092e-22)
(0.674775 0.338465 0)
(0.69732 0.131549 0)
(0.736391 -0.0835317 4.83912e-22)
(0.779457 -0.254464 -4.7037e-22)
(0.814374 -0.353656 0)
(0.840051 -0.396123 2.43054e-22)
(0.846476 -0.415582 -3.43844e-22)
(0.824307 -0.430267 9.21468e-23)
(0.776864 -0.437928 0)
(0.73263 -0.37672 -2.19271e-22)
(0.712746 -0.252612 2.13221e-22)
(0.731808 -0.057846 0)
(0.768008 0.107595 0)
(0.81293 0.236474 -7.77102e-23)
(0.830014 0.320577 2.10606e-22)
(0.813949 0.363412 0)
(0.774697 0.39885 0)
(0.756583 0.295356 -5.79797e-23)
(0.760564 0.193237 -8.05744e-24)
(0.802803 -0.00619886 -3.74403e-24)
(0.817746 -0.142495 4.80751e-23)
(0.819138 -0.248225 0)
(0.800336 -0.381916 0)
(0.798891 -0.270257 0)
(0.791854 -0.271566 0)
(0.803111 -0.0207321 0)
(0.785637 0.177609 0)
(-0.00268419 0.360503 -6.57634e-22)
(0.040098 0.343067 -2.91993e-20)
(0.0883061 0.309486 -1.0635e-21)
(0.141234 0.259354 2.83961e-20)
(0.197488 0.192728 4.74648e-22)
(0.255354 0.110225 0)
(0.313197 0.0135407 -2.90131e-20)
(0.370038 -0.0951459 5.6844e-20)
(0.425163 -0.212247 -2.7825e-20)
(0.477715 -0.331606 2.34747e-20)
(0.525851 -0.443083 -2.24896e-20)
(0.566263 -0.534092 1.65062e-20)
(0.595315 -0.594398 -1.61129e-20)
(0.610851 -0.621014 -3.72701e-22)
(0.613256 -0.61843 -8.51627e-21)
(0.604637 -0.596039 8.27684e-21)
(0.58471 -0.568002 -6.04704e-21)
(0.549764 -0.54901 5.70861e-21)
(0.501139 -0.539462 -5.72418e-21)
(0.453151 -0.515414 1.16046e-20)
(0.428093 -0.441376 -5.86357e-21)
(0.43974 -0.300166 -3.87083e-22)
(0.484115 -0.109117 -6.98399e-21)
(0.547058 0.0918309 1.31529e-20)
(0.614247 0.263937 -6.18633e-21)
(0.674303 0.384712 2.79191e-22)
(0.720409 0.453277 3.64374e-21)
(0.752364 0.480108 -3.35642e-22)
(0.772032 0.483767 -5.63885e-21)
(0.774749 0.490819 5.3999e-21)
(0.755356 0.514447 -2.66037e-21)
(0.721512 0.530209 3.98396e-22)
(0.696774 0.481656 -2.24559e-22)
(0.697534 0.338223 5.72405e-22)
(0.726851 0.1214 0)
(0.76827 -0.0991662 0)
(0.809123 -0.269762 -1.68306e-21)
(0.837431 -0.365196 1.26677e-21)
(0.855297 -0.401607 7.15595e-22)
(0.856166 -0.41246 -5.31955e-23)
(0.830837 -0.418101 -8.74346e-22)
(0.78072 -0.422009 1.62865e-22)
(0.730676 -0.365591 0)
(0.706513 -0.252349 0)
(0.722461 -0.0672934 0)
(0.760463 0.0939777 0)
(0.806421 0.226636 2.91539e-22)
(0.824691 0.319734 -1.3516e-22)
(0.810021 0.370204 0)
(0.771658 0.40651 0)
(0.757279 0.297439 0)
(0.761438 0.187977 -1.30089e-22)
(0.808065 -0.0126263 -8.17331e-24)
(0.824227 -0.144727 -9.8027e-23)
(0.826193 -0.246042 0)
(0.806567 -0.379549 0)
(0.801762 -0.269784 3.82036e-23)
(0.794337 -0.271654 8.80199e-23)
(0.800749 -0.0197599 0)
(0.783469 0.179028 0)
(0.122009 0.313132 3.44289e-21)
(0.169684 0.293174 -5.67839e-20)
(0.221149 0.258186 6.22614e-20)
(0.276312 0.207832 -5.82056e-20)
(0.333559 0.14229 -4.77817e-22)
(0.391213 0.0620008 0)
(0.448017 -0.0317032 -6.22019e-20)
(0.503218 -0.137019 6.09445e-20)
(0.556047 -0.250843 4.32912e-22)
(0.60517 -0.366711 8.10494e-22)
(0.647586 -0.473638 7.11319e-22)
(0.678887 -0.558183 5.85181e-22)
(0.695466 -0.610084 -2.79487e-20)
(0.696527 -0.627464 2.75375e-20)
(0.684 -0.616687 0)
(0.661769 -0.587309 4.58641e-22)
(0.632481 -0.55062 -1.13635e-20)
(0.593093 -0.520835 1.12126e-20)
(0.539821 -0.505208 0)
(0.479859 -0.488578 0)
(0.433803 -0.436051 -1.11686e-20)
(0.422149 -0.32053 2.29158e-20)
(0.449077 -0.148496 -2.30173e-20)
(0.503578 0.0439281 8.46233e-22)
(0.569887 0.21777 1.95979e-20)
(0.634252 0.347301 -1.70627e-20)
(0.688354 0.426914 1.34697e-20)
(0.730185 0.463829 -9.47727e-22)
(0.758825 0.476995 -5.43275e-21)
(0.768094 0.494082 0)
(0.75463 0.525987 0)
(0.728616 0.544081 2.87336e-21)
(0.713911 0.49074 -3.58346e-21)
(0.723907 0.338495 3.13041e-23)
(0.759501 0.113765 5.02764e-21)
(0.802653 -0.110926 -4.88549e-21)
(0.840927 -0.280782 0)
(0.862543 -0.372926 3.70653e-22)
(0.87236 -0.404461 2.29507e-21)
(0.867575 -0.40806 -3.96545e-21)
(0.839548 -0.405325 1.53365e-21)
(0.78769 -0.405624 1.34316e-22)
(0.732569 -0.354245 -1.67316e-21)
(0.704269 -0.252593 1.33194e-21)
(0.716636 -0.0780279 3.24952e-22)
(0.755705 0.0790383 2.95515e-22)
(0.802021 0.21575 -2.92287e-22)
(0.821266 0.318209 0)
(0.808191 0.376387 0)
(0.770978 0.413955 -1.02774e-21)
(0.760423 0.299744 5.10326e-22)
(0.764537 0.182889 -5.85155e-22)
(0.815084 -0.0189669 8.04689e-22)
(0.832307 -0.146896 8.58058e-22)
(0.834646 -0.24336 -1.82298e-22)
(0.813676 -0.376766 2.58326e-22)
(0.80543 -0.269039 -1.72375e-22)
(0.797771 -0.271375 5.01088e-23)
(0.799535 -0.0186058 0)
(0.782352 0.180437 0)
(0.252646 0.263438 -1.16352e-19)
(0.302068 0.242281 -5.98246e-21)
(0.354227 0.207626 1.16451e-19)
(0.409406 0.159108 -9.67855e-22)
(0.46597 0.0965532 0)
(0.522624 0.0199108 0)
(0.578341 -0.0693715 -1.26955e-19)
(0.632399 -0.170483 9.48187e-22)
(0.683754 -0.280227 1.74053e-19)
(0.730119 -0.391641 -5.06686e-21)
(0.76696 -0.492862 -4.9474e-20)
(0.78881 -0.570036 -3.44274e-20)
(0.792447 -0.613576 3.463e-20)
(0.778924 -0.622873 0)
(0.752224 -0.60574 -1.70537e-20)
(0.717343 -0.57243 1.56563e-20)
(0.678843 -0.531603 0)
(0.63604 -0.49378 0)
(0.582524 -0.469471 8.22781e-21)
(0.517555 -0.454028 1.54279e-22)
(0.455993 -0.419313 -7.62887e-21)
(0.421828 -0.331735 -9.54397e-21)
(0.42845 -0.184093 9.47772e-21)
(0.470686 -0.00445246 -9.22245e-21)
(0.532765 0.167887 1.12306e-21)
(0.598963 0.304563 7.58954e-21)
(0.659524 0.394786 7.35778e-22)
(0.710156 0.442386 4.39225e-23)
(0.747062 0.465981 0)
(0.762944 0.493397 5.46175e-21)
(0.756139 0.533308 -5.65499e-21)
(0.738565 0.554188 4.17152e-22)
(0.733847 0.498003 0)
(0.752746 0.339894 -6.10844e-22)
(0.794178 0.109444 1.05864e-20)
(0.838817 -0.118689 -1.83604e-20)
(0.874358 -0.287908 6.01378e-22)
(0.889458 -0.377235 1.68429e-21)
(0.891143 -0.404963 4.80028e-21)
(0.880514 -0.402761 4.30146e-22)
(0.850041 -0.392396 -2.50684e-21)
(0.797393 -0.388885 2.13691e-21)
(0.738157 -0.342374 3.95858e-23)
(0.705934 -0.252897 1.22529e-21)
(0.71422 -0.0895985 -1.51741e-21)
(0.753568 0.0630293 -1.86517e-21)
(0.799631 0.20385 5.66938e-22)
(0.819701 0.315885 9.34585e-22)
(0.808492 0.381811 -1.89346e-21)
(0.772752 0.421132 1.46207e-21)
(0.766152 0.302386 -6.08326e-22)
(0.769992 0.178212 5.61181e-22)
(0.823814 -0.02511 6.1721e-22)
(0.841887 -0.149004 -1.36221e-21)
(0.844445 -0.240193 4.73902e-23)
(0.821621 -0.373509 -2.62167e-22)
(0.80983 -0.268008 0)
(0.80208 -0.270756 -6.83483e-23)
(0.799402 -0.0172853 5.28101e-23)
(0.782249 0.181844 0)
(0.379952 0.21321 1.15213e-19)
(0.429157 0.192479 -2.3288e-19)
(0.480772 0.159428 1.15768e-19)
(0.535203 0.113893 1.26705e-19)
(0.590798 0.0551028 -2.52433e-19)
(0.647018 -0.0166285 -2.47344e-21)
(0.702564 -0.101054 1.25548e-19)
(0.75627 -0.197246 1.20527e-19)
(0.806739 -0.301523 -1.18039e-19)
(0.850134 -0.406424 0)
(0.880482 -0.499682 -8.64298e-20)
(0.891913 -0.56799 1.55407e-19)
(0.88228 -0.60335 -6.94265e-20)
(0.854735 -0.606578 0)
(0.815454 -0.585833 0)
(0.770212 -0.551411 4.58985e-22)
(0.723693 -0.510501 -2.03518e-20)
(0.677468 -0.469229 1.97734e-20)
(0.625973 -0.436922 0)
(0.562406 -0.417199 1.33827e-20)
(0.492781 -0.393134 -2.58312e-20)
(0.43939 -0.331676 2.67562e-20)
(0.423939 -0.212676 -2.84666e-20)
(0.449744 -0.0510817 1.3762e-22)
(0.503738 0.115695 2.624e-20)
(0.569157 0.257201 -1.23878e-20)
(0.634201 0.357081 -3.40185e-22)
(0.692105 0.415565 -4.21463e-21)
(0.736342 0.450118 -3.17303e-22)
(0.75878 0.48787 4.56931e-21)
(0.759136 0.535612 3.52339e-22)
(0.750332 0.560184 -7.74924e-21)
(0.755395 0.503556 1.70549e-20)
(0.782907 0.342644 -1.05358e-20)
(0.829744 0.108692 0)
(0.875739 -0.122306 -1.09991e-20)
(0.908706 -0.290998 1.04951e-20)
(0.917663 -0.377982 -4.85547e-21)
(0.911345 -0.402961 6.09294e-21)
(0.8948 -0.39654 -4.19495e-22)
(0.862056 -0.379579 0)
(0.809446 -0.372187 -2.47027e-22)
(0.747138 -0.330096 7.27995e-22)
(0.711294 -0.252984 0)
(0.714996 -0.101708 2.44888e-21)
(0.753775 0.0461487 -9.85135e-22)
(0.799083 0.190904 4.65239e-22)
(0.819886 0.312573 4.10036e-22)
(0.810884 0.386288 0)
(0.776999 0.427964 0)
(0.774509 0.30544 -1.91026e-21)
(0.777871 0.17402 3.25067e-21)
(0.834195 -0.0309892 -1.90293e-21)
(0.852851 -0.151035 5.92764e-22)
(0.855514 -0.236492 8.73662e-22)
(0.830353 -0.369684 2.62412e-22)
(0.814894 -0.266693 -2.70861e-22)
(0.80718 -0.269834 0)
(0.800265 -0.0158152 -9.69852e-23)
(0.783113 0.183254 -1.19075e-23)
(0.503689 0.163111 1.13408e-19)
(0.551544 0.144192 -1.12964e-19)
(0.602054 0.113653 9.41216e-22)
(0.655599 0.0716179 -9.28494e-22)
(0.71119 0.0170071 9.8964e-22)
(0.767424 -0.0492759 -9.93298e-22)
(0.822849 -0.128652 1.88588e-21)
(0.876307 -0.218768 0)
(0.924909 -0.315726 -1.72574e-21)
(0.963389 -0.411712 1.57701e-21)
(0.985035 -0.494829 1.38852e-21)
(0.984624 -0.553337 -1.22034e-21)
(0.96187 -0.581257 0)
(0.92188 -0.580618 0)
(0.872314 -0.559109 5.888e-22)
(0.819501 -0.525924 0)
(0.767284 -0.487412 -3.39265e-22)
(0.71779 -0.446662 0)
(0.66822 -0.409247 -1.1733e-20)
(0.610053 -0.382437 2.17543e-20)
(0.540345 -0.361047 -1.95384e-20)
(0.474005 -0.319773 9.46528e-21)
(0.436694 -0.230785 1.02612e-20)
(0.442235 -0.0934074 -9.96583e-21)
(0.48403 0.0630492 -9.56067e-21)
(0.54555 0.206203 9.25591e-21)
(0.612576 0.314139 0)
(0.675799 0.383297 1.99732e-22)
(0.726241 0.429017 0)
(0.755015 0.476922 0)
(0.762755 0.532405 1.14431e-20)
(0.762729 0.561794 -1.17213e-20)
(0.777174 0.5075 1.03703e-21)
(0.812781 0.346754 1.29855e-21)
(0.864888 0.110889 -1.40859e-21)
(0.912625 -0.121882 -9.95132e-21)
(0.943321 -0.290185 9.66097e-21)
(0.946664 -0.375323 -6.59749e-21)
(0.932652 -0.398515 5.60455e-21)
(0.910179 -0.389465 8.38207e-22)
(0.875254 -0.367083 -2.19821e-21)
(0.82334 -0.355767 9.95326e-23)
(0.759029 -0.317435 1.31604e-21)
(0.719929 -0.252545 0)
(0.718632 -0.114096 -8.50523e-22)
(0.756014 0.0285502 1.1305e-21)
(0.800153 0.176836 -1.52032e-21)
(0.821649 0.308054 -4.12658e-22)
(0.815242 0.389603 0)
(0.783641 0.434357 6.78578e-22)
(0.785402 0.308922 -1.19134e-21)
(0.788178 0.170465 4.28911e-23)
(0.846146 -0.0364625 -7.18865e-22)
(0.865067 -0.152956 9.77673e-22)
(0.867753 -0.232229 -9.09006e-22)
(0.839817 -0.365199 0)
(0.820555 -0.265086 2.70984e-22)
(0.812985 -0.268643 0)
(0.802034 -0.0142087 0)
(0.784894 0.184669 1.77471e-23)
(0.637614 0.115163 -1.11563e-19)
(0.681634 0.0979839 1.10331e-19)
(0.72919 0.0699997 -8.81239e-22)