/*--------------------------------*- C++ -*----------------------------------*\
| =========                 |                                                 |
| \\      /  F ield         | OpenFOAM: The Open Source CFD Toolbox           |
|  \\    /   O peration     | Version:  2512                                  |
|   \\  /    A nd           | Website:  www.openfoam.com                      |
|    \\/     M anipulation  |                                                 |
\*---------------------------------------------------------------------------*/
FoamFile
{
    version     2.0;
    format      ascii;
    arch        "LSB;label=32;scalar=64";
    class       volVectorField;
    location    "39.25";
    object      U;
}
// * * * * * * * * * * * * * * * * * * * * * * * * * * * * * * * * * * * * * //

dimensions      [0 1 -1 0 0 0 0];

internalField   nonuniform List<vector> 
13248
(
(-0.0126155 0.0118103 6.07693e-20)
(-0.0241654 0.0253853 0)
(-0.022867 0.032816 -1.1483e-19)
(-0.00969777 0.0359968 1.08172e-19)
(0.0146701 0.036501 1.01383e-19)
(0.0497585 0.0356016 0)
(0.09517 0.03428 0)
(0.150476 0.0332789 2.45167e-19)
(0.215083 0.0331434 -1.06078e-21)
(0.288108 0.0342422 -2.14441e-19)
(0.368284 0.0367778 1.99054e-19)
(0.453932 0.0407943 -1.24461e-19)
(0.543001 0.0461874 0)
(0.633165 0.0527223 -2.13538e-19)
(0.721975 0.0600607 3.98464e-19)
(0.807029 0.0677948 -9.43552e-20)
(0.886135 0.075491 -1.68876e-19)
(0.957466 0.0827122 1.58531e-19)
(1.01968 0.0891366 0)
(1.07189 0.0942635 0)
(1.11415 0.0985106 0)
(1.14562 0.099903 0)
(1.17018 0.103024 4.8991e-20)
(1.18198 0.0967823 1.79167e-19)
(-0.0123133 0.0102488 -1.83627e-19)
(-0.0201613 0.0206576 1.25181e-19)
(-0.0121308 0.0257411 -1.10101e-21)
(0.0104662 0.0274847 -1.65442e-19)
(0.0467471 0.0275289 -1.01274e-19)
(0.096004 0.027194 -9.58276e-20)
(0.157471 0.0274631 -1.76214e-19)
(0.230139 0.0290321 1.66568e-19)
(0.312588 0.0323394 0)
(0.402875 0.0375753 7.20884e-22)
(0.498532 0.0446915 1.50042e-21)
(0.596659 0.0534214 1.24352e-19)
(0.69413 0.0633185 0)
(0.787829 0.0738118 0)
(0.874911 0.0842734 1.46038e-19)
(0.953026 0.0940891 -2.74263e-19)
(1.02048 0.102723 1.64732e-19)
(1.07633 0.109765 -1.5465e-19)
(1.12038 0.114968 -6.87682e-20)
(1.15319 0.11822 -1.25748e-19)
(1.1757 0.119707 -5.33923e-20)
(1.18983 0.119141 -1.004e-19)
(1.19663 0.11859 1.46147e-19)
(1.19805 0.113157 4.26781e-20)
(-0.0111747 0.00839239 0)
(-0.0131296 0.015328 0)
(0.0042703 0.0182237 5.85302e-20)
(0.0392259 0.0190738 5.39153e-20)
(0.0904625 0.0195393 -1.30436e-21)
(0.156766 0.0209442 -9.88609e-20)
(0.236598 0.0241953 0)
(0.327865 0.0298121 -8.28403e-20)
(0.427786 0.0379489 7.78385e-20)
(0.532924 0.0484132 4.86581e-22)
(0.639381 0.0607057 -1.33271e-19)
(0.743126 0.074096 -1.2242e-19)
(0.840378 0.0877248 1.9713e-21)
(0.927957 0.10072 -1.0201e-19)
(1.00355 0.112304 2.4414e-19)
(1.06587 0.121882 0)
(1.11464 0.129092 -1.60194e-19)
(1.15054 0.133816 7.7442e-20)
(1.175 0.13618 6.87028e-20)
(1.1899 0.136422 0)
(1.19742 0.135098 5.69584e-20)
(1.1996 0.1322 -1.99279e-19)
(1.19809 0.12954 1.87068e-19)
(1.1957 0.123652 1.21112e-19)
(-0.0088594 0.00624367 -6.50998e-20)
(-0.00218212 0.00959228 -6.7305e-20)
(0.0276419 0.0107969 6.07802e-20)
(0.0781123 0.0117005 0)
(0.147249 0.0138736 0)
(0.232871 0.0185258 -2.07729e-21)
(0.332096 0.0263119 0)
(0.441152 0.0373443 -2.52835e-19)
(0.555462 0.0512402 2.35015e-19)
(0.669964 0.0671992 -2.90439e-19)
(0.779624 0.084136 6.66625e-20)
(0.879984 0.100852 0)
(0.967628 0.116217 1.11748e-19)
(1.04046 0.129317 -2.07299e-19)
(1.0978 0.139561 4.92091e-20)
(1.14023 0.146709 1.27897e-19)
(1.16935 0.150848 -4.87591e-21)
(1.18744 0.152325 -1.43431e-19)
(1.19701 0.151645 0)
(1.20054 0.149353 0)
(1.20014 0.146059 -5.24957e-20)
(1.19743 0.141921 4.75243e-20)
(1.19369 0.138341 1.72867e-19)
(1.1896 0.132327 -1.62266e-19)
(-0.00498055 0.00385806 -6.87472e-20)
(0.0135918 0.00378351 -6.83714e-20)
(0.0591549 0.00417674 1.92292e-19)
(0.128209 0.00648687 -1.16488e-19)
(0.217591 0.0119944 1.0965e-19)
(0.323529 0.021567 1.99088e-19)
(0.441144 0.0353196 -1.40728e-19)
(0.564539 0.0526492 -1.71461e-19)
(0.687293 0.0723835 3.16929e-21)
(0.803207 0.0930008 2.19682e-19)
(0.907074 0.1129 0)
(0.995267 0.130666 6.09957e-20)
(1.06601 0.145268 0)
(1.11932 0.156159 -1.00399e-19)
(1.1567 0.163275 1.41175e-19)
(1.18066 0.166942 1.18424e-21)
(1.19414 0.167742 -3.75824e-20)
(1.20009 0.166364 7.04931e-20)
(1.20107 0.163479 6.14939e-20)
(1.19909 0.159653 -5.55897e-20)
(1.19554 0.155339 5.24829e-20)
(1.19131 0.150693 -4.75125e-20)
(1.18681 0.146533 0)
(1.18272 0.140605 -3.7074e-20)
(0.000854963 0.00137509 6.87374e-20)
(0.0350122 -0.00156747 7.2201e-20)
(0.0996503 -0.000683156 -6.44377e-20)
(0.189868 0.00474921 1.19956e-19)
(0.300688 0.0154026 -1.12908e-19)
(0.426052 0.0314476 1.02055e-19)
(0.558598 0.0520848 -4.90189e-20)
(0.690309 0.0757021 1.28745e-19)
(0.813565 0.100237 -8.10643e-20)
(0.922218 0.12359 1.4435e-19)
(1.01233 0.144002 -3.33814e-19)
(1.08243 0.160311 1.23022e-19)
(1.13325 0.172033 -1.08431e-19)
(1.16718 0.179303 1.01845e-19)
(1.18755 0.182699 8.88217e-20)
(1.19787 0.183031 7.86069e-20)
(1.20138 0.181149 -2.19109e-19)
(1.20066 0.177808 1.3618e-19)
(1.19758 0.173592 -6.14957e-20)
(1.19337 0.168912 1.62346e-19)
(1.18873 0.164036 -5.22834e-20)
(1.18403 0.15906 -1.30237e-19)
(1.17947 0.154434 1.20664e-19)
(1.17529 0.148598 3.70606e-20)
(0.0090024 -0.00096678 0)
(0.0626806 -0.00571587 6.34925e-22)
(0.149435 -0.00261157 1.34985e-19)
(0.262456 0.00790233 -1.26579e-19)
(0.394256 0.025441 -1.13995e-19)
(0.535941 0.049024 2.11899e-19)
(0.677662 0.0765819 -9.84207e-20)
(0.810015 0.105383 1.31484e-19)
(0.925544 0.132678 -2.63169e-21)
(1.01973 0.156245 -7.47879e-20)
(1.09125 0.17472 1.64135e-19)
(1.14146 0.187664 -2.42839e-19)
(1.17361 0.19541 0)
(1.19176 0.198791 -4.81935e-20)
(1.19998 0.198847 -1.2944e-19)
(1.20175 0.196588 4.06778e-20)
(1.19973 0.19285 1.40013e-21)
(1.19573 0.18825 -9.14354e-20)
(1.19088 0.183197 4.85869e-21)
(1.18579 0.177943 1.06162e-19)
(1.18078 0.172634 -4.79505e-20)
(1.17599 0.167346 -1.88891e-20)
(1.17144 0.162269 5.69978e-20)
(1.16724 0.15646 0)
(0.0197309 -0.0028319 0)
(0.0968492 -0.00773396 3.6645e-20)
(0.208101 -0.000311344 -1.76564e-19)
(0.344209 0.017284 6.41027e-20)
(0.494594 0.043053 -6.03323e-20)
(0.647435 0.0744164 -5.52172e-20)
(0.791126 0.107876 -9.76603e-20)
(0.916348 0.139811 4.86613e-20)
(1.01751 0.16732 4.23609e-20)
(1.09309 0.188688 0)
(1.14492 0.203442 9.77418e-20)
(1.17701 0.212095 -1.46135e-19)
(1.19419 0.215744 1.08816e-19)
(1.20113 0.21568 4.82174e-20)
(1.20166 0.213097 -3.99642e-20)
(1.19858 0.208946 -3.37731e-20)
(1.19373 0.203902 -3.1734e-20)
(1.18822 0.198398 9.41613e-20)
(1.18263 0.192692 0)
(1.17725 0.186933 4.83264e-20)
(1.17217 0.181201 4.14548e-20)
(1.16741 0.175551 -1.02004e-19)
(1.16292 0.170013 -7.1302e-20)
(1.15873 0.164188 6.58216e-20)
(0.0331736 -0.00380622 -3.98571e-20)
(0.137304 -0.00658916 -1.61367e-21)
(0.274407 0.00748655 3.59734e-20)
(0.432257 0.0339351 1.00592e-19)
(0.59698 0.0685755 2.92957e-20)
(0.754445 0.106965 -5.6645e-20)
(0.892783 0.144382 5.16672e-20)
(1.00458 0.176909 -4.53627e-20)
(1.08754 0.202205 8.16857e-20)
(1.14366 0.219606 3.49557e-20)
(1.17764 0.229748 -9.92918e-20)
(1.19516 0.234009 2.93449e-20)
(1.20159 0.233979 5.04104e-20)
(1.20126 0.231096 -2.47612e-20)
(1.19728 0.226478 0)
(1.19162 0.220894 3.73918e-20)
(1.18541 0.214828 6.37631e-20)
(1.17924 0.20856 1.1278e-20)
(1.17338 0.202245 -5.34923e-20)
(1.16792 0.195968 2.25883e-20)
(1.16286 0.189776 0)
(1.15816 0.183694 -1.80605e-20)
(1.15374 0.177691 -1.73508e-20)
(1.14954 0.171758 0)
(0.0492768 -0.00342966 0)
(0.183281 -0.00125426 2.09179e-20)
(0.34627 0.0218443 3.86493e-20)
(0.522863 0.0584096 -1.0281e-19)
(0.696318 0.101663 3.32866e-20)
(0.851588 0.1454 0)
(0.978449 0.184286 5.01471e-20)
(1.07296 0.214916 -7.00772e-20)
(1.13676 0.236137 -4.08679e-20)
(1.17507 0.248592 1.84757e-20)
(1.19448 0.253945 -2.98443e-20)
(1.20129 0.254156 7.23207e-20)
(1.20055 0.250998 3.64152e-20)
(1.19583 0.245829 -2.52169e-20)
(1.18936 0.239571 -2.25906e-21)
(1.18239 0.232791 -6.98953e-20)
(1.17556 0.225809 3.18972e-20)
(1.16914 0.218795 -8.58717e-22)
(1.16322 0.211839 0)
(1.1578 0.204993 -2.26119e-20)
(1.15282 0.198283 0)
(1.14821 0.191705 5.21248e-20)
(1.14388 0.185238 -6.24023e-20)
(1.13971 0.179099 2.85798e-20)
(0.0677573 -0.00123606 -1.09919e-20)
(0.233432 0.0091772 -5.27645e-20)
(0.420882 0.043464 6.0105e-20)
(0.611834 0.0906739 3.52593e-20)
(0.787861 0.141363 -1.67999e-20)
(0.934913 0.188128 2.83597e-20)
(1.04619 0.225923 -1.37358e-20)
(1.12208 0.252616 2.29448e-20)
(1.16796 0.2686 0)
(1.19137 0.275786 5.22592e-20)
(1.19977 0.276587 -2.11205e-21)
(1.19921 0.273229 -4.22717e-20)
(1.19398 0.267426 1.81446e-20)
(1.18674 0.260334 -2.05455e-20)
(1.17898 0.252651 -7.866e-21)
(1.17141 0.244764 9.06399e-21)
(1.16435 0.236872 -7.01631e-21)
(1.15789 0.229077 -3.84441e-20)
(1.15204 0.22143 2.35614e-20)
(1.14673 0.213962 4.85185e-21)
(1.14189 0.206681 4.30264e-21)
(1.13742 0.199563 3.82087e-21)
(1.1332 0.192647 0)
(1.12909 0.186185 0)
(0.0881509 0.00321336 1.09995e-20)
(0.286005 0.0253998 -1.09733e-20)
(0.495102 0.0725839 -2.00422e-20)
(0.695167 0.130106 0)
(0.86788 0.186302 -8.36039e-21)
(1.00217 0.233531 -7.56869e-21)
(1.09587 0.267981 -1.29554e-20)
(1.15375 0.289319 0)
(1.18415 0.299531 0)
(1.19591 0.301545 0)
(1.19646 0.298197 0)
(1.19111 0.291715 0)
(1.18322 0.283614 -1.13899e-20)
(1.17466 0.274802 5.18652e-21)
(1.16631 0.265777 9.0539e-21)
(1.15856 0.256784 4.24704e-21)
(1.15151 0.247943 1.05238e-20)
(1.14517 0.23931 0)
(1.13949 0.230913 -2.54853e-21)
(1.13439 0.22277 -2.46687e-21)
(1.12977 0.214868 -4.3095e-21)
(1.12552 0.207184 -3.82698e-21)
(1.1215 0.199831 0)
(1.11755 0.192926 2.79721e-21)
(-0.00115823 0.000288244 6.37391e-21)
(-0.00570917 -0.00054258 -6.62136e-21)
(-0.0140096 -0.00230403 -1.25459e-20)
(-0.0242333 -0.00455949 0)
(-0.0353616 -0.00702438 -1.67956e-20)
(-0.0468651 -0.00954157 5.26672e-21)
(-0.0583738 -0.0120456 -9.96861e-21)
(-0.06963 -0.0145327 0)
(-0.080469 -0.0170338 0)
(-0.0907906 -0.0195921 0)
(-0.100535 -0.022247 0)
(-0.109667 -0.0250247 0)
(-0.118164 -0.0279345 -1.15306e-23)
(-0.126009 -0.0309684 -6.51833e-21)
(-0.133189 -0.0341011 1.22773e-20)
(-0.139688 -0.0372913 1.72809e-20)
(-0.145497 -0.0404815 5.41129e-21)
(-0.150612 -0.043597 0)
(-0.155048 -0.046546 4.74519e-21)
(-0.158847 -0.0492213 -1.33433e-20)
(-0.162079 -0.0515055 -8.31269e-21)
(-0.164838 -0.0532702 -7.76756e-21)
(-0.167305 -0.0543595 0)
(-0.169941 -0.0546305 0)
(-0.00151107 0.00379062 -1.91851e-20)
(-0.00644398 0.0077463 3.30994e-20)
(-0.014883 0.00914365 -1.25237e-20)
(-0.0250818 0.00889201 -2.37812e-20)
(-0.0360688 0.00759666 3.3584e-20)
(-0.0473429 0.00564637 -2.11881e-20)
(-0.0585518 0.00328273 2.98951e-20)
(-0.0694489 0.000640809 1.88759e-20)
(-0.0798776 -0.00221627 0)
(-0.0897427 -0.00526701 -1.66751e-20)
(-0.0989879 -0.00850903 -4.84461e-23)
(-0.10758 -0.0119443 1.47283e-20)
(-0.115499 -0.0155704 2.08984e-20)
(-0.122727 -0.019375 2.6157e-20)
(-0.129249 -0.0233329 -1.22691e-20)
(-0.135046 -0.0274015 -3.45784e-20)
(-0.1401 -0.0315166 1.08001e-20)
(-0.144392 -0.0355867 -4.05701e-20)
(-0.147918 -0.0394873 0)
(-0.1507 -0.0430588 8.87745e-21)
(-0.152783 -0.0461085 8.30208e-21)
(-0.154194 -0.0484119 7.75752e-21)
(-0.155057 -0.0496948 0)
(-0.156164 -0.0497181 0)
(-0.00223865 0.00709986 0)
(-0.00793296 0.015627 6.68522e-20)
(-0.0165245 0.0200803 -2.52112e-20)
(-0.0264814 0.0217891 2.38475e-20)
(-0.036952 0.0216524 -6.76901e-20)
(-0.0475017 0.0202777 0)
(-0.057822 0.0180763 -4.01831e-20)
(-0.0676944 0.0153119 1.89364e-20)
(-0.076979 0.0121409 -3.57916e-20)
(-0.08559 0.00864969 1.69713e-20)
(-0.0934764 0.00488252 9.49966e-20)
(-0.100608 0.000861202 -4.4621e-20)
(-0.106964 -0.00340142 -6.98872e-20)
(-0.112529 -0.00789247 -2.63729e-20)
(-0.117283 -0.012592 3.6659e-23)
(-0.121203 -0.0174655 9.25551e-20)
(-0.124259 -0.0224562 -4.34185e-20)
(-0.126415 -0.0274738 -7.50767e-23)
(-0.127639 -0.0323819 0)
(-0.127919 -0.0369838 -3.54317e-20)
(-0.127258 -0.0410115 0)
(-0.125586 -0.0441141 -3.04204e-20)
(-0.12284 -0.0458557 1.13997e-19)
(-0.120183 -0.0458251 -4.57108e-22)
(-0.00327732 0.0100088 0)
(-0.0100556 0.0226407 2.76449e-22)
(-0.0188079 0.029908 2.56145e-20)
(-0.0283192 0.0334611 -2.42341e-20)
(-0.0379156 0.0344397 2.25242e-20)
(-0.0472608 0.0336409 1.28831e-19)
(-0.0561117 0.0316292 -4.03873e-20)
(-0.0642921 0.0287872 -3.82764e-20)
(-0.0716864 0.0253609 7.18263e-20)
(-0.0782216 0.0215004 -1.01364e-19)
(-0.0838515 0.0172923 3.18983e-20)
(-0.0885462 0.0127837 3.00658e-20)
(-0.0922834 0.00799921 0)
(-0.0950431 0.00295282 2.63522e-20)
(-0.0968029 -0.00234266 0)
(-0.0975355 -0.00786745 4.67039e-20)
(-0.0972059 -0.0135847 -8.69743e-20)
(-0.0957681 -0.0194271 2.07292e-20)
(-0.0931696 -0.0252776 7.62796e-20)
(-0.0893653 -0.030948 3.5399e-20)
(-0.0843321 -0.0361305 0)
(-0.0779649 -0.040354 -9.12398e-20)
(-0.0698919 -0.0429754 2.8739e-20)
(-0.0609025 -0.0432846 0)
(-0.00453459 0.0123613 0)
(-0.0126347 0.0284229 -8.15799e-20)
(-0.0215477 0.0381284 -2.59965e-20)
(-0.0304307 0.0433254 -4.86608e-20)
(-0.0388223 0.0453255 4.58203e-20)
(-0.046506 0.0450759 -4.30588e-20)
(-0.0533197 0.0432685 8.16294e-20)
(-0.05914 0.0403904 3.83987e-20)
(-0.0638807 0.036769 -1.08366e-19)
(-0.0674818 0.0326149 6.82106e-20)
(-0.0698987 0.0280576 -9.60818e-20)
(-0.0710961 0.0231724 2.11561e-19)
(-0.071042 0.0180001 -1.13407e-19)
(-0.0697054 0.0125615 5.34703e-20)
(-0.0670534 0.00686777 1.50021e-19)
(-0.0630505 0.000929395 -4.6925e-20)
(-0.0576565 -0.0052349 -4.43323e-20)
(-0.050823 -0.0115887 -4.10381e-20)
(-0.0425028 -0.0180667 0)
(-0.0326398 -0.0245313 -7.06143e-20)
(-0.0212043 -0.0307329 -6.45645e-20)
(-0.00824202 -0.0362361 9.23439e-20)
(0.00648845 -0.0401479 1.1119e-19)
(0.0246026 -0.0402298 -1.04713e-19)
(-0.00590576 0.0140695 0)
(-0.0154613 0.0327363 -1.10645e-19)
(-0.0245146 0.0443818 -4.57369e-22)
(-0.032599 0.050927 9.819e-20)
(-0.0394744 0.0537846 0)
(-0.0450533 0.0540075 0)
(-0.049263 0.0523856 0)
(-0.0520374 0.0494904 -3.86487e-20)
(-0.053321 0.045719 -1.03851e-22)
(-0.0530637 0.0413369 6.86733e-20)
(-0.0512164 0.0365151 -9.66666e-20)
(-0.0477285 0.0313595 -2.31898e-23)
(-0.0425474 0.0259324 0)
(-0.0356182 0.0202698 -5.34473e-20)
(-0.0268854 0.0143929 5.03783e-20)
(-0.0162942 0.00831752 -1.41647e-19)
(-0.00379676 0.00205973 1.76063e-19)
(0.0106417 -0.00435818 4.04104e-20)
(0.0270561 -0.0108941 -1.38433e-21)
(0.0454724 -0.0174677 -1.43212e-19)
(0.0658419 -0.0239596 -6.5998e-20)
(0.0880927 -0.0300867 2.11778e-19)
(0.112809 -0.0347317 -1.40898e-19)
(0.142949 -0.0347839 0)
(-0.00729191 0.0151177 5.44821e-20)
(-0.0183201 0.0354833 5.54736e-20)
(-0.0274489 0.048467 -5.30595e-20)
(-0.0345468 0.0559655 -9.94529e-20)
(-0.0395814 0.0594322 9.36445e-20)
(-0.0425907 0.0599849 -8.827e-20)
(-0.0435904 0.0584805 1.24777e-19)
(-0.0425705 0.0555534 -3.86501e-20)
(-0.0395021 0.0516556 7.35724e-20)
(-0.0343384 0.0470993 0)
(-0.0270165 0.0420934 6.53992e-20)
(-0.017461 0.0367746 -1.22798e-19)
(-0.00558844 0.0312312 1.14971e-19)
(0.00868777 0.0255211 -1.07986e-19)
(0.0254501 0.0196856 0)
(0.0447686 0.0137588 9.46887e-20)
(0.0666931 0.00777585 1.76728e-19)
(0.0912431 0.00177992 -1.65767e-19)
(0.118399 -0.00416903 -7.6897e-20)
(0.148099 -0.0100017 -7.03631e-20)
(0.180174 -0.0156394 1.9895e-19)
(0.214563 -0.02093 5.93965e-20)
(0.250044 -0.0253772 -5.70183e-20)
(0.297992 -0.024926 5.05178e-20)
(-0.00861423 0.0155544 -5.44895e-20)
(-0.0210079 0.0366967 1.70344e-19)
(-0.0300631 0.0503427 -5.37229e-20)
(-0.0359151 0.0583106 1.00603e-19)
(-0.0387086 0.0620556 -9.47264e-20)
(-0.0385936 0.0627281 4.29316e-22)
(-0.035664 0.0612254 4.2112e-20)
(-0.0299563 0.0582237 1.5834e-19)
(-0.0214581 0.0542154 2.93787e-23)
(-0.0101167 0.0495495 -6.95235e-20)
(0.00415237 0.0444691 0)
(0.0214533 0.0391415 -6.16827e-20)
(0.0418975 0.0336833 1.1561e-19)
(0.0655899 0.0281792 1.08273e-19)
(0.0926138 0.022697 -5.08744e-20)
(0.123015 0.0172978 6.96194e-23)
(0.156788 0.0120449 -4.43206e-20)
(0.193856 0.00700876 8.26129e-20)
(0.234063 0.00227176 7.68782e-20)
(0.27719 -0.00206097 -7.13014e-20)
(0.322659 -0.00594399 6.56618e-20)
(0.371374 -0.00892185 -6.0337e-20)
(0.41641 -0.0121643 0)
(0.485492 -0.008859 -5.04399e-20)
(-0.00981947 0.015472 5.57767e-20)
(-0.0233355 0.036509 -5.70649e-20)
(-0.032027 0.0501069 5.45016e-20)
(-0.0362227 0.0580025 0)
(-0.0362067 0.0616375 0)
(-0.0322196 0.0621763 9.07909e-20)
(-0.0244148 0.0605382 -8.46247e-20)
(-0.0128583 0.0574244 7.96782e-20)
(0.0024582 0.0533556 -3.73418e-19)
(0.0216005 0.0487108 9.76663e-23)
(0.0446704 0.0437638 6.59247e-20)
(0.0717824 0.0387128 0)
(0.103037 0.0337045 -1.15777e-19)
(0.138495 0.0288523 2.17176e-19)
(0.178152 0.0242501 -1.52636e-19)
(0.221911 0.0199813 -2.36958e-19)
(0.269571 0.016126 1.29197e-21)
(0.320803 0.0127652 1.65406e-19)
(0.375135 0.00997546 0)
(0.432134 0.00791511 0)
(0.490234 0.0063394 -6.56532e-20)
(0.552585 0.00669393 6.03277e-20)
(0.603865 0.00513245 -2.17008e-19)
(0.690578 0.0125418 2.03665e-19)
(-0.0108741 0.0149797 0)
(-0.0251096 0.0351081 0)
(-0.0329307 0.0479627 -1.64187e-19)
(-0.0348076 0.0552364 5.21963e-20)
(-0.0311295 0.0583669 2.82666e-22)
(-0.0221997 0.05853 9.18594e-20)
(-0.00820851 0.0566571 0)
(0.0107648 0.0534653 -8.02498e-20)
(0.0347287 0.0494968 7.48712e-20)
(0.0637466 0.0451571 -1.40953e-19)
(0.0978964 0.0407486 1.69164e-22)
(0.137227 0.0364977 1.23676e-19)
(0.181716 0.0325762 -3.44494e-22)
(0.231226 0.0291155 1.0793e-19)
(0.285478 0.026217 -1.52844e-19)
(0.344023 0.0239577 0)
(0.406238 0.0223949 1.75672e-19)
(0.471336 0.0215708 -2.47184e-19)
(0.538336 0.0214823 7.55741e-20)
(0.606476 0.0223134 0)
(0.67322 0.0233681 6.42928e-20)
(0.74308 0.0269685 2.35629e-19)
(0.796176 0.027079 -2.21133e-19)
(0.886574 0.0376369 -2.47917e-19)
(-0.0117439 0.014173 1.72426e-19)
(-0.0260911 0.0326883 -2.37232e-19)
(-0.032236 0.0441741 4.25902e-22)
(-0.030773 0.0503426 5.28295e-20)
(-0.0221725 0.0526542 -9.85659e-20)
(-0.00677937 0.0523031 -9.1372e-20)
(0.0151944 0.0502333 1.71637e-19)
(0.043653 0.0471763 -1.10678e-21)
(0.0785722 0.0436931 -1.51181e-19)
(0.119938 0.0402102 2.82473e-19)
(0.16768 0.0370481 -5.47663e-22)
(0.221603 0.0344441 -1.24154e-19)
(0.281333 0.032566 0)
(0.346276 0.0315215 0)
(0.415598 0.0313639 -5.06657e-20)
(0.488238 0.0320957 -9.37532e-20)
(0.562937 0.0336749 -1.74107e-19)
(0.638295 0.0360186 1.63431e-19)
(0.712822 0.0389967 -7.56018e-20)
(0.785222 0.0425931 1.373e-19)
(0.853243 0.0461433 -6.70228e-20)
(0.919523 0.0513631 1.13349e-19)
(0.969404 0.0529171 -2.70523e-19)
(1.0447 0.0637106 4.93159e-20)
(-0.0123622 0.0131091 5.82743e-20)
(-0.0259371 0.0294081 0)
(-0.0292095 0.0390318 1.12958e-19)
(-0.0229265 0.0437716 -1.06411e-19)
(-0.00763801 0.0451361 9.86557e-20)
(0.0162728 0.0443512 0)
(0.0485537 0.042378 0)
(0.0890323 0.0399598 -8.09523e-20)
(0.137533 0.0376654 7.87715e-22)
(0.193776 0.0359196 7.14066e-20)
(0.257289 0.0350255 -6.60218e-20)
(0.327324 0.0351765 1.24289e-19)
(0.402824 0.0364644 0)
(0.482421 0.038886 2.14971e-19)
(0.564478 0.0423507 -4.01815e-19)
(0.647164 0.0466915 2.81553e-19)
(0.728566 0.0516842 1.7187e-19)
(0.80679 0.0570476 -1.61335e-19)
(0.880128 0.0625392 0)
(0.946996 0.0677507 0)
(1.00643 0.0726745 0)
(1.05789 0.0768338 0)
(1.09815 0.0795274 5.30692e-20)
(1.14383 0.0853578 -1.91194e-19)
(-0.173808 -0.0541508 -4.79359e-21)
(-0.178831 -0.0529367 4.81642e-21)
(-0.183509 -0.0500263 -1.43439e-22)
(-0.188155 -0.0451247 0)
(-0.19279 -0.0380065 -4.3529e-21)
(-0.197407 -0.028448 8.44483e-21)
(-0.201989 -0.0162713 -2.13749e-23)
(-0.206463 -0.00135195 -3.961e-21)
(-0.210889 0.0163071 0)
(-0.215223 0.0364298 0)
(-0.219239 0.0587048 -2.15805e-22)
(-0.222795 0.0826228 -2.0807e-22)
(-0.225721 0.107439 -3.47544e-21)
(-0.227805 0.132147 3.18296e-21)
(-0.22877 0.155483 0)
(-0.228232 0.175948 0)
(-0.225648 0.19179 2.78577e-21)
(-0.220286 0.201053 -2.01979e-23)
(-0.211249 0.201766 -2.44558e-21)
(-0.197571 0.192155 -1.62112e-22)
(-0.178327 0.170806 0)
(-0.152982 0.13751 0)
(-0.121613 0.092691 0)
(-0.0842014 0.0380728 0)
(-0.0424212 -0.0214919 0)
(0.00170237 -0.0822549 0)
(0.046012 -0.138135 4.79575e-22)
(0.0870301 -0.183858 -8.06712e-22)
(0.121384 -0.215797 0)
(0.146867 -0.232752 0)
(0.163845 -0.234944 -1.56651e-22)
(0.176318 -0.22258 1.52245e-22)
(0.191966 -0.195866 1.53316e-23)
(0.218557 -0.155668 0)
(0.25992 -0.105982 0)
(0.314088 -0.0530109 -6.55993e-23)
(0.374614 -0.00401302 6.37629e-23)
(0.434846 0.0360765 0)
(0.488941 0.0641319 -9.62818e-23)
(0.534365 0.0807784 1.43438e-22)
(0.570169 0.0869593 -4.88566e-23)
(0.598438 0.0853817 0)
(0.621569 0.077091 8.40508e-23)
(0.643355 0.064538 -8.17292e-23)
(0.665593 0.0483396 0)
(0.689944 0.0313494 0)
(0.714785 0.0142934 2.57563e-23)
(0.740063 5.91663e-05 -7.15352e-23)
(0.762333 -0.0114927 0)
(0.783548 -0.0185265 0)
(0.799723 -0.0223095 1.47746e-23)
(0.816925 -0.0220131 -8.38176e-27)
(0.82884 -0.019168 1.71031e-24)
(0.8459 -0.0136902 -8.77393e-24)
(0.856291 -0.00706137 0)
(0.875084 1.40111e-05 0)
(0.883686 0.00662797 0)
(0.903078 0.0120011 0)
(0.908169 0.0159909 0)
(0.927459 0.0191068 0)
(-0.159341 -0.0486508 -4.5687e-22)
(-0.164718 -0.0478073 -1.87579e-20)
(-0.169314 -0.0452791 3.20317e-22)
(-0.173875 -0.0406631 1.73028e-20)
(-0.178437 -0.0337988 2.58137e-22)
(-0.182949 -0.0244754 0)
(-0.187352 -0.0125427 -1.52747e-20)
(-0.191625 0.00210329 3.00184e-20)
(-0.195758 0.0193393 -1.47405e-20)
(-0.199562 0.0389733 1.38778e-20)
(-0.202731 0.0606563 -1.32734e-20)
(-0.204968 0.0838695 1.27438e-20)
(-0.205944 0.107851 -1.23654e-20)
(-0.205264 0.131562 -3.70772e-22)
(-0.202457 0.153687 -1.17651e-20)
(-0.196977 0.17265 1.14337e-20)
(-0.188201 0.18662 -1.12362e-20)
(-0.175414 0.193565 1.05737e-20)
(-0.15787 0.191506 -1.10714e-20)
(-0.135006 0.178797 2.15261e-20)
(-0.106236 0.153969 -1.0462e-20)
(-0.0716963 0.117564 -6.68222e-22)
(-0.032405 0.0699099 -9.82116e-21)
(0.0116714 0.0138996 1.86977e-20)
(0.0591085 -0.0475338 -8.89548e-21)
(0.107228 -0.108493 4.97669e-22)
(0.154178 -0.162986 6.06409e-21)
(0.196618 -0.205584 -1.0224e-21)
(0.231092 -0.232782 -7.644e-21)
(0.254754 -0.244131 5.25639e-21)
(0.266623 -0.241447 -2.0454e-21)
(0.268487 -0.226856 8.70184e-23)
(0.266657 -0.201671 -1.53613e-23)
(0.26989 -0.166123 -4.46554e-23)
(0.285956 -0.12202 0)
(0.31713 -0.0732104 0)
(0.360172 -0.0258389 3.98943e-22)
(0.40889 0.0152764 -2.78867e-22)
(0.457128 0.0460698 -3.09797e-22)
(0.501079 0.0660716 -5.21495e-23)
(0.539187 0.0753014 4.46439e-22)
(0.572531 0.0758986 -9.2373e-23)
(0.603119 0.0687133 0)
(0.633409 0.0564538 0)
(0.664298 0.0401618 0)
(0.69594 0.023215 0)
(0.726265 0.00653449 -1.0108e-22)
(0.754698 -0.00682894 4.65297e-23)
(0.778213 -0.0173446 0)
(0.798927 -0.0232419 0)
(0.813375 -0.0261967 0)
(0.827949 -0.0252136 2.35079e-23)
(0.836602 -0.0221587 -3.33559e-24)
(0.850441 -0.0164829 1.90254e-23)
(0.857545 -0.00993126 0)
(0.874076 -0.00273336 0)
(0.880553 0.00393897 -7.96636e-24)
(0.899315 0.00957315 -1.89993e-23)
(0.903563 0.0137333 0)
(0.923367 0.0172114 0)
(-0.121079 -0.044037 -1.45883e-22)
(-0.126699 -0.0436848 -3.74536e-20)
(-0.130789 -0.0417278 3.5903e-20)
(-0.13468 -0.0375518 -3.35839e-20)
(-0.13854 -0.031102 -2.59905e-22)
(-0.142254 -0.0221767 0)
(-0.145731 -0.0106737 -2.99295e-20)
(-0.148927 0.00342162 2.9301e-20)
(-0.151836 0.0201381 2.21082e-22)
(-0.154227 0.0391096 4.02619e-22)
(-0.155646 0.0599858 3.88258e-22)
(-0.155689 0.0822485 3.96703e-22)
(-0.153921 0.105119 -2.40003e-20)
(-0.149835 0.127526 2.36978e-20)
(-0.142844 0.148112 0)
(-0.132334 0.165246 6.99954e-22)
(-0.117728 0.177057 -2.27285e-20)
(-0.0984429 0.181537 2.24327e-20)
(-0.0739471 0.176772 0)
(-0.0442657 0.161243 0)
(-0.00882312 0.134116 -2.33874e-20)
(0.0320061 0.0953482 4.56583e-20)
(0.0767219 0.0457875 -4.30736e-20)
(0.124027 -0.0112129 1.4579e-21)
(0.173385 -0.0733649 3.68713e-20)
(0.223048 -0.134171 -3.34568e-20)
(0.270465 -0.187315 2.67432e-20)
(0.312559 -0.226933 -3.32378e-21)
(0.346229 -0.249532 -9.34853e-21)
(0.368942 -0.255045 0)
(0.379465 -0.246344 0)
(0.377766 -0.227241 1.6196e-22)
(0.36731 -0.20076 -3.19333e-22)
(0.354931 -0.167748 -1.86372e-23)
(0.349767 -0.12877 -8.07212e-22)
(0.357866 -0.0853183 7.84475e-22)
(0.380517 -0.0416365 0)
(0.413822 -0.00190408 -1.09351e-22)
(0.452638 0.0296744 -1.01106e-21)
(0.492469 0.0514331 1.94753e-21)
(0.53123 0.062503 -8.25866e-22)
(0.568587 0.0644451 -9.03745e-23)
(0.605614 0.0579446 7.95034e-22)
(0.642968 0.0459787 -6.14818e-22)
(0.680473 0.0299498 -1.24876e-22)
(0.716966 0.0136069 -1.08522e-22)
(0.750262 -0.00203666 1.01335e-22)
(0.779607 -0.0139866 0)
(0.802612 -0.0230668 0)
(0.821604 -0.027534 2.70431e-22)
(0.83365 -0.0294676 -1.29121e-22)
(0.845185 -0.0276744 1.07199e-22)
(0.850447 -0.0243684 -1.37655e-22)
(0.860745 -0.0185175 -1.49051e-22)
(0.864351 -0.0121475 3.47617e-23)
(0.877979 -0.00496212 -5.01314e-23)
(0.881945 0.00159634 3.79422e-23)
(0.899233 0.00734564 -1.64982e-23)
(0.902336 0.0115659 0)
(0.921796 0.0153066 0)
(-0.0585326 -0.0402649 -7.6586e-20)
(-0.0648605 -0.0405041 2.05313e-21)
(-0.0687387 -0.0393616 7.06169e-20)
(-0.0720014 -0.0358626 -5.3144e-22)
(-0.0751592 -0.0300608 0)
(-0.0780097 -0.0217461 0)
(-0.080457 -0.0108753 -5.77872e-20)
(-0.0823152 0.00243579 5.42535e-22)
(-0.0835969 0.0183733 7.98737e-20)
(-0.084174 0.0364085 -6.63888e-22)
(-0.0834453 0.0562273 -2.49325e-20)
(-0.0809498 0.0772999 -2.30053e-20)
(-0.0762274 0.0988101 2.30605e-20)
(-0.0687404 0.119667 0)
(-0.0578769 0.13851 -2.27722e-20)
(-0.0430356 0.15372 2.07249e-20)
(-0.0237085 0.163462 0)
(0.000541191 0.165794 0)
(0.0300188 0.158856 2.36526e-20)
(0.0645031 0.141252 9.29731e-22)
(0.103985 0.112863 -2.25029e-20)
(0.148017 0.0728244 -2.43501e-20)
(0.19509 0.0225011 2.44219e-20)
(0.243747 -0.0357937 -2.20283e-20)
(0.293569 -0.0977673 2.16243e-21)
(0.342827 -0.158128 1.86503e-20)
(0.388941 -0.209914 1.84102e-21)
(0.428754 -0.246825 -3.08493e-23)
(0.459594 -0.265391 0)
(0.479814 -0.265841 4.41673e-21)
(0.489108 -0.251566 -4.49162e-21)
(0.487263 -0.227255 7.98193e-23)
(0.475568 -0.197334 0)
(0.457436 -0.164054 6.39537e-23)
(0.44013 -0.128156 -1.90016e-21)
(0.430914 -0.0896843 3.68154e-21)
(0.434994 -0.0507855 3.61628e-22)
(0.452052 -0.0143455 -1.46218e-23)
(0.479342 0.0159215 -1.74208e-21)
(0.512632 0.0376315 -2.22394e-22)
(0.5497 0.0491778 1.57284e-21)
(0.58873 0.0516101 -1.34438e-21)
(0.629554 0.0454635 -6.13009e-24)
(0.670976 0.0339112 -5.31757e-22)
(0.711791 0.018552 6.42258e-22)
(0.749927 0.00336118 7.24176e-22)
(0.783311 -0.0106893 -2.101e-22)
(0.811297 -0.0208812 -3.25792e-22)
(0.832202 -0.0283002 6.09288e-22)
(0.848532 -0.0312112 -4.2252e-22)
(0.857825 -0.0320494 1.11242e-22)
(0.866298 -0.0293962 -1.30819e-22)
(0.868467 -0.0258126 -1.0434e-22)
(0.875371 -0.0197968 2.28229e-22)
(0.875732 -0.0136735 -6.70262e-24)
(0.886213 -0.00660832 5.1486e-23)
(0.887615 -0.00030709 0)
(0.902794 0.00541371 1.63706e-23)
(0.904597 0.00958639 -2.10217e-23)
(0.922912 0.0134704 0)
(0.0307748 -0.0369084 7.69409e-20)
(0.0226826 -0.0371013 -1.48261e-19)
(0.017904 -0.0368396 7.06187e-20)
(0.0144023 -0.0345328 6.57543e-20)
(0.0111107 -0.0297854 -1.26708e-19)
(0.00830859 -0.0225477 1.95789e-21)
(0.00603922 -0.0128167 5.78622e-20)
(0.00478213 -0.000504761 5.33281e-20)
(0.00453644 0.0140834 -5.22416e-20)
(0.00527464 0.030827 0)
(0.00773418 0.0493183 -4.73552e-20)
(0.0123369 0.068974 9.21497e-20)
(0.0195076 0.088974 -4.48542e-20)
(0.0297645 0.108233 0)
(0.043697 0.125407 0)
(0.0618524 0.138896 7.04633e-22)
(0.0846024 0.146906 -4.66099e-20)
(0.112193 0.14762 4.52785e-20)
(0.144769 0.139269 0)
(0.181979 0.1206 5.11749e-20)
(0.223553 0.0912486 -9.82196e-20)
(0.268953 0.0507909 9.80577e-20)
(0.316737 0.000213208 -9.74504e-20)
(0.36566 -0.0579463 1.61922e-21)
(0.415111 -0.119687 8.53555e-20)
(0.463057 -0.179389 -4.04291e-20)
(0.50661 -0.229688 -9.52422e-22)
(0.542436 -0.263983 -9.90951e-21)
(0.568342 -0.279001 2.90226e-21)
(0.583774 -0.275426 7.23321e-21)
(0.589803 -0.256951 2.02751e-22)
(0.587269 -0.228418 -5.68533e-22)
(0.577059 -0.194759 -1.59306e-22)
(0.560029 -0.159359 8.38553e-22)
(0.540049 -0.124015 0)
(0.522633 -0.088708 2.52858e-21)
(0.514394 -0.0542155 -2.47536e-21)
(0.518103 -0.0218877 1.89369e-21)
(0.534102 0.005415 -2.36433e-21)
(0.559527 0.0254997 2.32982e-22)
(0.59256 0.0362685 0)
(0.630335 0.0384297 1.76831e-22)
(0.671493 0.0323843 -4.61938e-22)
(0.713311 0.0213753 0)
(0.753775 0.00701788 -1.11813e-21)
(0.790356 -0.00649263 4.54984e-22)
(0.821207 -0.0187458 -1.86137e-22)
(0.845958 -0.0270363 -1.61177e-22)
(0.863581 -0.0327635 0)
(0.876678 -0.0341587 0)
(0.883164 -0.0339445 3.50631e-22)
(0.888844 -0.0304586 -5.30239e-22)
(0.888503 -0.0265929 2.87094e-22)
(0.892515 -0.0204154 -9.06011e-23)
(0.89025 -0.0145596 -1.40628e-22)
(0.897729 -0.00768579 -5.15347e-23)
(0.89684 -0.00173668 7.73709e-23)
(0.909558 0.0038334 0)
(0.910076 0.00786709 3.45467e-23)
(0.926614 0.0117712 1.02378e-23)
(0.149854 -0.0322811 7.79182e-20)
(0.140972 -0.0323066 -7.72941e-20)
(0.132854 -0.0330374 5.56465e-22)
(0.127283 -0.0321803 -5.20409e-22)
(0.122368 -0.0288731 4.97641e-22)
(0.117902 -0.0231586 -4.70397e-22)
(0.114265 -0.0150051 8.70909e-22)
(0.111764 -0.00428321 0)
(0.11071 0.00854846 -7.79989e-22)
(0.111376 0.0236063 7.45262e-22)
(0.114087 0.0404021 7.17612e-22)
(0.11939 0.0583641 -7.18852e-22)
(0.127705 0.076706 0)
(0.139461 0.0943546 0)
(0.155138 0.109973 6.83345e-22)
(0.175174 0.121964 0)
(0.199854 0.128568 -7.11753e-22)
(0.229283 0.128102 0)
(0.263454 0.11893 -4.84405e-20)
(0.301929 0.0998367 9.80383e-20)
(0.344333 0.0702402 -9.96264e-20)
(0.390044 0.0299831 5.01204e-20)
(0.437897 -0.020196 4.96728e-20)
(0.486685 -0.0775964 -4.82316e-20)
(0.535249 -0.138661 -4.34195e-20)
(0.581187 -0.197311 4.20343e-20)
(0.621015 -0.245808 0)
(0.651264 -0.27742 8.04858e-22)
(0.670413 -0.289268 0)
(0.679156 -0.282614 0)
(0.679898 -0.261405 4.69488e-21)
(0.674716 -0.230323 -5.01311e-21)
(0.665149 -0.194101 8.58143e-24)
(0.651263 -0.156453 -1.49269e-22)
(0.634298 -0.120122 2.22501e-22)
(0.616772 -0.0858825 2.31752e-21)
(0.604049 -0.054289 -2.25032e-21)
(0.600038 -0.0256845 2.514e-21)
(0.607495 -0.00208512 -2.16634e-21)
(0.625456 0.0155477 -4.68258e-22)
(0.653008 0.0246877 1.54425e-21)
(0.686995 0.0260222 -1.22816e-23)