/*--------------------------------*- C++ -*----------------------------------*\
| =========                 |                                                 |
| \\      /  F ield         | OpenFOAM: The Open Source CFD Toolbox           |
|  \\    /   O peration     | Version:  2512                                  |
|   \\  /    A nd           | Website:  www.openfoam.com                      |
|    \\/     M anipulation  |                                                 |
\*---------------------------------------------------------------------------*/
FoamFile
{
    version     2.0;
    format      ascii;
    arch        "LSB;label=32;scalar=64";
    class       surfaceScalarField;
    location    "137";
    object      phi;
}
// * * * * * * * * * * * * * * * * * * * * * * * * * * * * * * * * * * * * * //

dimensions      [0 3 -1 0 0 0 0];

oriented        oriented;

internalField   nonuniform List<scalar> 
26232
(
9.42106e-06
0.000807474
-0.000816895
0.000192599
0.00128726
-0.00147044
0.000722939
0.000843892
-0.00137423
0.00178129
-0.00043606
-0.000622296
0.00354963
-0.00251333
0.000744999
0.00620436
-0.00537136
0.00271663
0.0099064
-0.00899923
0.00529719
0.0147883
-0.013375
0.00849307
0.0209394
-0.0184514
0.0123003
0.0283914
-0.024147
0.016695
0.0371078
-0.0303444
0.021628
0.0469806
-0.036896
0.0270232
0.0578342
-0.043635
0.0327814
0.0694376
-0.0503897
0.0387863
0.0815232
-0.0569992
0.0449136
0.0938083
-0.0633262
0.0510411
0.106018
-0.069267
0.0570574
0.117905
-0.0747573
0.0628702
0.129269
-0.079772
0.0684083
0.139964
-0.0843315
0.0736366
0.149906
-0.0884641
0.0785217
0.159069
-0.0922998
0.0831365
0.167458
-0.0957677
0.0873786
-0.099335
0.0919053
0.174888
9.32144e-05
0.000714259
0.000534468
0.000846009
0.00150869
-0.000130329
0.0032085
-0.00213587
0.00582421
-0.00512904
0.00953002
-0.00907717
0.0144654
-0.0139346
0.0207139
-0.0196235
0.0282841
-0.0260216
0.0370971
-0.0329599
0.0469847
-0.0402321
0.0577013
-0.0476126
0.0689459
-0.0548796
0.0803926
-0.0618364
0.0917228
-0.0683295
0.102656
-0.0742594
0.112973
-0.0795844
0.122533
-0.0843174
0.131278
-0.0885168
0.139223
-0.0922766
0.146459
-0.0957002
0.153094
-0.0989348
0.159303
-0.101976
-0.105255
0.165222
0.000177949
0.00053631
0.000891164
0.000132795
0.0023408
-0.00157997
0.0047287
-0.00452377
0.00824194
-0.00864228
0.0130287
-0.0138639
0.0191701
-0.0200759
0.0266543
-0.0271077
0.0353614
-0.0347287
0.0450649
-0.0426635
0.0554526
-0.0506197
0.0661616
-0.0583217
0.0768229
-0.0655409
0.0871039
-0.0721174
0.0967444
-0.0779699
0.105579
-0.0830939
0.113544
-0.0875499
0.120673
-0.0914458
0.127071
-0.0949154
0.132894
-0.0980994
0.138317
-0.101123
0.14349
-0.104108
0.14858
-0.107066
-0.110299
0.153625
0.000269739
0.000266571
0.00127716
-0.000874626
0.00323754
-0.00354034
0.00635175
-0.00763798
0.0107807
-0.0130712
0.0166097
-0.019693
0.0238147
-0.0272809
0.0322419
-0.0355349
0.0416128
-0.0440997
0.0515552
-0.0526058
0.0616535
-0.0607181
0.0715081
-0.0681763
0.0807875
-0.0748203
0.0892657
-0.0805956
0.0968381
-0.0855424
0.103516
-0.0897718
0.109403
-0.0934368
0.114661
-0.0967036
0.119473
-0.0997278
0.124013
-0.102639
0.128425
-0.105534
0.132803
-0.108487
0.137231
-0.111494
-0.114757
0.141689
0.000374491
-0.000107919
0.00170468
-0.00220482
0.00420875
-0.00604441
0.00806524
-0.0114945
0.0133736
-0.0183796
0.0201103
-0.0264296
0.0281008
-0.0352714
0.0370246
-0.0444587
0.0464561
-0.0535313
0.0559328
-0.0620825
0.065029
-0.0698143
0.0734179
-0.0765651
0.0809073
-0.0823096
0.0874456
-0.0871339
0.0931012
-0.091198
0.0980241
-0.0946946
0.102402
-0.0978147
0.106422
-0.100723
0.110241
-0.103547
0.113978
-0.106377
0.117711
-0.109267
0.12148
-0.112255
0.12532
-0.115335
-0.118632
0.129196
0.000495399
-0.000603318
0.00217615
-0.00388557
0.0052414
-0.00910966
0.00981429
-0.0160674
0.0158885
-0.0244538
0.0232876
-0.0338287
0.0316636
-0.0436474
0.0405459
-0.053341
0.0494257
-0.062411
0.0578481
-0.070505
0.065484
-0.0774501
0.072164
-0.0832451
0.0778741
-0.0880198
0.0827209
-0.0919807
0.0868811
-0.0953581
0.0905523
-0.0983658
0.0939156
-0.101178
0.0971143
-0.103922
0.100249
-0.106683
0.103384
-0.109512
0.106555
-0.112438
0.109778
-0.115477
0.113069
-0.118626
-0.121952
0.116389
0.000631551
-0.00123487
0.00267989
-0.0059339
0.0062933
-0.0127231
0.0114978
-0.0212719
0.018138
-0.031094
0.0258596
-0.0415503
0.0341576
-0.0519454
0.0424759
-0.0616593
0.0503201
-0.0702552
0.0573425
-0.0775274
0.0633788
-0.0834864
0.068434
-0.0883003
0.072636
-0.0922219
0.0761761
-0.0955208
0.0792554
-0.0984374
0.0820494
-0.10116
0.0846915
-0.10382
0.0872725
-0.106503
0.089848
-0.109258
0.0924493
-0.112113
0.095092
-0.115081
0.097781
-0.118166
0.100522
-0.121367
-0.124712
0.103281
0.000777918
-0.00201279
0.00319086
-0.00834685
0.00729758
-0.0168298
0.0129844
-0.0269588
0.0199178
-0.0380274
0.0275756
-0.0492081
0.0353546
-0.0597243
0.0427059
-0.0690106
0.0492418
-0.076791
0.0547789
-0.0830646
0.059322
-0.0880295
0.0630067
-0.091985
0.0660314
-0.0952467
0.0686004
-0.0980898
0.070887
-0.100724
0.0730199
-0.103293
0.0750848
-0.105885
0.0771335
-0.108551
0.0791945
-0.111319
0.0812823
-0.114201
0.0834029
-0.117201
0.0855571
-0.12032
0.0877458
-0.123556
-0.126911
0.0899451
0.000926328
-0.00293911
0.0036748
-0.0110953
0.00817453
-0.0213295
0.0141391
-0.0329233
0.0210553
-0.0449436
0.0282802
-0.0564331
0.0351971
-0.0666413
0.0413514
-0.0751649
0.0465134
-0.0819531
0.0506653
-0.0872165
0.0539373
-0.0913014
0.0565306
-0.0945783
0.0586534
-0.0973695
0.0604815
-0.0999179
0.0621439
-0.102386
0.063725
-0.104874
0.0652751
-0.107435
0.066822
-0.110098
0.0683797
-0.112877
0.0699549
-0.115776
0.0715497
-0.118796
0.0731639
-0.121935
0.0747957
-0.125188
-0.128546
0.0764305
0.0010665
-0.00400562
0.00409344
-0.0141223
0.00884583
-0.0260819
0.0148506
-0.0389281
0.0214458
-0.0515388
0.0279406
-0.0629278
0.033787
-0.0724876
0.0386768
-0.0800547
0.0425431
-0.0858193
0.0454947
-0.0901681
0.0477298
-0.0935365
0.0494618
-0.0963103
0.0508733
-0.0987809
0.0520982
-0.101143
0.0532236
-0.103512
0.054301
-0.105951
0.0553583
-0.108493
0.0564103
-0.11115
0.057464
-0.113931
0.0585227
-0.116835
0.0595869
-0.11986
0.0606557
-0.123003
0.0617265
-0.126258
-0.129611
0.0627917
0.00118783
-0.00519345
0.0044113
-0.0173457
0.00924875
-0.0309194
0.015052
-0.0447313
0.021067
-0.0575538
0.0266328
-0.0684936
0.0313273
-0.0771822
0.035001
-0.0837284
0.0377191
-0.0885374
0.0396667
-0.0921157
0.0410615
-0.0949313
0.0420962
-0.0973451
0.0429148
-0.0995994
0.043611
-0.101839
0.0442402
-0.104141
0.0448322
-0.106543
0.0454025
-0.109063
0.045959
-0.111707
0.0465058
-0.114477
0.0470446
-0.117374
0.0475754
-0.120391
0.0480966
-0.123525
0.0486045
-0.126766
-0.130103
0.0490964
0.00128339
-0.00647684
0.00460359
-0.0206659
0.00934682
-0.0356626
0.0147274
-0.0501119
0.0199699
-0.0627963
0.0245066
-0.0730303
0.0280646
-0.0807402
0.0306333
-0.0862971
0.0323665
-0.0902707
0.0334805
-0.0932297
0.0341801
-0.0956309
0.0346237
-0.0977887
0.0349166
-0.0998924
0.0351212
-0.102043
0.0352708
-0.104291
0.0353826
-0.106655
0.0354651
-0.109145
0.0355231
-0.111765
0.0355595
-0.114514
0.0355754
-0.11739
0.0355712
-0.120387
0.0355452
-0.123499
0.0354936
-0.126715
0.0354161
-0.130025
-0.00022399
-0.00260649
0.00283048
-0.000821605
-0.00628588
0.0068835
-0.00174443
-0.00886067
0.00978349
-0.00294484
-0.0105537
0.0117541
-0.0043764
-0.0115778
0.0130094
-0.00599765
-0.0121262
0.0137475
-0.0077743
-0.0123556
0.0141322
-0.00967925
-0.0123762
0.0142811
-0.0116911
-0.0122506
0.0142625
-0.0137919
-0.0119994
0.0141001
-0.0159643
-0.0116102
0.0137827
-0.0181897
-0.0110481
0.0132734
-0.0204458
-0.010264
0.0125202
-0.0227057
-0.00920223
0.0114621
-0.0249365
-0.00780418
0.0100349
-0.0270987
-0.006012
0.00817425
-0.0291458
-0.00376996
0.0058171
-0.0310146
-0.00102624
0.00289495
-0.0326526
0.0022093
-0.000571258
-0.034017
0.0060017
-0.00463735
-0.0350377
0.0103398
-0.00931901
-0.0356655
0.0152009
-0.0145731
-0.035884
0.0205603
-0.0203419
0.0263821
-0.0357625
-0.0265036
-0.000306111
-0.00230038
-0.00107578
-0.00551622
-0.00221373
-0.00772271
-0.00364277
-0.00912467
-0.00530026
-0.00992033
-0.00713802
-0.0102885
-0.00912098
-0.0103726
-0.0112242
-0.0102729
-0.0134292
-0.0100456
-0.0157197
-0.00970883
-0.0180788
-0.00925118
-0.0204855
-0.00864136
-0.0229132
-0.00783629
-0.0253281
-0.0067873
-0.0276887
-0.00544362
-0.029944
-0.00375671
-0.0320346
-0.00167938
-0.0338676
0.000806745
-0.0353994
0.00374113
-0.0365393
0.00714158
-0.0372096
0.0110101
-0.0373417
0.0153331
-0.0368759
0.0200945
0.0253266
-0.0358204
-0.000365769
-0.00193461
-0.00125463
-0.00462736
-0.00253203
-0.00644532
-0.00409509
-0.00756161
-0.00586586
-0.00814955
-0.00778791
-0.00836641
-0.00982196
-0.00833859
-0.0119406
-0.00815428
-0.0141229
-0.00786335
-0.0163493
-0.00748244
-0.0185977
-0.00700277
-0.0208406
-0.00639846
-0.023043
-0.0056339
-0.0251612
-0.00466909
-0.0271409
-0.00346391
-0.0289191
-0.00197853
-0.0304131
-0.000185303
-0.0315452
0.00193877
-0.03222
0.00441592
-0.0323317
0.00725331
-0.0317756
0.010454
-0.030459
0.0140164
-0.0282939
0.0179294
0.0222041
-0.0251714
-0.000402148
-0.00153246
-0.00135817
-0.00367133
-0.0027036
-0.00509989
-0.00431472
-0.00595048
-0.00609971
-0.00636457
-0.00799264
-0.00647348
-0.00994703
-0.0063842
-0.011929
-0.00617235
-0.0139106
-0.00588173
-0.0158646
-0.0055284
-0.0177601
-0.00510726
-0.0195596
-0.00459902
-0.0212171
-0.00397641
-0.0226771
-0.00320902
-0.0238741
-0.00226694
-0.0247293
-0.00112329
-0.0251567
0.000242058
-0.0250612
0.00184331
-0.0243323
0.00368701
-0.0228503
0.00577128
-0.0204858
0.00808949
-0.0171086
0.0106392
-0.0126154
0.0134362
0.0166461
-0.0070574
-0.000417151
-0.00111531
-0.0013934
-0.00269508
-0.00274437
-0.00374892
-0.00433104
-0.00436382
-0.00604982
-0.00464578
-0.00782508
-0.00469822
-0.00960132
-0.00460796
-0.0113356
-0.00443812
-0.0129904
-0.0042269
-0.0145283
-0.00399045
-0.0159077
-0.00372788
-0.0170798
-0.00342692
-0.0179874
-0.00306886
-0.0185637
-0.00263268
-0.0187324
-0.0020982
-0.0184073
-0.00144843
-0.0174933
-0.000671961
-0.015886
0.000236066
-0.0134707
0.00127169
-0.0101205
0.0024211
-0.00569488
0.00366383
-3.68119e-05
0.00498117
0.00702201
0.0063774
0.00790227
0.0157658
-0.000413394
-0.000701914
-0.00136878
-0.0017397
-0.00267134
-0.00244636
-0.00417234
-0.00286281
-0.00575912
-0.003059
-0.00734692
-0.00311042
-0.00887067
-0.00308421
-0.0102771
-0.00303164
-0.0115182
-0.00298588
-0.0125452
-0.00296346
-0.0133052
-0.00296781
-0.0137388
-0.00299339
-0.0137781
-0.00302954
-0.0133472
-0.00306359
-0.0123617
-0.00308366
-0.0107296
-0.00308057
-0.0083515
-0.00305003
-0.00512187
-0.00299357
-0.000928677
-0.0029215
0.00434546
-0.00285303
0.0108318
-0.00282247
0.0186824
-0.00286947
0.0280372
-0.00297736
-0.00352133
0.0394608
-0.000392756
-0.000309158
-0.00128969
-0.000842768
-0.00249378
-0.00124227
-0.00385149
-0.0015051
-0.00524338
-0.0016671
-0.00657615
-0.00177765
-0.00777458
-0.00188578
-0.00877404
-0.00203218
-0.0095141
-0.00224582
-0.00993358
-0.00254398
-0.00996715
-0.00293425
-0.00954334
-0.0034172
-0.00858377
-0.00398911
-0.00700315
-0.00464421
-0.00471006
-0.00537676
-0.00160787
-0.00618276
0.00240352
-0.00706142
0.00742753
-0.00801759
0.0135686
-0.0090626
0.0209322
-0.0102166
0.0296155
-0.0115057
0.0397658
-0.0130198
0.0513299
-0.0145414
-0.0173566
0.0651652
-0.000355928
4.67701e-05
-0.00115711
-4.15813e-05
-0.0022108
-0.000188586
-0.00336192
-0.000353978
-0.00448523
-0.000543794
-0.00547804
-0.000784841
-0.00625307
-0.00111075
-0.00673136
-0.00155389
-0.00683678
-0.0021404
-0.00649188
-0.00288888
-0.00561529
-0.00381083
-0.00412065
-0.00491184
-0.00191675
-0.00619301
0.00109144
-0.0076524
0.00500106
-0.00928638
0.00990928
-0.011091
0.0159114
-0.0130635
0.0230978
-0.0152041
0.0315525
-0.0175173
0.0413529
-0.020017
0.0525439
-0.0226968
0.0652508
-0.0257267
0.0792157
-0.0285063
-0.0334126
0.0952717
-0.000303178
0.000349948
-0.000970252
0.000625493
-0.00181654
0.000657702
-0.00268682
0.000516306
-0.00344904
0.00021842
-0.00398836
-0.000245516
-0.00420213
-0.000896989
-0.00399241
-0.00176361
-0.003263
-0.00286981
-0.00191638
-0.0042355
0.0001471
-0.00587432
0.00302849
-0.00779322
0.0068281
-0.00999262
0.0116426
-0.0124669
0.0175615
-0.0152053
0.0246638
-0.0181933
0.0330148
-0.0214145
0.0426634
-0.0248527
0.0536388
-0.0284926
0.0659523
-0.0323305
0.0795727
-0.0363172
0.0945144
-0.0406685
0.110517
-0.0445087
-0.0508006
0.127905
-0.000235871
0.000585819
-0.000730856
0.00112048
-0.00130982
0.00123666
-0.00181632
0.00102281
-0.00210928
0.000511374
-0.00205894
-0.000295849
-0.00154261
-0.00141332
-0.000441312
-0.0028649
0.0013622
-0.00467332
0.00398319
-0.00685648
0.00753264
-0.00942377
0.0121134
-0.012374
0.0178152
-0.0156944
0.0247094
-0.0193611
0.0328446
-0.0233405
0.0422427
-0.0275914
0.052897
-0.0320688
0.0647713
-0.036727
0.0778002
-0.0415215
0.0918892
-0.0464194
0.106923
-0.0513514
0.122726
-0.0564713
0.139229
-0.0610112
-0.0675116
0.15594
-0.000157636
0.000743455
-0.000447579
0.00141042
-0.000702474
0.00149156
-0.00076244
0.00108278
-0.000474919
0.000223853
0.000306552
-0.00107732
0.0017247
-0.00283147
0.00391672
-0.00505692
0.00701308
-0.00776969
0.0111325
-0.0109759
0.0163755
-0.0146668
0.0228168
-0.0188153
0.0304985
-0.0233761
0.0394246
-0.0282872
0.0495584
-0.0334742
0.0608222
-0.0388553
0.0731007
-0.0443473
0.0862458
-0.0498721
0.100084
-0.0553593
0.114422
-0.0607579
0.129077
-0.0660064
0.143776
-0.0711699
0.158615
-0.0758502
-0.0814526
0.172556
-7.34401e-05
-0.000133459
-1.61319e-05
0.000444347
0.0014132
0.00305251
0.00551823
0.00895438
0.013485
0.0192041
0.0261653
0.0343733
0.0437786
0.0542777
0.0657171
0.0779029
0.090613
0.103611
0.11666
0.129539
0.142054
0.154021
0.165549
0.176002
-0.0334458
0.04336
-0.0456766
-0.030593
0.0550971
-0.05795
-0.0270956
0.0670522
-0.0705496
-0.0228682
0.0785512
-0.0827786
-0.0177195
0.0887844
-0.0939331
-0.0113723
0.096824
-0.103171
-0.00344959
0.101584
-0.109507
0.00639131
0.101878
-0.111718
0.0181283
0.0965814
-0.108318
0.0315171
0.0848679
-0.0982567
0.0459278
0.0664237
-0.0808344
0.060562
0.0416728
-0.0563071
0.0747994
0.0111132
-0.0253506
0.0883085
-0.0241169
0.0106078
0.100871
-0.0623569
0.0497941
0.11203
-0.0994183
0.0882592
0.121014
-0.129994
0.121011
0.127106
-0.150446
0.144354
0.130163
-0.16076
0.157703
0.130723
-0.163455
0.162894
0.129201
-0.161692
0.163215
0.125172
-0.159692
0.163721
0.118397
-0.161961
0.168735
0.110621
-0.167597
0.175373
0.105538
-0.165643
0.170726
0.106171
-0.140536
0.139903
0.112756
-0.0861311
0.0795462
0.12325
-0.0123438
0.00184943
0.13462
0.0623386
-0.0737084
0.144337
0.122787
-0.132504
0.15117
0.162689
-0.169522
0.155182
0.183864
-0.187877
0.156225
0.193093
-0.194136
0.153405
0.203425
-0.200605
0.146879
0.220796
-0.214271
0.139313
0.231694
-0.224128
0.134439
0.209764
-0.20489
0.134319
0.138408
-0.138289
0.138665
0.0362326
-0.0405778
0.14517
-0.0697746
0.063269
0.151775
-0.146467
0.139862
0.155976
-0.195735
0.191534
0.155328
-0.218507
0.219155
0.149259
-0.238409
0.244478
0.140842
-0.24889
0.257307
0.13513
-0.221429
0.227141
0.135603
-0.154918
0.154445
0.141256
-0.0301388
0.0244859
0.147944
0.0641557
-0.0708442
0.150446
0.171247
-0.173748
0.147457
0.230888
-0.2279
0.142463
0.278206
-0.273212
0.140304
0.281705
-0.279546
0.142237
0.163654
-0.165587
0.145361
0.0963429
-0.0994665
0.145533
-0.104395
0.104222
0.143912
-0.186349
0.18797
0.142208
-0.277688
0.279393
0.140595
-0.343343
0.344956
-0.0855185
0.0873608
-0.0321946
0.0397342
-0.0276557
0.0505583
-0.0220284
0.0614248
-0.0152854
0.0718082
-0.00726647
0.0807655
0.00222798
0.0873296
0.0132216
0.0905903
0.0256603
0.0894389
0.0393017
0.08294
0.0536318
0.0705377
0.0679377
0.0521179
0.0815827
0.0280278
0.0940691
-0.00137323
0.105366
-0.035414
0.11532
-0.0723103
0.123525
-0.107624
0.129373
-0.135841
0.132456
-0.153529
0.132864
-0.161167
0.131257
-0.161849
0.128255
-0.158691
0.123454
-0.154891
0.116047
-0.154553
0.107032
-0.158583
0.100074
-0.158684
0.0991393
-0.139601
0.105302
-0.0922934
0.116595
-0.0236375
0.129524
0.0494101
0.14113
0.111181
0.149942
0.153877
0.155731
0.178075
0.15811
0.190714
0.156347
0.205188
0.150892
0.226251
0.144348
0.238238
0.139926
0.214186
0.139384
0.13895
0.142575
0.0330417
0.147487
-0.0746868
0.152467
-0.151446
0.155475
-0.198744
0.154226
-0.217258
0.14781
-0.231993
0.139136
-0.240217
0.133348
-0.21564
0.134241
-0.155812
0.140515
-0.0364123
0.14772
0.0569508
0.150583
0.168384
0.147791
0.233679
0.142944
0.283054
0.140668
0.283981
0.142691
0.161632
0.146038
0.0929955
0.146232
-0.104588
0.144525
-0.184643
0.142658
-0.275821
0.140963
-0.341648
-0.0836385
-0.0203716
0.0349343
-0.0145304
0.0447172
-0.00732381
0.0542182
0.00143766
0.0630468
0.0116522
0.0705509
0.0230744
0.0759074
0.0356433
0.0780214
0.049131
0.0759511
0.0631102
0.0689609
0.0770049
0.056643
0.0901749
0.0389479
0.102113
0.0160899
0.11252
-0.01178
0.121441
-0.0443353
0.128754
-0.0796233
0.134034
-0.112904
0.136818
-0.138625
0.137044
-0.153755
0.135086
-0.159209
0.131653
-0.158416
0.127436
-0.154474
0.122164
-0.149619
0.114636
-0.147025
0.104939
-0.148886
0.0963098
-0.150055
0.0934881
-0.136779
0.0986859
-0.0974911
0.11017
-0.0351213
0.124311
0.0352691
0.137637
0.0978546
0.1484
0.143114
0.155998
0.170477
0.159845
0.186868
0.159385
0.205648
0.155245
0.230391
0.149794
0.243688
0.145731
0.218249
0.144617
0.140065
0.146501
0.031158
0.149775
-0.0779618
0.153098
-0.154768
0.154921
-0.200567
0.153184
-0.215521
0.146601
-0.22541
0.137791
-0.231406
0.131913
-0.209762
0.133097
-0.156996
0.139862
-0.0431774
0.147543
0.0492695
0.15082
0.165107
0.14828
0.236219
0.143584
0.28775
0.141164
0.286401
0.143251
0.159545
0.146851
0.0893948
0.147076
-0.104813
0.145257
-0.182824
0.143218
-0.273781
0.141462
-0.339892
-0.081747
-0.00147186
0.0293487
0.0058772
0.0373682
0.0144779
0.0456175
0.0242871
0.0532375
0.0352629
0.0595751
0.0473289
0.0638415
0.0602113
0.065139
0.0735223
0.0626401
0.0867689
0.0557143
0.099402
0.0440099
0.110898
0.0274519
0.120919
0.00606919
0.129278
-0.0201395
0.135998
-0.0510554
0.140865
-0.08449
0.143389
-0.115428
0.143279
-0.138515
0.140847
-0.151323
0.136807
-0.155169
0.131873
-0.153482
0.126665
-0.149265
0.121103
-0.144057
0.113902
-0.139825
0.104244
-0.139227
0.0944263
-0.140238
0.0894848
-0.131837
0.0930108
-0.101017
0.104067
-0.0461777
0.118968
0.0203685
0.133803
0.0830196
0.146444
0.130473
0.155867
0.161054
0.161314
0.18142
0.162392
0.20457
0.15977
0.233013
0.155464
0.247995
0.151677
0.222036
0.149844
0.141898
0.150371
0.0306313
0.151989
-0.0795798
0.153665
-0.156445
0.154305
-0.201207
0.152154
-0.21337
0.145561
-0.218818
0.136736
-0.222581
0.130762
-0.203788
0.1321
-0.158334
0.139242
-0.0503194
0.147382
0.0411293
0.151142
0.161347
0.14893
0.238431
0.144406
0.292274
0.141816
0.288991
0.143928
0.157433
0.147792
0.0855302
0.148059
-0.105079
0.146105
-0.180871
0.143885
-0.271561
0.142082
-0.33809
-0.0798687
0.0224633
0.0226512
0.029945
0.0298865
0.0386545
0.0369081
0.0485838
0.0433081
0.0595812
0.0485777
0.0714089
0.0520139
0.0837335
0.0528143
0.0961279
0.0502457
0.108102
0.0437402
0.119182
0.0329303
0.128938
0.0176957
0.13729
-0.00228335
0.143948
-0.0267977
0.148806
-0.0559127
0.151407
-0.0870912
0.151273
-0.115294
0.148434
-0.135676
0.143623
-0.146513
0.137842
-0.149387
0.131788
-0.147428
0.125877
-0.143355
0.120145
-0.138325
0.113522
-0.133201
0.104564
-0.130269
0.094298
-0.129972
0.0873677
-0.124907
0.088597
-0.102247
0.098449
-0.0560297
0.113552
0.00526546
0.129579
0.0669923
0.143946
0.116107
0.155165
0.149834
0.162329
0.174257
0.165152
0.201747
0.164236
0.233928
0.161149
0.251082
0.157581
0.225603
0.154959
0.14452
0.154053
0.0315379
0.154065
-0.0795917
0.154137
-0.156517
0.153599
-0.200669
0.151093
-0.210864
0.144624
-0.212349
0.135901
-0.213857
0.129824
-0.197711
0.131181
-0.159692
0.138598
-0.0577366
0.147192
0.032535
0.151521
0.157019
0.149735
0.240217
0.145427
0.296582
0.142646
0.291772
0.144726
0.155353
0.148851
0.081405
0.149167
-0.105395
0.147064
-0.178768
0.144652
-0.269149
0.14281
-0.336248
-0.078028
0.0460745
0.0160375
0.0534626
0.0224984
0.0618867
0.028484
0.0714119
0.0337829
0.0818478
0.0381418
0.0929022
0.0409594
0.104231
0.0414853
0.11542
0.0390572
0.126019
0.0331407
0.135649
0.0233006
0.143953
0.00939205
0.150924
-0.00925419
0.156217
-0.0320913
0.159431
-0.0591264
0.159908
-0.0875687
0.157297
-0.112683
0.15204
-0.130419
0.145248
-0.13972
0.138101
-0.14224
0.131271
-0.140598
0.124942
-0.137025
0.119125
-0.132509
0.11314
-0.127216
0.105371
-0.122501
0.0955393
-0.12014
0.0871741
-0.116542
0.0857769
-0.100849
0.0935614
-0.0638142
0.108172
-0.00934481
0.124932
0.0502315
0.140766
0.100273
0.153692
0.136909
0.162647
0.165302
0.167388
0.197006
0.168349
0.232967
0.166587
0.252843
0.163253
0.228937
0.159791
0.147981
0.157466
0.0338631
0.155933
-0.0780587
0.154473
-0.155056
0.152771
-0.198968
0.149947
-0.20804
0.143715
-0.206117
0.135197
-0.20534
0.129016
-0.19153
0.130265
-0.16094
0.137862
-0.065334
0.146917
0.0234803
0.151915
0.152022
0.150677
0.241454
0.146652
0.300608
0.143669
0.294754
0.145646
0.153376
0.150013
0.0770387
0.150386
-0.105768
0.148125
-0.176506
0.145512
-0.266536
0.143635
-0.33437
-0.0762493
0.070388
0.0108147
0.0765649
0.0163215
0.0838802
0.0211687
0.0923225
0.0253406
0.101632
0.0288327
0.111504
0.0310868
0.121606
0.0313838
0.131532
0.0291312
0.140864
0.0238084
0.149272
0.0148922
0.156467
0.00219764
0.162269
-0.0150563
0.166253
-0.0360749
0.167761
-0.0606351
0.166107
-0.0859144
0.161209
-0.107785
0.153919
-0.123129
0.145611
-0.131413
0.137503
-0.134132
0.130202
-0.133297
0.12371
-0.130534
0.117905
-0.126703
0.112454
-0.121765
0.106051
-0.116098
0.0974805
-0.111569
0.0886221
-0.107684
0.0847435
-0.0969708
0.0898518
-0.0689225
0.102925
-0.0224178
0.119882
0.0332738
0.136804
0.0833512
0.151269
0.122444
0.162026
0.154545
0.168808
0.190224
0.1718
0.229975
0.171492
0.253151
0.168502
0.231927
0.164227
0.152257
0.160474
0.0376161
0.157515
-0.0750998
0.154625
-0.152167
0.151785
-0.196128
0.148664
-0.204918
0.142758
-0.200211
0.13454
-0.197122
0.128257
-0.185247
0.129278
-0.161961
0.136965
-0.0730212
0.146491
0.0139543
0.15227
0.146243
0.151724
0.242
0.148072
0.30426
0.144888
0.297939
0.146689
0.151574
0.151261
0.072467
0.151699
-0.106206
0.149278
-0.174085
0.146457
-0.263715
0.144541
-0.332455
-0.0745578
0.0978941
0.00819228
0.101798
0.0124176
0.107077
0.0158894
0.113579
0.0188386
0.121024
0.0213877
0.129154
0.0229567
0.137641
0.0228972
0.146071
0.0207009
0.154032
0.0158473
0.161043
0.00788159
0.167319
-0.00407808
0.171673
-0.0194101
0.17403
-0.0384319
0.173568
-0.0601731
0.169747
-0.0820934
0.162837
-0.100875
0.153999
-0.114291
0.144695
-0.122109
0.136036
-0.125473
0.128513
-0.125774
0.122045
-0.124066
0.116364
-0.121022
0.111308
-0.116709
0.106124
-0.110914
0.0993091
-0.104754
0.0910659
-0.0994403
0.085427
-0.0913319
0.0874765
-0.070972
0.0982307
-0.033172
0.114541
0.0169632
0.132026
0.0658667
0.147769
0.106701
0.160265
0.14205
0.169125
0.181365
0.174227
0.224873
0.17551
0.251867
0.173014
0.234424
0.168079
0.157192
0.163009
0.0426858
0.158725
-0.0708155
0.154537
-0.147979
0.150598
-0.192189
0.147182
-0.201503
0.141679
-0.194707
0.133846
-0.189289
0.127465
-0.178867
0.128149
-0.162644
0.135837
-0.0807095
0.145842
0.00394926
0.152522
0.139563
0.152826
0.241696
0.149664
0.307422
0.146291
0.301311
0.14785
0.150015
0.152577
0.06774
0.153087
-0.106716
0.150511
-0.171509
0.147472
-0.260676
0.145516
-0.330498
-0.0729811
0.128041
0.00805606
0.129567
0.0108912
0.132464
0.0129924
0.136533
0.01477
0.14159
0.0163307
0.147456
0.0170912
0.153812
0.0165406
0.160266
0.0142465
0.166433
0.0096807
0.17181
0.00250459
0.176152
-0.00841986
0.178742
-0.0220002
0.179054
-0.0387445
0.176415
-0.0575341
0.170565
-0.0762431
0.16209
-0.0924001
0.152277
-0.104478
0.142495
-0.112327
0.133655
-0.116634
0.126109
-0.118227
0.119769
-0.117726
0.114313
-0.115566
0.109575
-0.111971
0.105291
-0.106629
0.100274
-0.0997375
0.0935678
-0.0927337
0.0873466
-0.0851107
0.0866113
-0.0702367
0.094364
-0.0409247
0.109101
0.00222582
0.126472
0.0484962
0.143118
0.0900546
0.157189
0.127979
0.168127
0.170426
0.175465
0.217535
0.178471
0.248862
0.176576
0.236319
0.171159
0.162609
0.164935
0.0489095
0.159459
-0.0653392
0.154126
-0.142646
0.149149
-0.187212
0.145428
-0.197782
0.140396
-0.189675
0.133043
-0.181936
0.12657
-0.172394
0.126813
-0.162887
0.134418
-0.0883148
0.144898
-0.00653038
0.152595
0.131866
0.15392
0.240371
0.151383
0.30996
0.147861
0.304833
0.149113
0.148763
0.15394
0.0629128
0.154528
-0.107304
0.151806
-0.168786
0.148542
-0.257412
0.146542
-0.328499
-0.0715505
0.154752
0.00924383
0.154813
0.01083
0.155918
0.0118878
0.157918
0.0127692
0.160809
0.0134401
0.16444
0.0134602
0.168515
0.0124662
0.172701
0.0100601
0.176622
0.00576001
0.180117
-0.000990578
0.182096
-0.0103988
0.182461
-0.0223652
0.180535
-0.0368189
0.175839
-0.0528381
0.168392
-0.0687965
0.158957
-0.0829649
0.148757
-0.0942775
0.138934
-0.102504
0.130189
-0.107889
0.122762
-0.110801
0.116599
-0.111563
0.111433
-0.110401
0.107031
-0.107569
0.103359
-0.102957
0.0998283
-0.0962071
0.0951176
-0.0880231
0.0895823
-0.0795754
0.0870024
-0.0676568
0.0915847
-0.045507
0.10386
-0.0100499
0.120287
0.0320702
0.137323
0.0730183
0.152699
0.112602
0.165568
0.157558
0.175076
0.208027
0.179922
0.244016
0.178904
0.237337
0.173261
0.168251
0.166188
0.0559824
0.159658
-0.0588093
0.153337
-0.136325
0.147405
-0.18128
0.143349
-0.193725
0.138842
-0.185168
0.132085
-0.175179
0.125533
-0.165842
0.12522
-0.162574
0.132647
-0.0957415
0.143597
-0.0174805
0.152413
0.12305
0.154922
0.237861
0.15317
0.311712
0.149564
0.308439
0.150463
0.147864
0.155323
0.0580533
0.156003
-0.107984
0.153145
-0.165929
0.14965
-0.253917
0.147606
-0.326455
-0.0703015
0.171264
0.010535
0.170915
0.011179
0.171125
0.0116778
0.171972
0.0119225
0.173511
0.0119007
0.175568
0.0114035
0.177904
0.0101306
0.180252
0.00771184
0.182179
0.00383325
0.183437
-0.00224846
0.183518
-0.0104798
0.181906
-0.0207535
0.17816
-0.0330725
0.172021
-0.0466995
0.163726
-0.0605012
0.154057
-0.0732966
0.144043
-0.0842631
0.134557
-0.0930182
0.126123
-0.0994539
0.118918
-0.103595
0.11293
-0.105576
0.108013
-0.105484
0.103922
-0.103478
0.100625
-0.0996595
0.0980462
-0.0936284
0.0951809
-0.0851577
0.0911988
-0.0755933
0.0880615
-0.0645195
0.0899389
-0.0473845
0.0991424
-0.0192534
0.113722
0.0174902
0.130454
0.0562866
0.146813
0.0962434
0.161607
0.142764
0.173462
0.196172
0.180264
0.237214
0.1801
0.237501
0.174518
0.173833
0.166821
0.0636799
0.159467
-0.0514556
0.15229
-0.129148
0.145518
-0.174507
0.141053
-0.18926
0.137051
-0.181166
0.130987
-0.169116
0.124383
-0.159238
0.123401
-0.161592
0.130501
-0.102841
0.141857
-0.028837
0.151893
0.113014
0.155767
0.233988
0.154959
0.31252
0.15135
0.312048
0.151895
0.147318
0.156699
0.0532496
0.157493
-0.108778
0.154511
-0.162947
0.150781
-0.250187
0.1487
-0.324375
-0.0692726
0.175562
0.0109748
0.175313
0.0114285
0.175439
0.0115513
0.175915
0.0114462
0.176752
0.0110646
0.177868
0.0102871
0.179091
0.00890742
0.180223
0.00658033
0.181101
0.00295435
0.181029
-0.00217562
0.179693
-0.00914433
0.176847
-0.0179074
0.172162
-0.0283872
0.165577
-0.0401151
0.157417
-0.0523405
0.14835
-0.0642297
0.139143
-0.0750568
0.130417
-0.0842919
0.122557
-0.0915936
0.115724
-0.096762
0.109944
-0.0997965
0.105186
-0.100726
0.101293
-0.0995845
0.0981607
-0.0965275
0.0959627
-0.0914304
0.0943061
-0.0835011
0.0920192
-0.0733064
0.0893816
-0.0618819
0.0894851
-0.0474879
0.0953733
-0.0251415
0.107345
0.00551874
0.122756
0.0408755
0.139136
0.0798627
0.155108
0.126792
0.1691
0.18218
0.178154
0.22816
0.179468
0.236187
0.174573
0.178728
0.166927
0.0713261
0.158836
-0.0433649
0.151009
-0.12132
0.143614
-0.167113
0.138699
-0.184345
0.135109
-0.177575
0.129785
-0.163792
0.123156
-0.152609
0.121459
-0.159894
0.128173
-0.109555
0.139708
-0.0403727
0.150942
0.101781
0.156305
0.228625
0.156646
0.312179
0.153186
0.315507
0.153375
0.14713
0.158051
0.0485736
0.158975
-0.109703
0.155876
-0.159848
0.151933
-0.246243
0.149816
-0.322257
-0.0685018
0.193534
0.0115672
-0.194126
0.193528
0.0114347
0.193767
0.0113116
0.194296
0.0109177
0.19519
0.0101703
0.196483
0.00899474
0.198185
0.00720469
0.200207
0.00455902
0.202286
0.000874944
0.204331
-0.00422084
0.205944
-0.0107575
0.206796
-0.0187586
0.206493
-0.0280847
0.204758
-0.0383804
0.201518
-0.0490999
0.19691
-0.059622
0.191202
-0.0693485
0.184691
-0.0777808
0.177665
-0.0845677
0.170379
-0.0894761
0.163034
-0.0924514
0.155799
-0.0934906
0.148761
-0.0925469
0.141874
-0.0896407
0.135273
-0.0848291
0.129086
-0.077314
0.12262
-0.0668406
0.115112
-0.054374
0.107892
-0.0402682
0.104223
-0.021472
0.105845
0.00389603
0.111696
0.0350245
0.11918
0.0723787
0.126466
0.119506
0.133363
0.175284
0.140616
0.220907
0.149619
0.227184
0.160804
0.167543
0.170162
0.0619685
0.1748
-0.0480028
0.173454
-0.119975
0.16752
-0.161179
0.16047
-0.177295
0.153604
-0.170709
0.145444
-0.155632
0.136434
-0.1436
0.130365
-0.153825
0.130279
-0.109469
0.133617
-0.0437105
0.136869
0.0985279
0.137949
0.227545
0.138277
0.311851
0.139614
0.31417
0.144141
0.142603
0.151062
0.0416529
0.152768
-0.111409
0.148815
-0.155896
0.143519
-0.240947
0.1385
-0.317238
-0.065855
0.205783
0.0114914
-0.205707
0.206142
0.0110753
0.206792
0.0106623
0.207677
0.010032
0.208797
0.00905031
0.210164
0.00762795
0.211736
0.00563285
0.213404
0.00289101
0.21507
-0.000790877
0.216459
-0.00561016
0.217327
-0.0116254
0.217399
-0.0188304
0.216414
-0.0271005
0.214194
-0.0361603
0.21069
-0.0455953
0.205984
-0.0549166
0.200266
-0.06363
0.193781
-0.0712965
0.186801
-0.0775871
0.179584
-0.0822589
0.172333
-0.0852004
0.16519
-0.0863479
0.158269
-0.0856257
0.151547
-0.0829192
0.145038
-0.0783198
0.138982
-0.0712583
0.133172
-0.0610302
0.126691
-0.0478934
0.119724
-0.0333014
0.11466
-0.0164076
0.114228
0.00432764
0.118617
0.0306357
0.125828
0.065168
0.13392
0.111414
0.142094
0.16711
0.150967
0.212033
0.161973
0.216178
0.174603
0.154913
0.184566
0.052005
0.188596
-0.0520328
0.186306
-0.117685
0.179232
-0.154105
0.171142
-0.169205
0.163735
-0.163302
0.155458
-0.147355
0.146068
-0.13421
0.13934
-0.147097
0.138691
-0.10882
0.142036
-0.0470558
0.145864
0.0947006
0.147749
0.22566
0.149074
0.310526
0.15099
0.312255
0.155551
0.138042
0.162622
0.0345815
0.164113