/*--------------------------------*- C++ -*----------------------------------*\
| =========                 |                                                 |
| \\      /  F ield         | OpenFOAM: The Open Source CFD Toolbox           |
|  \\    /   O peration     | Version:  2512                                  |
|   \\  /    A nd           | Website:  www.openfoam.com                      |
|    \\/     M anipulation  |                                                 |
\*---------------------------------------------------------------------------*/
FoamFile
{
    version     2.0;
    format      ascii;
    arch        "LSB;label=32;scalar=64";
    class       volScalarField;
    location    "168";
    object      p;
}
// * * * * * * * * * * * * * * * * * * * * * * * * * * * * * * * * * * * * * //

dimensions      [0 2 -2 0 0 0 0];

internalField   nonuniform List<scalar> 
13248
(
-0.394282
-0.392244
-0.389003
-0.384865
-0.380258
-0.375638
-0.371418
-0.367936
-0.365408
-0.363903
-0.363332
-0.363451
-0.363889
-0.364192
-0.363881
-0.362506
-0.359705
-0.355233
-0.348968
-0.340928
-0.331037
-0.319547
-0.305236
-0.289082
-0.403087
-0.400334
-0.396526
-0.391967
-0.387031
-0.382124
-0.377583
-0.373642
-0.370401
-0.367818
-0.365708
-0.363779
-0.361668
-0.359004
-0.355453
-0.350766
-0.344793
-0.337484
-0.328862
-0.318984
-0.307891
-0.295641
-0.281981
-0.267809
-0.41428
-0.410501
-0.405939
-0.400845
-0.395487
-0.390187
-0.385168
-0.380525
-0.376226
-0.372128
-0.368008
-0.363602
-0.358656
-0.352964
-0.346391
-0.338885
-0.330458
-0.321165
-0.31107
-0.300244
-0.288699
-0.276535
-0.263565
-0.250434
-0.427733
-0.422681
-0.417202
-0.411446
-0.405522
-0.399628
-0.393837
-0.38809
-0.382244
-0.376118
-0.369538
-0.362367
-0.354527
-0.346006
-0.336842
-0.327108
-0.316882
-0.306238
-0.295228
-0.283889
-0.272245
-0.260359
-0.248148
-0.236215
-0.443294
-0.436796
-0.430275
-0.423728
-0.417043
-0.41025
-0.403255
-0.395874
-0.387924
-0.37929
-0.369943
-0.359935
-0.349377
-0.338405
-0.327152
-0.315729
-0.304211
-0.292643
-0.281044
-0.269422
-0.257782
-0.246147
-0.234474
-0.223126
-0.460787
-0.452741
-0.445096
-0.437623
-0.429908
-0.421783
-0.413016
-0.403379
-0.392771
-0.381252
-0.369002
-0.356265
-0.343285
-0.330268
-0.31736
-0.304649
-0.292172
-0.279933
-0.267918
-0.256108
-0.244491
-0.23306
-0.221795
-0.210921
-0.479942
-0.470316
-0.461495
-0.452918
-0.443796
-0.43377
-0.422559
-0.410036
-0.396315
-0.381702
-0.366592
-0.351358
-0.336298
-0.321607
-0.307391
-0.293684
-0.280475
-0.267732
-0.255413
-0.243478
-0.231895
-0.220635
-0.209689
-0.199132
-0.500326
-0.489153
-0.479103
-0.469165
-0.458133
-0.445529
-0.431186
-0.415241
-0.398124
-0.3804
-0.362612
-0.345178
-0.328367
-0.312311
-0.297047
-0.282553
-0.268773
-0.255645
-0.243103
-0.231092
-0.219561
-0.208472
-0.197811
-0.187543
-0.52127
-0.508649
-0.497292
-0.485635
-0.472081
-0.456196
-0.438126
-0.418417
-0.397841
-0.377163
-0.356977
-0.337661
-0.319398
-0.302234
-0.286133
-0.271019
-0.256803
-0.243393
-0.230709
-0.218675
-0.20723
-0.196328
-0.185935
-0.175937
-0.541852
-0.52793
-0.515137
-0.501303
-0.484576
-0.464793
-0.442609
-0.419046
-0.395165
-0.371823
-0.349573
-0.328687
-0.309239
-0.291186
-0.274427
-0.258842
-0.244309
-0.230718
-0.217969
-0.205973
-0.194657
-0.183967
-0.173838
-0.164126
-0.56092
-0.545862
-0.531435
-0.5149
-0.494388
-0.470267
-0.443831
-0.416551
-0.389668
-0.364022
-0.340048
-0.317887
-0.297499
-0.278759
-0.261513
-0.245601
-0.230878
-0.217213
-0.204491
-0.192611
-0.181489
-0.171053
-0.161205
-0.151816
-0.577198
-0.5612
-0.544911
-0.525138
-0.500308
-0.471559
-0.440888
-0.410132
-0.380597
-0.35301
-0.327646
-0.3045
-0.283422
-0.264214
-0.246672
-0.230604
-0.215842
-0.202238
-0.189661
-0.178001
-0.167168
-0.157073
-0.14759
-0.138658
-0.355983
-0.357098
-0.357758
-0.358282
-0.359029
-0.360191
-0.361874
-0.364133
-0.366993
-0.370472
-0.374583
-0.379342
-0.384757
-0.39082
-0.397494
-0.404703
-0.412317
-0.420143
-0.427917
-0.435313
-0.44193
-0.447322
-0.451025
-0.452709
-0.362271
-0.36244
-0.362552
-0.362774
-0.363355
-0.364492
-0.366313
-0.368892
-0.372275
-0.3765
-0.381602
-0.387618
-0.394574
-0.402477
-0.411295
-0.420945
-0.431276
-0.442043
-0.452908
-0.463489
-0.473193
-0.481453
-0.487519
-0.490735
-0.36801
-0.367263
-0.36681
-0.366671
-0.36699
-0.367969
-0.369758
-0.372452
-0.376114
-0.380796
-0.386546
-0.393409
-0.401417
-0.410578
-0.420854
-0.432149
-0.444282
-0.456976
-0.469843
-0.482378
-0.493963
-0.503865
-0.511192
-0.514887
-0.372747
-0.371209
-0.370208
-0.369649
-0.36959
-0.37024
-0.371776
-0.374318
-0.377948
-0.382729
-0.388715
-0.395949
-0.404461
-0.414246
-0.425254
-0.437365
-0.450372
-0.463965
-0.477721
-0.491084
-0.50337
-0.513722
-0.521383
-0.524476
-0.376246
-0.374124
-0.372635
-0.37161
-0.371054
-0.37119
-0.37223
-0.374327
-0.377588
-0.382091
-0.387894
-0.395037
-0.403535
-0.41337
-0.42447
-0.436691
-0.449802
-0.463446
-0.477192
-0.49041
-0.502434
-0.512212
-0.519399
-0.520947
-0.378493
-0.376041
-0.37416
-0.37265
-0.371499
-0.370957
-0.371279
-0.37266
-0.375243
-0.379132
-0.38439
-0.391057
-0.399134
-0.408584
-0.419314
-0.431153
-0.443885
-0.456916
-0.469972
-0.482385
-0.493423
-0.501755
-0.507637
-0.506755
-0.379687
-0.37717
-0.37501
-0.373022
-0.37122
-0.369892
-0.369338
-0.369808
-0.371491
-0.374523
-0.378987
-0.384921
-0.392318
-0.401122
-0.411223
-0.422264
-0.434049
-0.446343
-0.458351
-0.469345
-0.478709
-0.484843
-0.488515
-0.484575
-0.380217
-0.37786
-0.375526
-0.37309
-0.370633
-0.368485
-0.366998
-0.366478
-0.367169
-0.369244
-0.372809
-0.377906
-0.384517
-0.392513
-0.401731
-0.412031
-0.422881
-0.433808
-0.444161
-0.453086
-0.459987
-0.463226
-0.463794
-0.456571
-0.380631
-0.378572
-0.376134
-0.373293
-0.370224
-0.367305
-0.364938
-0.363484
-0.363234
-0.3644
-0.367106
-0.371386
-0.377192
-0.384405
-0.392745
-0.401862
-0.411247
-0.420287
-0.428289
-0.434406
-0.438093
-0.437996
-0.435023
-0.424838
-0.381594
-0.379844
-0.37732
-0.374118
-0.37052
-0.36695
-0.363852
-0.361626
-0.3606
-0.361001
-0.362957
-0.366484
-0.371468
-0.377679
-0.384753
-0.392209
-0.399455
-0.405831
-0.410668
-0.413307
-0.41338
-0.410077
-0.404148
-0.392066
-0.383812
-0.382239
-0.379585
-0.376056
-0.372029
-0.367963
-0.364324
-0.361528
-0.359908
-0.359685
-0.360945
-0.363636
-0.367559
-0.372374
-0.377613
-0.382708
-0.387037
-0.38999
-0.391029
-0.389796
-0.386172
-0.380098
-0.372358
-0.360202
-0.387895
-0.386264
-0.383374
-0.37953
-0.375161
-0.370742
-0.366733
-0.363533
-0.361441
-0.360622
-0.361091
-0.362702
-0.365154
-0.368017
-0.370767
-0.372838
-0.373683
-0.372842
-0.36997
-0.364955
-0.357738
-0.348779
-0.338573
-0.327066
-0.451859
-0.444664
-0.430754
-0.409701
-0.381767
-0.34845
-0.312185
-0.275992
-0.242957
-0.216061
-0.197746
-0.189641
-0.191939
-0.202477
-0.216332
-0.226731
-0.227447
-0.21429
-0.188955
-0.157715
-0.12814
-0.105438
-0.0915299
-0.0859643
-0.0874222
-0.0957511
-0.112574
-0.137298
-0.162312
-0.175091
-0.167678
-0.144535
-0.11614
-0.0917638
-0.0754342
-0.0666402
-0.0640943
-0.0691427
-0.0822046
-0.0962161
-0.100623
-0.0922233
-0.0772236
-0.0641734
-0.0553766
-0.0517891
-0.0550066
-0.061636
-0.0643871
-0.0611557
-0.0528009
-0.0457461
-0.0388112
-0.0338164
-0.0321315
-0.0309304
-0.0280854
-0.024494
-0.0154505
-0.00297938
-0.492107
-0.4847
-0.468816
-0.444546
-0.412114
-0.373104
-0.330273
-0.286996
-0.246679
-0.212326
-0.186366
-0.1704
-0.165068
-0.16925
-0.179145
-0.188607
-0.190989
-0.181789
-0.162714
-0.138067
-0.114376
-0.0965825
-0.0867812
-0.0847103
-0.0892915
-0.100867
-0.121352
-0.149635
-0.177121
-0.190192
-0.180696
-0.154263
-0.122476
-0.0950839
-0.0760826
-0.0649614
-0.0601353
-0.0625522
-0.0728326
-0.0848406
-0.0890262
-0.0822608
-0.0702261
-0.0601672
-0.0541198
-0.0529673
-0.0588306
-0.0678392
-0.071367
-0.0673713
-0.0567408
-0.0478364
-0.0389019
-0.0320478
-0.0289477
-0.0266003
-0.0242604
-0.0211851
-0.0137182
-0.00288855
-0.517647
-0.51039
-0.493112
-0.46647
-0.430705
-0.387386
-0.339451
-0.290489
-0.24418
-0.203727
-0.171472
-0.148885
-0.136638
-0.134343
-0.139551
-0.147199
-0.150905
-0.145375
-0.133174
-0.115342
-0.0977683
-0.0851572
-0.0796843
-0.0811935
-0.0888694
-0.103493
-0.127157
-0.158368
-0.187957
-0.201624
-0.190773
-0.161788
-0.127238
-0.0973258
-0.0760185
-0.0628154
-0.0559074
-0.0558342
-0.0633734
-0.0733884
-0.0773364
-0.0721196
-0.0629262
-0.0557331
-0.0524289
-0.0537866
-0.0623776
-0.0738313
-0.078168
-0.0733634
-0.0604165
-0.0496539
-0.0388606
-0.0302974
-0.0258544
-0.0223357
-0.0204346
-0.0178364
-0.0119742
-0.00280295
-0.527571
-0.520498
-0.502952
-0.475339
-0.437823
-0.392005
-0.340947
-0.28838
-0.238067
-0.19322
-0.156102
-0.12808
-0.10984
-0.101363
-0.101288
-0.106097
-0.110228
-0.106567
-0.102007
-0.0905834
-0.0789452
-0.0714687
-0.0702267
-0.0751136
-0.0855642
-0.102738
-0.128928
-0.162561
-0.19412
-0.208873
-0.197499
-0.166863
-0.130302
-0.0984748
-0.0753272
-0.0603599
-0.0516273
-0.0492919
-0.0542251
-0.062278
-0.065918
-0.0620693
-0.0554894
-0.0509511
-0.050299
-0.0541422
-0.0654665
-0.0793999
-0.0846171
-0.0790193
-0.0637758
-0.0511743
-0.0386729
-0.0285724
-0.0228848
-0.0181761
-0.0166474
-0.0144799
-0.0102335
-0.00272591
-0.523001
-0.515349
-0.498472
-0.471596
-0.434183
-0.388034
-0.336368
-0.282771
-0.23082
-0.183598
-0.143244
-0.111016
-0.0876267
-0.0733657
-0.0677268
-0.0687302
-0.0728902
-0.0776756
-0.0716084
-0.0649302
-0.0586106
-0.0558495
-0.0584136
-0.0662544
-0.0790188
-0.0981753
-0.126255
-0.161843
-0.195207
-0.211487
-0.200589
-0.169405
-0.131706
-0.0986224
-0.0741232
-0.0577469
-0.0474818
-0.0431644
-0.0456811
-0.0518375
-0.0550926
-0.0523645
-0.0480716
-0.0458911
-0.0477104
-0.0539273
-0.0679214
-0.0843269
-0.0905073
-0.0842065
-0.0667689
-0.0523833
-0.0383305
-0.0268766
-0.020066
-0.0141599
-0.0129365
-0.011146
-0.0085091
-0.00266085
-0.506086
-0.496968
-0.481489
-0.456744
-0.421143
-0.376808
-0.327029
-0.274993
-0.223866
-0.176446
-0.134694
-0.0997414
-0.0722684
-0.0527835
-0.0414511
-0.0375179
-0.0388389
-0.0421212
-0.0412848
-0.0392961
-0.0375533
-0.0387827
-0.0445246
-0.0547827
-0.069365
-0.0899334
-0.119249
-0.15622
-0.191294
-0.209288
-0.199947
-0.169388
-0.131518
-0.0978665
-0.0725073
-0.0550819
-0.0435864
-0.0376027
-0.0379589
-0.0423207
-0.0451224
-0.0432253
-0.0408192
-0.0406253
-0.0446606
-0.0530643
-0.0695816
-0.0883956
-0.0956361
-0.0888047
-0.0693541
-0.0532718
-0.0378238
-0.025207
-0.0174178
-0.0103193
-0.00933432
-0.00786227
-0.00681059
-0.00261021
-0.479887
-0.468525
-0.45485
-0.433178
-0.400773
-0.360116
-0.314332
-0.265997
-0.217765
-0.172078
-0.130664
-0.0945568
-0.0643831
-0.0406919
-0.0240294
-0.0145629
-0.0114439
-0.012461
-0.0138647
-0.0148064
-0.0166146
-0.0209545
-0.029128
-0.0411794
-0.0570392
-0.0784667
-0.108404
-0.146168
-0.18274
-0.202759
-0.195788
-0.166907
-0.12984
-0.0963089
-0.0705622
-0.052436
-0.0400024
-0.0326621
-0.0311507
-0.0338778
-0.0361878
-0.0348349
-0.0338719
-0.0352533
-0.0411781
-0.0515027
-0.0703201
-0.0914202
-0.0998253
-0.0927045
-0.0714914
-0.0538348
-0.0371499
-0.0235579
-0.0149462
-0.00667806
-0.00586686
-0.00465318
-0.00514413
-0.00257637
-0.447189
-0.433496
-0.422029
-0.403902
-0.375618
-0.340024
-0.299725
-0.256524
-0.212584
-0.170009
-0.130304
-0.0944151
-0.0629582
-0.0364547
-0.0155123
-0.000761026
0.00758841
0.0103835
0.00983742
0.00767488
0.00351497
-0.0029951
-0.0128136
-0.0260188
-0.0426489
-0.0645008
-0.0945618
-0.132581
-0.170287
-0.192593
-0.188497
-0.162143
-0.126767
-0.0940237
-0.0683408
-0.0498477
-0.0367592
-0.0283638
-0.025283
-0.0265554
-0.0283711
-0.0273775
-0.0273609
-0.0298907
-0.0373187
-0.0492358
-0.0700576
-0.0932664
-0.102935
-0.0958061
-0.0731483
-0.0540738
-0.0363205
-0.0219369
-0.0126562
-0.0032498
-0.00255363
-0.0015398
-0.00351325
-0.00256233
-0.410977
-0.396034
-0.387135
-0.372387
-0.348541
-0.318701
-0.284552
-0.247107
-0.208102
-0.16935
-0.132182
-0.0974992
-0.0659503
-0.0380462
-0.0143271
0.00455111
0.0178987
0.0254576
0.0280696
0.0269982
0.0220968
0.0145479
0.00389589
-0.00986236
-0.0268385
-0.0488268
-0.0787631
-0.116713
-0.155063
-0.179459
-0.178545
-0.155409
-0.122536
-0.0912125
-0.0660136
-0.0474502
-0.0339576
-0.0247644
-0.0203902
-0.020368
-0.0216852
-0.0208037
-0.0213883
-0.0246694
-0.0331515
-0.0462594
-0.0687742
-0.0938694
-0.104862
-0.0980461
-0.0743288
-0.0540211
-0.0353715
-0.0203719
-0.0105892
-4.79186e-05
0.000593218
0.00145987
-0.00191916
-0.00257168
-0.375213
-0.360995
-0.354495
-0.342245
-0.322563
-0.298395
-0.270228
-0.238434
-0.204386
-0.169595
-0.135261
-0.102297
-0.0714288
-0.0431811
-0.0180769
0.00339584
0.020567
0.0327069
0.039641
0.0422036
0.0380043
0.0308937
0.0203085
0.00652557
-0.0104829
-0.0324391
-0.0620195
-0.099431
-0.138027
-0.164152
-0.166443
-0.147247
-0.117656
-0.0883589
-0.0639965
-0.0455572
-0.0318187
-0.0219853
-0.0165048
-0.0153087
-0.0161479
-0.015243
-0.0160556
-0.0196764
-0.0287731
-0.042707
-0.0664817
-0.0931846
-0.105535
-0.0993912
-0.0750551
-0.0537432
-0.0343413
-0.0188678
-0.00878944
0.00288285
0.00356141
0.00433167
-0.000361817
-0.00260891
-0.343774
-0.332542
-0.327479
-0.316528
-0.300474
-0.281415
-0.258676
-0.232194
-0.202944
-0.172089
-0.140693
-0.109704
-0.0798611
-0.0516877
-0.0257835
-0.00269226
0.0170186
0.0327492
0.0440757
0.0528577
0.0495445
0.0447164
0.0355025
0.0224783
0.00585079
-0.0158996
-0.0452277
-0.0823811
-0.120683
-0.147189
-0.152772
-0.137594
-0.111944
-0.0852876
-0.062112
-0.0439619
-0.0301178
-0.0198127
-0.0133758
-0.0110932
-0.0115533
-0.0107232
-0.0115929
-0.0151414
-0.0241914
-0.0384757
-0.0632613
-0.0913939
-0.10491
-0.0996686
-0.0751583
-0.0531817
-0.033143
-0.0173282
-0.00712188
0.0055222
0.00632378
0.00705369
0.00116622
-0.00267841
-0.316672
-0.310925
-0.305216
-0.293834
-0.280119
-0.264739
-0.24633
-0.224522
-0.199814
-0.172978
-0.144851
-0.116274
-0.0880225
-0.0607693
-0.0351506
-0.011723
0.00900544
0.02645
0.0397801
0.0458961
0.054547
0.053674
0.0470677
0.0357923
0.02026
-0.000643641
-0.0289538
-0.0646407
-0.101504
-0.127203
-0.134709
-0.124062
-0.102815
-0.0793321
-0.0579595
-0.0406875
-0.0272563
-0.0170267
-0.0101102
-0.00701568
-0.00715519
-0.0065713
-0.00764646
-0.0111453
-0.0198732
-0.0341031
-0.0591905
-0.0881765
-0.103006
-0.098584
-0.0741917
-0.0519258
-0.0314524
-0.0155585
-0.00524764
0.00813431
0.00894788
0.00961981
0.00265072
-0.00279215
-0.289219
-0.296598
-0.288649
-0.275043
-0.260824
-0.245899
-0.228726
-0.208589
-0.185751
-0.160929
-0.134901
-0.108389
-0.0820447
-0.056453
-0.0321662
-0.00968241
0.0105528
0.0280695
0.0421707
0.0522872
0.0597033
0.0614254
0.0574874
0.0482387
0.0340589
0.0137519
-0.0153592
-0.0534337
-0.0924472
-0.119213
-0.125014
-0.113216
-0.0928639
-0.0711217
-0.0515078
-0.0355984
-0.0230762
-0.013388
-0.00656633
-0.00313345
-0.00290578
-0.00208071
-0.00125332
-0.00553068
-0.0137857
-0.0281145
-0.0541516
-0.0852667
-0.102097
-0.0984777
-0.0728137
-0.0500055
-0.0293782
-0.0136921
-0.00326451
0.010865
0.0115425
0.0121774
0.00410898
-0.00297707
-0.261155
-0.272212
-0.265356
-0.251249
-0.236876
-0.222827
-0.207378
-0.189416
-0.168998
-0.146778
-0.123457
-0.0996206
-0.0757858
-0.0524513
-0.0301133
-0.00923102
0.00978768
0.0265885
0.0407662
0.0513933
0.0593237
0.062539
0.060407
0.0529597
0.0403192
0.0210155
-0.00783283
-0.0455145
-0.082585
-0.105621
-0.10966
-0.0986895
-0.0808783
-0.0621164
-0.0449731
-0.0307353
-0.0193101
-0.0103004
-0.00370195
-0.000110953
0.000293
0.00096521
-0.000176599
-0.00180348
-0.00934486
-0.0232628
-0.0495395
-0.0818216
-0.099405
-0.0958917
-0.0702632
-0.0474208
-0.0270259
-0.0116885
-0.00134976
0.0130398
0.0136237
0.0143908
0.005379
-0.00311062
-0.235773
-0.247003
-0.241838
-0.22888
-0.215271
-0.202335
-0.188578
-0.17272
-0.154614
-0.134795
-0.113892
-0.0924169
-0.0708069
-0.0494969
-0.0289361
-0.00955211
0.00826792
0.0242094
0.0380586
0.0486587
0.05648
0.0601992
0.0589806
0.0525905
0.0409315
0.0225105
-0.00480346
-0.0389107
-0.0706948
-0.0899258
-0.0931493
-0.0841177
-0.0693984
-0.0536088
-0.0387786
-0.0260977
-0.0156891
-0.00734789
-0.00105966
0.00261083
0.00318766
0.00377748
0.00287914
0.00127878
-0.00602358
-0.0196817
-0.0455272
-0.0773806
-0.0949121
-0.0919244
-0.0669815
-0.0444215
-0.0244714
-0.00957009
0.000552965
0.0150479
0.0155344
0.0163985
0.00657904
-0.00316893
-0.212752
-0.223035
-0.219336
-0.208068
-0.195604
-0.183707
-0.171344
-0.157292
-0.141249
-0.123609
-0.104928
-0.0856642
-0.0661903
-0.0468714
-0.0280965
-0.0102567
0.00628075
0.0211801
0.033948
0.0445122
0.0521301
0.0560806
0.0555163
0.0500266
0.0394005
0.0224786
-0.00183529
-0.030969
-0.0575112
-0.0735973
-0.0766323
-0.0699126
-0.058226
-0.0452613
-0.0326807
-0.0215569
-0.0121705
-0.0045255
0.00137826
0.00506723
0.00584937
0.00648531
0.00583272
0.0042652
-0.00288564
-0.0162033
-0.0409227
-0.0716719
-0.0891639
-0.0868268
-0.0629438
-0.0410082
-0.0216984
-0.00732868
0.00244377
0.0169015
0.0173201
0.0182544
0.00777699
-0.00315651
-0.191117
-0.200691
-0.198118
-0.188458
-0.177269
-0.166452
-0.155373
-0.142967
-0.128842
-0.11325
-0.0966601
-0.0794793
-0.0620313
-0.0446242
-0.0275957
-0.0113027
0.00390454
0.0176933
0.0296572
0.0395795
0.0468648
0.0508869
0.0508776
0.0463706
0.0371411
0.0224614
0.00191698
-0.0221936
-0.0440188
-0.0575433
-0.0608981
-0.0565063
-0.0477002
-0.0373504
-0.0268593
-0.017219
-0.00881766
-0.00185391
0.00362007
0.00726887
0.0082582
0.00901908
0.00858716
0.00720004
0.000425188
-0.012153
-0.0353144
-0.0648453
-0.0821494
-0.0804831
-0.0581013
-0.0371879
-0.0187375
-0.00498848
0.00431725
0.0185589
0.0189406
0.0199576
0.00898323
-0.00307159
-0.171245
-0.180112
-0.178296
-0.170034
-0.160155
-0.150487
-0.140653
-0.129758
-0.11739
-0.10369
-0.0890392
-0.0737973
-0.0582515
-0.0426667
-0.027335
-0.0125757
0.0012863
0.0139367
0.0250199
0.0342321
0.0411068
0.0451072
0.0455978
0.0421353
0.0345096
0.0223264
0.00558895
-0.0137951
-0.0314437
-0.0429471
-0.0467687
-0.0444231
-0.0381012
-0.0300137
-0.0213815
-0.0131218
-0.00566388
0.00065023
0.00567104
0.00922626
0.0104047
0.0113644
0.0111764
0.0100641
0.00393218
-0.00757706
-0.0289554
-0.0569751
-0.0738415
-0.0729305
-0.0524847
-0.0329962
-0.0156291
-0.00257985
0.00617006
0.0199864
0.0203566
0.021471
0.0101735
-0.00289855
-0.153226
-0.16115
-0.159869
-0.152859
-0.144257
-0.135744
-0.1271
-0.117586
-0.106809
-0.094839
-0.081978
-0.0685383
-0.0547747
-0.0409168
-0.0272157
-0.0139505
-0.00141736
0.0100871
0.0202395
0.0287241
0.0351517
0.0390778
0.0399988
0.0375288
0.0314935
0.0217484
0.00852961
-0.00670115
-0.0208089
-0.0306063
-0.0347096
-0.0339017
-0.0295543
-0.0233442
-0.0163178
-0.00931072
-0.00274443
0.0029653
0.00753658
0.0109588
0.0123041
0.0135215
0.0136313
0.01284
0.0075299
-0.00273325
-0.0220494
-0.0481556
-0.0644098
-0.0643228
-0.0461761
-0.0284871
-0.0124221
-0.000141791
0.00800512
0.0211607
0.0215437
0.0227555
0.0113325
-0.00261225
-0.136595
-0.143675
-0.142862
-0.136971
-0.129552
-0.122136
-0.114607
-0.106356
-0.09702
-0.0866253
-0.0754097
-0.0636384
-0.0515348
-0.0392984
-0.0271444
-0.0153158
-0.00407776
0.00629457
0.0155065
0.0232614
0.0292276
0.0330411
0.0343102
0.0327258
0.0281665
0.0206293
0.0104236
-0.00136664
-0.0125109
-0.0207315
-0.0247839
-0.0249774
-0.0221044
-0.017396
-0.0117178
-0.00581744
-8.18986e-05
0.00507143
0.00922319
0.0124866
0.0139769
0.0154836
0.0159696
0.0155232
0.0111576
0.00229223
-0.0147074
-0.0386332
-0.0541429
-0.0549048
-0.0393208
-0.0237378
-0.00917118
0.00228201
0.00983224
0.0220732
0.0225
0.0237889
0.0124665
-0.00217985
-0.121296
-0.127697
-0.127269
-0.122341
-0.115985
-0.109583
-0.103087
-0.0959854
-0.0879535
-0.0789877
-0.0692746
-0.0590369
-0.0484683
-0.0377415
-0.0270414
-0.0165783
-0.00658532
0.00268971
0.0109813
0.0180217
0.0235276
0.0272035
0.0287482
0.0279282
0.0246632
0.0190022
0.0112648
0.00228384
-0.00637679
-0.0131083
-0.016828
-0.0175679
-0.0157308
-0.0121841
-0.0076115
-0.00266501
0.00231038
0.00695054
0.0107313
0.0138269
0.0154436
0.0172343
0.0181865
0.0181529
0.0148653
0.00749503
-0.0071471
-0.0287963
-0.0434323
-0.0450106
-0.0321255
-0.0188475
-0.00593339
0.00464777
0.0116647
0.0227412
0.0232573
0.0245705
0.0135944
-0.00156015
-0.107446
-0.113152
-0.112989
-0.108893
-0.103492
-0.0980163
-0.0924625
-0.0864031
-0.0795459
-0.0718688
-0.0635183
-0.05468
-0.0455202
-0.0361877
-0.0268405
-0.0176586
-0.0088434
-0.000613372
0.00679555
0.0131491
0.0182066
0.0217286
0.0234837
0.0232961
0.0211135
0.017009
0.0112846
0.0045741
-0.00199281
-0.00735938
-0.0105756
-0.0115286
-0.0103725
-0.00769584
-0.00401175
0.000131449
0.00442735
0.00859101
0.0120514
0.0149907
0.0167228
0.0187537
0.0202353
0.0207879
0.0187115
0.0127836
0.000265632
-0.019151
-0.032758
-0.0350425
-0.0248459
-0.0139353
-0.00276433
0.00691712
0.0135093
0.0232189
0.0238871
0.0251211
0.0147406
-0.000706735
-0.0948638
-0.099886
-0.0999312
-0.0965654
-0.0920194
-0.0873785
-0.0826735
-0.0775479
-0.0717414
-0.0652193
-0.0580953
-0.0505239
-0.0426461
-0.0345893
-0.0264868
-0.0184916
-0.010776
-0.0035271
0.00304936
0.00875113
0.0133758
0.0167293
0.0186333
0.0189556
0.0176664
0.014843
0.0107412
0.00585257
0.00101376
-0.00312303
-0.0057536
-0.00669224
-0.00594672
-0.00389896
-0.000914767
0.00256496
0.00626906
0.00999051
0.0131699
0.015975
0.0178239
0.0200317
0.0220275
0.0233703
0.0225619
0.0178771
0.00706106
-0.0102219
-0.0226033
-0.025419
-0.017761
-0.00913605
0.000284204
0.00906041
0.0153501
0.0235954
0.0244922
0.0254863
0.0159272
0.000416558
-0.0833658
-0.0878166
-0.0880429
-0.0853095
-0.0815133
-0.0776128
-0.0736624
-0.0693655
-0.0644908
-0.0589955
-0.0529669
-0.0465322
-0.0398105
-0.0329093
-0.0259402
-0.019031
-0.0123288
-0.00599132
-0.000191869
0.00489864
0.00910938
0.0122828
0.0142812
0.015007
0.0144427
0.0126587
0.00986095
0.00642044
0.00288711
-0.000106863
-0.00211356
-0.00288974
-0.00235857
-0.00074716
0.00169741
0.00463744
0.0078379
0.0111541
0.0140796
0.016763
0.0187316
0.0210625
0.0234736
0.0255889
0.0259255
0.0222283
0.012768
-0.00239272
-0.0133629
-0.0165166
-0.0111395
-0.00459204
0.0031647
0.0110528
0.0171317
0.0239749
0.0251773
0.0257334
0.0171505
0.00180327
-0.0729604
-0.0769011
-0.0772499
-0.0750469
-0.0719039
-0.0686568
-0.0653723
-0.0618044
-0.0577495
-0.0531597
-0.048101
-0.0426775
-0.0369889
-0.0311244
-0.0251766
-0.0192511
-0.0134705
-0.00796954
-0.00288763
0.0016339
0.00545147
0.00843591
0.01048
0.0115124
0.0115204
0.0105645
0.00881143
0.0065263
0.00409858
0.0020018
0.000580631
4.05899e-05
0.000492133
0.00181498
0.00385325
0.00635976
0.00913877
0.0120894
0.0147815
0.0173411
0.0194079
0.021806
0.0244961
0.0271015
0.0281833
0.0252459
0.0170643
0.00413996
-0.00532364
-0.00865019
-0.00521131
-0.000436195
0.00583431
0.0128651
0.0187523
0.0244391
0.0260011
0.0259292
0.0183474
0.00336324
-0.0636007
-0.067032
-0.0674564
-0.0657039
-0.0631291
-0.0604552
-0.0577537
-0.0548213
-0.0514804
-0.0476818
-0.0434742
-0.0389419
-0.0341669
-0.0292235
-0.0241874
-0.0191445
-0.0141947
-0.00944758
-0.00501967
-0.00102538
0.00241709
0.00520401
0.00724955
0.00850028
0.00894778
0.00863686
0.00769801
0.00632999
0.00479762
0.00343676
0.00252974
0.00224863
0.00270637
0.00384928
0.00558844
0.00775047
0.01018
0.0128046
0.0152812
0.0177037
0.0198195
0.0222047
0.0248277
0.0276344
0.0290206
0.0267061
0.0198773
0.00926273
0.00129256
-0.00204101
-0.00012767
0.00323216
0.00825546
0.0144568
0.0200796
0.0249897
0.026914
0.0261088
0.0193781
0.00489667
-0.0551341
-0.0581367
-0.0585956
-0.0572248
-0.055138
-0.0529581
-0.0507599
-0.0483754
-0.0456506
-0.0425369
-0.0390691
-0.0353148
-0.0313412
-0.027208
-0.0229765
-0.018716
-0.0145073
-0.0104377
-0.00660185
-0.00309232
-4.65983e-06
0.00257769
0.00458579
0.00597701
0.00674437
0.00692462
0.00661296
0.00594941
0.00512194
0.00436199
0.00389655
0.00386864
0.00438151
0.0054205
0.00694369
0.00883369
0.0109742
0.01331
0.0155848
0.0178535
0.0199557
0.0222582
0.0247309
0.0272928
0.0286373
0.0268426
0.0213622
0.012947
0.00639276
0.00323685
0.00406223
0.00636163
0.0103937
0.0157836
0.0209955
0.0254919
0.0277285
0.0262387
0.0200505
0.00613391
-0.0474892
-0.0501205
-0.0506328
-0.0495575
-0.0478752
-0.0461143
-0.0443451
-0.0424283
-0.0402305
-0.0377048
-0.0348745
-0.0317928
-0.0285143
-0.0250873
-0.0215599
-0.0179864
-0.0144326
-0.0109681
-0.00766572
-0.00459862
-0.00184485
0.000528029
0.00246463
0.00393058
0.00491735
0.00545591
0.00562612
0.00547334
0.00518637
0.00491011
0.00481632
0.0050184
0.00560861
0.00659361
0.00796234
0.00963741
0.0115383
0.0136192
0.0157011
0.0178008
0.0198199
0.0219723
0.0241876
0.0263412
0.0274682
0.0260852
0.0218217
0.0153448
0.0100821
0.00725744
0.00739355
0.00894222
0.012209
0.0168061
0.021459
0.0257117
0.0281459
0.026157
0.02017
0.00686553
-0.040616
-0.0429066
-0.0434317
-0.0426272
-0.0412846
-0.0398753
-0.0384668
-0.0369448
-0.0351942
-0.0331686
-0.0308822
-0.0283769
-0.0256965
-0.0228793
-0.0199625
-0.0169887
-0.0140087
-0.0110775
-0.00825154
-0.0055873
-0.0031478
-0.000987199
0.000849709
0.00233457
0.00345616
0.00423232
0.00469992
0.00496861
0.00509294
0.00519505
0.00540077
0.00579952
0.00647078
0.0074312
0.00868863
0.0101925
0.0118933
0.0137489
0.0156419
0.0175618
0.0194454
0.0213935
0.023304
0.0250331
0.0258997
0.0248396
0.0215978
0.0167335
0.0125987
0.0101995
0.00995206
0.0109926
0.0136548
0.0174871
0.0215063
0.0254415
0.027881
0.0256
0.0196061
0.00705132
-0.0344398
-0.0364242
-0.0369487
-0.0363611
-0.0353178
-0.0342035
-0.0330904
-0.0318912
-0.0305192
-0.0289152
-0.0270893
-0.0250738
-0.0229034
-0.0206081
-0.0182168
-0.0157611
-0.0132796
-0.0108163
-0.00841361
-0.00611434
-0.00396768
-0.00201804
-0.000302531
0.00115466
0.00234379
0.00327717
0.0039798
0.00450957
0.00492616
0.00530765
0.00574253
0.00629899
0.00704244
0.007992
0.0091662
0.0105315
0.0120627
0.0137183
0.015427
0.0171616
0.0188742
0.0205932
0.0222015
0.0235598
0.024193
0.0233937
0.020975
0.0173957
0.0142065
0.0122627
0.0118373
0.0125429
0.0146985
0.0178088
0.0211708
0.0245776
0.0267644
0.0243823
0.0183745
0.00679689
-0.0288893
-0.0306072
-0.0311224
-0.0307096
-0.0299114
-0.0290554
-0.0282045
-0.0272857
-0.0262058
-0.0249418
-0.0234974
-0.0218928
-0.0201526
-0.0183004
-0.0163577
-0.0143462
-0.012296
-0.0102414
-0.00821487
-0.00624112
-0.00436415
-0.00262144
-0.00104383
0.000347882
0.00155327
0.00256831
0.0034132
0.00412176
0.00473808
0.00531557
0.00591613
0.00658992
0.00738886
0.00833035
0.0094377
0.0106876
0.0120715
0.0135502
0.0150829
0.0166313
0.0181548
0.0196472
0.0209852
0.0220468
0.0225019
0.0219172
0.0201422
0.0175562
0.0151312
0.0136216
0.0131421
0.0136297
0.0153392
0.0177807
0.0205025
0.0231865
0.0249022
0.0225461
0.0166472
0.0062496
-0.0239127
-0.025397
-0.0258939
-0.02562
-0.0250217
-0.0243737
-0.0237309
-0.0230345
-0.0222152
-0.0212407
-0.0201107
-0.0188441
-0.0174617
-0.0159819
-0.0144221
-0.0127869
-0.0111041
-0.00940845
-0.00772041
-0.0060321
-0.0043949
-0.00285442
-0.00142715
-0.000119503
0.00105162
0.00209249
0.00300922
0.00382347
0.00456483
0.00526957
0.0059803
0.00673255
0.00756636
0.00849561
0.00954381
0.0106938
0.0119474
0.013269
0.0146354
0.0160056
0.0173427
0.0186202
0.0197273
0.0205676
0.0209036
0.0204955
0.0192135
0.0173773
0.0155422
0.0142185
0.0139455
0.0142986
0.0156085
0.0174439
0.0195654
0.0214553
0.0225779
0.0203064
0.0146764
0.00554446
-0.0194578
-0.0207356
-0.0212077
-0.0210435
-0.0206077
-0.0201291
-0.0196566
-0.0191434
-0.0185319
-0.017792
-0.016922
-0.0159347
-0.0148446
-0.0136634
-0.0124018
-0.0110837
-0.00971666
-0.00830564
-0.00687344
-0.00546234
-0.00409354
-0.00276488
-0.00149694
-0.000301992
0.000806824
0.0018275
0.00276232
0.0036241
0.004431
0.00520691
0.00598045
0.00677583
0.00762287
0.0085314
0.00952255
0.0105827
0.0117189
0.0128994
0.0141117
0.0153168
0.0164803
0.0175674
0.018485
0.0191646
0.019428
0.0191648
0.0182575
0.0169789
0.0156306
0.0146696
0.0143834
0.0146092
0.0155603
0.0168595
0.0184229
0.0195825
0.0200865
0.017913
0.0126913
0.00479195
-0.0154723
-0.0165697
-0.0170137
-0.0169352
-0.0166309
-0.0162899
-0.015955
-0.0155894
-0.015145
-0.0145956
-0.0139382
-0.0131815
-0.0123365
-0.0114123
-0.0104173
-0.00936087
-0.00825225
-0.00710109
-0.00592139
-0.00475415
-0.00358876
-0.00243916
-0.00132071
-0.000244763
0.000778945
0.00174786
0.00266125
0.00352581
0.00435171
0.00515396
0.00595106
0.00675872
0.00759825
0.0084756
0.00940831
0.0103851
0.0114138
0.0124674
0.0135391
0.0145939
0.0156012
0.0165278
0.0172945
0.0178577
0.018082
0.0179348
0.0173112
0.0164378
0.0154701
0.0147803
0.0145097
0.014618
0.0152562
0.0160947
0.0171485
0.0176711
0.0176409
0.0155607
0.0108392
0.00407003
-0.0119123
-0.0128529
-0.0132668
-0.0132544
-0.0130552
-0.0128248
-0.0126002
-0.0123522
-0.0120415
-0.0116455
-0.0111602
-0.0105916
-0.00994788
-0.00923539
-0.00845953
-0.00762596
-0.00674195
-0.00581607
-0.00485988
-0.00388742
-0.00290487
-0.00192159
-0.000948952
4.34533e-06
0.00093054
0.0018267
0.00269048
0.00352475
0.0043344
0.00512814
0.00591736
0.00671142
0.0075248
0.00836048
0.00923157
0.0101284
0.0110579
0.0119976
0.0129426
0.0138635
0.014734
0.0155265
0.0161743
0.0166538
0.0168594
0.0168009
0.0163891
0.0158063
0.0151241
0.0146222
0.0143793
0.014381
0.0147554
0.0152113
0.0158169
0.0158746
0.0153794
0.0133762
0.00918935
0.00342197
-0.00873877
-0.00954289
-0.00992563
-0.00996321
-0.00984739
-0.00970506
-0.00956786
-0.00941302
-0.00920832
-0.00893451
-0.00858736
-0.00817082
-0.0076906
-0.00715115
-0.00655587
-0.00590808
-0.00521266
-0.00447547
-0.00370417
-0.00290685
-0.00209006
-0.00126054
-0.000426578
0.00040487
0.00122712
0.00203722
0.00283231
0.00361291
0.00438063
0.0051398
0.00589681
0.00665659
0.00742831
0.00821255
0.00901839
0.00983724
0.0106744
0.0115114
0.012343
0.0131461
0.0138984
0.0145794
0.0151338
0.0155509
0.0157483
0.0157552
0.0154969
0.0151158
0.0146401
0.014269
0.0140567
0.0139542
0.0141085
0.0142587
0.0144809
0.0141982
0.0133657
0.0114281
0.00776119
0.0028643
-0.0059155
-0.00660127
-0.00695297
-0.00702754
-0.00697723
-0.00690449
-0.00683593
-0.00675394
-0.00663242
-0.00645521
-0.00621803
-0.00592331
-0.00557501
-0.00517606
-0.00472845
-0.0042339
-0.00369519
-0.003116
-0.00250129
-0.00185618
-0.00118732
-0.000497869
0.000206085
0.000919265
0.00163596
0.00235312
0.0030678
0.00377935
0.00448741
0.00519345
0.00590046
0.0066103
0.00732823
0.00805302
0.00879034
0.00953275
0.0102828
0.0110261
0.0117574