/*--------------------------------*- C++ -*----------------------------------*\
| =========                 |                                                 |
| \\      /  F ield         | OpenFOAM: The Open Source CFD Toolbox           |
|  \\    /   O peration     | Version:  2512                                  |
|   \\  /    A nd           | Website:  www.openfoam.com                      |
|    \\/     M anipulation  |                                                 |
\*---------------------------------------------------------------------------*/
FoamFile
{
    version     2.0;
    format      ascii;
    arch        "LSB;label=32;scalar=64";
    class       volVectorField;
    location    "168";
    object      U;
}
// * * * * * * * * * * * * * * * * * * * * * * * * * * * * * * * * * * * * * //

dimensions      [0 1 -1 0 0 0 0];

internalField   nonuniform List<vector> 
13248
(
(-0.0144494 0.0127352 8.36956e-20)
(-0.0269436 0.0266628 0)
(-0.0232128 0.0339289 -1.57846e-19)
(-0.00338496 0.0369556 1.48689e-19)
(0.0324867 0.0374004 1.38781e-19)
(0.0842833 0.0364109 0)
(0.151664 0.0347964 0)
(0.233859 0.033131 3.32452e-19)
(0.329449 0.0317917 -1.14814e-21)
(0.436185 0.0309603 -2.91258e-19)
(0.550945 0.0306192 2.72652e-19)
(0.669827 0.0305599 -1.70554e-19)
(0.788412 0.0304164 0)
(0.90213 0.0297236 -3.01349e-19)
(1.00668 0.0279935 5.65255e-19)
(1.09842 0.0247969 -1.34924e-19)
(1.17476 0.0198363 -2.44951e-19)
(1.2343 0.0129793 2.29971e-19)
(1.27701 0.00434209 0)
(1.304 -0.0060769 0)
(1.31756 -0.017136 0)
(1.31972 -0.0315592 0)
(1.31406 -0.0402284 6.88706e-20)
(1.3004 -0.0693575 2.4629e-19)
(-0.0146162 0.0116258 -2.5276e-19)
(-0.0219785 0.0217927 1.7228e-19)
(-0.0084368 0.0254059 -1.70118e-21)
(0.0250308 0.0253719 -2.27422e-19)
(0.0778415 0.0237063 -1.38629e-19)
(0.149297 0.0218184 -1.31299e-19)
(0.238157 0.0206408 -2.40275e-19)
(0.342302 0.020728 2.278e-19)
(0.458526 0.0222976 0)
(0.582525 0.0252435 5.99474e-22)
(0.70916 0.0291656 1.59192e-21)
(0.832916 0.0334345 1.70943e-19)
(0.948483 0.0372952 0)
(1.05132 0.0399906 0)
(1.1381 0.040884 2.06026e-19)
(1.20703 0.0395538 -3.87357e-19)
(1.25787 0.0358438 2.33505e-19)
(1.29183 0.0298646 -2.19243e-19)
(1.31121 0.0219336 -9.65137e-20)
(1.31895 0.0125311 -1.77596e-19)
(1.318 0.00216654 -7.31107e-20)
(1.31116 -0.00875764 -1.37793e-19)
(1.30017 -0.018201 2.02043e-19)
(1.28737 -0.0318055 5.7158e-20)
(-0.0134494 0.00986449 0)
(-0.0126626 0.0160321 0)
(0.0142502 0.0167502 8.04848e-20)
(0.0652246 0.0150116 7.40085e-20)
(0.138736 0.0129818 -1.92435e-21)
(0.232886 0.0121884 -1.36431e-19)
(0.344726 0.0135198 0)
(0.469949 0.0172974 -1.13252e-19)
(0.602921 0.0233305 1.07047e-19)
(0.737113 0.0309859 1.10078e-21)
(0.865828 0.0393124 -1.83292e-19)
(0.983024 0.0472162 -1.69063e-19)
(1.08404 0.053657 2.33491e-21)
(1.16606 0.0578182 -1.41873e-19)
(1.22826 0.0592204 3.39241e-19)
(1.27164 0.0577555 0)
(1.2986 0.0536489 -2.22848e-19)
(1.31236 0.0473574 1.08543e-19)
(1.31634 0.0394866 9.64427e-20)
(1.31358 0.0305575 0)
(1.30657 0.0213857 7.92531e-20)
(1.29677 0.0115879 -2.69568e-19)
(1.28547 0.0041382 2.53062e-19)
(1.27319 -0.00851221 1.5709e-19)
(-0.0104539 0.00741148 -8.96453e-20)
(0.00210994 0.00935847 -9.27771e-20)
(0.046141 0.00803777 8.37378e-20)
(0.118202 0.00613642 0)
(0.215255 0.00570404 0)
(0.333386 0.00813591 -3.40474e-21)
(0.467069 0.0139754 0)
(0.60917 0.0229758 -3.48798e-19)
(0.751567 0.0342413 3.24226e-19)
(0.886197 0.0464426 -4.002e-19)
(1.00619 0.0580997 9.18016e-20)
(1.10676 0.0678724 0)
(1.18564 0.0747882 1.53912e-19)
(1.24301 0.0783601 -2.85468e-19)
(1.28103 0.0785835 6.80153e-20)
(1.30312 0.0758358 1.75946e-19)
(1.31315 0.0707219 -7.12858e-21)
(1.31475 0.0639231 -1.95439e-19)
(1.3109 0.0560642 0)
(1.30372 0.0476857 0)
(1.29458 0.0391911 -7.03769e-20)
(1.28426 0.0307168 6.31369e-20)
(1.27327 0.0236244 2.26833e-19)
(1.26193 0.0131216 -2.12988e-19)
(-0.00520901 0.0044288 -9.4713e-20)
(0.0232659 0.00222865 -9.44137e-20)
(0.0881785 3.86442e-06 2.65379e-19)
(0.184311 -0.000252971 -1.61059e-19)
(0.306355 0.00304471 1.51592e-19)
(0.44748 0.0107767 2.75336e-19)
(0.598903 0.0227159 -1.94853e-19)
(0.750633 0.0376776 -2.37367e-19)
(0.892912 0.0538767 4.66949e-21)
(1.01776 0.0693654 3.03239e-19)
(1.12006 0.0824542 0)
(1.19798 0.0920062 8.37006e-20)
(1.25262 0.09755 0)
(1.28717 0.0992167 -1.37312e-19)
(1.30594 0.0975607 1.93272e-19)
(1.3133 0.0933407 2.04278e-21)
(1.31308 0.0873311 -5.09387e-20)
(1.3082 0.0801984 9.60635e-20)
(1.30063 0.0724616 8.26785e-20)
(1.29158 0.0644839 -7.43112e-20)
(1.28175 0.0565552 7.03616e-20)
(1.27147 0.0487303 -6.31222e-20)
(1.26097 0.0418289 0)
(1.25038 0.0325898 -4.76489e-20)
(0.00264009 0.00122523 9.46994e-20)
(0.0514882 -0.00450213 9.958e-20)
(0.140797 -0.00605705 -8.89883e-20)
(0.262991 -0.00257694 1.66135e-19)
(0.409612 0.00659058 -1.56362e-19)
(0.570161 0.0212936 1.41549e-19)
(0.732519 0.0400768 -6.80478e-20)
(0.884766 0.0605956 1.78178e-19)
(1.01729 0.0802936 -1.12177e-19)
(1.12426 0.0970175 1.98693e-19)
(1.20397 0.109406 -4.5867e-19)
(1.25826 0.116989 1.68566e-19)
(1.29128 0.120049 -1.47944e-19)
(1.30812 0.119342 1.3897e-19)
(1.31373 0.115803 1.20542e-19)
(1.31218 0.110326 1.06271e-19)
(1.30643 0.103638 -2.95545e-19)
(1.29843 0.0962752 1.83635e-19)
(1.28932 0.0886011 -8.26834e-20)
(1.27969 0.0808655 2.15964e-19)
(1.26985 0.073231 -6.97389e-20)
(1.25991 0.0658074 -1.69975e-19)
(1.24994 0.0589722 1.5696e-19)
(1.23995 0.0506871 4.76356e-20)
(0.0133767 -0.00178983 0)
(0.087124 -0.00971381 9.67285e-22)
(0.20372 -0.00853721 1.86813e-19)
(0.352517 0.000935565 -1.75094e-19)
(0.521106 0.0178148 -1.58154e-19)
(0.695096 0.0403577 2.93962e-19)
(0.859903 0.0655902 -1.36529e-19)
(1.00356 0.0901396 1.8182e-19)
(1.11879 0.111173 -3.98832e-21)
(1.20357 0.126955 -1.03034e-19)
(1.26018 0.136951 2.2485e-19)
(1.29363 0.141586 -3.32021e-19)
(1.30986 0.141843 0)
(1.31445 0.138877 -6.5387e-20)
(1.31189 0.133747 -1.75087e-19)
(1.30531 0.127282 5.49964e-20)
(1.29673 0.120067 2.12915e-21)
(1.28727 0.112485 -1.21959e-19)
(1.27752 0.104782 7.31119e-21)
(1.26772 0.0971154 1.41211e-19)
(1.25799 0.0895956 -6.32607e-20)
(1.24833 0.0823131 -2.40438e-20)
(1.23874 0.0753717 7.41188e-20)
(1.22918 0.0677162 0)
(0.0271756 -0.0041391 0)
(0.130065 -0.0121586 5.06659e-20)
(0.27579 -0.00578685 -2.43711e-19)
(0.449926 0.0118427 8.87924e-20)
(0.635712 0.0376222 -8.35648e-20)
(0.815534 0.0678074 -7.64227e-20)
(0.974201 0.097996 -1.34985e-19)
(1.10201 0.124338 6.74244e-20)
(1.19579 0.144439 5.85789e-20)
(1.25787 0.157537 0)
(1.29399 0.164154 1.33505e-19)
(1.31102 0.16553 -1.98897e-19)
(1.31539 0.163104 1.48078e-19)
(1.31215 0.158166 6.5423e-20)
(1.30481 0.151704 -5.38399e-20)
(1.29557 0.144396 -4.52462e-20)
(1.2856 0.13667 -4.23538e-20)
(1.27552 0.128785 1.2626e-19)
(1.26556 0.120902 0)
(1.25583 0.113124 6.38157e-20)
(1.24631 0.10553 5.38961e-20)
(1.23697 0.0981873 -1.33595e-19)
(1.22777 0.0910806 -9.16781e-20)
(1.21864 0.0838482 8.47219e-20)
(0.0440498 -0.00530078 -5.46224e-20)
(0.179646 -0.0105834 -2.09259e-21)
(0.35492 0.00364508 4.96457e-20)
(0.551226 0.031183 1.38988e-19)
(0.747808 0.0661273 4.04579e-20)
(0.925486 0.102693 -7.81393e-20)
(1.07086 0.135607 7.13431e-20)
(1.17847 0.161354 -6.25036e-20)
(1.24995 0.178637 1.12e-19)
(1.29154 0.187949 4.77174e-20)
(1.31113 0.190803 -1.35478e-19)
(1.31622 0.189 3.9954e-20)
(1.31274 0.184159 6.83896e-20)
(1.30475 0.177509 -3.35999e-20)
(1.29477 0.169878 0)
(1.28414 0.161771 5.0438e-20)
(1.27354 0.153483 8.5647e-20)
(1.26321 0.145184 1.48497e-20)
(1.25324 0.136978 -7.15688e-20)
(1.24364 0.128937 3.00735e-20)
(1.23435 0.121119 0)
(1.2253 0.113554 -2.37348e-20)
(1.21645 0.106199 -2.24822e-20)
(1.20768 0.0991313 0)
(0.0637916 -0.0047397 0)
(0.234588 -0.00385224 2.8621e-20)
(0.438203 0.0208199 5.30776e-20)
(0.651865 0.0593171 -1.41764e-19)
(0.852122 0.102687 4.57996e-20)
(1.02059 0.14357 0)
(1.14791 0.176723 6.87953e-20)
(1.23387 0.199779 -9.60418e-20)
(1.28467 0.212933 -5.5943e-20)
(1.30924 0.217921 2.52702e-20)
(1.31641 0.216999 -4.057e-20)
(1.31331 0.212243 9.84411e-20)
(1.30489 0.20524 4.94329e-20)
(1.29416 0.197046 -3.42798e-20)
(1.28277 0.188298 -3.14383e-21)
(1.27149 0.179352 -9.45915e-20)
(1.26063 0.170401 4.31234e-20)
(1.25028 0.161557 -1.05284e-21)
(1.24044 0.152887 0)
(1.23104 0.144443 -3.01049e-20)
(1.22203 0.136262 0)
(1.21332 0.128345 6.84965e-20)
(1.20483 0.120701 -8.16608e-20)
(1.19644 0.113602 3.72612e-20)
(0.0859356 -0.00194794 -1.49215e-20)
(0.293025 0.00894147 -7.22779e-20)
(0.522155 0.046287 8.22555e-20)
(0.747284 0.0959158 4.84044e-20)
(0.94439 0.146093 -2.31197e-20)
(1.09837 0.188818 3.88314e-20)
(1.20537 0.219882 -1.88625e-20)
(1.27052 0.238657 3.13807e-20)
(1.30354 0.246923 0)
(1.31484 0.247446 7.12073e-20)
(1.31317 0.242923 -2.88166e-21)
(1.30472 0.235461 -5.75693e-20)
(1.29335 0.226474 2.47167e-20)
(1.28113 0.216809 -2.79849e-20)
(1.26906 0.206926 -1.07399e-20)
(1.25753 0.197062 1.23e-20)
(1.24666 0.18734 -9.57763e-21)
(1.23643 0.177831 -5.20174e-20)
(1.22679 0.16858 3.19061e-20)
(1.21767 0.159621 6.5769e-21)
(1.20898 0.15097 5.80853e-21)
(1.20063 0.142616 5.13162e-21)
(1.19252 0.134636 0)
(1.1845 0.127286 0)
(0.109831 0.00352117 1.49319e-20)
(0.352755 0.0283974 -1.49668e-20)
(0.603215 0.0800328 -2.74223e-20)
(0.833552 0.140057 0)
(1.02172 0.194823 -1.1482e-20)
(1.15793 0.236894 -1.03337e-20)
(1.24442 0.26396 -1.7687e-20)
(1.29094 0.277406 0)
(1.30952 0.280459 0)
(1.31097 0.276607 0)
(1.30329 0.268708 0)
(1.29153 0.258729 0)
(1.27852 0.247853 -1.55749e-20)
(1.2656 0.236715 7.10303e-21)
(1.25332 0.225631 1.23727e-20)
(1.24182 0.214751 5.78096e-21)
(1.23112 0.204147 1.43896e-20)
(1.22115 0.193862 0)
(1.21183 0.183924 -3.48276e-21)
(1.20309 0.174352 -3.31754e-21)
(1.19481 0.16514 -5.81777e-21)
(1.1869 0.156291 -5.13981e-21)
(1.17924 0.147947 0)
(1.17169 0.140181 3.72777e-21)
(-0.00195372 0.0424696 9.42398e-21)
(-0.00680498 0.107164 -9.73102e-21)
(-0.0143684 0.156046 -1.83654e-20)
(-0.0239057 0.191488 0)
(-0.034758 0.216039 -2.44753e-20)
(-0.0463697 0.232387 7.65694e-21)
(-0.0581975 0.243024 -1.45899e-20)
(-0.0697574 0.24996 0)
(-0.0806592 0.254593 0)
(-0.0906044 0.257702 0)
(-0.0993681 0.259551 0)
(-0.106775 0.260012 0)
(-0.112676 0.258708 -5.37199e-23)
(-0.116935 0.255114 -1.00708e-20)
(-0.119415 0.248636 1.97308e-20)
(-0.11998 0.238661 2.82723e-20)
(-0.118497 0.224599 9.36115e-21)
(-0.114836 0.205909 0)
(-0.108883 0.182154 8.18257e-21)
(-0.100584 0.153074 -2.36796e-20)
(-0.0898754 0.118429 -1.52899e-20)
(-0.0767074 0.0783795 -1.45655e-20)
(-0.0610872 0.0333544 0)
(-0.0431911 -0.015518 0)
(-0.00417092 0.0433706 -2.84214e-20)
(-0.0110685 0.110482 4.87692e-20)
(-0.0178964 0.162076 -1.85857e-20)
(-0.0250646 0.200095 -3.48482e-20)
(-0.0325774 0.226758 4.91377e-20)
(-0.0402375 0.244562 -3.10847e-20)
(-0.0477257 0.255931 4.38203e-20)
(-0.0546741 0.262912 2.79089e-20)
(-0.0607211 0.266993 0)
(-0.0655413 0.269068 -2.52475e-20)
(-0.0688565 0.269501 -6.94205e-22)
(-0.0704346 0.268244 2.22519e-20)
(-0.0700821 0.264972 3.27364e-20)
(-0.067637 0.259191 4.22002e-20)
(-0.0629643 0.250325 -1.88012e-20)
(-0.0559565 0.23778 -5.69473e-20)
(-0.0465386 0.220983 1.93846e-20)
(-0.0346528 0.199423 -7.1464e-20)
(-0.0201854 0.172683 0)
(-0.0033443 0.140446 1.59706e-20)
(0.0157725 0.102565 1.5263e-20)
(0.037264 0.0591645 1.45396e-20)
(0.0611947 0.0107831 0)
(0.0883005 -0.0410617 0)
(-0.00627208 0.0422231 0)
(-0.0152964 0.10919 9.92301e-20)
(-0.021587 0.162052 -3.7367e-20)
(-0.0264729 0.201954 3.50529e-20)
(-0.0305136 0.230536 -9.95104e-20)
(-0.0338452 0.249893 0)
(-0.0363914 0.262219 -5.93486e-20)
(-0.0379407 0.269477 2.79405e-20)
(-0.0382068 0.273182 -5.33293e-20)
(-0.0368809 0.274319 2.55872e-20)
(-0.0336676 0.273369 1.45881e-19)
(-0.0283063 0.270399 -6.86331e-20)
(-0.0205805 0.265182 -1.11492e-19)
(-0.0103222 0.257306 -4.47389e-20)
(0.00258765 0.246263 -2.09672e-21)
(0.0182186 0.23152 1.57963e-19)
(0.0365891 0.212564 -7.51611e-20)
(0.0576701 0.188939 -8.82946e-22)
(0.081399 0.160269 0)
(0.10763 0.126207 -6.90838e-20)
(0.136174 0.0867095 0)
(0.166875 0.0417866 -6.32843e-20)
(0.199594 -0.00807568 2.39515e-19)
(0.237384 -0.0616423 6.72181e-22)
(-0.00800621 0.039325 0)
(-0.0190276 0.103695 3.70312e-22)
(-0.0250746 0.156178 3.77905e-20)
(-0.0280274 0.196943 -3.55661e-20)
(-0.0288185 0.226909 3.31837e-20)
(-0.0278468 0.247641 1.88826e-19)
(-0.0252686 0.260969 -5.92891e-20)
(-0.0210579 0.268657 -5.62627e-20)
(-0.0150544 0.272165 1.0667e-19)
(-0.00702316 0.272525 -1.53175e-19)
(0.00329445 0.270321 4.78981e-20)
(0.0161429 0.265753 4.63895e-20)
(0.0317273 0.258724 0)
(0.0501999 0.248941 4.26812e-20)
(0.0716533 0.236001 0)
(0.0961204 0.219459 7.9766e-20)
(0.123578 0.198879 -1.56633e-19)
(0.153953 0.173861 3.26397e-20)
(0.187133 0.14407 1.42165e-19)
(0.222961 0.109247 6.89952e-20)
(0.261236 0.0693018 0)
(0.302075 0.0242309 -1.92774e-19)
(0.343658 -0.0256088 6.03047e-20)
(0.394938 -0.0791241 0)
(-0.00922696 0.0351768 0)
(-0.021953 0.0948661 -1.20802e-19)
(-0.0280993 0.145256 -3.77755e-20)
(-0.0296695 0.185566 -7.11509e-20)
(-0.027743 0.216006 6.699e-20)
(-0.022878 0.237573 -6.294e-20)
(-0.0154228 0.251663 1.19236e-19)
(-0.0055424 0.259758 5.70301e-20)
(0.00675938 0.263179 -1.59537e-19)
(0.02159 0.262939 1.02199e-19)
(0.0391153 0.259691 -1.45518e-19)
(0.0595153 0.25375 3.24678e-19)
(0.0829504 0.245153 -1.75803e-19)
(0.109541 0.233741 8.49955e-20)
(0.13936 0.219232 2.49132e-19)
(0.172431 0.201282 -7.5079e-20)
(0.208733 0.179534 -7.19241e-20)
(0.248226 0.153627 -7.27703e-20)
(0.290837 0.12329 0)
(0.336559 0.0883206 -1.40561e-19)
(0.384996 0.0485774 -1.37737e-19)
(0.437351 0.00421248 1.89848e-19)
(0.487739 -0.0448828 2.44394e-19)
(0.555456 -0.0969361 -2.28231e-19)
(-0.00992531 0.0303876 0)
(-0.0239871 0.0838873 -1.62209e-19)
(-0.0305619 0.130571 3.40531e-22)
(-0.0313787 0.168923 1.43069e-19)
(-0.0274457 0.198592 0)
(-0.0193676 0.220074 0)
(-0.00762102 0.234338 0)
(0.00746119 0.242541 -5.65535e-20)
(0.0257027 0.245806 -9.09537e-22)
(0.0470561 0.245065 1.00091e-19)
(0.0715617 0.240984 -1.46311e-19)
(0.0993088 0.233948 -1.34482e-21)
(0.130403 0.224107 0)
(0.164947 0.211418 -8.49499e-20)
(0.203028 0.195709 8.31367e-20)
(0.244736 0.176715 -2.32717e-19)
(0.290101 0.154151 3.05643e-19)
(0.339207 0.127769 7.91069e-20)
(0.392123 0.0972968 7.68452e-21)
(0.448971 0.0625852 -2.69466e-19)
(0.508658 0.0233302 -1.29117e-19)
(0.574359 -0.0195584 4.37794e-19)
(0.633757 -0.0673684 -2.92599e-19)
(0.718893 -0.116306 0)
(-0.0102328 0.0255842 7.95987e-20)
(-0.0252829 0.0720785 8.12647e-20)
(-0.0325292 0.113712 -7.63181e-20)
(-0.033135 0.148598 -1.42578e-19)
(-0.0278748 0.176061 1.34234e-19)
(-0.0173056 0.196244 -1.25469e-19)
(-0.00196006 0.209761 1.76816e-19)
(0.0177129 0.217467 -5.64885e-20)
(0.0413975 0.220262 1.04639e-19)
(0.0689123 0.218952 0)
(0.100191 0.214156 9.52724e-20)
(0.135259 0.206283 -1.7738e-19)
(0.174208 0.195541 1.74545e-19)
(0.217181 0.181964 -1.63925e-19)
(0.264322 0.165451 0)
(0.315828 0.145853 1.53747e-19)
(0.371946 0.122957 2.99286e-19)
(0.432746 0.0965406 -2.82631e-19)
(0.498084 0.0663335 -1.36019e-19)
(0.568171 0.0324739 -1.37673e-19)
(0.640689 -0.00560858 3.80731e-19)
(0.720276 -0.0455887 1.19605e-19)
(0.788181 -0.0909897 -1.11129e-19)
(0.886756 -0.133765 1.02945e-19)
(-0.0103898 0.021314 -7.96098e-20)
(-0.026169 0.0606806 2.44238e-19)
(-0.0341496 0.0963298 -7.69245e-20)
(-0.0347986 0.12644 1.4251e-19)
(-0.0285785 0.150293 -1.34171e-19)
(-0.0159382 0.167871 4.62898e-23)
(0.00260539 0.179553 5.86643e-20)
(0.0265669 0.185955 2.19401e-19)
(0.0555722 0.187776 7.72009e-22)
(0.0893885 0.185674 -9.80743e-20)
(0.127927 0.180188 0)
(0.171229 0.171701 -8.92272e-20)
(0.219435 0.160428 1.67741e-19)
(0.272765 0.146455 1.64094e-19)
(0.331492 0.129756 -7.69992e-20)
(0.395773 0.11022 -1.8586e-21)
(0.465632 0.0876715 -7.32813e-20)
(0.540915 0.0619951 1.3712e-19)
(0.620887 0.0330848 1.35998e-19)
(0.705003 0.00146899 -1.30458e-19)
(0.789636 -0.0337727 1.19203e-19)
(0.878776 -0.0686806 -1.12262e-19)
(0.95144 -0.109781 0)
(1.05108 -0.142846 -1.02938e-19)
(-0.0106747 0.0179572 7.97741e-20)
(-0.0269988 0.0506476 -8.16582e-20)
(-0.0354626 0.0798605 7.66601e-20)
(-0.0358872 0.104275 0)
(-0.0284301 0.123407 0)
(-0.0134012 0.137262 1.24107e-19)
(0.00877209 0.146128 -1.16994e-19)
(0.0376723 0.15047 1.08696e-19)
(0.0729864 0.150833 -5.13057e-19)
(0.114548 0.147746 -5.08176e-22)
(0.162339 0.141654 9.10616e-20)
(0.216465 0.13289 0)
(0.277099 0.121663 -1.67603e-19)
(0.34437 0.108061 3.17998e-19)
(0.418269 0.0920772 -2.27898e-19)
(0.498533 0.0736484 -3.70398e-19)
(0.584474 0.0527391 -6.30621e-21)
(0.674929 0.0293854 2.62461e-19)
(0.768033 0.00360338 0)
(0.861811 -0.0238659 0)
(0.952006 -0.0539875 -1.19209e-19)
(1.0398 -0.0821076 1.12271e-19)
(1.10849 -0.116857 -4.02234e-19)
(1.19081 -0.138785 3.7668e-19)
(-0.0113017 0.0156559 0)
(-0.0279384 0.042483 0)
(-0.0361473 0.0652931 -2.29718e-19)
(-0.0353184 0.0836191 7.32421e-20)
(-0.0253736 0.0974302 1.29457e-21)
(-0.00646918 0.106915 1.25449e-19)
(0.0211274 0.112395 0)
(0.0571639 0.114283 -1.08712e-19)
(0.101477 0.113034 1.02295e-19)
(0.154008 0.109081 -1.91673e-19)
(0.214761 0.102793 -7.65671e-22)
(0.28371 0.0944408 1.72997e-19)
(0.360679 0.0841936 2.45917e-21)
(0.445209 0.0721253 1.60371e-19)
(0.536406 0.0582542 -2.21989e-19)
(0.632849 0.0425647 0)
(0.732541 0.0250618 2.7552e-19)
(0.832925 0.00580513 -3.91288e-19)
(0.930975 -0.0150736 1.20846e-19)
(1.02351 -0.037077 0)
(1.10674 -0.0606157 1.06169e-19)
(1.17943 -0.0822197 4.05977e-19)
(1.23269 -0.109624 -3.81047e-19)
(1.28366 -0.122863 -4.19835e-19)
(-0.0123103 0.0142803 2.40803e-19)
(-0.02877 0.0361594 -3.30317e-19)
(-0.0353379 0.0530175 1.2556e-21)
(-0.0313002 0.0654384 7.30601e-20)
(-0.0164521 0.0739709 -1.35029e-19)
(0.00919519 0.0790975 -1.24986e-19)
(0.0455537 0.081269 2.32271e-19)
(0.0925322 0.0809276 -1.6241e-21)
(0.150036 0.0784964 -2.0407e-19)
(0.217897 0.074348 3.83073e-19)
(0.295756 0.0687754 1.21175e-21)
(0.382915 0.0619744 -1.69974e-19)
(0.478198 0.0540425 0)
(0.579849 0.0449866 0)
(0.685509 0.0347503 -7.40438e-20)
(0.792263 0.0232434 -1.37779e-19)
(0.896795 0.0103983 -2.66007e-19)
(0.995576 -0.00384658 2.49695e-19)
(1.08523 -0.0193268 -1.20918e-19)
(1.16269 -0.0360716 2.19739e-19)
(1.22576 -0.0534997 -1.08815e-19)
(1.27345 -0.0709199 1.84327e-19)
(1.30381 -0.0914111 -4.35745e-19)
(1.32359 -0.101377 8.28059e-20)
(-0.0134971 0.0134698 8.10025e-20)
(-0.0287958 0.0311588 0)
(-0.0316213 0.0428036 1.55612e-19)
(-0.021506 0.0500237 -1.46588e-19)
(0.00173108 0.0539619 1.35157e-19)
(0.0381438 0.055441 0)
(0.0877014 0.0550909 0)
(0.150241 0.0534229 -1.09166e-19)
(0.225349 0.0508512 8.32495e-22)
(0.312197 0.0476834 9.6286e-20)
(0.409383 0.0441057 -9.06645e-20)
(0.514826 0.0401726 1.6992e-19)
(0.625745 0.0358112 0)
(0.738754 0.0308432 3.0589e-19)
(0.850056 0.0250226 -5.76284e-19)
(0.955723 0.0180839 4.09286e-19)
(1.05202 0.00981081 2.55809e-19)
(1.13574 2.59711e-05 -2.40144e-19)
(1.20457 -0.0111539 0)
(1.25711 -0.0240274 0)
(1.29363 -0.0372782 0)
(1.31488 -0.0531054 0)
(1.32364 -0.0671445 8.33618e-20)
(1.32357 -0.0813595 -2.84607e-19)
(-0.0210613 -0.07431 -8.71718e-21)
(0.00239349 -0.150553 8.78844e-21)
(0.0277145 -0.232449 -2.68004e-22)
(0.0546043 -0.315105 0)
(0.0810455 -0.394088 -6.58735e-21)
(0.105406 -0.465262 1.22007e-20)
(0.125607 -0.525151 -6.17523e-22)
(0.139416 -0.571812 -4.87794e-21)
(0.145603 -0.604863 0)
(0.14543 -0.623922 0)
(0.143948 -0.625907 -1.82725e-22)
(0.14957 -0.603411 -1.66473e-22)
(0.171271 -0.546724 -2.99555e-21)
(0.213556 -0.449493 2.7554e-21)
(0.274051 -0.313726 0)
(0.345813 -0.149005 0)
(0.421905 0.0307428 2.83463e-21)
(0.49704 0.207131 -2.38781e-22)
(0.566127 0.357368 -2.31162e-21)
(0.623833 0.463625 -1.08797e-22)
(0.666066 0.522393 0)
(0.692063 0.542495 0)
(0.705131 0.537425 0)
(0.706829 0.524826 0)
(0.692786 0.524124 0)
(0.661328 0.537109 0)
(0.625003 0.532039 4.6014e-22)
(0.607157 0.459671 -7.52029e-22)
(0.621279 0.299541 0)
(0.66312 0.0812576 0)
(0.717295 -0.134509 -6.71556e-22)
(0.768739 -0.299838 6.5265e-22)
(0.806533 -0.398008 2.42131e-22)
(0.829128 -0.437684 0)
(0.83996 -0.443075 0)
(0.83381 -0.444182 2.437e-22)
(0.803439 -0.460745 -2.36896e-22)
(0.754734 -0.459048 0)
(0.712061 -0.398294 3.05102e-22)
(0.698571 -0.246528 -4.47289e-22)
(0.71468 -0.0540729 1.53437e-22)
(0.751999 0.131495 0)
(0.795645 0.260726 -2.16602e-22)
(0.828972 0.333471 2.10619e-22)
(0.834215 0.387388 0)
(0.802889 0.406106 0)
(0.759981 0.405736 -7.97327e-23)
(0.738005 0.286902 2.49871e-22)
(0.747401 0.138511 0)
(0.786425 -0.0475205 0)
(0.822803 -0.185238 -6.04301e-23)
(0.825363 -0.266014 -2.29891e-24)
(0.808155 -0.372838 -6.9351e-24)
(0.78225 -0.315466 3.33128e-23)
(0.786111 -0.297275 0)
(0.79893 -0.101589 0)
(0.808637 0.0683749 0)
(0.799059 0.168933 0)
(0.801475 0.390451 0)
(0.785143 0.208341 0)
(0.117813 -0.101558 -9.32244e-22)
(0.144337 -0.178991 -3.74935e-20)
(0.171102 -0.261708 1.79909e-21)
(0.198244 -0.344443 3.34438e-20)
(0.223514 -0.421915 4.76159e-22)
(0.245056 -0.489407 0)
(0.260782 -0.543024 -2.07619e-20)
(0.268194 -0.581002 3.82861e-20)
(0.264993 -0.604358 -1.7507e-20)
(0.25023 -0.615919 1.25325e-20)
(0.226546 -0.616886 -1.19994e-20)
(0.201833 -0.602578 9.82757e-21)
(0.188096 -0.561996 -9.51676e-21)
(0.195914 -0.483297 -2.65829e-22)
(0.228801 -0.362269 -1.00146e-20)
(0.282472 -0.206064 9.73228e-21)
(0.349623 -0.0296198 -9.59414e-21)
(0.423184 0.147843 9.06765e-21)
(0.496356 0.304358 -7.44966e-21)
(0.562503 0.421552 1.31863e-20)
(0.615955 0.493548 -5.79911e-21)
(0.654558 0.525757 -2.53146e-22)
(0.679644 0.530642 -3.71536e-21)
(0.690335 0.527729 7.27154e-21)
(0.682394 0.536677 -3.55779e-21)
(0.657879 0.554972 2.539e-22)
(0.632812 0.546257 5.36772e-21)
(0.629242 0.462381 1.21542e-21)
(0.655684 0.288822 -1.26494e-20)
(0.704952 0.0605907 1.30838e-20)
(0.760782 -0.158694 -6.39071e-21)
(0.808751 -0.32064 6.61311e-22)
(0.839424 -0.411665 -2.42602e-22)
(0.852647 -0.444432 3.80248e-22)
(0.854621 -0.443304 0)
(0.842692 -0.436162 0)
(0.809395 -0.444635 -8.90291e-22)
(0.756317 -0.44068 6.56623e-22)
(0.707282 -0.386662 8.46766e-22)
(0.686351 -0.246597 2.59666e-22)
(0.699209 -0.0648224 -1.28042e-21)
(0.737061 0.115613 2.43222e-22)
(0.784794 0.246121 0)
(0.821823 0.326333 0)
(0.82908 0.390617 0)
(0.801006 0.416448 0)
(0.760857 0.415293 3.3208e-22)
(0.744007 0.289713 -1.72495e-22)
(0.753956 0.132581 0)
(0.794211 -0.0566585 0)
(0.83058 -0.190595 0)
(0.833227 -0.264002 -9.56032e-23)
(0.816027 -0.36783 2.11366e-23)
(0.786766 -0.313034 -7.43725e-23)
(0.790651 -0.29898 0)
(0.798072 -0.103703 0)
(0.806084 0.0680398 4.73513e-23)
(0.795402 0.169748 1.12057e-22)
(0.797232 0.391653 0)
(0.783812 0.209419 0)
(0.269833 -0.123385 3.19257e-22)
(0.298907 -0.201792 -8.13758e-20)
(0.326316 -0.284493 7.50919e-20)
(0.352913 -0.366156 -7.0223e-20)
(0.37611 -0.441595 -4.79287e-22)
(0.393859 -0.505769 0)
(0.404419 -0.554103 -4.37515e-20)
(0.405898 -0.584151 4.27892e-20)
(0.396325 -0.596999 2.49348e-22)
(0.373595 -0.597338 3.91979e-22)
(0.337016 -0.590933 3.144e-22)
(0.290662 -0.57873 2.97878e-22)
(0.245704 -0.552213 -1.57325e-20)
(0.217182 -0.496017 1.55581e-20)
(0.216211 -0.397949 0)
(0.24434 -0.25843 4.21392e-22)
(0.295751 -0.0910299 -1.53458e-20)
(0.36247 0.0835959 1.51689e-20)
(0.435798 0.244129 0)
(0.507248 0.371058 0)
(0.569904 0.456075 -8.70732e-21)
(0.619995 0.501271 1.60839e-20)
(0.656256 0.517934 -1.41971e-20)
(0.675569 0.526356 -1.78224e-22)
(0.674479 0.54515 1.46738e-20)
(0.658503 0.567929 -1.71444e-20)
(0.645809 0.555644 1.93984e-20)
(0.656237 0.462395 1.5387e-21)
(0.694313 0.278979 -1.26845e-20)
(0.750434 0.0440313 0)
(0.807136 -0.177111 0)
(0.850647 -0.335543 3.5142e-21)
(0.873764 -0.420127 -4.7319e-21)
(0.877709 -0.447113 6.72927e-24)
(0.870888 -0.441029 2.14577e-21)
(0.853339 -0.426945 -2.08538e-21)
(0.817909 -0.427792 0)
(0.761621 -0.421567 2.09645e-22)
(0.706976 -0.374599 2.11584e-21)
(0.678519 -0.247147 -4.29958e-21)
(0.687734 -0.0770792 1.96055e-21)
(0.725476 0.0975167 1.80177e-22)
(0.776505 0.229535 -1.82436e-21)
(0.816645 0.317717 1.41973e-21)
(0.825941 0.392762 2.98454e-22)
(0.801612 0.425849 3.0489e-22)
(0.764774 0.424388 -3.32939e-22)
(0.753167 0.29294 0)
(0.763556 0.127629 0)
(0.804292 -0.0648819 -1.4464e-21)
(0.840136 -0.19555 6.58086e-22)
(0.842696 -0.261525 -4.81742e-22)
(0.825207 -0.362382 5.4102e-22)
(0.792173 -0.310382 5.20303e-22)
(0.796103 -0.300432 -1.39e-22)
(0.79845 -0.10563 1.94809e-22)
(0.804892 0.0678691 -1.6888e-22)
(0.792874 0.170479 5.04494e-23)
(0.793937 0.392628 0)
(0.783468 0.210381 0)
(0.427364 -0.140508 -1.71259e-19)
(0.458342 -0.219587 5.20841e-21)
(0.487105 -0.301669 1.58076e-19)
(0.51333 -0.381168 -1.11332e-21)
(0.533981 -0.453672 0)
(0.547024 -0.514203 0)
(0.551112 -0.557811 -8.83517e-20)
(0.545069 -0.581644 1.32997e-20)
(0.528247 -0.586104 9.81337e-20)
(0.499853 -0.575329 -5.63789e-21)
(0.458102 -0.556979 -2.2036e-20)
(0.402172 -0.538175 -1.39206e-20)
(0.337395 -0.51761 1.39676e-20)
(0.277816 -0.481803 0)
(0.240765 -0.412201 -1.14815e-20)
(0.236681 -0.298878 1.04381e-20)
(0.264913 -0.148721 0)
(0.31869 0.0185206 0)
(0.387248 0.179067 9.51675e-21)
(0.459972 0.313529 -1.10604e-21)
(0.529048 0.410628 -7.65132e-21)
(0.588631 0.469194 -6.63755e-21)
(0.634542 0.498946 6.58667e-21)
(0.661869 0.519636 -7.06806e-21)
(0.668233 0.547942 -9.1639e-22)
(0.661952 0.574545 7.58461e-21)
(0.662126 0.559625 1.2521e-21)
(0.686155 0.460184 -8.20762e-24)
(0.735205 0.270885 0)
(0.797576 0.0319664 1.46019e-20)
(0.854926 -0.189974 -1.50521e-20)
(0.893732 -0.345258 6.96238e-22)
(0.909176 -0.424181 0)
(0.904125 -0.446225 -3.91516e-22)
(0.888677 -0.436565 4.22474e-21)
(0.865472 -0.417078 -7.04552e-21)
(0.82847 -0.410796 -3.58687e-23)
(0.770333 -0.401752 -7.09907e-23)
(0.711237 -0.361516 2.5208e-21)
(0.675395 -0.247526 4.56587e-22)
(0.680442 -0.0903665 -3.35137e-21)
(0.717227 0.0775766 2.83047e-21)
(0.770647 0.211166 4.59287e-23)
(0.813345 0.30756 1.21643e-21)
(0.824736 0.393566 -1.48215e-21)
(0.804609 0.434024 -2.27495e-21)
(0.771594 0.432939 5.81812e-22)
(0.765325 0.296724 1.75784e-21)
(0.776116 0.123922 -3.41512e-21)
(0.816573 -0.0720033 2.43083e-21)
(0.851339 -0.200099 -4.91132e-22)
(0.853628 -0.258679 7.23259e-22)
(0.835595 -0.356441 4.77396e-22)
(0.79835 -0.307407 -7.50961e-22)
(0.802306 -0.301624 1.2352e-23)
(0.799959 -0.107418 -1.38462e-22)
(0.805009 0.0678632 0)
(0.791435 0.171159 -8.07415e-23)
(0.791589 0.393389 9.89212e-23)
(0.78414 0.211227 0)
(0.586566 -0.156247 1.72001e-19)
(0.618153 -0.233707 -3.33359e-19)
(0.648455 -0.312829 1.58931e-19)
(0.674282 -0.388121 1.39164e-19)
(0.691657 -0.456082 -2.59143e-19)
(0.698985 -0.51183 1.50504e-20)
(0.695413 -0.550471 1.03053e-19)
(0.680346 -0.569512 7.05386e-20)
(0.654304 -0.569194 -6.90519e-20)
(0.618563 -0.552162 0)
(0.573346 -0.524236 -3.2077e-20)
(0.516503 -0.494355 5.54724e-20)
(0.446556 -0.4691 -2.36658e-20)
(0.369774 -0.443556 0)
(0.302597 -0.399904 0)
(0.263498 -0.319114 2.97576e-22)
(0.261726 -0.196006 -1.5955e-20)
(0.294649 -0.0441072 1.5501e-20)
(0.352259 0.111468 0)
(0.422317 0.250424 1.23342e-20)
(0.494335 0.357929 -2.24864e-20)
(0.560456 0.429602 2.0979e-20)
(0.613842 0.473135 -2.16307e-20)
(0.64832 0.506476 -1.77671e-21)
(0.662537 0.543854 2.74549e-20)
(0.666743 0.574124 -1.49237e-20)
(0.679884 0.55824 -6.32349e-22)
(0.716718 0.456372 -1.29495e-20)
(0.775766 0.264803 -1.86613e-21)
(0.844474 0.0247133 1.476e-20)
(0.903 -0.197104 8.77459e-22)
(0.937152 -0.349448 -1.03321e-20)
(0.944936 -0.423605 1.77135e-20)
(0.931347 -0.441703 -8.25169e-21)
(0.907724 -0.429838 0)
(0.878957 -0.406656 -3.66286e-21)
(0.840789 -0.394175 3.48773e-21)
(0.782083 -0.381882 -2.26458e-21)
(0.719936 -0.347608 2.83082e-21)
(0.677098 -0.247363 -3.19359e-22)
(0.677369 -0.104205 0)
(0.71221 0.0561727 -3.06034e-22)
(0.767009 0.19114 8.75207e-22)
(0.811756 0.295691 0)
(0.825313 0.392711 2.9289e-21)
(0.80979 0.440695 -1.09095e-21)
(0.781063 0.440838 7.39813e-22)
(0.780161 0.301144 9.3077e-22)
(0.791413 0.121633 0)
(0.830919 -0.0778396 0)
(0.864033 -0.204158 -1.82528e-21)
(0.865862 -0.25545 2.52769e-21)
(0.8471 -0.349904 -1.20436e-21)
(0.805204 -0.30403 2.97263e-22)
(0.8091 -0.302578 4.14918e-22)
(0.802474 -0.109144 1.38593e-22)
(0.806363 0.0680148 -1.85574e-22)
(0.791037 0.17182 0)
(0.790184 0.393938 -1.58705e-22)
(0.78585 0.211951 -2.93216e-23)
(0.74698 -0.172249 1.69212e-19)
(0.776935 -0.245292 -1.68628e-19)
(0.806798 -0.318314 1.23206e-21)
(0.830108 -0.387002 -1.0876e-21)
(0.842149 -0.448765 1.01639e-21)
(0.842168 -0.498697 -8.8349e-22)
(0.830006 -0.532092 1.44008e-21)
(0.805651 -0.546913 0)
(0.770359 -0.54369 -9.36791e-22)
(0.726459 -0.524636 7.18487e-22)
(0.676196 -0.4933 5.31586e-22)
(0.619738 -0.45578 -4.10121e-22)
(0.553844 -0.42078 0)
(0.476205 -0.392946 0)
(0.394034 -0.363727 1.16557e-22)
(0.325529 -0.313075 0)
(0.289605 -0.224264 -8.41917e-23)
(0.293808 -0.0984039 0)
(0.333171 0.0453988 -8.03017e-21)
(0.394974 0.183991 1.52471e-20)
(0.465715 0.299155 -1.45459e-20)
(0.534888 0.382982 7.11565e-21)
(0.593332 0.440362 8.97763e-21)
(0.633981 0.486291 -8.71812e-21)
(0.656239 0.532308 -1.39708e-20)
(0.671354 0.566442 1.36695e-20)
(0.697206 0.551675 0)
(0.745748 0.451068 7.38361e-22)
(0.814125 0.260959 0)
(0.889402 0.0221496 0)
(0.94986 -0.198717 2.46731e-20)
(0.980045 -0.348291 -2.56703e-20)
(0.98043 -0.418704 1.10089e-21)
(0.958895 -0.433868 8.03662e-22)
(0.927737 -0.420981 -5.68156e-22)
(0.89354 -0.395782 -3.04953e-21)
(0.854429 -0.378269 2.96117e-21)
(0.796272 -0.36239 -2.49157e-21)
(0.732621 -0.332982 2.13437e-21)
(0.683534 -0.24625 5.83732e-22)
(0.678416 -0.117964 -2.35426e-21)
(0.710214 0.0337331 -8.4404e-23)
(0.765308 0.169546 1.55417e-21)
(0.811645 0.281914 0)
(0.827437 0.38987 -1.05519e-21)
(0.816836 0.4456 2.20036e-21)
(0.792791 0.447956 -2.73419e-21)
(0.79724 0.306198 -9.36717e-22)
(0.809133 0.12084 0)
(0.847137 -0.0822094 6.92169e-22)
(0.878037 -0.20763 -1.57349e-21)
(0.879201 -0.251858 6.99653e-24)
(0.859615 -0.342696 -3.45582e-22)
(0.812672 -0.300151 3.58651e-22)
(0.816328 -0.303301 -3.77689e-22)
(0.80585 -0.110877 0)
(0.808868 0.0683049 1.8566e-22)
(0.791627 0.172488 0)
(0.789713 0.394271 0)
(0.788616 0.212541 3.99227e-23)
(0.908153 -0.18555 -1.6373e-19)
(0.932003 -0.251942 1.6207e-19)
(0.957074 -0.316173 -1.12828e-21)