/*--------------------------------*- C++ -*----------------------------------*\
| =========                 |                                                 |
| \\      /  F ield         | OpenFOAM: The Open Source CFD Toolbox           |
|  \\    /   O peration     | Version:  2512                                  |
|   \\  /    A nd           | Website:  www.openfoam.com                      |
|    \\/     M anipulation  |                                                 |
\*---------------------------------------------------------------------------*/
FoamFile
{
    version     2.0;
    format      ascii;
    arch        "LSB;label=32;scalar=64";
    class       surfaceScalarField;
    location    "101.25";
    object      phi;
}
// * * * * * * * * * * * * * * * * * * * * * * * * * * * * * * * * * * * * * //

dimensions      [0 3 -1 0 0 0 0];

oriented        oriented;

internalField   nonuniform List<scalar> 
26232
(
2.42444e-05
0.000819614
-0.000843858
0.000241557
0.00132219
-0.0015395
0.000816091
0.000894541
-0.00146907
0.00192048
-0.000377472
-0.00072692
0.00372998
-0.00245234
0.000642837
0.00641566
-0.0053106
0.00262493
0.0101344
-0.00893886
0.00522015
0.0150158
-0.0133136
0.00843216
0.0211475
-0.0183869
0.0122553
0.0285603
-0.0240777
0.0166648
0.0372182
-0.0302691
0.0216112
0.0470142
-0.0368142
0.0270182
0.0577747
-0.0435465
0.0327859
0.0692717
-0.0502941
0.0387972
0.0812407
-0.0568953
0.0449262
0.0934034
-0.0632114
0.0510487
0.105489
-0.0691368
0.0570507
0.117257
-0.0746056
0.0628376
0.128512
-0.079591
0.0683363
0.139115
-0.0841119
0.0735092
0.148985
-0.0881958
0.0783252
0.158108
-0.0919692
0.0828471
0.166483
-0.0953714
0.0869958
-0.0988365
0.0913717
0.173948
0.000102272
0.000717342
0.000565328
0.000859134
0.00156751
-0.000107639
0.00329494
-0.0021049
0.00593226
-0.00508966
0.00964929
-0.00902763
0.0145824
-0.013872
0.0208137
-0.0195449
0.0283514
-0.0259247
0.0371178
-0.032844
0.0469469
-0.0400982
0.0575959
-0.0474632
0.0687673
-0.0547179
0.0801387
-0.0616655
0.091395
-0.0681516
0.102259
-0.074075
0.112514
-0.0793918
0.122021
-0.0841128
0.130724
-0.0882942
0.13864
-0.092028
0.145861
-0.0954163
0.152497
-0.0986056
0.158719
-0.101593
-0.104804
0.164686
0.000182547
0.000534795
0.000907351
0.000134331
0.00237119
-0.00157147
0.00477095
-0.00450466
0.00828945
-0.00860817
0.0130718
-0.01381
0.0191975
-0.0199977
0.0266547
-0.0270021
0.0353251
-0.0345951
0.0449851
-0.0425039
0.0553256
-0.0504386
0.0659874
-0.0581251
0.0766045
-0.065335
0.0868465
-0.0719075
0.0964543
-0.0777594
0.105263
-0.0828835
0.113208
-0.0873374
0.120322
-0.0912265
0.12671
-0.0946821
0.132526
-0.0978438
0.137946
-0.100836
0.143122
-0.103782
0.148225
-0.106696
-0.109874
0.153295
0.000271424
0.000263371
0.00128307
-0.00087732
0.00324727
-0.00353567
0.00636144
-0.00761882
0.0107836
-0.0130303
0.0165976
-0.019624
0.0237793
-0.0271793
0.0321768
-0.0353996
0.0415147
-0.043933
0.0514242
-0.0524135
0.0614934
-0.0605078
0.0713247
-0.0679564
0.0805877
-0.074598
0.0890561
-0.0803759
0.0966237
-0.085327
0.103299
-0.0895592
0.109185
-0.0932228
0.11444
-0.0964821
0.11925
-0.0994915
0.123787
-0.102381
0.128199
-0.105248
0.132585
-0.108168
0.137029
-0.11114
-0.114362
0.141517
0.000374498
-0.000111127
0.00170405
-0.00220688
0.00420475
-0.00603637
0.00805288
-0.011467
0.0133465
-0.018324
0.0200622
-0.0263397
0.0280274
-0.0351445
0.0369247
-0.0442969
0.0463324
-0.0533407
0.055791
-0.0618721
0.0648768
-0.0695935
0.0732628
-0.0763425
0.0807555
-0.0820907
0.0873006
-0.0869209
0.0929635
-0.0909899
0.0978921
-0.0944878
0.102273
-0.0976039
0.106294
-0.100503
0.110114
-0.103312
0.113853
-0.106121
0.117592
-0.108988
0.121374
-0.111949
0.125235
-0.115001
-0.118269
0.129143
0.000494447
-0.000605574
0.0021714
-0.00388383
0.00522845
-0.00909342
0.00978759
-0.0160261
0.0158427
-0.0243791
0.0232192
-0.0337161
0.0315725
-0.0434978
0.0404358
-0.0531603
0.0493036
-0.0622085
0.0577225
-0.070291
0.0653628
-0.0772338
0.0720529
-0.0830326
0.0777758
-0.0878136
0.082635
-0.0917801
0.0868052
-0.0951601
0.0904835
-0.098166
0.0938512
-0.100972
0.0970535
-0.103705
0.100193
-0.106451
0.103335
-0.109263
0.106518
-0.11217
0.109757
-0.115189
0.113072
-0.118317
-0.121621
0.116424
0.000629934
-0.00123551
0.00267229
-0.00592618
0.00627433
-0.0126955
0.0114622
-0.0212139
0.0180821
-0.030999
0.0257832
-0.0414173
0.0340647
-0.0517793
0.0423737
-0.0614693
0.0502172
-0.0700521
0.0572472
-0.077321
0.0632966
-0.0832831
0.0683673
-0.0881033
0.0725844
-0.0920307
0.0761372
-0.0953329
0.0792263
-0.0982492
0.0820277
-0.100967
0.084676
-0.10362
0.0872634
-0.106292
0.0898472
-0.109035
0.0924598
-0.111876
0.0951179
-0.114828
0.0978271
-0.117898
0.100593
-0.121083
-0.124412
0.103385
0.00077572
-0.00201123
0.00318111
-0.00833157
0.00727464
-0.016789
0.012944
-0.0268833
0.0198588
-0.0379138
0.0275011
-0.0490596
0.0352714
-0.0595495
0.0426227
-0.0688206
0.0491666
-0.076596
0.0547176
-0.082872
0.0592772
-0.0878427
0.0629781
-0.0918042
0.0660171
-0.0950698
0.0685977
-0.0979136
0.0708938
-0.100545
0.0730349
-0.103109
0.075108
-0.105693
0.0771659
-0.10835
0.0792383
-0.111107
0.0813404
-0.113978
0.0834788
-0.116966
0.0856548
-0.120074
0.0878695
-0.123298
-0.126643
0.0900996
0.000923601
-0.00293483
0.00366348
-0.0110715
0.00814946
-0.021275
0.0140977
-0.0328315
0.0209991
-0.0448152
0.028215
-0.0562755
0.035131
-0.0664655
0.0412924
-0.074982
0.0464676
-0.0817713
0.0506358
-0.0870401
0.0539243
-0.0911312
0.0565326
-0.0944125
0.0586682
-0.0972054
0.0605072
-0.0997525
0.0621792
-0.102217
0.0637697
-0.104699
0.0653299
-0.107253
0.0668883
-0.109908
0.0684596
-0.112679
0.0700509
-0.115569
0.0716648
-0.11858
0.0733012
-0.12171
0.0749587
-0.124955
-0.128306
0.0766225
0.00106335
-0.00399818
0.00408125
-0.0140893
0.0088205
-0.0260142
0.0148117
-0.0388227
0.0213973
-0.0514008
0.0278895
-0.0627677
0.0337411
-0.0723172
0.0386427
-0.0798835
0.0425243
-0.0856529
0.0454922
-0.090008
0.0477426
-0.0933816
0.0494881
-0.096158
0.0509113
-0.0986286
0.0521467
-0.100988
0.0532823
-0.103353
0.0543703
-0.105787
0.0554392
-0.108322
0.0565042
-0.110973
0.0575728
-0.113747
0.0586486
-0.116645
0.0597324
-0.119664
0.0608233
-0.122801
0.0619187
-0.126051
-0.129399
0.063011
0.00118442
-0.0051826
0.00439903
-0.017304
0.00922501
-0.0308402
0.0150184
-0.0446161
0.0210291
-0.0574115
0.0265979
-0.0683365
0.0313021
-0.0770214
0.0349898
-0.0835712
0.0377235
-0.0883866
0.0396863
-0.0919709
0.0410949
-0.0947902
0.0421419
-0.0972051
0.0429716
-0.0994582
0.0436785
-0.101695
0.0443185
-0.103993
0.044922
-0.10639
0.0455048
-0.108905
0.0460753
-0.111544
0.0466377
-0.11431
0.0471939
-0.117201
0.047744
-0.120214
0.0482866
-0.123344
0.048818
-0.126582
-0.129916
0.049335
0.00127993
-0.00646253
0.00459205
-0.0206161
0.00932628
-0.0355744
0.0147012
-0.049991
0.0199443
-0.0626546
0.0244882
-0.0728804
0.0280584
-0.0805916
0.0306417
-0.0861545
0.0323899
-0.0901348
0.0335178
-0.0930988
0.03423
-0.0955024
0.0346851
-0.0976602
0.034989
-0.0997621
0.0352044
-0.10191
0.0353655
-0.104154
0.0354894
-0.106514
0.0355851
-0.109001
0.0356575
-0.111616
0.0357096
-0.114362
0.0357428
-0.117234
0.0357573
-0.120229
0.0357516
-0.123338
0.0357219
-0.126552
0.0356678
-0.129862
-0.000221383
-0.00232136
0.00254275
-0.000805444
-0.00565525
0.00623931
-0.00170108
-0.00804281
0.00893844
-0.00286069
-0.00966593
0.0108255
-0.00423942
-0.010702
0.0120807
-0.00579781
-0.0113163
0.0128747
-0.00750347
-0.0116468
0.0133525
-0.00933124
-0.0117941
0.0136219
-0.0112619
-0.0118189
0.0137496
-0.0132802
-0.011745
0.0137633
-0.0153721
-0.0115668
0.0136588
-0.0175233
-0.0112569
0.013408
-0.0197161
-0.0107738
0.0129667
-0.021929
-0.0100677
0.0122806
-0.0241345
-0.00908455
0.0112901
-0.026299
-0.00776895
0.00993341
-0.0283817
-0.0060661
0.00814881
-0.0303342
-0.00392301
0.00587551
-0.0321096
-0.0012768
0.00305216
-0.0336205
0.00182975
-0.000318836
-0.0348626
0.0054895
-0.0042474
-0.0357713
0.009687
-0.00877827
-0.0363309
0.0144257
-0.0138662
0.0197003
-0.036603
-0.0194283
-0.000296101
-0.00202526
-0.00103819
-0.00491315
-0.00213316
-0.00694784
-0.00350634
-0.00829274
-0.00509742
-0.0091109
-0.00685988
-0.00955384
-0.00875968
-0.00974701
-0.0107728
-0.00978098
-0.0128821
-0.00970963
-0.0150735
-0.00955363
-0.0173333
-0.00930708
-0.019645
-0.00894515
-0.021988
-0.00843092
-0.024335
-0.00772072
-0.0266517
-0.0067678
-0.0288961
-0.00552457
-0.031017
-0.00394525
-0.032958
-0.00198197
-0.0346182
0.000383405
-0.0359764
0.00318797
-0.0369489
0.00646204
-0.037476
0.0102141
-0.037507
0.0144567
0.0192394
-0.037046
-0.000350307
-0.00167496
-0.00120199
-0.00406147
-0.00242684
-0.005723
-0.00392683
-0.00679275
-0.00562729
-0.00741043
-0.00747357
-0.00770757
-0.00942717
-0.00779341
-0.0114612
-0.00774694
-0.0135557
-0.00761516
-0.0156931
-0.00741626
-0.0178546
-0.00714556
-0.0200175
-0.00678219
-0.0221532
-0.00629523
-0.0242255
-0.00564843
-0.0261897
-0.0048036
-0.0279919
-0.00372241
-0.0295667
-0.00237041
-0.0308433
-0.000705354
-0.0317284
0.0012685
-0.0321453
0.00360484
-0.0319999
0.00631661
-0.0312109
0.00942508
-0.0297024
0.0129482
0.0169366
-0.0273996
-0.000382876
-0.00129208
-0.00129551
-0.00314883
-0.00258328
-0.00443523
-0.00412946
-0.00524657
-0.00584671
-0.00569318
-0.00767157
-0.00588271
-0.00955875
-0.00590624
-0.0114751
-0.00583056
-0.0133941
-0.00569615
-0.0152908
-0.00551965
-0.0171377
-0.00529864
-0.0189025
-0.00501732
-0.0205461
-0.00465164
-0.0220212
-0.00417337
-0.0232717
-0.00355305
-0.0242315
-0.00276265
-0.0248256
-0.00177637
-0.0249585
-0.00057241
-0.0245506
0.000860653
-0.0234861
0.00254032
-0.021648
0.00447852
-0.0189191
0.00669615
-0.015197
0.00922616
0.0122165
-0.010477
-0.000395003
-0.000897078
-0.00132335
-0.00222049
-0.00261334
-0.00314524
-0.00413489
-0.00372502
-0.00579022
-0.00403785
-0.00750713
-0.00416579
-0.0092322
-0.00418117
-0.010924
-0.00413873
-0.0125471
-0.00407305
-0.0140669
-0.00399991
-0.0154456
-0.00391993
-0.01664
-0.00382292
-0.0175996
-0.00369202
-0.0182659
-0.00350711
-0.0185716
-0.00324735
-0.0184409
-0.00289334
-0.0177886
-0.00242862
-0.0165195
-0.00184152
-0.0145313
-0.00112756
-0.011707
-0.000284028
-0.00791164
0.000683201
-0.00299095
0.00177546
0.0032074
0.00302781
0.00456563
0.0108583
-0.000388602
-0.000508476
-0.00129165
-0.00131743
-0.00252932
-0.00190757
-0.00396334
-0.00229099
-0.005488
-0.00251319
-0.00702293
-0.00263086
-0.00850599
-0.00269811
-0.00988629
-0.00275843
-0.0111181
-0.0028412
-0.0121561
-0.00296194
-0.0129514
-0.00312459
-0.0134497
-0.00332464
-0.0135895
-0.00355222
-0.013302
-0.00379466
-0.0125107
-0.00403866
-0.011132
-0.00427203
-0.0090752
-0.00448539
-0.00624323
-0.00467349
-0.0025335
-0.00483729
0.00216697
-0.00498449
0.00798359
-0.00513342
0.0150656
-0.00530653
0.0235689
-0.00547548
-0.00589077
0.0340253
-0.000365278
-0.000143198
-0.00120491
-0.000477805
-0.00233851
-0.000773968
-0.00362407
-0.00100544
-0.0049498
-0.00118746
-0.0062274
-0.00135327
-0.00738501
-0.0015405
-0.00836066
-0.00178278
-0.00909649
-0.00210538
-0.00953427
-0.00252416
-0.00961226
-0.0030466
-0.0092633
-0.0036736
-0.00841403
-0.00440148
-0.00698489
-0.00522381
-0.00489064
-0.00613291
-0.00204127
-0.00712139
0.00165682
-0.00818348
0.00630003
-0.00931671
0.0119863
-0.0105236
0.0188151
-0.0118133
0.0268822
-0.0132005
0.0363276
-0.0147519
0.047128
-0.0162759
-0.0188585
0.0600957
-0.000326075
0.000182877
-0.00106516
0.000261278
-0.00204204
0.000202918
-0.00311361
6.61241e-05
-0.0041626
-0.000138466
-0.00509153
-0.000424332
-0.00581652
-0.000815509
-0.00626118
-0.00133812
-0.00635172
-0.00201485
-0.00601313
-0.00286275
-0.00516695
-0.00389278
-0.00373021
-0.00511035
-0.00161562
-0.00651606
0.00126728
-0.00810671
0.00501059
-0.00987622
0.00970597
-0.0118168
0.0154427
-0.0139202
0.0223054
-0.0161794
0.0303721
-0.0185903
0.0397148
-0.021156
0.0503767
-0.0238625
0.0624734
-0.0268486
0.0757731
-0.0295756
-0.0341791
0.0910937
-0.000272101
0.000454978
-0.000874119
0.000863296
-0.00163914
0.000967939
-0.00242396
0.000850945
-0.00310442
0.000541996
-0.00357045
4.16964e-05
-0.00372344
-0.000662515
-0.00346792
-0.00159363
-0.00270996
-0.00277281
-0.00135441
-0.00421829
0.000695651
-0.00594285
0.00353809
-0.00795278
0.00726949
-0.0102475
0.0119822
-0.0128194
0.017761
-0.015655
0.0246796
-0.0187354
0.0327981
-0.0220387
0.0421602
-0.0255415
0.0527907
-0.0292208
0.0646981
-0.0330633
0.0778517
-0.0370161
0.0922673
-0.0412642
0.107692
-0.0449999
-0.0509794
0.124492
-0.000205743
0.000660721
-0.000636866
0.00129442
-0.00113503
0.0014661
-0.00155536
0.00127128
-0.00176469
0.000751329
-0.0016382
-8.47924e-05
-0.00105798
-0.00124273
9.25253e-05
-0.00274414
0.00192776
-0.00460805
0.00456017
-0.0068507
0.00809778
-0.00948046
0.0126401
-0.0124951
0.0182732
-0.0158806
0.0250648
-0.0196109
0.0330592
-0.0236494
0.0422746
-0.0279509
0.0527011
-0.0324651
0.0643002
-0.0371406
0.0770063
-0.0419269
0.090727
-0.046784
0.105353
-0.0516417
0.120723
-0.0566342
0.136761
-0.0610385
-0.0672808
0.153063
-0.000130942
0.000791663
-0.00036319
0.00152667
-0.000544257
0.00164717
-0.000525129
0.00125215
-0.000160959
0.000387159
0.000688264
-0.000934015
0.00216215
-0.00271662
0.00439366
-0.00497565
0.00751023
-0.00772461
0.0116277
-0.0109682
0.0168438
-0.0146965
0.0232305
-0.0188818
0.0308274
-0.0234775
0.0396364
-0.02842
0.0496192
-0.0336321
0.0606973
-0.039029
0.0727559
-0.0445237
0.0856492
-0.0500339
0.099208
-0.0554857
0.113247
-0.0608234
0.127593
-0.0659874
0.14199
-0.0710309
0.156534
-0.0755831
-0.0810048
0.170258
-5.21952e-05
-6.50314e-05
0.000113062
0.000638291
0.00166829
0.0033592
0.00586272
0.00931923
0.0138499
0.0195466
0.0264612
0.0345976
0.043906
0.0542832
0.0655773
0.077597
0.090124
0.102928
0.115778
0.128464
0.140802
0.152618
0.164031
0.174398
-0.0347925
0.033597
-0.0354074
-0.0324747
0.0448493
-0.0471672
-0.0295739
0.0567633
-0.0596641
-0.0260306
0.0687663
-0.0723095
-0.0217635
0.0802182
-0.0844853
-0.0165494
0.0902427
-0.0954568
-0.010105
0.0979126
-0.104357
-0.00205006
0.102065
-0.11012
0.00792027
0.101488
-0.111458
0.0197097
0.0950485
-0.106838
0.0330419
0.0819984
-0.0953306
0.0472118
0.0621152
-0.0762851
0.0614948
0.0358704
-0.0501534
0.0753377
0.00390632
-0.0177492
0.0884992
-0.0325809
0.0194195
0.100726
-0.0713882
0.0591609
0.111465
-0.10777
0.0970315
0.119876
-0.136472
0.128061
0.125306
-0.154652
0.149222
0.127798
-0.163075
0.160583
0.127896
-0.164418
0.16432
0.125597
-0.162207
0.164506
0.120282
-0.161511
0.166826
0.112457
-0.165848
0.173672
0.105091
-0.170342
0.177708
0.102173
-0.160354
0.163272
0.105665
-0.122368
0.118876
0.114573
-0.0569741
0.0480659
0.126071
0.0202196
-0.0317172
0.137183
0.0910673
-0.10218
0.14581
0.143719
-0.152345
0.151439
0.175753
-0.181382
0.154221
0.190695
-0.193477
0.153435
0.199119
-0.198334
0.148361
0.213584
-0.20851
0.140549
0.230696
-0.222884
0.133866
0.228587
-0.221904
0.131587
0.179124
-0.176845
0.134435
0.0872766
-0.0901251
0.140529
-0.0242102
0.0181164
0.147638
-0.116646
0.109537
0.153389
-0.179579
0.173828
0.155208
-0.211663
0.209843
0.151257
-0.230926
0.234877
0.143078
-0.250276
0.258455
0.135359
-0.238399
0.246118
0.133053
-0.195535
0.197841
0.136906
-0.0799433
0.076091
0.144151
0.0229627
-0.0302078
0.149068
0.13405
-0.138967
0.148248
0.210554
-0.209735
0.143083
0.260384
-0.255219
0.138818
0.304353
-0.300088
0.138981
0.204657
-0.204819
0.142711
0.15028
-0.15401
0.144565
-0.0311888
0.0293346
0.143452
-0.144719
0.145832
0.141572
-0.224807
0.226686
0.140039
-0.36831
0.369844
-0.151751
0.153171
-0.0342564
0.0308073
-0.0306152
0.0412081
-0.0260517
0.0521998
-0.0204026
0.0631172
-0.0136728
0.0734885
-0.00563972
0.0822096
0.0038515
0.0884214
0.0148107
0.0911057
0.027167
0.0891318
0.0406347
0.0815808
0.0546684
0.0679647
0.0685552
0.0482283
0.0817341
0.0226915
0.0937663
-0.0081259
0.104703
-0.0435175
0.114318
-0.0810034
0.122127
-0.115579
0.127502
-0.141847
0.13008
-0.15723
0.130075
-0.163071
0.128217
-0.16256
0.124763
-0.158753
0.118884
-0.155632
0.110266
-0.157229
0.101265
-0.161341
0.0963289
-0.155418
0.0985616
-0.124601
0.107479
-0.0658913
0.120114
0.00758431
0.1329
0.0782818
0.143458
0.133161
0.151009
0.168202
0.155341
0.186363
0.155654
0.198806
0.15155
0.217688
0.144805
0.237441
0.138942
0.23445
0.136732
0.181333
0.138814
0.0851953
0.143543
-0.0289396
0.149031
-0.122134
0.153377
-0.183925
0.154402
-0.212687
0.150075
-0.226598
0.141652
-0.241854
0.133734
-0.230481
0.131609
-0.19341
0.136015
-0.0843491
0.143801
0.0151764
0.149109
0.128742
0.148458
0.211205
0.143458
0.265385
0.139091
0.30872
0.13919
0.204558
0.143166
0.146304
0.145236
-0.0332581
0.144191
-0.143674
0.142237
-0.222854
0.140671
-0.366744
-0.150296
-0.0236598
0.0270675
-0.0187908
0.036339
-0.0129255
0.0463345
-0.00570736
0.0558991
0.0031046
0.0646765
0.0132201
0.0720941
0.0245216
0.0771199
0.0369389
0.0786885
0.0502141
0.0758565
0.0638906
0.0679043
0.0773918
0.0544636
0.0900971
0.035523
0.101508
0.0112805
0.111491
-0.0181092
0.120055
-0.0520809
0.127023
-0.0879714
0.131915
-0.120471
0.134311
-0.144243
0.134199
-0.157117
0.131993
-0.160865
0.128471
-0.159038
0.124087
-0.154368
0.118023
-0.149569
0.10922
-0.148426
0.0990868
-0.151208
0.09213
-0.148461
0.0926118
-0.125083
0.10097
-0.074249
0.114261
-0.00570683
0.128434
0.0641081
0.140837
0.120758
0.150308
0.15873
0.15625
0.180421
0.157855
0.197201
0.154993
0.22055
0.149477
0.242957
0.144398
0.23953
0.142106
0.183625
0.143243
0.0840577
0.146544
-0.0322408
0.150378
-0.125968
0.1533
-0.186847
0.153588
-0.212975
0.149043
-0.222053
0.140535
-0.233346
0.132478
-0.222424
0.130448
-0.19138
0.13527
-0.0891717
0.143507
0.00694006
0.149225
0.123024
0.148804
0.211626
0.144006
0.270183
0.139527
0.313198
0.139518
0.204567
0.143747
0.142075
0.146057
-0.0355683
0.145065
-0.142682
0.143011
-0.220799
0.141411
-0.365144
-0.148827
-0.00603065
0.0226212
-0.000438858
0.0307473
0.00704086
0.0388548
0.0156789
0.0472611
0.0254375
0.0549179
0.0363469
0.0611848
0.0482825
0.0651842
0.0609718
0.0659992
0.0740181
0.0628102
0.0869227
0.0549998
0.0991499
0.0422363
0.110198
0.0244746
0.119723
0.00175577
0.127687
-0.0260728
0.134048
-0.0584421
0.13854
-0.092463
0.140668
-0.122599
0.140234
-0.14381
0.137625
-0.154507
0.133511
-0.156752
0.12861
-0.154136
0.12345
-0.149208
0.117442
-0.14356
0.109069
-0.140053
0.0985527
-0.140691
0.089821
-0.139729
0.0881024
-0.123364
0.0951717
-0.0813183
0.108478
-0.0190128
0.12376
0.0488253
0.137881
0.106638
0.149236
0.147376
0.156848
0.172809
0.159937
0.194113
0.158559
0.221927
0.154409
0.247107
0.15007
0.243869
0.147529
0.186167
0.147636
0.0839504
0.149462
-0.0340667
0.151661
-0.128167
0.153156
-0.188342
0.152737
-0.212556
0.148098
-0.217414
0.139653
-0.224901
0.131524
-0.214295
0.129502
-0.189358
0.13461
-0.09428
0.143229
-0.00167888
0.149392
0.116862
0.149282
0.211736
0.144745
0.27472
0.140157
0.317786
0.139989
0.204735
0.144454
0.13761
0.147021
-0.0381358
0.146071
-0.141732
0.14389
-0.218618
0.14225
-0.363504
-0.147363
0.0164261
0.0170534
0.0229362
0.0242372
0.0303958
0.0313952
0.0391739
0.0384829
0.049117
0.0449749
0.0600643
0.0502374
0.0717839
0.0534646
0.0839395
0.0538436
0.0960927
0.0506571
0.107755
0.0433373
0.118468
0.0315233
0.127815
0.0151276
0.13577
-0.00619909
0.142016
-0.0323187
0.146452
-0.0628777
0.148603
-0.0946142
0.148056
-0.122052
0.144965
-0.140718
0.140129
-0.149672
0.134451
-0.151074
0.128536
-0.148221
0.122796
-0.143469
0.116941
-0.137705
0.109415
-0.132528
0.0993354
-0.130612
0.0894318
-0.129825
0.0852772
-0.11921
0.0903207
-0.0863619
0.10295
-0.0316425
0.118903
0.0328729
0.134513
0.0910279
0.147649
0.134239
0.156971
0.163487
0.161722
0.189362
0.162047
0.221602
0.159388
0.249765
0.155768
0.247489
0.152897
0.189037
0.151848
0.0849994
0.152222
-0.0344404
0.152837
-0.128783
0.152919
-0.188423
0.151813
-0.21145
0.147185
-0.212786
0.138935
-0.216651
0.130796
-0.206156
0.128701
-0.187263
0.133972
-0.0995504
0.142919
-0.0106263
0.149577
0.110204
0.149881
0.211431
0.145686
0.278916
0.141005
0.322466
0.140624
0.205117
0.145282
0.132952
0.148115
-0.0409688
0.1472
-0.140818
0.14487
-0.216287
0.143178
-0.361812
-0.145922
0.0395552
0.0115234
0.0458828
0.0179096
0.0532235
0.0240544
0.0617536
0.0299529
0.0713374
0.0353911
0.0817612
0.0398136
0.0927553
0.0424705
0.103965
0.0426336
0.114959
0.0396633
0.125293
0.0330034
0.134612
0.022204
0.142591
0.00714878
0.149192
-0.0128001
0.154071
-0.0371974
0.156796
-0.0656032
0.156751
-0.0945685
0.153721
-0.119022
0.148288
-0.135286
0.141596
-0.142979
0.134702
-0.144181
0.128112
-0.141631
0.12201
-0.137367
0.116307
-0.132002
0.109802
-0.126023
0.100889
-0.121698
0.0907137
-0.11965
0.0843568
-0.112853
0.0867482
-0.0887532
0.0978595
-0.0427538
0.11391
0.0168229
0.130648
0.0742895
0.14538
0.119507
0.15641
0.152457
0.162968
0.182804
0.165184
0.219386
0.164154
0.250795
0.161298
0.250346
0.158042
0.192293
0.155789
0.0872532
0.15474
-0.0333918
0.153858
-0.127901
0.15256
-0.187125
0.150776
-0.209666
0.146239
-0.20825
0.138301
-0.208713
0.130208
-0.198063
0.127963
-0.185019
0.133285
-0.104872
0.142517
-0.0198589
0.149734
0.102987
0.150575
0.210591
0.146824
0.282666
0.142085
0.327205
0.141434
0.205768
0.14623
0.128156
0.149323
-0.0440618
0.148444
-0.139939
0.145945
-0.213788
0.144186
-0.360053
-0.144523
0.0642218
0.00739741
0.0693017
0.0128297
0.0755527
0.0178034
0.0830535
0.0224521
0.0916074
0.0268372
0.10097
0.0304507
0.11086
0.0325812
0.120912
0.0325811
0.130708
0.0298672
0.139833
0.0238787
0.147926
0.0141112
0.154957
0.000118062
0.160369
-0.0182121
0.163916
-0.0407446
0.164894
-0.0665818
0.162695
-0.0923695
0.157415
-0.113741
0.150035
-0.127907
0.141925
-0.134868
0.134172
-0.136428
0.1272
-0.134659
0.120964
-0.131131
0.115393
-0.126432
0.109812
-0.120442
0.10251
-0.114396
0.0931004
-0.110241
0.0852714
-0.105024
0.0847205
-0.0882024
0.0934982
-0.0515315
0.10888
0.00144111
0.126238
0.0569312
0.142288
0.103457
0.154957
0.139789
0.163414
0.174346
0.167687
0.215113
0.168429
0.250053
0.166419
0.252356
0.162798
0.195913
0.159355
0.090697
0.15693
-0.0309666
0.154667
-0.125639
0.152044
-0.184502
0.149581
-0.207203
0.145196
-0.203865
0.137669
-0.201186
0.129671
-0.190064
0.127205
-0.182554
0.132472
-0.110138
0.141957
-0.0293435
0.149809
0.0951353
0.151324
0.209076
0.148143
0.285847
0.143397
0.331951
0.14243
0.206735
0.147287
0.123299
0.150628
-0.0474025
0.149789
-0.139101
0.147104
-0.211103
0.14526
-0.35821
-0.143184
0.0926686
0.00582253
0.0954873
0.010011
0.0997036
0.0135872
0.105262
0.0168934
0.111948
0.0201513
0.11956
0.0228386
0.127822
0.0243195
0.136361
0.0240422
0.144763
0.0214654
0.152634
0.0160074
0.159497
0.00724785
0.165433
-0.00581785
0.169532
-0.0223107
0.171488
-0.0427013
0.170521
-0.0656145
0.166201
-0.0880493
0.158982
-0.106523
0.150138
-0.119062
0.141093
-0.125824
0.132836
-0.12817
0.125704
-0.127527
0.119522
-0.124949
0.114109
-0.121019
0.109209
-0.115542
0.10355
-0.108736
0.0957547
-0.102446
0.0875895
-0.0968586
0.0844001
-0.085013
0.0901805
-0.0573118
0.103975
-0.0123533
0.121293
0.0396135
0.138276
0.0864734
0.152446
0.125619
0.16282
0.163972
0.169225
0.208708
0.171851
0.247428
0.170835
0.253372
0.166993
0.199755
0.162422
0.0952677
0.158702
-0.0272467
0.155189
-0.122126
0.151329
-0.180641
0.14818
-0.204055
0.143989
-0.199673
0.136968
-0.194165
0.129104
-0.1822
0.126348
-0.179798
0.131464
-0.115254
0.141167
-0.0390467
0.149735
0.0865673
0.152073
0.206737
0.149606
0.288315
0.144928
0.336629
0.143613
0.208051
0.148445
0.118467
0.152012
-0.0509697
0.151221
-0.138309
0.148334
-0.208216
0.146388
-0.356263
-0.141927
0.123769
0.00654576
0.124364
0.00941561
0.126302
0.0116489
0.129498
0.0136979
0.133821
0.0158277
0.13916
0.0175
0.145261
0.0182183
0.15178
0.0175233
0.158332
0.0149137
0.164522
0.00981701
0.169842
0.0019276
0.174012
-0.00998738
0.176398
-0.0246967
0.17638
-0.0426831
0.173307
-0.062542
0.167042
-0.0817846
0.15834
-0.0978204
0.148577
-0.109299
0.139076
-0.116323
0.130636
-0.11973
0.123504
-0.120395
0.117491
-0.118936
0.112306
-0.115834
0.107866
-0.111101
0.103547
-0.104418
0.0977752
-0.0966738
0.0904986
-0.089582
0.085607
-0.0801215
0.0881973
-0.0599021
0.0993908
-0.0235468
0.115884
0.0231206
0.133293
0.0690646
0.148728
0.110184
0.160972
0.151727
0.169608
0.200072
0.174263
0.242773
0.174337
0.253297
0.170408
0.203684
0.164886
0.100791
0.159965
-0.0223265
0.155334
-0.117494
0.150351
-0.175658
0.14651
-0.200213
0.142535
-0.195699
0.136125
-0.187755
0.128439
-0.174514
0.125318
-0.176677
0.130196
-0.120132
0.140079
-0.0489292
0.149442
0.0772034
0.152761
0.203418
0.151165
0.289911
0.146645
0.341148
0.144976
0.20972
0.14969
0.113754
0.153456
-0.0547364
0.152722
-0.137575
0.149622
-0.205115
0.147555
-0.354197
-0.140777
0.151225
0.00838312
0.1506
0.010041
0.150985
0.011264
0.152296
0.0123864
0.154598
0.013526
0.157806
0.0142919
0.161697
0.0143277
0.16599
0.0132304
0.170356
0.0105475
0.174381
0.00579206
0.177958
-0.00165001
0.179878
-0.011907
0.180103
-0.0249214
0.177916
-0.0404966
0.172859
-0.0574849
0.165071
-0.0739962
0.15546
-0.0882103
0.145321
-0.0991601
0.135759
-0.106762
0.127382
-0.111353
0.120359
-0.113372
0.114565
-0.113142
0.109693
-0.110961
0.105621
-0.107029
0.102231
-0.101029
0.0983914
-0.0928337
0.0929162
-0.0841067
0.0876642
-0.0748695
0.0874908
-0.0597287
0.095499
-0.031555
0.110207
0.0084126
0.127366
0.0519059
0.143726
0.0938241
0.157684
0.13777
0.16846
0.189295
0.17518
0.236054
0.176563
0.251914
0.172813
0.207434
0.166625
0.106978
0.160658
-0.0163589
0.15504
-0.111877
0.149071
-0.169689
0.144532
-0.195674
0.140769
-0.191936
0.135083
-0.182069
0.127641
-0.167071
0.124076
-0.173112
0.128603
-0.124659
0.138633
-0.0589598
0.14886
0.0669767
0.153309
0.198969
0.152745
0.290475
0.148507
0.345386
0.146498
0.211729
0.151006
0.109245
0.154939
-0.0586691
0.154272
-0.136909
0.150951
-0.201794
0.148751
-0.351997
-0.139764
0.168495
0.0101468
0.167683
0.0108527
0.167431
0.0115161
0.1678
0.012017
0.168953
0.012373
0.17077
0.0124749
0.173061
0.0120375
0.175611
0.01068
0.178138
0.00802103
0.180173
0.00375631
0.181518
-0.00299453
0.181587
-0.0119766
0.179853
-0.023187
0.175858
-0.0365012
0.16938
-0.051007
0.160769
-0.0653856
0.150933
-0.0783745
0.140951
-0.089178
0.131674
-0.0974842
0.123553
-0.103232
0.116714
-0.106533
0.111109
-0.107537
0.106523
-0.106376
0.102752
-0.103258
0.0998768
-0.0981535
0.0974474
-0.0904043
0.0940453
-0.0807046
0.0896792
-0.0705034
0.0877974
-0.0578469
0.0925437
-0.0363013
0.104591
-0.00363437
0.120625
0.0358719
0.13743
0.0770191
0.153004
0.122195
0.166071
0.176229
0.175037
0.227087
0.177718
0.249233
0.174246
0.210907
0.167702
0.113522
0.160924
-0.00958066
0.154432
-0.105385
0.147627
-0.162884
0.142384
-0.190431
0.138754
-0.188306
0.133858
-0.177173
0.126731
-0.159945
0.122658
-0.169039
0.1267
-0.128701
0.136757
-0.0690169
0.147906
0.0558277
0.153646
0.193229
0.154285
0.289836
0.150451
0.34922
0.148162
0.214018
0.152371
0.105036
0.156441
-0.0627391
0.155853
-0.136321
0.152304
-0.198244
0.149968
-0.349661
-0.138923
0.17368
0.0108643
0.173134
0.011399
0.172979
0.0116715
0.173206
0.0117895
0.173845
0.0117346
0.17489
0.0114298
0.176221
0.0107066
0.177633
0.00926748
0.17891
0.00674362
0.179894
0.00277276
0.179802
-0.00290216
0.17839
-0.0105647
0.175356
-0.0201535
0.170376
-0.0315204
0.163437
-0.044068
0.154961
-0.0569102
0.145713
-0.0691259
0.13649
-0.0799553
0.127898
-0.088892
0.120277
-0.0956107
0.113743
-0.0999993
0.108309
-0.102103
0.103899
-0.101965
0.100309
-0.0996676
0.0975949
-0.0954396
0.0958478
-0.0886573
0.094096
-0.0789529
0.0912497
-0.0676572
0.08889
-0.0554872
0.0909725
-0.0383838
0.0994786
-0.0121405
0.113516
0.0218349
0.129746
0.0607889
0.146083
0.105858
0.161031
0.16128
0.172373
0.215745
0.17683
0.244776
0.174343
0.213393
0.168054
0.11981
0.160758
-0.00228407
0.153491
-0.0981179
0.146104
-0.155497
0.14023
-0.184557
0.136611
-0.184687
0.132495
-0.173057
0.125738
-0.153188
0.121148
-0.164449
0.12461
-0.132163
0.134554
-0.0789612
0.146548
0.0438336
0.153656
0.186122
0.155665
0.287827
0.152423
0.352462
0.149941
0.216501
0.153772
0.101205
0.157941
-0.0669081
0.157437
-0.135818
0.153679
-0.194486
0.151205
-0.347187
-0.138278
0.192168
0.0117093
-0.193013
0.191883
0.0116839
0.191834
0.0117207
0.192052
0.0115712
0.192623
0.0111638
0.193605
0.0104473
0.195037
0.00927468
0.196912
0.00739274
0.199117
0.00453835
0.201379
0.00051132
0.203567
-0.00509009
0.205259
-0.0122568
0.206084
-0.020979
0.205626
-0.0310617
0.203612
-0.0420541
0.20001
-0.053309
0.195015
-0.0641307
0.188934
-0.0738739
0.182095
-0.0820533
0.174809
-0.0883248
0.167337
-0.0925272
0.159882
-0.0946488
0.152617
-0.0947
0.145556
-0.0926063
0.138692
-0.0885761
0.132282
-0.0822474
0.126147
-0.0728177
0.119187
-0.060697
0.11124
-0.0475403
0.104854
-0.0319982
0.103346
-0.0106321
0.106987
0.0181943
0.113764
0.0540115
0.121043
0.0985795
0.127825
0.154498
0.134633
0.208938
0.142735
0.236674
0.153732
0.202396
0.165095
0.108447
0.172351
-0.0095402
0.173809
-0.0995758
0.169555
-0.151242
0.162618
-0.17762
0.155834
-0.177904
0.148501
-0.165724
0.13946
-0.144147
0.131563
-0.156552
0.129271
-0.12987
0.131617
-0.0813077
0.135231
0.0402204
0.136653
0.184699
0.136657
0.287824
0.136856
0.352263
0.139254
0.214102
0.145954
0.0945047
0.151192
-0.0721466
0.149907
-0.134532
0.145191
-0.18977
0.140105
-0.342101
-0.135432
0.204526
0.0117913
-0.204608
0.204705
0.011505
0.205151
0.0112746
0.205827
0.0108958
0.206745
0.0102457
0.207943
0.00924905
0.209428
0.0077896
0.211134
0.00568729
0.212932
0.00274012
0.214711
-0.00126761
0.21616
-0.00653938
0.217015
-0.0131115
0.216979
-0.0209431
0.215778
-0.0298607
0.213241
-0.0395172
0.209349
-0.0494176
0.20423
-0.0590109
0.198112
-0.067756
0.19128
-0.0752216
0.184031
-0.0810758
0.176632
-0.0851287
0.169272
-0.0872879
0.162099
-0.0875277
0.155185
-0.0856917
0.148471
-0.0818623
0.142107
-0.0758834
0.13628
-0.0669908
0.130273
-0.0546904
0.12321
-0.0404771
0.116351
-0.0251392
0.112699
-0.00697982
0.114382
0.0165114
0.120203
0.0481905
0.12787
0.0909126
0.135835
0.146532
0.144162
0.200611
0.1543
0.226535
0.167239
0.189457
0.179577
0.0961094
0.186612
-0.0165754
0.187162
-0.100126
0.181781
-0.145861
0.173691
-0.16953
0.166093
-0.170305
0.158558
-0.158189
0.149282
-0.13487
0.14081
-0.148081
0.137832
-0.126891
0.139927
-0.0834032
0.143909
0.036238
0.14595
0.182658
0.146891
0.286883
0.147943
0.35121
0.150548
0.211498
0.157326
0.0877271