/*--------------------------------*- C++ -*----------------------------------*\
| =========                 |                                                 |
| \\      /  F ield         | OpenFOAM: The Open Source CFD Toolbox           |
|  \\    /   O peration     | Version:  2512                                  |
|   \\  /    A nd           | Website:  www.openfoam.com                      |
|    \\/     M anipulation  |                                                 |
\*---------------------------------------------------------------------------*/
FoamFile
{
    version     2.0;
    format      ascii;
    arch        "LSB;label=32;scalar=64";
    class       volScalarField;
    location    "127.75";
    object      p;
}
// * * * * * * * * * * * * * * * * * * * * * * * * * * * * * * * * * * * * * //

dimensions      [0 2 -2 0 0 0 0];

internalField   nonuniform List<scalar> 
13248
(
-0.446724
-0.443906
-0.441269
-0.43891
-0.43687
-0.435185
-0.433724
-0.432198
-0.430203
-0.427264
-0.422893
-0.41665
-0.408201
-0.397368
-0.384149
-0.368714
-0.351375
-0.332535
-0.312634
-0.292111
-0.271276
-0.25051
-0.229373
-0.208363
-0.455609
-0.452076
-0.448597
-0.445288
-0.442199
-0.439371
-0.436657
-0.433732
-0.430158
-0.425448
-0.41915
-0.410912
-0.400536
-0.388006
-0.373473
-0.357227
-0.33964
-0.321118
-0.302047
-0.282769
-0.263543
-0.244616
-0.2259
-0.207932
-0.46557
-0.46119
-0.456819
-0.452555
-0.448403
-0.444374
-0.440278
-0.435743
-0.430312
-0.423534
-0.415049
-0.404655
-0.392328
-0.378214
-0.36259
-0.345807
-0.328235
-0.310223
-0.292073
-0.274029
-0.256267
-0.238967
-0.222062
-0.205769
-0.476962
-0.471561
-0.466233
-0.46099
-0.455722
-0.450366
-0.444664
-0.438209
-0.43057
-0.421397
-0.410496
-0.397857
-0.383637
-0.368114
-0.351627
-0.334523
-0.317116
-0.299667
-0.282382
-0.265418
-0.248892
-0.232922
-0.217452
-0.202721
-0.48994
-0.48334
-0.476976
-0.470695
-0.464189
-0.457285
-0.449658
-0.440909
-0.430706
-0.418881
-0.405456
-0.390625
-0.374687
-0.357989
-0.340864
-0.323599
-0.306422
-0.289501
-0.272956
-0.256877
-0.241329
-0.22637
-0.211964
-0.198271
-0.504454
-0.496512
-0.48903
-0.481604
-0.473653
-0.464872
-0.454911
-0.443456
-0.430369
-0.41573
-0.399794
-0.382918
-0.36548
-0.347822
-0.330217
-0.312867
-0.295906
-0.279423
-0.263473
-0.248094
-0.233311
-0.219144
-0.205571
-0.192698
-0.520253
-0.510884
-0.502208
-0.493471
-0.483763
-0.47267
-0.459901
-0.445346
-0.429146
-0.411659
-0.393337
-0.374633
-0.355924
-0.337491
-0.319518
-0.302116
-0.285338
-0.269209
-0.253736
-0.238918
-0.22475
-0.211222
-0.198323
-0.186081
-0.536885
-0.526079
-0.516129
-0.505842
-0.493958
-0.480037
-0.463986
-0.446016
-0.426608
-0.406366
-0.385871
-0.365582
-0.345816
-0.326757
-0.308494
-0.291053
-0.274424
-0.258584
-0.243502
-0.22915
-0.215498
-0.202521
-0.190205
-0.178505
-0.553683
-0.541503
-0.530186
-0.518027
-0.503467
-0.486189
-0.466462
-0.444915
-0.42236
-0.39958
-0.377183
-0.355566
-0.334941
-0.315385
-0.296899
-0.27944
-0.26295
-0.247366
-0.232631
-0.218691
-0.2055
-0.193022
-0.18123
-0.170018
-0.56976
-0.556328
-0.543516
-0.529089
-0.511331
-0.490247
-0.46662
-0.441532
-0.416056
-0.391046
-0.367053
-0.344361
-0.323059
-0.303127
-0.28449
-0.26705
-0.25071
-0.235379
-0.220975
-0.207428
-0.194674
-0.182668
-0.171357
-0.160611
-0.584033
-0.569494
-0.555012
-0.537877
-0.516442
-0.491257
-0.46371
-0.43529
-0.407226
-0.380338
-0.355058
-0.331529
-0.309727
-0.289543
-0.270841
-0.253481
-0.237334
-0.222286
-0.208236
-0.195096
-0.182791
-0.17126
-0.160417
-0.150144
-0.59532
-0.579857
-0.563512
-0.543226
-0.517703
-0.488236
-0.456858
-0.425383
-0.395081
-0.366659
-0.340385
-0.316259
-0.294147
-0.273864
-0.255222
-0.238045
-0.222178
-0.207487
-0.193855
-0.181179
-0.16938
-0.158378
-0.14806
-0.138362
-0.338476
-0.34121
-0.342852
-0.3439
-0.344794
-0.345666
-0.346575
-0.347548
-0.348587
-0.349674
-0.350789
-0.351911
-0.353031
-0.354147
-0.355271
-0.35643
-0.357663
-0.359019
-0.360563
-0.362364
-0.364458
-0.366796
-0.369372
-0.372615
-0.344006
-0.347144
-0.349125
-0.350516
-0.351795
-0.353079
-0.354401
-0.355759
-0.357121
-0.358429
-0.359613
-0.360595
-0.361296
-0.361639
-0.361553
-0.360983
-0.359884
-0.358238
-0.356062
-0.353409
-0.350301
-0.346661
-0.342661
-0.339587
-0.351136
-0.354438
-0.356636
-0.358321
-0.359966
-0.361663
-0.363415
-0.365189
-0.366917
-0.368498
-0.369809
-0.37071
-0.371049
-0.370665
-0.3694
-0.367104
-0.363642
-0.358914
-0.35287
-0.345527
-0.336883
-0.326815
-0.315605
-0.305519
-0.359809
-0.363008
-0.36528
-0.36718
-0.369142
-0.371224
-0.373396
-0.375589
-0.377699
-0.379582
-0.381063
-0.38194
-0.381987
-0.380964
-0.378625
-0.37473
-0.369056
-0.361421
-0.351708
-0.339888
-0.325964
-0.309821
-0.291655
-0.274263
-0.369744
-0.372579
-0.374762
-0.376774
-0.378967
-0.381363
-0.383894
-0.386462
-0.38892
-0.391082
-0.392722
-0.39358
-0.393361
-0.391753
-0.388431
-0.383078
-0.375403
-0.365163
-0.35219
-0.336421
-0.317903
-0.296652
-0.272624
-0.247855
-0.380482
-0.382735
-0.38467
-0.386656
-0.38895
-0.391534
-0.39431
-0.397137
-0.399837
-0.402175
-0.403879
-0.404633
-0.404085
-0.40186
-0.397572
-0.390852
-0.381371
-0.368866
-0.353166
-0.334223
-0.312114
-0.287095
-0.259146
-0.228504
-0.391481
-0.392999
-0.394535
-0.396339
-0.398563
-0.401157
-0.403995
-0.406903
-0.409653
-0.411977
-0.413557
-0.414027
-0.412988
-0.410016
-0.40469
-0.396619
-0.385474
-0.371026
-0.353167
-0.331938
-0.30755
-0.280287
-0.250798
-0.218165
-0.402224
-0.402933
-0.403939
-0.405387
-0.407339
-0.409722
-0.412387
-0.415127
-0.41769
-0.41975
-0.420956
-0.420903
-0.419152
-0.415252
-0.408774
-0.399341
-0.38667
-0.370612
-0.351172
-0.328524
-0.303066
-0.275071
-0.246139
-0.213813
-0.412332
-0.41223
-0.412606
-0.413523
-0.414985
-0.416915
-0.419151
-0.421463
-0.423557
-0.425087
-0.425656
-0.424826
-0.422137
-0.417134
-0.409408
-0.398635
-0.384623
-0.367338
-0.34693
-0.323707
-0.29825
-0.270793
-0.243355
-0.213078
-0.421637
-0.42078
-0.420452
-0.420683
-0.42145
-0.422693
-0.424251
-0.425876
-0.427251
-0.427994
-0.427677
-0.425838
-0.422009
-0.415757
-0.406725
-0.394681
-0.37955
-0.361441
-0.340644
-0.317592
-0.292937
-0.266989
-0.241481
-0.214116
-0.430229
-0.428685
-0.427606
-0.427023
-0.426925
-0.427282
-0.427948
-0.428665
-0.429091
-0.428817
-0.427385
-0.42432
-0.419169
-0.411546
-0.40118
-0.387957
-0.371938
-0.353365
-0.332629
-0.310249
-0.286834
-0.262862
-0.239501
-0.215201
-0.438431
-0.436247
-0.434384
-0.432904
-0.431828
-0.431166
-0.430788
-0.430428
-0.429717
-0.428215
-0.425443
-0.420927
-0.414253
-0.405118
-0.393368
-0.379026
-0.362288
-0.343496
-0.323086
-0.301571
-0.279416
-0.257186
-0.235518
-0.214305
-0.37764
-0.384197
-0.389442
-0.391673
-0.389435
-0.380711
-0.364562
-0.340617
-0.309961
-0.274765
-0.238867
-0.206275
-0.180123
-0.162384
-0.154245
-0.156657
-0.169749
-0.190849
-0.213118
-0.227057
-0.224609
-0.204447
-0.172622
-0.138801
-0.110413
-0.0906031
-0.0794609
-0.0756309
-0.0781475
-0.0881006
-0.106199
-0.127257
-0.140309
-0.136923
-0.119509
-0.0973186
-0.0792485
-0.0682049
-0.0632843
-0.0649913
-0.0751439
-0.0899471
-0.0982059
-0.0932736
-0.0794573
-0.0645791
-0.0537969
-0.0470849
-0.046369
-0.0485652
-0.0486392
-0.0464399
-0.042599
-0.0370882
-0.033412
-0.0303574
-0.0273035
-0.0278335
-0.0230393
-0.00686489
-0.338156
-0.337954
-0.337806
-0.336343
-0.332144
-0.323563
-0.310302
-0.291293
-0.267742
-0.240182
-0.212405
-0.18762
-0.168542
-0.157252
-0.155383
-0.164148
-0.183194
-0.208824
-0.233429
-0.247276
-0.242928
-0.219474
-0.183787
-0.146292
-0.114742
-0.0921383
-0.0783288
-0.0719076
-0.0717224
-0.0783974
-0.0928445
-0.111028
-0.123325
-0.121687
-0.107672
-0.0891825
-0.0745678
-0.0664802
-0.0640962
-0.0684572
-0.0813373
-0.0985284
-0.10782
-0.101999
-0.0858434
-0.0680123
-0.0548141
-0.0458756
-0.0432476
-0.0434311
-0.0428811
-0.0412401
-0.038701
-0.035194
-0.0331346
-0.0323764
-0.0302112
-0.0312341
-0.0260942
-0.00778751
-0.297623
-0.289396
-0.282665
-0.276202
-0.26911
-0.25995
-0.248108
-0.233183
-0.217924
-0.197676
-0.178139
-0.161328
-0.149731
-0.145518
-0.150557
-0.16591
-0.190483
-0.219823
-0.246125
-0.259935
-0.254584
-0.229127
-0.19099
-0.151043
-0.117248
-0.0924997
-0.0764507
-0.0676705
-0.0649298
-0.0684386
-0.0792079
-0.0943954
-0.105807
-0.105766
-0.0950591
-0.0802102
-0.069037
-0.0639269
-0.0641301
-0.0711509
-0.0866313
-0.106063
-0.116412
-0.109912
-0.0916573
-0.071024
-0.0555277
-0.0445636
-0.0402501
-0.0386143
-0.0374169
-0.0361167
-0.0347246
-0.0331723
-0.0327796
-0.034383
-0.0330833
-0.0345181
-0.0290465
-0.00869043
-0.260562
-0.243775
-0.229816
-0.217314
-0.206041
-0.195352
-0.183972
-0.17086
-0.162791
-0.149425
-0.137764
-0.128851
-0.124967
-0.128193
-0.140282
-0.161842
-0.19112
-0.223317
-0.250945
-0.265367
-0.259593
-0.233316
-0.194122
-0.153033
-0.118016
-0.091853
-0.0740971
-0.0633146
-0.0582539
-0.0588223
-0.0660358
-0.0781453
-0.0884339
-0.0897491
-0.0820678
-0.070664
-0.0627943
-0.0605573
-0.0632611
-0.0728009
-0.0906822
-0.112228
-0.12371
-0.116809
-0.0967738
-0.0735796
-0.055947
-0.0431756
-0.0374174
-0.0341786
-0.0323101
-0.0311394
-0.0307185
-0.0310448
-0.0323473
-0.0363629
-0.0358963
-0.0376492
-0.0318608
-0.00956345
-0.230611
-0.205859
-0.184794
-0.166228
-0.14988
-0.135744
-0.123771
-0.10872
-0.110524
-0.100603
-0.0954392
-0.0937182
-0.0971643
-0.107523
-0.12611
-0.152936
-0.185783
-0.219907
-0.248442
-0.263428
-0.258111
-0.232256
-0.193459
-0.152586
-0.117358
-0.0904565
-0.0714974
-0.0591175
-0.0520868
-0.050032
-0.0538862
-0.0628811
-0.0718122
-0.0747526
-0.0690544
-0.0607803
-0.0559526
-0.0563589
-0.0613645
-0.0731965
-0.0932553
-0.116752
-0.129439
-0.122475
-0.101086
-0.0756665
-0.0561009
-0.04174
-0.0347667
-0.0301555
-0.027608
-0.0263766
-0.0267344
-0.0288315
-0.031838
-0.0382995
-0.0386235
-0.0405852
-0.0345001
-0.0103962
-0.208946
-0.177778
-0.149824
-0.128002
-0.106772
-0.0861446
-0.0771571
-0.0631647
-0.0603192
-0.0566745
-0.0566233
-0.0606933
-0.0702221
-0.0864838
-0.110209
-0.140819
-0.175836
-0.210852
-0.239728
-0.255196
-0.250845
-0.226445
-0.189403
-0.150032
-0.115553
-0.088555
-0.0688448
-0.0552486
-0.0466042
-0.0423688
-0.0432068
-0.0491204
-0.0563664
-0.0596857
-0.0562642
-0.0507963
-0.0486339
-0.0513654
-0.0584073
-0.0722457
-0.0941976
-0.119445
-0.133403
-0.126749
-0.104505
-0.077273
-0.0560135
-0.0402749
-0.0322962
-0.02655
-0.0233389
-0.0218952
-0.02282
-0.0265496
-0.031249
-0.0401712
-0.0412362
-0.0432869
-0.0369308
-0.0111778
-0.196378
-0.163434
-0.131608
-0.103919
-0.0790392
-0.0572318
-0.0411745
-0.0278525
-0.0246621
-0.0234547
-0.0262724
-0.0339895
-0.0475166
-0.0676289
-0.0944981
-0.12708
-0.162799
-0.197676
-0.226273
-0.242018
-0.238884
-0.216735
-0.182572
-0.145783
-0.112885
-0.0863634
-0.0662989
-0.0518125
-0.0418828
-0.0358714
-0.0341726
-0.0371846
-0.0425459
-0.0457493
-0.0441058
-0.0409965
-0.0410231
-0.0457032
-0.0544432
-0.0699237
-0.0934203
-0.12024
-0.135496
-0.129529
-0.106956
-0.078382
-0.0557015
-0.0387924
-0.0299918
-0.0233363
-0.019509
-0.0177531
-0.0190163
-0.0242136
-0.0305743
-0.0419546
-0.0437048
-0.0457196
-0.0391252
-0.0118983
-0.19134
-0.15915
-0.126029
-0.0958081
-0.0685954
-0.0448014
-0.0256382
-0.0104627
-0.00495117
-0.00333514
-0.00670015
-0.015675
-0.0307893
-0.0523825
-0.0802157
-0.112952
-0.148007
-0.181779
-0.209666
-0.225241
-0.223328
-0.204
-0.173571
-0.140183
-0.109524
-0.0839737
-0.0639175
-0.0488363
-0.0379225
-0.0305086
-0.0267523
-0.0271835
-0.0306074
-0.0334078
-0.0329555
-0.031679
-0.0333576
-0.0395414
-0.0495884
-0.0663087
-0.0909429
-0.119147
-0.135679
-0.130785
-0.108397
-0.0789849
-0.0551841
-0.0373052
-0.0278482
-0.0204827
-0.0161012
-0.0139954
-0.0153556
-0.0218369
-0.0298058
-0.0436267
-0.0459985
-0.0478534
-0.0410603
-0.01255
-0.191012
-0.161182
-0.129672
-0.0994156
-0.0714052
-0.0465113
-0.0259701
-0.0112095
0.000188337
0.00428187
0.0023611
-0.00571497
-0.0201854
-0.0410721
-0.0678982
-0.0991924
-0.132384
-0.164248
-0.19076
-0.205852
-0.205214
-0.189186
-0.163099
-0.133661
-0.105711
-0.0815407
-0.0618303
-0.046428
-0.0347968
-0.0263044
-0.0209339
-0.0191693
-0.0206862
-0.0228349
-0.0230787
-0.0230874
-0.025879
-0.0331014
-0.0439849
-0.0614432
-0.0868876
-0.11626
-0.134023
-0.130538
-0.108845
-0.0791452
-0.0545486
-0.0358658
-0.0258806
-0.0179942
-0.0131064
-0.0106442
-0.0118611
-0.0194303
-0.0289335
-0.0451642
-0.0480882
-0.0496634
-0.0427109
-0.0131279
-0.192997
-0.166293
-0.138299
-0.110267
-0.0831631
-0.0583227
-0.0368078
-0.0200673
-0.00553178
0.00163117
0.00244395
-0.00311556
-0.0151907
-0.0336224
-0.0578347
-0.0863372
-0.116709
-0.145892
-0.170219
-0.184758
-0.185789
-0.17355
-0.152202
-0.127047
-0.102123
-0.0796477
-0.0605574
-0.0450333
-0.0328505
-0.0234909
-0.0168253
-0.0132132
-0.0128987
-0.0141765
-0.0148733
-0.0154053
-0.0187815
-0.0265662
-0.0378747
-0.0556782
-0.0814522
-0.111659
-0.130641
-0.12889
-0.108357
-0.078978
-0.0539523
-0.0345793
-0.0241013
-0.0158605
-0.0105635
-0.00775164
-0.00853672
-0.0170075
-0.0279471
-0.0465375
-0.0499435
-0.0511242
-0.0440453
-0.0136239
-0.19523
-0.171958
-0.147879
-0.122348
-0.0965706
-0.0722305
-0.0500447
-0.0308381
-0.0162775
-0.00741175
-0.00339087
-0.00535607
-0.0138936
-0.0286847
-0.0492223
-0.0742097
-0.101267
-0.127523
-0.149883
-0.162701
-0.165562
-0.157411
-0.141096
-0.120495
-0.0988629
-0.0783262
-0.0600715
-0.0445788
-0.0319483
-0.0218772
-0.0141781
-0.00900756
-0.00697556
-0.00732202
-0.00789967
-0.00884616
-0.0123583
-0.0201812
-0.031269
-0.048817
-0.07485
-0.105961
-0.125661
-0.125879
-0.106684
-0.0782252
-0.0532254
-0.03335
-0.022409
-0.013876
-0.00837924
-0.00542761
-0.00542908
-0.0145569
-0.0268179
-0.0477399
-0.0515223
-0.0522085
-0.0450286
-0.0140105
-0.197673
-0.179792
-0.160155
-0.137661
-0.114658
-0.0925397
-0.0713468
-0.0521048
-0.0344912
-0.0220447
-0.0152093
-0.013636
-0.0176508
-0.0275757
-0.0429118
-0.062586
-0.084741
-0.107199
-0.125733
-0.138931
-0.143004
-0.138559
-0.126943
-0.110693
-0.092401
-0.0740841
-0.057127
-0.0422046
-0.0296253
-0.0193311
-0.0111696
-0.00499626
-0.00155956
-0.00105818
-0.00175079
-0.00316194
-0.00673795
-0.014386
-0.0250589
-0.0418965
-0.0673909
-0.0985796
-0.118918
-0.120249
-0.103171
-0.0758824
-0.0513458
-0.031468
-0.02046
-0.0116556
-0.00610838
-0.00326406
-0.00250854
-0.0121817
-0.0255652
-0.0486872
-0.0528093
-0.0529049
-0.0456722
-0.0142448
-0.1856
-0.177537
-0.1591
-0.137225
-0.115799
-0.0952665
-0.0755236
-0.0575813
-0.0418799
-0.0301957
-0.0227377
-0.0197356
-0.0219462
-0.0296713
-0.0425877
-0.0597032
-0.0792745
-0.098843
-0.115287
-0.126123
-0.12932
-0.124905
-0.114269
-0.0996172
-0.0831376
-0.0665242
-0.0509743
-0.0370778
-0.0251286
-0.0151282
-0.00701343
-0.000539687
0.00369519
0.00518975
0.00494
0.00422965
0.000259352
-0.00657809
-0.0162567
-0.0326084
-0.0590048
-0.0926878
-0.115465
-0.119062
-0.100146
-0.0725973
-0.0482992
-0.0287814
-0.018274
-0.00936767
-0.00372976
-0.000459872
0.000978524
-0.00931889
-0.0239289
-0.0494846
-0.0541315
-0.0533182
-0.0460796
-0.0143444
-0.174527
-0.168642
-0.151527
-0.131322
-0.11225
-0.0945365
-0.0776723
-0.0622208
-0.048608
-0.0378865
-0.030643
-0.0274183
-0.0287055
-0.0346654
-0.0450076
-0.0588441
-0.0746487
-0.0902715
-0.103064
-0.111308
-0.113337
-0.109223
-0.10011
-0.087646
-0.0734958
-0.0589843
-0.045126
-0.0324591
-0.0213045
-0.0117769
-0.0038845
0.00267162
0.00732441
0.00930152
0.00909653
0.007634
0.00486941
-0.000977095
-0.00956014
-0.0250734
-0.0516891
-0.0865668
-0.109992
-0.112445
-0.0945606
-0.06799
-0.0448285
-0.0261211
-0.0160318
-0.00720684
-0.00182406
0.00168039
0.00336773
-0.00705235
-0.0226236
-0.0500348
-0.0551381
-0.0532197
-0.0460043
-0.014349
-0.163353
-0.158381
-0.14379
-0.126191
-0.109495
-0.0942974
-0.0798507
-0.0664007
-0.0544269
-0.0447995
-0.0381588
-0.0349156
-0.0353629
-0.039581
-0.0472795
-0.0576932
-0.069575
-0.0812544
-0.091025
-0.0971044
-0.0984693
-0.0950844
-0.0876208
-0.0771966
-0.0650776
-0.0523477
-0.0399111
-0.0283013
-0.0178585
-0.00874207
-0.0010714
0.00542672
0.0103021
0.0126989
0.0127285
0.0112056
0.00887797
0.00357538
-0.00446906
-0.0195062
-0.0456162
-0.0794785
-0.102261
-0.104473
-0.0879125
-0.062896
-0.0411236
-0.0233471
-0.0137406
-0.00509755
2.34953e-05
0.00362288
0.00528941
-0.00524886
-0.0216279
-0.0503276
-0.0557801
-0.0526541
-0.0454839
-0.0142905
-0.150658
-0.147857
-0.136262
-0.12112
-0.106515
-0.0932998
-0.0809849
-0.0694445
-0.0590762
-0.0505663
-0.0444489
-0.0410559
-0.0406077
-0.0431481
-0.0484289
-0.0558643
-0.0645157
-0.0731286
-0.080305
-0.0847688
-0.0856641
-0.0827858
-0.0765284
-0.0676891
-0.0572496
-0.0460826
-0.0349579
-0.0243686
-0.0146555
-0.00598856
0.00141733
0.00776553
0.0127479
0.0155566
0.0160091
0.0148708
0.0128767
0.00810906
0.000450077
-0.0140278
-0.0387946
-0.0709512
-0.0932723
-0.0955227
-0.080316
-0.0571717
-0.037082
-0.0204531
-0.0114105
-0.00302702
0.00184351
0.00540273
0.00705043
-0.00356166
-0.0205274
-0.050199
-0.0560213
-0.0516558
-0.0444856
-0.0141359
-0.138697
-0.137735
-0.128432
-0.115565
-0.102962
-0.0916149
-0.0811614
-0.0713529
-0.0624293
-0.0549008
-0.0492217
-0.045696
-0.0445025
-0.0456671
-0.0490008
-0.0540495
-0.0600484
-0.0661657
-0.0712334
-0.0742998
-0.0746432
-0.0720277
-0.066684
-0.0591494
-0.0501456
-0.0403507
-0.0304059
-0.0207586
-0.0117544
-0.00355573
0.00356988
0.0097245
0.0147095
0.0178377
0.0187749
0.0181633
0.0167759
0.0127582
0.0057652
-0.00765358
-0.0307236
-0.0613605
-0.0831391
-0.0854657
-0.0718003
-0.0508987
-0.0327728
-0.0174779
-0.00906319
-0.00100364
0.00362617
0.00698479
0.00867107
-0.00182028
-0.0191081
-0.0495181
-0.0557495
-0.0501602
-0.042951
-0.013852
-0.127569
-0.127627
-0.120294
-0.109577
-0.0988822
-0.0892418
-0.0804147
-0.0721166
-0.0644596
-0.0578234
-0.0525953
-0.0490451
-0.0473173
-0.0474263
-0.0492251
-0.0523693
-0.0563282
-0.0602932
-0.0635907
-0.0654301
-0.065234
-0.0627601
-0.0581036
-0.0516007
-0.0437738
-0.0351481
-0.0262519
-0.0174741
-0.00915549
-0.00144723
0.00537616
0.0113191
0.0162294
0.0195704
0.0209992
0.0210367
0.0204536
0.0174246
0.0114336
-0.000639937
-0.0220078
-0.0509768
-0.0719281
-0.0744746
-0.0625914
-0.0442098
-0.0282558
-0.0144527
-0.00671974
0.000956176
0.00536338
0.00837822
0.01012
-1.75389e-05
-0.0173374
-0.0481122
-0.0547849
-0.0481017
-0.0408477
-0.0134082
-0.116671
-0.117548
-0.112007
-0.103257
-0.0943027
-0.0861898
-0.0787825
-0.0718019
-0.0652738
-0.0594728
-0.0547142
-0.0512285
-0.0491353
-0.0484448
-0.0490435
-0.0506704
-0.0529405
-0.0552815
-0.0571526
-0.0579713
-0.057282
-0.0548444
-0.0506718
-0.0449679
-0.0381046
-0.0304781
-0.0225143
-0.0145373
-0.00687146
0.000335554
0.00683021
0.0125559
0.017359
0.0208302
0.0226976
0.0233986
0.0237451
0.021909
0.0171367
0.00645134
-0.0131534
-0.0401294
-0.0600019
-0.0628776
-0.0529652
-0.0372765
-0.0236136
-0.0114158
-0.00440144
0.00283876
0.00705493
0.00961515
0.0113732
0.00181723
-0.0151681
-0.0457644
-0.0529371
-0.0454432
-0.0381701
-0.0127782
-0.106068
-0.107751
-0.103742
-0.0966952
-0.0892813
-0.0825217
-0.0763565
-0.0705269
-0.0650013
-0.0599683
-0.0556766
-0.0523201
-0.050002
-0.0487361
-0.0484388
-0.0489208
-0.0498927
-0.0509639
-0.0517079
-0.0516909
-0.0505568
-0.0480904
-0.0442617
-0.0391839
-0.0331114
-0.0263353
-0.0191941
-0.0119519
-0.00490296
0.00180419
0.00794552
0.0134415
0.0181269
0.0216782
0.0239277
0.0251779
0.0264259
0.0259049
0.0225302
0.013247
-0.00460228
-0.0293609
-0.0478215
-0.051053
-0.0432433
-0.0303086
-0.0189454
-0.00840662
-0.00212566
0.00463514
0.00870266
0.0107462
0.0124391
0.00370497
-0.0124984
-0.0422785
-0.0500322
-0.0421758
-0.03495
-0.0119453
-0.0961812
-0.0983695
-0.0955602
-0.0899577
-0.0838939
-0.0783246
-0.0732413
-0.0684113
-0.063767
-0.0594314
-0.0555974
-0.0524261
-0.0500081
-0.0483595
-0.0474204
-0.0470648
-0.0470732
-0.0471711
-0.0470394
-0.0463561
-0.0448484
-0.0423326
-0.0387563
-0.034172
-0.0287493
-0.0226971
-0.0162805
-0.00971115
-0.00324425
0.00297383
0.0087463
0.0139895
0.0185436
0.0221445
0.0247575
0.0263807
0.0283339
0.0290386
0.0270974
0.0191888
0.00306012
-0.0191588
-0.0358048
-0.0394272
-0.0337778
-0.0235333
-0.014363
-0.00546533
9.37528e-05
0.00634134
0.0103076
0.0118475
0.0133813
0.00571304
-0.00924475
-0.0375355
-0.0459417
-0.0383257
-0.0312682
-0.010909
-0.0869596
-0.0893692
-0.0875043
-0.0831287
-0.078236
-0.0737003
-0.0695508
-0.0655833
-0.06171
-0.0580054
-0.0546158
-0.0516733
-0.0492561
-0.0473838
-0.0460194
-0.0450668
-0.0443792
-0.0437563
-0.0429681
-0.041778
-0.0399783
-0.0374171
-0.0340345
-0.029847
-0.0249643
-0.0195325
-0.0137552
-0.00780015
-0.0018811
0.0038632
0.00925975
0.0142251
0.0186216
0.0222245
0.0252226
0.0270076
0.0294029
0.0309873
0.0301749
0.0235694
0.00937454
-0.00982718
-0.0243894
-0.0284738
-0.0249203
-0.0171693
-0.00998326
-0.00263416
0.00224328
0.00795815
0.0118694
0.0130156
0.014315
0.00790754
-0.00539905
-0.0315553
-0.0406448
-0.0339637
-0.0272482
-0.00968862
-0.0782076
-0.0807692
-0.0796707
-0.0763161
-0.0724143
-0.0687599
-0.0654078
-0.0621799
-0.0589774
-0.0558391
-0.0528737
-0.0501875
-0.047848
-0.0458777
-0.044251
-0.0429068
-0.0417399
-0.0406102
-0.0393537
-0.0377982
-0.0357879
-0.0332018
-0.029982
-0.0261247
-0.0216985
-0.0168029
-0.0115916
-0.00619648
-0.000792567
0.00449533
0.00951551
0.0141837
0.0183807
0.021866
0.0244565
0.0270216
0.029651
0.0316301
0.03146
0.0261048
0.0141851
-0.00169298
-0.0141378
-0.0186691
-0.0169731
-0.0113942
-0.00591382
4.30296e-05
0.0043026
0.00948432
0.0133808
0.0143401
0.0153774
0.0103231
-0.00105757
-0.024558
-0.0342874
-0.0292067
-0.0230509
-0.00832613
-0.0700017
-0.0726478
-0.0721345
-0.0696031
-0.0665239
-0.0636113
-0.0609333
-0.0583343
-0.0557111
-0.0530763
-0.0505094
-0.0480947
-0.0458887
-0.0439127
-0.0421602
-0.0405841
-0.0391133
-0.0376513
-0.0360829
-0.0342847
-0.0321426
-0.0295627
-0.0264941
-0.022923
-0.0188908
-0.0144642
-0.00975713
-0.00487245
4.81853e-05
0.00489781
0.00954533
0.0139043
0.0178758
0.0212654
0.0240196
0.0265864
0.0291808
0.0311575
0.031242
0.027034
0.0174779
0.00481901
-0.00560758
-0.0103698
-0.0101259
-0.00631703
-0.0022362
0.0025257
0.00624073
0.0109053
0.0148143
0.015856
0.0166861
0.0129479
0.00356191
-0.0169823
-0.0272136
-0.0242317
-0.0188638
-0.00688611
-0.0624104
-0.0650156
-0.0649207
-0.0630477
-0.0606482
-0.0583547
-0.0562411
-0.0541721
-0.0520451
-0.0498545
-0.0476565
-0.0455179
-0.0434854
-0.0415796
-0.039798
-0.0381128
-0.0364757
-0.0348208
-0.0330687
-0.0311329
-0.0289311
-0.0263929
-0.023476
-0.0201636
-0.01648
-0.0124692
-0.00821502
-0.00379673
0.00067249
0.00510213
0.00938114
0.0134264
0.0171559
0.0204232
0.0232072
0.0257078
0.0281184
0.0298843
0.0300179
0.02676
0.0193278
0.00948212
0.000949559
-0.00369862
-0.00442765
-0.00197482
0.00100149
0.00478099
0.00802235
0.0121909
0.0161112
0.0174941
0.0182691
0.0157001
0.00813054
-0.0094489
-0.0199551
-0.0192587
-0.0148684
-0.00544673
-0.0553532
-0.0578482
-0.0580557
-0.0567084
-0.0548651
-0.0530822
-0.0514358
-0.0498093
-0.0481039
-0.0463014
-0.0444399
-0.0425717
-0.0407362
-0.038951
-0.0372155
-0.0355146
-0.0338173
-0.0320793
-0.0302466
-0.0282602
-0.026062
-0.0236006
-0.0208432
-0.0177737
-0.0144063
-0.0107697
-0.00692593
-0.00293502
0.00111279
0.00514208
0.00905898
0.0127898
0.0162626
0.0193634
0.0220652
0.0244467
0.0266059
0.0280949
0.0281947
0.0256761
0.0200054
0.0124918
0.0056663
0.0014333
0.000176087
0.0016507
0.00378342
0.00678066
0.00961658
0.01331
0.0171851
0.0190619
0.0199741
0.0183586
0.0122354
-0.00261406
-0.0130849
-0.0145043
-0.0112139
-0.0040865
-0.0487908
-0.0511526
-0.0515729
-0.0506362
-0.0492405
-0.0478732
-0.0466094
-0.0453488
-0.0439983
-0.0425318
-0.0409737
-0.0393642
-0.0377347
-0.0361016
-0.0344653
-0.0328181
-0.0311401
-0.0294027
-0.0275701
-0.0256028
-0.0234611
-0.021109
-0.0185221
-0.0156871
-0.0126129
-0.00931841
-0.00584964
-0.00225194
0.00140225
0.00505219
0.00861768
0.0120336
0.0152331
0.0181318
0.0206865
0.0229015
0.0247931
0.0260209
0.0260768
0.0241418
0.0198843
0.0142342
0.00889904
0.00525331
0.00380272
0.00460647
0.00611818
0.00850009
0.0109933
0.0142416
0.0179537
0.0202986
0.0214445
0.0205152
0.0154338
0.0030379
-0.00703515
-0.0101572
-0.00800343
-0.00287175
-0.0427332
-0.0449318
-0.0454859
-0.0448639
-0.0438248
-0.0427929
-0.0418396
-0.0408788
-0.0398245
-0.0386462
-0.037358
-0.0359903
-0.0345681
-0.0331043
-0.0316014
-0.0300553
-0.0284538
-0.0267787
-0.0250069
-0.0231127
-0.0210702
-0.0188548
-0.0164499
-0.0138454
-0.0110477
-0.00806976
-0.00494653
-0.00171233
0.00157458
0.00486578
0.00809164
0.0111969
0.0141169
0.0167885
0.0191538
0.0211773
0.0228227
0.0238416
0.0238821
0.0224236
0.0192764
0.0150892
0.0110116
0.00801178
0.00658502
0.00695384
0.00802746
0.00992481
0.0121177
0.0149567
0.0183752
0.0209926
0.0222869
0.0217265
0.017399
0.00727157
-0.00202817
-0.00634864
-0.00529048
-0.00184914
-0.0371533
-0.0391673
-0.0397966
-0.0394139
-0.0386576
-0.0378943
-0.0371904
-0.0364729
-0.0356635
-0.0347299
-0.0336787
-0.0325326
-0.0313111
-0.0300243
-0.0286743
-0.0272596
-0.0257731
-0.0242036
-0.0225363
-0.0207553
-0.0188442
-0.0167872
-0.0145739
-0.0121975
-0.00966358
-0.00698167
-0.00417908
-0.00128203
0.00166209
0.00461479
0.00751537
0.0103187
0.0129631
0.0153946
0.0175479
0.0193755
0.0208125
0.0216825
0.021744
0.0206833
0.018405
0.0153542
0.0123011
0.00991843
0.00864991
0.00875964
0.00953681
0.011051
0.0129624
0.0154211
0.0184333
0.0210469
0.0222775
0.0218438
0.018111
0.0100755
0.00184543
-0.00315344
-0.0030817
-0.00103781
-0.0320172
-0.0338429
-0.0345063
-0.0343028
-0.0337682
-0.0332178
-0.0327126
-0.0321908
-0.0315821
-0.0308544
-0.0300086
-0.0290615
-0.0280289
-0.0269184
-0.0257302
-0.024464
-0.0231162
-0.0216803
-0.0201469
-0.0185066
-0.0167495
-0.0148664
-0.0128513
-0.0107006
-0.00841978
-0.00601642
-0.00351279
-0.0009291
0.00169539
0.00433021
0.00692281
0.00943577
0.0118106
0.0140023
0.0159438
0.0175849
0.0188519
0.0196238
0.0197344
0.0190097
0.0174089
0.0152306
0.0129947
0.0111657
0.0101189
0.0100934
0.0106742
0.0118838
0.0135212
0.01562
0.0181495
0.02052
0.0215404
0.0210968
0.0178494
0.011615
0.00459413
-0.00060012
-0.00134458
-0.000425722
-0.0273052
-0.0289439
-0.02961
-0.0295377
-0.0291755
-0.0287927
-0.0284444
-0.0280785
-0.027633
-0.027077
-0.0264084
-0.0256378
-0.0247775
-0.0238354
-0.0228098
-0.0216994
-0.0205025
-0.019216
-0.0178342
-0.0163514
-0.0147624
-0.0130622
-0.0112484
-0.00931969
-0.00728186
-0.00514142
-0.00291704
-0.000624636
0.00170278
0.00404052
0.00634353
0.00858111
0.0106977
0.0126577
0.0143971
0.0158696
0.0170011
0.0177123
0.0178898
0.0174448
0.0163683
0.0148571
0.0132718
0.0119114
0.0111004
0.0110215
0.0114723
0.0124386
0.0138068
0.0155635
0.0175928
0.0195765
0.0203269
0.0198323
0.0169947
0.0121683
0.00634052
0.00133665
-1.91635e-05
1.94957e-05
-0.0229931
-0.0244502
-0.0250973
-0.0251195
-0.0248904
-0.0246387
-0.0244132
-0.0241707
-0.0238568
-0.0234429
-0.0229245
-0.0223085
-0.021605
-0.0208194
-0.0199501
-0.0189944
-0.0179516
-0.0168207
-0.0155983
-0.0142812
-0.0128667
-0.0113529
-0.0097396
-0.00802724
-0.00622186
-0.00432935
-0.00236567
-0.000343966
0.00170809
0.00377042
0.00580374
0.00778308
0.0096587
0.0114012
0.0129541
0.0142734
0.015297
0.0159722
0.0162228
0.0160052
0.0153319
0.01433
0.0132589
0.0122777
0.0116871
0.0116065
0.0119687
0.0127388
0.0138491
0.0152822
0.0168368
0.0183286
0.018859
0.0183279
0.0158515
0.0120505
0.00729135
0.00272079
0.000960328
0.000334726
-0.0190561
-0.0203413
-0.0209555
-0.0210442
-0.0209171
-0.0207671
-0.0206372
-0.0204913
-0.0202828
-0.0199854
-0.0195941
-0.0191127
-0.0185476
-0.0179029
-0.0171797
-0.0163734
-0.015482
-0.0145057
-0.0134432
-0.0122927
-0.011053
-0.00972381
-0.00830645
-0.00680251
-0.00521802
-0.00355848
-0.00183772
-6.6701e-05
0.00173109
0.00353941
0.00532447
0.00706487
0.00871741
0.0102582
0.0116376
0.0128236
0.0137604
0.014414
0.0147321
0.0146946
0.0143246
0.0137055
0.0130596
0.0123576
0.0119585
0.0119042
0.012203
0.0128145
0.0136888
0.0148202
0.0159655
0.0170365
0.0173141
0.0167601
0.0146078
0.0115313
0.00767367
0.00364161
0.00165275
0.000550804
-0.0154717
-0.0165972
-0.0171699
-0.0173039
-0.0172542
-0.0171827
-0.0171265
-0.0170558
-0.016931
-0.0167286
-0.0164429
-0.0160763
-0.0156321
-0.015114
-0.0145242
-0.0138575
-0.0131102
-0.0122826
-0.0113749
-0.0103864
-0.00931661
-0.00816603
-0.00693672
-0.00563097
-0.00425455
-0.00281259
-0.0013171
0.000222709
0.00178707
0.00336204
0.00491925
0.00644154
0.00789107
0.00924754
0.0104691
0.0115364
0.0124002
0.0130359
0.0134081
0.013509
0.013362
0.0130078
0.0125629
0.0121998
0.0119786
0.0119661
0.0122177
0.0126992
0.0133667
0.014227
0.0150294
0.0157498
0.0158008
0.0152273
0.0133678
0.0108082
0.00767456
0.00419274
0.00211109
0.000691541
-0.012218
-0.013197
-0.0137239
-0.0138874
-0.0138963
-0.0138849
-0.0138851
-0.0138725
-0.0138136
-0.0136882
-0.01349
-0.0132208
-0.0128826
-0.0124774
-0.0120048
-0.0114641
-0.0108504
-0.0101623
-0.00940039
-0.00856513
-0.00765653
-0.00667517
-0.00562332
-0.0045035
-0.00332103
-0.00208072
-0.000792712
0.000534933
0.00188552
0.00324783
0.00459779
0.00592125
0.00718743
0.00837852
0.00945838
0.0104176
0.0112125
0.0118293
0.0122409
0.0124449
0.0124637
0.0123176
0.0121061
0.0119082
0.0118127
0.0118409
0.0120543
0.0124277
0.0129195
0.013545
0.0140651
0.0145064
0.01438
0.0137833
0.0121847
0.0100082
0.00743162
0.00445922
0.00238305
0.000775025
-0.00927387
-0.0101204
-0.0106004
-0.010782
-0.0108347
-0.0108692
-0.0109122
-0.0109441
-0.0109368
-0.0108732
-0.0107473
-0.0105598
-0.010312
-0.0100033
-0.00963372
-0.00920555
-0.00871356
-0.00815415
-0.00752718
-0.00683378
-0.00607465
-0.0052505
-0.00436333
-0.00341554
-0.00241191
-0.00135675
-0.000258641
0.000875517
0.00203203
0.00320133
0.00436375
0.00550756
0.0066071
0.00764967
0.00860437
0.00945893
0.0101868
0.0107817
0.0112191
0.011495
0.0116313
0.0116367
0.0115877
0.0115172
0.0115106
0.0115711
0.0117512
0.0120354
0.0123808
0.0128099
0.0131108
0.01333
0.0130765
0.0124561
0.01108
0.00920347
0.00704538
0.00451637
0.00250571
0.000815202
-0.00661977
-0.00734809
-0.00778201
-0.00797348
-0.00805883
-0.00812797
-0.00820329
-0.00826889
-0.00830185
-0.00828754
-0.00822075
-0.00810124
-0.00792993
-0.00770649
-0.00742976
-0.00709728
-0.00671087
-0.00626652
-0.00576199
-0.00519765
-0.00457464
-0.00389394
-0.00315723
-0.00236651
-0.00152584
-0.000639004