/*--------------------------------*- C++ -*----------------------------------*\
| =========                 |                                                 |
| \\      /  F ield         | OpenFOAM: The Open Source CFD Toolbox           |
|  \\    /   O peration     | Version:  2512                                  |
|   \\  /    A nd           | Website:  www.openfoam.com                      |
|    \\/     M anipulation  |                                                 |
\*---------------------------------------------------------------------------*/
FoamFile
{
    version     2.0;
    format      ascii;
    arch        "LSB;label=32;scalar=64";
    class       surfaceScalarField;
    location    "180.25";
    object      phi;
}
// * * * * * * * * * * * * * * * * * * * * * * * * * * * * * * * * * * * * * //

dimensions      [0 3 -1 0 0 0 0];

oriented        oriented;

internalField   nonuniform List<scalar> 
26232
(
-6.50698e-06
0.00109798
-0.00109148
0.000290984
0.00206946
-0.00236696
0.00114356
0.00199559
-0.00284816
0.00276869
0.000916811
-0.00254194
0.00536909
-0.0011651
-0.0014353
0.00913474
-0.00426426
0.000498614
0.0142347
-0.00839149
0.00329152
0.0207985
-0.0135351
0.00697132
0.0288922
-0.0196432
0.0115494
0.0384941
-0.0266124
0.0170105
0.0494761
-0.0342849
0.023303
0.0615976
-0.0424553
0.0303338
0.0745147
-0.0508851
0.037968
0.0878054
-0.0593236
0.0460329
0.101007
-0.0675301
0.0543284
0.113663
-0.0752961
0.0626402
0.12537
-0.0824634
0.0707561
0.135823
-0.0889381
0.0784853
0.144848
-0.0946931
0.0856679
0.152401
-0.0997754
0.0922231
0.158578
-0.10424
0.0980624
0.163469
-0.108307
0.103416
0.167038
-0.111611
0.108041
-0.115435
0.113225
0.169248
6.0956e-05
0.00103703
0.000565701
0.00156472
0.00178966
0.000771626
0.00398058
-0.00127411
0.0073648
-0.00454932
0.0121361
-0.00903554
0.0184326
-0.014688
0.0263071
-0.0214096
0.0357
-0.0290361
0.0464229
-0.0373352
0.0581619
-0.0460239
0.0705019
-0.0547953
0.0829691
-0.0633524
0.0950845
-0.0714391
0.10642
-0.0788656
0.116647
-0.085523
0.12557
-0.0913868
0.13314
-0.0965081
0.139442
-0.100994
0.144649
-0.104983
0.149017
-0.108608
0.152716
-0.112007
0.156249
-0.115143
-0.118619
0.159433
0.000159234
0.000877792
0.000950118
0.000773836
0.0026627
-0.000940952
0.00555861
-0.00417003
0.00986028
-0.00885099
0.0157224
-0.0148976
0.0231951
-0.0221607
0.0321918
-0.0304064
0.0424745
-0.0393187
0.0536665
-0.0485272
0.0652936
-0.0576511
0.0768456
-0.0663473
0.0878447
-0.0743514
0.097907
-0.0815014
0.106787
-0.0877454
0.114393
-0.0931296
0.12078
-0.0977739
0.126111
-0.101839
0.130608
-0.105491
0.134505
-0.10888
0.138004
-0.112107
0.141266
-0.115268
0.144417
-0.118294
-0.121601
0.1474
0.000279051
0.000598741
0.00141387
-0.000360981
0.00369618
-0.00322326
0.00737744
-0.0078513
0.0126371
-0.0141106
0.0195369
-0.0217974
0.0279801
-0.0306039
0.0376944
-0.0401207
0.0482534
-0.0498777
0.0591347
-0.0594085
0.0698006
-0.068317
0.0797812
-0.0763279
0.088738
-0.0833082
0.0964979
-0.0892614
0.103052
-0.094299
0.10852
-0.0985983
0.113105
-0.102359
0.117032
-0.105766
0.12051
-0.108969
0.123702
-0.112072
0.126733
-0.115138
0.129673
-0.118208
0.132631
-0.121253
-0.124537
0.135567
0.000414272
0.000184469
0.00193153
-0.00187824
0.0048274
-0.00611913
0.00931034
-0.0123342
0.0154682
-0.0202685
0.0232141
-0.0295433
0.0322607
-0.0396505
0.0421451
-0.0500051
0.0523025
-0.0600351
0.0621676
-0.0692735
0.0712716
-0.0774211
0.0793087
-0.084365
0.0861582
-0.0901577
0.0918653
-0.0949684
0.096591
-0.0990247
0.100552
-0.102559
0.103967
-0.105774
0.107022
-0.108821
0.109855
-0.111802
0.112562
-0.114779
0.115207
-0.117782
0.117828
-0.120829
0.120477
-0.123902
-0.127141
0.123081
0.000561764
-0.000377295
0.00248351
-0.00379998
0.00599887
-0.00963449
0.0112317
-0.0175671
0.0181262
-0.027163
0.0264037
-0.0378208
0.0355805
-0.0488273
0.0450531
-0.0594778
0.0542212
-0.0692032
0.0626017
-0.077654
0.0699002
-0.0847195
0.0760252
-0.09049
0.0810541
-0.0951866
0.0851704
-0.0990847
0.0885974
-0.102452
0.0915465
-0.105508
0.0941884
-0.108416
0.0966458
-0.111278
0.0989998
-0.114156
0.101302
-0.117081
0.103585
-0.120066
0.10587
-0.123114
0.108186
-0.126218
-0.12945
0.110496
0.000718945
-0.00109624
0.00304942
-0.00613046
0.00714834
-0.0137334
0.0130081
-0.0234268
0.0203856
-0.0345405
0.0287988
-0.046234
0.037612
-0.0576405
0.0461785
-0.0680443
0.0539788
-0.0770035
0.0607033
-0.0843786
0.0662649
-0.0902811
0.0707538
-0.0949788
0.0743644
-0.0987972
0.077324
-0.102044
0.0798405
-0.104968
0.082077
-0.107745
0.0841469
-0.110486
0.0861231
-0.113255
0.0880497
-0.116083
0.0899537
-0.118985
0.0918523
-0.121964
0.0937574
-0.125019
0.0956852
-0.128146
-0.131369
0.0976041
0.000881155
-0.00197739
0.00360243
-0.00885173
0.00820288
-0.0183339
0.0144999
-0.0297239
0.0220434
-0.0420839
0.0301798
-0.0543705
0.0382082
-0.0656689
0.0455468
-0.0753829
0.0518399
-0.0832965
0.056977
-0.0895156
0.0610425
-0.0943467
0.0642338
-0.0981701
0.0667817
-0.101345
0.0688955
-0.104158
0.0707369
-0.10681
0.0724166
-0.109425
0.0740037
-0.112073
0.0755388
-0.11479
0.0770459
-0.11759
0.0785399
-0.120479
0.0800318
-0.123456
0.0815302
-0.126518
0.0830454
-0.129661
-0.132885
0.0845615
0.00104072
-0.00301812
0.00410845
-0.0119195
0.00908305
-0.0233085
0.0155786
-0.0362195
0.0229528
-0.0494581
0.0304519
-0.0618696
0.0374088
-0.0726257
0.0433869
-0.081361
0.0482206
-0.0881303
0.0519676
-0.0932626
0.0548184
-0.0971974
0.057007
-0.100359
0.0587488
-0.103087
0.0602101
-0.105619
0.0615039
-0.108103
0.0626994
-0.11062
0.0638366
-0.11321
0.0649379
-0.115891
0.0660169
-0.118669
0.0670831
-0.121545
0.0681439
-0.124517
0.0692057
-0.12758
0.0702742
-0.13073
-0.133953
0.0713423
0.00118745
-0.00420557
0.00452976
-0.0152618
0.00971453
-0.0284932
0.0161491
-0.042654
0.0230486
-0.0563576
0.0296474
-0.0684684
0.0353929
-0.0783713
0.040027
-0.085995
0.0435527
-0.091656
0.0461397
-0.0958497
0.0480225
-0.0990803
0.0494257
-0.101762
0.0505256
-0.104187
0.0514426
-0.106536
0.0522501
-0.108911
0.0529894
-0.11136
0.0536833
-0.113904
0.0543449
-0.116552
0.0549828
-0.119307
0.0556036
-0.122166
0.056213
-0.125126
0.0568163
-0.128183
0.0574173
-0.131331
-0.134553
0.0580168
0.00131066
-0.00551623
0.00483216
-0.0187833
0.010042
-0.0337031
0.0161656
-0.0487777
0.0223484
-0.0625403
0.0278939
-0.0740139
0.0324086
-0.082886
0.035804
-0.0893905
0.0382066
-0.0940585
0.0398425
-0.0974856
0.0409462
-0.100184
0.0417089
-0.102525
0.0422636
-0.104742
0.042692
-0.106965
0.0430398
-0.109259
0.043331
-0.111651
0.0435792
-0.114152
0.0437925
-0.116766
0.0439774
-0.119492
0.0441388
-0.122327
0.0442812
-0.125269
0.0444081
-0.12831
0.0445209
-0.131444
-0.134656
0.0446235
0.0014037
-0.00691993
0.00499363
-0.0223732
0.0100394
-0.0387488
0.0156358
-0.0543742
0.0209375
-0.067842
0.0253743
-0.0784508
0.028719
-0.0862307
0.0310194
-0.0916908
0.0324754
-0.0955145
0.0333268
-0.098337
0.0337829
-0.10064
0.0339948
-0.102736
0.0340571
-0.104804
0.0340229
-0.106931
0.03392
-0.109156
0.0337625
-0.111493
0.0335589
-0.113949
0.033315
-0.116522
0.0330357
-0.119212
0.0327257
-0.122017
0.0323889
-0.124932
0.0320283
-0.127949
0.0316447
-0.13106
0.0312434
-0.134254
-0.000138055
0.00222103
-0.00208297
-0.000528259
0.00592025
-0.00553005
-0.00116087
0.00906954
-0.00843693
-0.00201843
0.0116907
-0.0108331
-0.0030726
0.0138331
-0.0127789
-0.00428615
0.0155812
-0.0143677
-0.00561687
0.0170361
-0.0157054
-0.00702152
0.0182948
-0.0168901
-0.00845858
0.0194337
-0.0179966
-0.00988919
0.0205002
-0.0190696
-0.0112766
0.0215106
-0.0201232
-0.0125842
0.0224527
-0.021145
-0.013774
0.0232904
-0.0221006
-0.0148042
0.0239693
-0.0229391
-0.0156285
0.0244201
-0.0235959
-0.0161954
0.0245623
-0.0239954
-0.0164491
0.0243064
-0.0240527
-0.0163303
0.0235567
-0.0236755
-0.0157778
0.022215
-0.0227675
-0.0147324
0.0201865
-0.0212319
-0.0131291
0.0173759
-0.0189792
-0.0109081
0.0137111
-0.0159321
-0.00802662
0.00914854
-0.01203
0.00375435
-0.00450754
-0.00727343
-2.51999e-05
0.00224623
-0.000150307
0.00604536
-0.000409002
0.00932823
-0.000813891
0.0120956
-0.00135656
0.0143758
-0.00201012
0.0162348
-0.00273398
0.01776
-0.00347952
0.0190403
-0.00419502
0.0201492
-0.00482887
0.0211341
-0.0053311
0.0220128
-0.00565327
0.0227748
-0.00574773
0.0233849
-0.00556676
0.0237883
-0.00506216
0.0239155
-0.00418563
0.0236857
-0.00288981
0.0230106
-0.00113001
0.0217969
0.00113625
0.0199488
0.00395287
0.0173699
0.00735138
0.0139774
0.0113675
0.00969497
0.016044
0.00447204
-0.00163179
0.0214302
7.88732e-05
0.00216736
0.000208619
0.00591561
0.000323916
0.00921294
0.000388936
0.0120306
0.00039479
0.0143699
0.000357547
0.016272
0.00031366
0.0178039
0.000313854
0.0190401
0.000416928
0.0200461
0.000684625
0.0208664
0.00117815
0.0215193
0.00195628
0.0219967
0.00307459
0.0222666
0.00458522
0.0222777
0.00653655
0.0219642
0.00897253
0.0212498
0.0119318
0.0200513
0.0154469
0.0182818
0.0195427
0.0158529
0.0242342
0.0126784
0.0295357
0.00867596
0.0354579
0.00377272
0.0420002
-0.00207029
-0.00895501
0.0493235
0.000161483
0.00200587
0.000507492
0.0055696
0.00095714
0.00876329
0.00146185
0.0115258
0.00200092
0.0138309
0.00258056
0.0156924
0.00323078
0.0171537
0.00399996
0.018271
0.00494855
0.0190975
0.006143
0.0196719
0.00765074
0.0200116
0.00953669
0.0201108
0.0118611
0.0199422
0.014678
0.0194607
0.0180349
0.0186073
0.0219718
0.0173128
0.0265213
0.0155018
0.0317084
0.0130947
0.0375508
0.0100105
0.0440628
0.00616633
0.0512358
0.001503
0.059125
-0.00411647
0.0676559
-0.0106012
-0.0183835
0.0770844
0.000213786
0.00179209
0.00071374
0.00506965
0.00142176
0.00805527
0.00228905
0.0106586
0.0032908
0.0128291
0.00442662
0.0145565
0.00571934
0.015861
0.00721131
0.016779
0.00895899
0.0173498
0.0110271
0.0176038
0.013483
0.0175557
0.0163926
0.0172012
0.019817
0.0165178
0.023811
0.0154667
0.0284223
0.013996
0.0336915
0.0120436
0.0396532
0.0095401
0.0463392
0.00640869
0.0537684
0.00258134
0.0619838
-0.00204901
0.0710133
-0.00752649
0.0808811
-0.0139843
0.0915023
-0.0212224
-0.030115
0.103234
0.000231108
0.00156098
0.000807959
0.0044928
0.00167249
0.00719073
0.00278811
0.00954294
0.00413466
0.0114826
0.00571034
0.0129809
0.00753261
0.0140387
0.00963657
0.014675
0.0120714
0.0149149
0.0148958
0.0147794
0.018173
0.0142785
0.0219668
0.0134073
0.0263392
0.0121454
0.0313485
0.0104575
0.0370493
0.00829516
0.0434955
0.0055974
0.0507326
0.00230294
0.0588222
-0.00168085
0.0678224
-0.00641888
0.0777694
-0.011996
0.088702
-0.0184591
0.100656
-0.0259382
0.113472
-0.0340387
-0.0440849
0.127442
0.000213581
0.0013474
0.000787429
0.00391895
0.00169756
0.0062806
0.00292989
0.00831061
0.00447716
0.00993529
0.00634252
0.0111155
0.00854252
0.0118387
0.0111078
0.0121097
0.0140821
0.0119407
0.0175192
0.0113423
0.0214806
0.0103171
0.0260326
0.00885532
0.0312446
0.00693336
0.0371903
0.00451183
0.0439404
0.00154498
0.0515797
-0.00204185
0.0601902
-0.00630759
0.0698391
-0.0113297
0.0805939
-0.0171737
0.0924847
-0.0238868
0.105509
-0.0314834
0.119578
-0.0400069
0.134488
-0.0489492
-0.0597214
0.150125
0.000166592
0.00118081
0.000668686
0.00341686
0.00152615
0.00542313
0.00275469
0.00708208
0.00436697
0.008323
0.00637838
0.00910409
0.0088121
0.00940497
0.0117024
0.00921938
0.0150961
0.008547
0.0190524
0.00738607
0.023642
0.00572752
0.0289471
0.00355021
0.035055
0.000825497
0.0420684
-0.00250158
0.0500889
-0.0064756
0.0592073
-0.0111602
0.0695089
-0.0166092
0.0810434
-0.0228642
0.0938153
-0.0299457
0.107749
-0.0378208
0.122709
-0.046443
0.138366
-0.0556642
0.154508
-0.0650907
-0.0755888
0.170375
0.000101248
0.00107956
0.000488904
0.0030292
0.00123203
0.00468001
0.00238093
0.00593318
0.00397473
0.0067292
0.00604988
0.00702893
0.0086476
0.00680725
0.0118194
0.00604759
0.0156305
0.0047359
0.0201615
0.00285501
0.0255056
0.000383469
0.031772
-0.00271615
0.0390739
-0.00647649
0.047515
-0.0109426
0.0571902
-0.0161508
0.0681567
-0.0221267
0.0804212
-0.0288737
0.0939186
-0.0363615
0.108493
-0.0445205
0.123887
-0.0532146
0.139753
-0.0623093
0.155575
-0.0714853
0.171093
-0.0806088
-0.0896365
0.18514
3.41898e-05
0.00104537
0.000303823
0.00275957
0.000928634
0.0040552
0.00199706
0.00486476
0.00358179
0.00514447
0.00575116
0.00485956
0.0085781
0.00398031
0.0121465
0.00247919
0.0165538
0.000328636
0.0219102
-0.00250146
0.0283346
-0.00604087
0.0359374
-0.010319
0.0448164
-0.0153555
0.0550294
-0.0211556
0.06658
-0.0277014
0.0793969
-0.0349436
0.0933197
-0.0427965
0.108093
-0.051135
0.123365
-0.0597921
0.138718
-0.0685682
0.153656
-0.0772471
0.167702
-0.0855314
0.180491
-0.0933972
-0.100277
0.191131
-1.55025e-05
0.00106087
0.000178119
0.00256595
0.000748102
0.00348521
0.00182407
0.00378879
0.00351943
0.00344911
0.00594397
0.00243502
0.00921191
0.00071237
0.013445
-0.00175395
0.01877
-0.0049963
0.0253082
-0.00903969
0.0331622
-0.0138949
0.0423947
-0.0195515
0.0530095
-0.0259703
0.0649323
-0.0330784
0.0779973
-0.0407664
0.091943
-0.0488893
0.106418
-0.057271
0.120999
-0.0657164
0.135221
-0.0740144
0.148641
-0.081988
0.160827
-0.0894325
0.1716
-0.0963049
0.180637
-0.102435
-0.107541
0.187902
-3.06044e-05
0.000168387
0.000805439
0.00205228
0.00406609
0.00699972
0.0110036
0.016221
0.0227741
0.0307449
0.0401529
0.0509353
0.062933
0.0758875
0.0894495
0.1032
0.116685
0.129454
0.141108
0.151343
0.159973
0.167084
0.172691
0.178374
0.00028745
-0.0036421
-0.00115289
0.00545378
-0.016121
0.0109546
0.0109618
-0.0308431
0.0253351
0.0166902
-0.0470456
0.0413172
0.0224199
-0.0639589
0.0582292
0.0278456
-0.0806835
0.0752578
0.0325463
-0.0961941
0.0914935
0.0360077
-0.109585
0.106123
0.0378426
-0.120411
0.118576
0.0379441
-0.128781
0.128679
0.0369332
-0.135092
0.136103
0.0363729
-0.13906
0.13962
0.0383135
-0.138725
0.136784
0.0442657
-0.130554
0.124602
0.0543001
-0.111173
0.101138
0.0672451
-0.0794627
0.0665177
0.0816302
-0.0372585
0.0228733
0.0962725
0.0114949
-0.0261372
0.110157
0.0610756
-0.0749601
0.122099
0.104448
-0.116391
0.131044
0.136604
-0.145548
0.136644
0.15655
-0.16215
0.139397
0.166318
-0.169071
0.139746
0.169777
-0.170126
0.137322
0.173214
-0.170789
0.13194
0.182052
-0.17667
0.125308
0.192827
-0.186196
0.120847
0.189462
-0.185001
0.121208
0.154521
-0.154882
0.12661
0.0846766
-0.0900789
0.135202
-0.00349109
-0.00510123
0.144284
-0.0864113
0.07733
0.151556
-0.147592
0.14032
0.156189
-0.182893
0.17826
0.15817
-0.197842
0.195861
0.156759
-0.20269
0.204101
0.151118
-0.212507
0.218149
0.142543
-0.223224
0.231799
0.134892
-0.218777
0.226427
0.131757
-0.170103
0.173238
0.134339
-0.0836363
0.0810548
0.140937
0.0214668
-0.0280646
0.148757
0.112779
-0.120599
0.154178
0.174095
-0.179516
0.154085
0.223013
-0.222921
0.148406
0.250369
-0.24469
0.141114
0.274766
-0.267474
0.136955
0.226702
-0.222543
0.13891
0.141703
-0.143658
0.144733
0.0125809
-0.0184039
0.149499
-0.103351
0.0985848
0.149188
-0.171237
0.171548
0.145285
-0.273712
0.277615
0.142198
-0.258491
0.261578
0.142409
-0.272003
0.271793
0.143732
-0.138243
0.13692
0.1439
0.019284
-0.019452
0.142741
0.107398
-0.106239
0.140808
0.348554
-0.346621
0.222336
-0.220647
0.025865
-0.00807694
0.0304493
-0.0207053
0.0350834
-0.0354772
0.0396697
-0.0516319
0.0440465
-0.0683357
0.0479976
-0.0846346
0.0512029
-0.0993995
0.0532234
-0.111605
0.0534961
-0.120684
0.0515133
-0.126798
0.0472931
-0.130872
0.0420089
-0.133776
0.0380562
-0.134772
0.0381213
-0.130619
0.0437077
-0.116759
0.0544005
-0.0901556
0.0685576
-0.0514156
0.0844643
-0.00441176
0.100438
0.0451017
0.114918
0.0899682
0.126514
0.125008
0.134655
0.14841
0.139596
0.161377
0.141574
0.167799
0.140379
0.174408
0.136343
0.186088
0.131426
0.197744
0.12852
0.192369
0.129468
0.153573
0.134221
0.0799238
0.14126
-0.0105298
0.148413
-0.0935646
0.153715
-0.152894
0.156494
-0.185673
0.157014
-0.198362
0.154707
-0.200383
0.148511
-0.206311
0.139378
-0.214091
0.131198
-0.210597
0.128
-0.166905
0.131234
-0.086871
0.1391
0.0136006
0.148225
0.103654
0.154641
0.167679
0.155188
0.222467
0.150052
0.255505
0.143122
0.281696
0.138831
0.230994
0.140253
0.140281
0.145472
0.00736233
0.149998
-0.107876
0.149477
-0.170716
0.145357
-0.269592
0.142167
-0.255302
0.142257
-0.272093
0.143459
-0.139445
0.143438
0.0193047
0.142285
0.108551
0.140406
0.350433
0.224007
0.0530642
-0.0118177
0.0568426
-0.0244836
0.0604924
-0.039127
0.0638362
-0.0549758
0.0667469
-0.0712464
0.0690901
-0.0869778
0.0706512
-0.100961
0.0711158
-0.11207
0.0700675
-0.119635
0.0669659
-0.123696
0.0612829
-0.125189
0.0532157
-0.125709
0.0445623
-0.126119
0.0385653
-0.124622
0.0383154
-0.116509
0.0449616
-0.0968018
0.0573864
-0.0638404
0.073477
-0.0205024
0.0909192
0.0276595
0.10755
0.0733372
0.121661
0.110898
0.132375
0.137695
0.139601
0.154151
0.143378
0.164022
0.143724
0.174062
0.141393
0.188419
0.138364
0.200773
0.136919
0.193814
0.13818
0.152312
0.141936
0.0761683
0.147184
-0.0157779
0.152258
-0.0986386
0.155574
-0.15621
0.156573
-0.186672
0.155722
-0.197511
0.152679
-0.197339
0.146187
-0.19982
0.136739
-0.204642
0.128091
-0.201948
0.124707
-0.163521
0.128376
-0.09054
0.137325
0.0046507
0.147634
0.0933458
0.155063
0.160249
0.156386
0.221145
0.151959
0.259931
0.145488
0.288167
0.141057
0.235425
0.141836
0.139501
0.14633
0.00286818
0.15058
-0.112126
0.149877
-0.170014
0.145504
-0.265219
0.142161
-0.251958
0.14215
-0.272082
0.143302
-0.140598
0.143124
0.0194824
0.141974
0.109701
0.140153
0.352253
0.225641
0.0802762
-0.0150095
0.0833804
-0.0275878
0.0861793
-0.0419259
0.088374
-0.0571704
0.0898435
-0.0727159
0.0904859
-0.0876202
0.0901462
-0.100621
0.0886935
-0.110617
0.086036
-0.116978
0.0819682
-0.119628
0.0759495
-0.11917
0.0673285
-0.117088
0.0564694
-0.11526
0.0458394
-0.113992
0.0394224
-0.110092
0.0404025
-0.0977818
0.0492423
-0.0726803
0.0639678
-0.0352278
0.0819135
0.00971375
0.100085
0.0551652
0.116422
0.0945612
0.129624
0.124492
0.139165
0.144611
0.144902
0.158285
0.147069
0.171894
0.146726
0.188763
0.145686
0.201813
0.145547
0.193954
0.146883
0.150975
0.149486
0.073566
0.152811
-0.0191038
0.155763
-0.10159
0.157129
-0.157576
0.156444
-0.185988
0.154305
-0.195371
0.150625
-0.19366
0.144059
-0.193254
0.134574
-0.195157
0.125574
-0.192949
0.12187
-0.159817
0.125746
-0.0944153
0.13555
-0.00515379
0.146926
0.08197
0.155398
0.151778
0.157641
0.218901
0.154092
0.263481
0.14818
0.294078
0.143609
0.239997
0.143658
0.139451
0.147302
-0.000774947
0.151223
-0.116047
0.150369
-0.16916
0.145714
-0.260564
0.142161
-0.248405
0.142065
-0.271986
0.143243
-0.141775
0.142949
0.019776
0.141798
0.110853
0.140049
0.354003
0.227212
0.106294
-0.0180693
0.108968
-0.0302621
0.110965
-0.0439228
0.111994
-0.0581999
0.11196
-0.072682
0.110804
-0.086464
0.108473
-0.0982897
0.104998
-0.107142
0.100505
-0.112485
0.095141
-0.114264
0.0888155
-0.112844
0.0808591
-0.109131
0.0704389
-0.10484
0.0581476
-0.101701
0.0471432
-0.0990879
0.0419063
-0.0925449
0.0452956
-0.0760696
0.0567844
-0.0467166
0.0738642
-0.00736606
0.0927007
0.0363287
0.110756
0.0765057
0.126159
0.109089
0.137916
0.132855
0.145701
0.1505
0.149912
0.167683
0.151761
0.186913
0.152785
0.200789
0.153901
0.192838
0.155198
0.149678
0.156533
0.0722314
0.157977
-0.0205477
0.158835
-0.102448
0.15831
-0.157051
0.156062
-0.18374
0.152741
-0.19205
0.148515
-0.189434
0.142056
-0.186795
0.132805
-0.185906
0.123627
-0.183771
0.119519
-0.155709
0.123327
-0.0982225
0.13371
-0.0155374
0.146029
0.0696513
0.155573
0.142233
0.158889
0.215585
0.156381
0.265989
0.151134
0.299325
0.146445
0.244686
0.145686
0.14021
0.148375
-0.00346395
0.151901
-0.119572
0.150927
-0.168186
0.145974
-0.255611
0.142156
-0.244588
0.14198
-0.27181
0.143261
-0.143056
0.142901
0.0201365
0.14175
0.112004
0.140093
0.355659
0.228689
0.13026
-0.0208873
0.132426
-0.0324277
0.133531
-0.0450286
0.13328
-0.0579484
0.131639
-0.0710416
0.128622
-0.0834462
0.124302
-0.0939697
0.118895
-0.101735
0.112699
-0.106289
0.10602
-0.107585
0.099092
-0.105916
0.0917497
-0.101789
0.083059
-0.0961489
0.0720486
-0.0906901
0.0596688
-0.0867081
0.0497062
-0.0825822
0.0467929
-0.0731564
0.053134
-0.0530578
0.0671673
-0.0213993
0.0855343
0.0179617
0.104554
0.0574864
0.121698
0.0919447
0.135463
0.119089
0.145307
0.140656
0.151696
0.161295
0.155866
0.182743
0.158989
0.197667
0.161361
0.190465
0.162636
0.148403
0.16286
0.072008
0.162522
-0.0202104
0.161386
-0.101312
0.159053
-0.154717
0.155383
-0.180071
0.151003
-0.187669
0.146295
-0.184726
0.140071
-0.18057
0.131306
-0.177141
0.12217
-0.174636
0.117619
-0.151158
0.121082
-0.101685
0.131751
-0.0262062
0.144857
0.0565447
0.155501
0.13159
0.160034
0.211052
0.158732
0.267291
0.154251
0.303806
0.149481
0.249456
0.147889
0.141802
0.149524
-0.00509846
0.152582
-0.122631
0.15152
-0.167124
0.146272
-0.250363
0.142137
-0.240453
0.141873
-0.271546
0.143334
-0.144517
0.142964
0.0205066
0.141819
0.113149
0.140284
0.357195
0.230035
0.152142
-0.0229044
0.153297
-0.0335828
0.153063
-0.0447942
0.151192
-0.0560779
0.147742
-0.067592
0.142792
-0.0784953
0.136534
-0.0877124
0.12935
-0.0945513
0.121697
-0.0986362
0.113983
-0.0998708
0.106512
-0.0984458
0.0994244
-0.0947011
0.092319
-0.0890435
0.0839792
-0.0823503
0.0734439
-0.0761727
0.0621112
-0.0712496
0.0541973
-0.0652424
0.0541237
-0.0529841
0.0630951
-0.0303707
0.0789933
0.00206352
0.0977407
0.0387391
0.115955
0.0737303
0.131436
0.103608
0.143299
0.128793
0.151939
0.152655
0.158486
0.176195
0.163715
0.192439
0.167318
0.186862
0.168693
0.147027
0.168123
0.0725781
0.166276
-0.0183636
0.163308
-0.0983444
0.159289
-0.150698
0.154353
-0.175134
0.149055
-0.182372
0.143919
-0.17959
0.138
-0.174651
0.129922
-0.169063
0.121068
-0.165782
0.11611
-0.1462
0.118989
-0.104564
0.129604
-0.0368215
0.143324
0.0428251
0.155076
0.119837
0.16096
0.205168
0.161022
0.26723
0.157411
0.307416
0.152629
0.254238
0.1502
0.144231
0.150716
-0.00561433
0.153234
-0.125149
0.152112
-0.166003
0.146596
-0.244846
0.142099
-0.235956
0.141723
-0.27117
0.143437
-0.14623
0.143122
0.0208214
0.141995
0.114276
0.140619
0.35857
0.23121
0.170856
-0.0233851
0.170335
-0.0330622
0.168232
-0.0426908
0.164452
-0.0522976
0.159129
-0.0622695
0.15238
-0.071746
0.144489
-0.079822
0.135926
-0.0859881
0.127211
-0.0899212
0.118813
-0.0914726
0.111064
-0.0906967
0.104146
-0.0877832
0.0980214
-0.0829189
0.0920343
-0.0763632
0.0848002
-0.0689387
0.0755349
-0.0619844
0.0660394
-0.055747
0.0606599
-0.0476046
0.0632333
-0.0329442
0.0742936
-0.00899679
0.0908167
0.022216
0.108931
0.0556157
0.125601
0.0869387
0.139343
0.11505
0.150249
0.141749
0.159197
0.167248
0.166527
0.185108
0.171413
0.181976
0.173096
0.145344
0.171978
0.073696
0.169026
-0.0154121
0.164493
-0.0938109
0.15895
-0.145155
0.152907
-0.169091
0.14685
-0.176315
0.141336
-0.174076
0.135741
-0.169057
0.128488
-0.16181
0.120148
-0.157442
0.114894
-0.140946
0.116993
-0.106663
0.127234
-0.047063
0.141349
0.0287104
0.154193
0.106994
0.161539
0.197821
0.1631
0.265669
0.16047
0.310046
0.155768
0.25894
0.152551
0.147448
0.151913
-0.00497575
0.153819
-0.127055
0.152663
-0.164847
0.146928
-0.239111
0.142042
-0.231069
0.141515
-0.270643
0.143547
-0.148263
0.14336
0.0210087
0.142268
0.115367
0.141097
0.359741
0.232171
0.183816
-0.0220605
0.181353
-0.0305999
0.177284
-0.0386211
0.171749
-0.0467629
0.1649
-0.0554207
0.156853
-0.0636985
0.14794
-0.0709092
0.138641
-0.0766888
0.129449
-0.0807296
0.120813
-0.0828362
0.113071
-0.082955
0.106413
-0.0811256
0.100899
-0.0774047
0.0963426
-0.0718066
0.0919146
-0.0645106
0.0862236
-0.0562934
0.0787367
-0.0482601
0.0715142
-0.0403821
0.0686991
-0.0301291
0.0734504
-0.0137481
0.0854136
0.0102527
0.101518
0.0395109
0.118273
0.070184
0.133422
0.0999016
0.146451
0.12872
0.157773
0.155926
0.167195
0.175686
0.173422
0.17575
0.175608
0.143158
0.174364
0.0749401
0.170664
-0.0117119
0.164842
-0.087989
0.157939
-0.138252
0.150943
-0.162095
0.144298
-0.16967
0.138466
-0.168243
0.133179
-0.16377
0.126833
-0.155464
0.119213
-0.149822
0.113819
-0.135552
0.115044
-0.107887
0.124611
-0.0566304
0.138874
0.0144468
0.152746
0.093122
0.161647
0.188921
0.164834
0.262482
0.163292
0.311588
0.158765
0.263466
0.154864
0.151349
0.153069
-0.00318056
0.154297
-0.128282
0.153129
-0.163679
0.147251
-0.233233
0.141966
-0.225784
0.141229
-0.269906
0.14364
-0.150674
0.14366
0.0209885
0.142627
0.1164
0.141715
0.360654
0.232872
0.188524
-0.0194532
0.184574
-0.0266503
0.179126
-0.033173
0.172555
-0.0401915
0.164937
-0.0478027
0.156375
-0.0551371
0.14721
-0.0617438
0.13787
-0.0673485
0.128786
-0.0716463
0.120354
-0.0744041
0.112883
-0.0754837
0.106572
-0.074815
0.101524
-0.0723563
0.0977497
-0.0680324
0.0949839
-0.0617448
0.0923149
-0.0536244
0.0884411
-0.0443862
0.0830716
-0.0350126
0.0783077
-0.0253652
0.0777949
-0.0132353
0.0838568
0.0041909
0.09575
0.0276177
0.110758
0.0551764
0.126203
0.0844563
0.140799
0.114124
0.154225
0.142501
0.165664
0.164247
0.173363
0.168051
0.176338
0.140183
0.175305
0.0759732
0.171203
-0.00761061
0.164303
-0.0810889
0.156187
-0.130136
0.148373
-0.15428
0.141318
-0.162615
0.135252
-0.162177
0.130231
-0.158749
0.124823
-0.150056
0.11809
-0.143089
0.112728
-0.13019
0.113064
-0.108224
0.121708
-0.065274
0.135865
0.000289715
0.150657
0.0783304
0.161144
0.178433
0.166035
0.257591
0.165698
0.311925
0.161508
0.267656
0.157055
0.155802
0.154145
-0.000270568
0.154636
-0.128773
0.153468
-0.162511
0.147546
-0.227311
0.141875
-0.220114
0.140853
-0.268884
0.14369
-0.153511
0.144005
0.0206738
0.143061
0.117344
0.142469
0.361246
0.233261
0.18495
-0.0165014
0.180401
-0.0221014
0.174572
-0.0273437
0.167894
-0.0335138
0.160335
-0.0402437
0.152035
-0.0468367
0.143303
-0.0530124
0.134488
-0.0585331
0.125953
-0.0631117
0.118043
-0.0664935
0.111035
-0.068476
0.105134
-0.0689143
0.100473
-0.0676953
0.0970993
-0.0646586
0.094987
-0.0596324
0.093871
-0.0525085
0.0929598
-0.043475
0.0911261
-0.0331789
0.0881558
-0.0223949
0.0860141
-0.0110936
0.087377
0.00282799
0.0939893
0.0210054
0.105266
0.0439
0.119188
0.0705338
0.134166
0.0991454
0.149145
0.127522
0.162369
0.151023
0.171379
0.159041
0.175353
0.136209
0.175069
0.0762568
0.1709
-0.00344113
0.163159
-0.0733482
0.153982
-0.12096
0.145461
-0.145758
0.138133
-0.155287
0.131897
-0.155941
0.12703
-0.153882
0.122483
-0.145509
0.116746
-0.137353
0.111556
-0.125
0.111012
-0.10768
0.118519
-0.0727803
0.132282
-0.013474
0.147839
0.0627735
0.159988
0.166284
0.166692
0.250888
0.167615
0.311002
0.163884
0.271387
0.159082
0.160604
0.155135
0.00367553
0.154845
-0.128483
0.15367
-0.161335
0.147815
-0.221457
0.141777
-0.214076
0.140403
-0.26751
0.143686
-0.156794
0.144378
0.0199825
0.143559
0.118163
0.143359
0.361446
0.233291
0.175661
-0.0137882
0.171148
-0.0175885
0.165939
-0.0221349
0.159975
-0.0275495
0.153214
-0.0334828
0.145892
-0.039515
0.138253
-0.045373
0.130555
-0.0508348
0.123093
-0.0556504
0.116154
-0.0595546
0.10997
-0.0622917
0.104698
-0.0636422
0.100433
-0.0634302
0.0972621
-0.0614878
0.0952762
-0.0576466
0.0945201
-0.0517523
0.0947698
-0.0437248
0.0952788
-0.0336879
0.0950884
-0.0222045
0.0940636
-0.0100687
0.0939986
0.00289296
0.0970054
0.0179986
0.104007
0.0368986
0.114641
0.0599001
0.127945
0.0858405
0.142717
0.112751
0.156692
0.137048
0.167193
0.14854
0.173183
0.130218
0.17433
0.0751104
0.170174
0.000714903
0.16148
-0.0646542
0.15148
-0.110959
0.142489
-0.136768
0.13504
-0.147838
0.128686
-0.149587
0.123814
-0.14901
0.119929
-0.141623
0.115214
-0.132638
0.110304
-0.12009
0.108935
-0.106311
0.115265
-0.0791101
0.128279
-0.0264877
0.144264
0.0467883
0.157853
0.152695
0.166403
0.242337
0.168765
0.308641
0.16574
0.274412
0.16079
0.165554
0.156023
0.00844338
0.154913
-0.127373
0.153725
-0.160147
0.148051
-0.215783
0.141652
-0.207678
0.139916
-0.265773
0.143645
-0.160523
0.144779
0.018848
0.144114
0.118827
0.144378
0.361183
0.232904
0.207839
-0.0113961
-0.210231
0.206219
-0.015968
0.204285
-0.0202013
0.201754
-0.0250187
0.198524
-0.030252
0.19461
-0.0356009
0.190061
-0.0408247
0.184923
-0.0456967
0.179267
-0.049994
0.173199
-0.0534873
0.166851
-0.0559435
0.160356
-0.0571467
0.153839
-0.056913
0.147427
-0.0550764
0.141255
-0.0514741
0.135468
-0.0459658
0.13018
-0.0384363
0.125263
-0.0287712
0.120187
-0.0171287
0.114565
-0.00444648
0.10836
0.00909781
0.103032
0.0233265
0.100095
0.0398354
0.10067
0.0593257
0.105165
0.0813451
0.113289
0.104627
0.124642
0.125695
0.140081
0.1331
0.159484
0.110815
0.177566
0.0570291
0.188289
-0.0100088
0.190669
-0.0670342
0.186497
-0.106787
0.179011
-0.129282
0.170435
-0.139261
0.161626
-0.140779
0.153498
-0.140882
0.146253
-0.134379
0.138413
-0.124798
0.129763
-0.111439
0.123064
-0.0996125
0.122015
-0.0780613
0.126493
-0.0309657
0.132769
0.0405119
0.137755
0.147709
0.141265
0.238828
0.144709
0.305196
0.149179
0.269942
0.153895
0.160838
0.156628
0.00571014
0.157901
-0.128645
0.156561
-0.158808
0.149982
-0.209203
0.141986
-0.199682
0.137006
-0.260793
0.135686
-0.159202
0.133535
0.020999
0.13064
0.121722
0.131162
0.360661
0.231828
0.21674
-0.00958771
-0.218548
0.214745
-0.0139735
0.212739
-0.0181948
0.210246
-0.022526
0.207107
-0.0271134
0.203334
-0.0318279
0.198961
-0.0364512
0.19403
-0.0407658
0.188608
-0.0445718
0.182792
-0.0476712
0.176708
-0.0498598
0.170498
-0.0509363
0.164301
-0.0507162
0.158258
-0.0490333
0.152503
-0.0457197
0.147163
-0.0406257
0.142369
-0.033642
0.13821
-0.0246122
0.134495
-0.0134135
0.130553
-0.000504555
0.126208
0.0134428
0.121744
0.0277904
0.118476
0.0431028
0.118056
0.059746
0.121654
0.0777477
0.129553
0.0967276
0.141947
0.113301
0.159321
0.115726
0.179331
0.090805
0.195993
0.0403671
0.204374
-0.0183904
0.204524
-0.0671836
0.198689
-0.100952
0.190053
-0.120647
0.18084
-0.130048
0.171663
-0.131602
0.163154
-0.132372
0.155736
-0.126961
0.14816
-0.117223
0.139628
-0.102907
0.132355
-0.0923398
0.130467
-0.0761727
0.134445
-0.0349438
0.141056
0.0339003
0.146737
0.142029
0.151223
0.234342
0.155889
0.30053
0.161417
0.264414
0.166657
0.155597
0.169275
0.00309305
0.16978
-0.129151
0.167769
-0.156797
0.160583
-0.202017
0.151635
-0.190734
0.145874
-0.255032
0.144539
-0.157868
0.142271
0.0232672
0.139136
0.124856
0.140009
0.359788
0.230452
0.225274
-0.0082669
-0.226595
0.223478
-0.0121771
0.221412
-0.0161293
0.218956
-0.0200698
0.215956
-0.0241138
0.21237
-0.0282422
0.208222
-0.0323027
0.203557
-0.0361007
0.198436
-0.039451
0.192943
-0.0421784
0.187189
-0.0441052
0.181302
-0.0450501
0.175423
-0.044837
0.169694
-0.0433038
0.164261
-0.0402873
0.159272
-0.0356368
0.154865
-0.0292348
0.151198
-0.0209452