/*--------------------------------*- C++ -*----------------------------------*\
| =========                 |                                                 |
| \\      /  F ield         | OpenFOAM: The Open Source CFD Toolbox           |
|  \\    /   O peration     | Version:  2512                                  |
|   \\  /    A nd           | Website:  www.openfoam.com                      |
|    \\/     M anipulation  |                                                 |
\*---------------------------------------------------------------------------*/
FoamFile
{
    version     2.0;
    format      ascii;
    arch        "LSB;label=32;scalar=64";
    class       volScalarField;
    location    "8.75";
    object      p;
}
// * * * * * * * * * * * * * * * * * * * * * * * * * * * * * * * * * * * * * //

dimensions      [0 2 -2 0 0 0 0];

internalField   nonuniform List<scalar> 
13248
(
-0.380124
-0.377838
-0.374659
-0.370881
-0.366909
-0.363186
-0.360076
-0.357829
-0.356548
-0.356179
-0.356516
-0.357215
-0.357838
-0.357895
-0.356905
-0.354451
-0.350223
-0.344053
-0.335905
-0.325895
-0.31406
-0.300752
-0.285
-0.267685
-0.387726
-0.384922
-0.381216
-0.376925
-0.37244
-0.368181
-0.364468
-0.361482
-0.359246
-0.357625
-0.356343
-0.355026
-0.353249
-0.350604
-0.346749
-0.341448
-0.33459
-0.326183
-0.316325
-0.305158
-0.292814
-0.279449
-0.264891
-0.250018
-0.397595
-0.393931
-0.389523
-0.384651
-0.379628
-0.374811
-0.370431
-0.366562
-0.363125
-0.359907
-0.356606
-0.352882
-0.348416
-0.342959
-0.33636
-0.328576
-0.319653
-0.309698
-0.298841
-0.287221
-0.274922
-0.262104
-0.248645
-0.235135
-0.409721
-0.404901
-0.399618
-0.394063
-0.388409
-0.382904
-0.377652
-0.372599
-0.367568
-0.362319
-0.356598
-0.350187
-0.342943
-0.334809
-0.325813
-0.316037
-0.305598
-0.294613
-0.283187
-0.271409
-0.259349
-0.247112
-0.234643
-0.222507
-0.42399
-0.417793
-0.411494
-0.405141
-0.3987
-0.392269
-0.385803
-0.379128
-0.372029
-0.364322
-0.355891
-0.346708
-0.336821
-0.326335
-0.31538
-0.304086
-0.29256
-0.280886
-0.269121
-0.257312
-0.245493
-0.233717
-0.221958
-0.210571
-0.440231
-0.432518
-0.425108
-0.417833
-0.41038
-0.402661
-0.394494
-0.385651
-0.375982
-0.36546
-0.354178
-0.342304
-0.330037
-0.317569
-0.305051
-0.292593
-0.280259
-0.268084
-0.256083
-0.244263
-0.232632
-0.221205
-0.209973
-0.199164
-0.458189
-0.448901
-0.440319
-0.431966
-0.423172
-0.413662
-0.403186
-0.39159
-0.37891
-0.365359
-0.351248
-0.336894
-0.322568
-0.308466
-0.294704
-0.281339
-0.268383
-0.255826
-0.243647
-0.231827
-0.220348
-0.209197
-0.198373
-0.187965
-0.477452
-0.466607
-0.456804
-0.447144
-0.436555
-0.424628
-0.411191
-0.396314
-0.38033
-0.36371
-0.346932
-0.330379
-0.314311
-0.29887
-0.284107
-0.27002
-0.256571
-0.243714
-0.231402
-0.219592
-0.208248
-0.197341
-0.186864
-0.1768
-0.497393
-0.485077
-0.473985
-0.462695
-0.449741
-0.434722
-0.41773
-0.399212
-0.379832
-0.360276
-0.341095
-0.322652
-0.305134
-0.288602
-0.273035
-0.258373
-0.244541
-0.231463
-0.219069
-0.207297
-0.196096
-0.185426
-0.175264
-0.16551
-0.517132
-0.503486
-0.490993
-0.477645
-0.461697
-0.442968
-0.422012
-0.399725
-0.377072
-0.35485
-0.33359
-0.313565
-0.294861
-0.27745
-0.261246
-0.246142
-0.23203
-0.21881
-0.206393
-0.1947
-0.183666
-0.173243
-0.163375
-0.153931
-0.535552
-0.520741
-0.506668
-0.490759
-0.471209
-0.448307
-0.423208
-0.397253
-0.371603
-0.34706
-0.324056
-0.302741
-0.283091
-0.264997
-0.248317
-0.232904
-0.218624
-0.205357
-0.192994
-0.181443
-0.170627
-0.160481
-0.150916
-0.141808
-0.551406
-0.535629
-0.519763
-0.500769
-0.477071
-0.449674
-0.420408
-0.390994
-0.362675
-0.336166
-0.311746
-0.289427
-0.269076
-0.250509
-0.233536
-0.217975
-0.203669
-0.190476
-0.178276
-0.166963
-0.156453
-0.146664
-0.137477
-0.128826
-0.308954
-0.315365
-0.319596
-0.323192
-0.327346
-0.332355
-0.338282
-0.345095
-0.352684
-0.360878
-0.369459
-0.378158
-0.386663
-0.394615
-0.401612
-0.407222
-0.410987
-0.412448
-0.411162
-0.406714
-0.398735
-0.387004
-0.371704
-0.35321
-0.312219
-0.318119
-0.32212
-0.325637
-0.329771
-0.3348
-0.340781
-0.34768
-0.355386
-0.363727
-0.372486
-0.381397
-0.390145
-0.398372
-0.405676
-0.411622
-0.415747
-0.417582
-0.416664
-0.412548
-0.404779
-0.392964
-0.377729
-0.359416
-0.318947
-0.323746
-0.327215
-0.330504
-0.334519
-0.339505
-0.345507
-0.352488
-0.360337
-0.368887
-0.377927
-0.387197
-0.396392
-0.405163
-0.413115
-0.419816
-0.424806
-0.427605
-0.427729
-0.4247
-0.418133
-0.407722
-0.39271
-0.37461
-0.327889
-0.331183
-0.333869
-0.336753
-0.340491
-0.345278
-0.351151
-0.358067
-0.365914
-0.374531
-0.383715
-0.393217
-0.402744
-0.411959
-0.420482
-0.427895
-0.433745
-0.437548
-0.438804
-0.437018
-0.431819
-0.422731
-0.409248
-0.390486
-0.337563
-0.339198
-0.340932
-0.343219
-0.346456
-0.350797
-0.356271
-0.36283
-0.370366
-0.378724
-0.387706
-0.397076
-0.406555
-0.415823
-0.424516
-0.432233
-0.438544
-0.442975
-0.44505
-0.444274
-0.440089
-0.432108
-0.41996
-0.402392
-0.34665
-0.346729
-0.347447
-0.348958
-0.351442
-0.355029
-0.359755
-0.365581
-0.372405
-0.380085
-0.388433
-0.397228
-0.406206
-0.415063
-0.423458
-0.431008
-0.437292
-0.441851
-0.444222
-0.443908
-0.440438
-0.433163
-0.422486
-0.405366
-0.354264
-0.353113
-0.352863
-0.35347
-0.354975
-0.35751
-0.361141
-0.365857
-0.371584
-0.378198
-0.385533
-0.393384
-0.401506
-0.409612
-0.417374
-0.4244
-0.43031
-0.43466
-0.43696
-0.436688
-0.433484
-0.426382
-0.416608
-0.399769
-0.360084
-0.358147
-0.357076
-0.356733
-0.357114
-0.358384
-0.360667
-0.364002
-0.36836
-0.373658
-0.379759
-0.386466
-0.393565
-0.400746
-0.407713
-0.414105
-0.419469
-0.423339
-0.42523
-0.424572
-0.421103
-0.413689
-0.403964
-0.387179
-0.364311
-0.362036
-0.360334
-0.359083
-0.358313
-0.358252
-0.359096
-0.360956
-0.363865
-0.367794
-0.372657
-0.378165
-0.384209
-0.390503
-0.396648
-0.402235
-0.406796
-0.409822
-0.410815
-0.409212
-0.404813
-0.396627
-0.386181
-0.36933
-0.367554
-0.365272
-0.36312
-0.361063
-0.359229
-0.357924
-0.357419
-0.3579
-0.359461
-0.362098
-0.365714
-0.370252
-0.375332
-0.380637
-0.385757
-0.390211
-0.393481
-0.395041
-0.394421
-0.391197
-0.385271
-0.376086
-0.364806
-0.348165
-0.370677
-0.368526
-0.366032
-0.363292
-0.360557
-0.358204
-0.35657
-0.3559
-0.356331
-0.357893
-0.360492
-0.363934
-0.367887
-0.371938
-0.375601
-0.378343
-0.379631
-0.378986
-0.376031
-0.370577
-0.362678
-0.352405
-0.340743
-0.325278
-0.374608
-0.37251
-0.369696
-0.366383
-0.362927
-0.359757
-0.357252
-0.35568
-0.355186
-0.355778
-0.357322
-0.35955
-0.36207
-0.364405
-0.366029
-0.366419
-0.365107
-0.361737
-0.356083
-0.348149
-0.338007
-0.326173
-0.313285
-0.29925
-0.327898
-0.291938
-0.250317
-0.204098
-0.155353
-0.106447
-0.0599206
-0.0179945
0.0174056
0.0452814
0.0654559
0.0784951
0.085475
0.0876978
0.0864451
0.0828737
0.0779008
0.0723089
0.0664574
0.0606662
0.0551346
0.0499813
0.0452151
0.040867
0.0369202
0.0333893
0.0302497
0.0274637
0.0249972
0.0228148
0.0208835
0.0191722
0.0176529
0.0163012
0.0150962
0.0140195
0.0130551
0.0121887
0.0114078
0.0107012
0.0100591
0.00947222
0.00893302
0.00843291
0.00796717
0.00752555
0.00710837
0.00669899
0.00630822
0.00590505
0.00551807
0.00509644
0.00468256
0.00422394
0.00373739
0.00322277
0.00261865
0.00199839
0.00124759
0.000466102
-0.335336
-0.299465
-0.257771
-0.211294
-0.162202
-0.112618
-0.065326
-0.0226388
0.0133793
0.0418781
0.062637
0.076201
0.0836439
0.0862752
0.085386
0.0821255
0.0774431
0.0719298
0.0661809
0.0604821
0.0550122
0.0499057
0.04517
0.0408947
0.0369787
0.0334587
0.0303201
0.0275321
0.0250633
0.0228773
0.0209421
0.0192269
0.0177035
0.0163477
0.0151386
0.0140581
0.0130901
0.0122204
0.0114366
0.0107273
0.0100827
0.00949353
0.00895224
0.00845032
0.00798274
0.00753979
0.00712076
0.00671078
0.00631774
0.00591499
0.00552512
0.0051045
0.00468836
0.00422901
0.00374361
0.00322425
0.00262467
0.00199756
0.00125188
0.000460806
-0.353618
-0.318306
-0.276899
-0.230384
-0.180519
-0.129142
-0.0805225
-0.0363309
0.00142904
0.0316067
0.0539228
0.0688927
0.0775874
0.0813274
0.0814139
0.0789657
0.0749375
0.0700309
0.0647688
0.059464
0.0543071
0.0493823
0.0448004
0.0405839
0.0367601
0.0333406
0.0302678
0.0275099
0.0250624
0.02289
0.0209636
0.019254
0.0177332
0.0163781
0.0151687
0.0140872
0.0131177
0.0122464
0.0114608
0.0107498
0.0101035
0.00951274
0.00896986
0.00846654
0.00799745
0.00755348
0.00713283
0.00672247
0.00632732
0.00592518
0.00553253
0.00511309
0.00469476
0.00423473
0.00375059
0.00322645
0.00263144
0.00199741
0.00125667
0.000455792
-0.374337
-0.340346
-0.299716
-0.253773
-0.203938
-0.152526
-0.102585
-0.0566796
-0.0169145
0.015398
0.0398508
0.0568732
0.0674863
0.0729846
0.0746625
0.0735943
0.0707109
0.0667522
0.0622471
0.0575415
0.0528515
0.0483068
0.0440459
0.0400565
0.0364193
0.0330163
0.030085
0.0274016
0.025
0.0228568
0.0209519
0.019257
0.0177452
0.0163954
0.0151891
0.014109
0.01314
0.0122684
0.0114822
0.0107702
0.0101229
0.00953098
0.0089869
0.00848251
0.00801218
0.0075674
0.00714532
0.00673475
0.00633763
0.00593622
0.0055409
0.00512271
0.00470228
0.00424165
0.0037587
0.0032299
0.0026392
0.00199836
0.00126208
0.000451339
-0.387555
-0.358034
-0.31989
-0.276079
-0.227817
-0.177225
-0.127195
-0.0804515
-0.0392184
-0.00498274
0.0216701
0.0410195
0.05396
0.061686
0.0654212
0.0662209
0.0649085
0.0622278
0.0587514
0.0548688
0.0508341
0.0468197
0.0429464
0.0392561
0.0358291
0.032737
0.0297717
0.0271943
0.0248731
0.0227746
0.0209045
0.0192344
0.0177384
0.0163988
0.015199
0.0141231
0.0131565
0.0122862
0.0115005
0.0107885
0.0101407
0.00954824
0.00900337
0.00849823
0.00802692
0.00758156
0.00715826
0.00674761
0.0063487
0.00594811
0.00555029
0.0051334
0.00471095
0.00424983
0.00376791
0.00323475
0.00264789
0.00200058
0.00126802
0.000447633
-0.391478
-0.365339
-0.331472
-0.291889
-0.247223
-0.199249
-0.1508
-0.104614
-0.0629503
-0.0274604
0.00104599
0.0226415
0.038023
0.0481988
0.0542565
0.0571995
0.0577887
0.0566733
0.0544492
0.0515642
0.0483219
0.0449309
0.0415359
0.0382353
0.0350893
0.0321292
0.029431
0.0268652
0.0246719
0.0226396
0.0208202
0.0191853
0.0177118
0.0163874
0.0151979
0.0141289
0.0131669
0.0122995
0.0115154
0.0108043
0.0101569
0.00956431
0.00901909
0.00851354
0.00804154
0.00759582
0.0071715
0.00676093
0.00636042
0.00596072
0.00556059
0.00514503
0.00472064
0.00425921
0.00377805
0.00324101
0.00265733
0.00200412
0.00127436
0.00044486
-0.385723
-0.361918
-0.332973
-0.298763
-0.258973
-0.215349
-0.170427
-0.126567
-0.0858439
-0.0500701
-0.0203462
0.00313016
0.0207972
0.0334093
0.0418504
0.0470006
0.0496298
0.0502799
0.049482
0.047728
0.0453823
0.0427002
0.0398604
0.0369901
0.0341799
0.0314682
0.0288822
0.0263455
0.0243706
0.022443
0.020699
0.0191097
0.0176651
0.0163608
0.0151855
0.0141262
0.0131709
0.012308
0.0115269
0.0108176
0.0101712
0.0095791
0.00903396
0.00852835
0.00805595
0.00761007
0.00718497
0.00677459
0.00637272
0.00597392
0.00557173
0.00515749
0.00473128
0.00426974
0.00378897
0.00324872
0.00266735
0.00200908
0.00128095
0.000443264
-0.37195
-0.349534
-0.325799
-0.297485
-0.262868
-0.2242
-0.184203
-0.144357
-0.106089
-0.0712081
-0.0411103
-0.0163287
0.00325406
0.0180911
0.0288136
0.0361333
0.0407374
0.0432057
0.0439511
0.0434344
0.0420671
0.0401595
0.0379314
0.0355411
0.0331033
0.0306943
0.0283567
0.0263452
0.0240506
0.0221859
0.0205431
0.0190077
0.0175978
0.0163185
0.0151612
0.0141147
0.0131683
0.0123116
0.0115347
0.0108282
0.0101835
0.00959253
0.00904791
0.00854258
0.00807008
0.00762427
0.00719863
0.00678854
0.00638557
0.00598765
0.0055837
0.00517072
0.0047428
0.00428143
0.00380055
0.00325793
0.0026778
0.00201555
0.00128768
0.000443147
-0.352318
-0.331104
-0.312457
-0.289662
-0.260307
-0.227075
-0.192279
-0.157143
-0.122479
-0.0896495
-0.0601246
-0.0347551
-0.0137846
0.00290572
0.0156677
0.0250074
0.0314916
0.0356668
0.0379732
0.0387688
0.0384465
0.0373599
0.0357787
0.0339006
0.0318666
0.0297784
0.0277021
0.0256783
0.0237592
0.0218489
0.0203451
0.0188772
0.017509
0.0162598
0.0151245
0.0140938
0.0131588
0.0123101
0.0115388
0.0108361
0.010194
0.00960462
0.00906098
0.00855628
0.00808398
0.00763842
0.00721249
0.00680275
0.00639899
0.00600186
0.0055965
0.00518467
0.00475518
0.0042943
0.00381269
0.00326876
0.00268856
0.00202368
0.00129443
0.000444889
-0.329588
-0.310476
-0.296455
-0.278005
-0.253456
-0.225768
-0.196269
-0.165611
-0.134822
-0.104795
-0.076699
-0.0515149
-0.0297891
-0.0117317
0.00271583
0.013834
0.022037
0.027791
0.0315628
0.0337075
0.0345204
0.0343392
0.0334593
0.0321247
0.0305146
0.0287565
0.0269366
0.0251173
0.0232986
0.021333
0.0200765
0.018709
0.017398
0.0161855
0.0150765
0.014065
0.0131437
0.0123048
0.0115402
0.0108422
0.0102032
0.00961589
0.00907354
0.00856966
0.00809774
0.00765254
0.0072265
0.00681711
0.00641281
0.00601634
0.00560995
0.00519916
0.00476819
0.00430822
0.00382514
0.00328117
0.00269943
0.00203354
0.00130111
0.000448994
-0.307342
-0.292093
-0.281587
-0.265922
-0.245567
-0.223074
-0.198508
-0.172078
-0.144899
-0.117872
-0.0917634
-0.0674354
-0.0455546
-0.0265768
-0.0107316
0.00201534
0.0118926
0.0192376
0.0244359
0.0278684
0.0298814
0.0307575
0.0307392
0.0300771
0.0289822
0.027617
0.0261
0.0245268
0.0229355
0.0216722
0.0198411
0.0185213
0.0172734
0.0161002
0.0150195
0.0140289
0.0131228
0.0122948
0.0115379
0.0108451
0.0102097
0.00962483
0.00908404
0.00858121
0.0081099
0.0076652
0.00723927
0.00683029
0.00642576
0.00602993
0.00562283
0.00521311
0.00478074
0.0043223
0.00383694
0.00329453
0.00270959
0.00204478
0.00130728
0.000456041
-0.286726
-0.277607
-0.268491
-0.253847
-0.236795
-0.218596
-0.198369
-0.175996
-0.152209
-0.127876
-0.103815
-0.0808232
-0.0594885
-0.0402783
-0.0235986
-0.00962696
0.00167225
0.0104832
0.0170841
0.0217815
0.0248735
0.0266665
0.0274701
0.027515
0.0269997
0.0260973
0.0249463
0.0236609
0.0223173
0.0210094
0.0196109
0.0182405
0.0170651
0.0159526
0.0149138
0.0139534
0.0130698
0.0122584
0.0115139
0.0108304
0.010202
0.00962231
0.00908543
0.00858558
0.00811651
0.00767354
0.00724898
0.006841
0.00643739
0.00604207
0.00563555
0.00522633
0.00479338
0.00433668
0.0038481
0.00330918
0.0027187
0.00205732
0.00131229
0.000466612
-0.26315
-0.267202
-0.256701
-0.240766
-0.224286
-0.207442
-0.189109
-0.168902
-0.147299
-0.125084
-0.103001
-0.0817124
-0.0617856
-0.0436801
-0.0277532
-0.0141919
-0.00300988
0.00591238
0.0127852
0.0178642
0.0214265
0.0237312
0.0250202
0.0255045
0.0253791
0.0248126
0.0239418
0.0228804
0.0217121
0.0205229
0.0192451
0.0180455
0.0168614
0.0157927
0.0147933
0.0138647
0.0130063
0.0122147
0.0114858
0.0108145
0.0101956
0.00962355
0.00909269
0.00859742
0.00813226
0.0076917
0.00727017
0.00686242
0.00646222
0.00606458
0.00566221
0.00524936
0.00481843
0.00436113
0.00386804
0.00333278
0.00273361
0.00207505
0.00131891
0.000480432
-0.238701
-0.246346
-0.237279
-0.221608
-0.205839
-0.190627
-0.174616
-0.157021
-0.138067
-0.118451
-0.0988592
-0.0798617
-0.0619306
-0.0454504
-0.0307292
-0.0179646
-0.00721929
0.00156045
0.00851426
0.0138348
0.0177346
0.0204211
0.0221009
0.0229707
0.0232105
0.0229767
0.0224009
0.0215935
0.0206376
0.0196092
0.0184937
0.017401
0.016391
0.0154208
0.0144976
0.0136299
0.01282
0.0120671
0.0113691
0.0107227
0.0101237
0.00956757
0.00904958
0.00856464
0.00810793
0.00767401
0.00725825
0.00685446
0.00645873
0.00606272
0.00566447
0.0052514
0.00482376
0.0043664
0.00387349
0.00334008
0.00273813
0.00208133
0.00132055
0.000487714
-0.216138
-0.224318
-0.217355
-0.203374
-0.188968
-0.175425
-0.161546
-0.146343
-0.129822
-0.112562
-0.095197
-0.0782311
-0.0620613
-0.0470205
-0.0333919
-0.0213804
-0.0110838
-0.00249704
0.00446494
0.00993866
0.0140868
0.0170821
0.0191046
0.0203287
0.0209149
0.0210066
0.0207277
0.0201833
0.019456
0.0186162
0.0176942
0.0167633
0.0158586
0.0149775
0.0141325
0.0133304
0.0125749
0.0118667
0.0112055
0.0105891
0.0100147
0.00947872
0.00897721
0.00850574
0.00806013
0.00763517
0.00722702
0.00682906
0.00643882
0.00604627
0.00565238
0.00524102
0.00481682
0.00436058
0.00386932
0.00333775
0.00273554
0.00208088
0.00131849
0.000491389
-0.195297
-0.203222
-0.198188
-0.186307
-0.173497
-0.161441
-0.149317
-0.136148
-0.121774
-0.10663
-0.0912789
-0.0761712
-0.0616485
-0.0479968
-0.0354668
-0.0242558
-0.01448
-0.00617065
0.000711862
0.00625714
0.0105867
0.0138398
0.0161655
0.0177126
0.0186221
0.0190232
0.0190307
0.018744
0.0182452
0.0176048
0.0168662
0.0160793
0.0152865
0.0145038
0.0137417
0.0130085
0.0123101
0.0116492
0.011027
0.0104427
0.00989482
0.00938058
0.00889699
0.00844021
0.00800676
0.00759166
0.0071919
0.00680039
0.00641621
0.00602757
0.00563836
0.00522922
0.00480837
0.00435396
0.00386403
0.00333491
0.00273232
0.00208021
0.00131643
0.000494253
-0.175715
-0.183498
-0.179984
-0.170032
-0.158832
-0.148187
-0.13761
-0.126238
-0.113808
-0.100612
-0.0871236
-0.0737444
-0.0607742
-0.0484577
-0.0370131
-0.0266242
-0.0174174
-0.00945098
-0.00272097
0.00282448
0.00727064
0.0107238
0.013303
0.0151323
0.0163334
0.017021
0.0172996
0.0172621
0.016988
0.016544
0.015978
0.0153397
0.0146721
0.0139944
0.01332
0.0126601
0.0120226
0.0114125
0.0108323
0.0102828
0.00976364
0.00927312
0.00880912
0.00836847
0.00794841
0.00754421
0.00715373
0.00676941
0.00639194
0.00600777
0.00562366
0.0052172
0.00479986
0.00434781
0.00385904
0.00333293
0.00272967
0.00208037
0.00131509
0.000496619
-0.157792
-0.165243
-0.162805
-0.154519
-0.14488
-0.135619
-0.126469
-0.116702
-0.106017
-0.0945911
-0.0828076
-0.0710197
-0.0594936
-0.0484408
-0.03805
-0.0284889
-0.0198863
-0.0123176
-0.00580523
-0.000328011
0.00416796
0.00775929
0.0105379
0.0126045
0.0140616
0.015009
0.01554
0.0157393
0.0156814
0.0154304
0.0150382
0.0145533
0.0140145
0.013445
0.0128623
0.0122798
0.0117073
0.0111516
0.0106168
0.0101051
0.00961725
0.00915275
0.00871035
0.00828756
0.00788238
0.00749037
0.00711025
0.00673412
0.00636409
0.0059852
0.00560662
0.00520355
0.00478995
0.00434084
0.00385337
0.00333069
0.00272684
0.00208048
0.00131401
0.000498165
-0.141475
-0.148315
-0.146683
-0.13986
-0.131682
-0.123739
-0.1159
-0.107561
-0.0984214
-0.0885827
-0.0783468
-0.0680173
-0.0578294
-0.047967
-0.038593
-0.0298572
-0.0218839
-0.014758
-0.00852094
-0.00317554
0.00130607
0.00497503
0.00789905
0.0101567
0.0118319
0.0130092
0.0137701
0.0141903
0.0143389
0.0142771
0.0140568
0.0137234
0.0133145
0.012856
0.0123685
0.0118671
0.0113632
0.0108653
0.010379
0.00990801
0.00945421
0.00901807
0.00859933
0.00819621
0.00780747
0.00742902
0.00706043
0.00669352
0.00633175
0.00595898
0.00558645
0.00518753
0.00477792
0.00433239
0.00384644
0.00332757
0.00272341
0.00208002
0.00131294
0.000498892
-0.126348
-0.132643
-0.131692
-0.126137
-0.119269
-0.112531
-0.105875
-0.0988015
-0.0910274
-0.0826039
-0.0737665
-0.0647701
-0.055819
-0.0470728
-0.0386721
-0.0307484
-0.0234181
-0.0167693
-0.0108556
-0.00569821
-0.00128991
0.00239911
0.00541522
0.0078167
0.00966983
0.0110443
0.0120095
0.0126321
0.0129746
0.0130939
0.0130393
0.0128542
0.0125755
0.0122299
0.0118401
0.0114226
0.0109904
0.0105534
0.0101187
0.00969115
0.00927392
0.00886847
0.00847546
0.00809383
0.00772314
0.00735967
0.0070038
0.00664723
0.00629457
0.00592883
0.00556288
0.00516889
0.0047636
0.0043223
0.00383813
0.00332346
0.00271938
0.00207891
0.00131192
0.000498995
-0.112431
-0.118268
-0.117849
-0.113359
-0.107635
-0.101971
-0.0963709
-0.0904173
-0.0838488
-0.0766831
-0.0691026
-0.0613182
-0.0535041
-0.0457981
-0.0383207
-0.0311869
-0.0245024
-0.018354
-0.0128023
-0.00788105
-0.00359909
5.59788e-05
0.00311239
0.00561041
0.00759997
0.00913678
0.0102783
0.0110815
0.0116017
0.0118903
0.0119936
0.0119524
0.0118013
0.0115697
0.0112791
0.0109476
0.0105895
0.010216
0.00983553
0.00945404
0.00907582
0.00870331
0.00833808
0.0079798
0.0076288
0.00728177
0.00693988
0.0065948
0.00625217
0.00589441
0.00553567
0.00514744
0.00474684
0.00431045
0.00382837
0.00331828
0.00271476
0.00207715
0.00131103
0.000498669
-0.0998321
-0.105131
-0.105082
-0.101485
-0.0967575
-0.0920439
-0.0873784
-0.0824107
-0.0769031
-0.0708502
-0.0643925
-0.0577025
-0.0509272
-0.044184
-0.0375759
-0.0312018
-0.0251564
-0.0195218
-0.0143609
-0.00971542
-0.00560621
-0.00203442
0.00101332
0.00356173
0.00564607
0.00730904
0.0085966
0.00955607
0.0102349
0.0106789
0.0109301
0.0110262
0.0109999
0.01088
0.0106884
0.0104438
0.0101615
0.00985361
0.00952956
0.00919643
0.00885947
0.00852205
0.00818659
0.00785349
0.00752382
0.00719473
0.00686813
0.00653574
0.00620412
0.00585534
0.00550448
0.00512286
0.00472741
0.00429663
0.00381705
0.00331192
0.00270953
0.00207469
0.00131023
0.000498062
-0.0883556
-0.093103
-0.0933334
-0.0904954
-0.0866313
-0.0827465
-0.0788971
-0.0747898
-0.0702097
-0.0651354
-0.059674
-0.0539656
-0.048133
-0.042275
-0.0364784
-0.0308276
-0.0254059
-0.0202887
-0.0155377
-0.0111991
-0.0073017
-0.00385679
-0.000862722
0.00169219
0.00383039
0.00558286
0.0069849
0.00807427
0.00889064
0.00947351
0.00986013
0.0100847
0.0101777
0.0101661
0.0100719
0.009914
0.00970819
0.00946721
0.00920131
0.00891845
0.00862473
0.00832435
0.00802054
0.00771438
0.00740767
0.00709801
0.006788
0.00646955
0.00614995
0.00581118
0.00546894
0.00509483
0.00470507
0.00428058
0.00380403
0.0033042
0.0027036
0.0020715
0.00130949
0.000497292
-0.0778476
-0.082124
-0.0825787
-0.0803739
-0.0772432
-0.0740704
-0.0709254
-0.067562
-0.0637867
-0.0595674
-0.0549842
-0.0501503
-0.0451671
-0.0401167
-0.0350714
-0.0301024
-0.0252815
-0.0206764
-0.0163454
-0.012336
-0.00868174
-0.00540094
-0.00250071
2.00541e-05
0.00217294
0.00397877
0.00546315
0.00665479
0.00758558
0.00828864
0.00879612
0.00913829
0.00934274
0.00943429
0.00943445
0.00936183
0.00923216
0.00905858
0.00885189
0.00862069
0.00837181
0.00811015
0.00783969
0.00756212
0.00727991
0.00699113
0.00669904
0.00639576
0.00608923
0.00576154
0.00542871
0.00506301
0.00467955
0.00426206
0.00378912
0.00329496
0.00269688
0.00206752
0.00130871
0.000496459
-0.0683289
-0.0721588
-0.0727572
-0.0710716
-0.0685627
-0.0659988
-0.063457
-0.0607316
-0.0576496
-0.0541723
-0.0503582
-0.046298
-0.0420746
-0.0377554
-0.0333998
-0.0290669
-0.0248178
-0.0207118
-0.0168024
-0.013136
-0.00974843
-0.00666212
-0.00389039
-0.00144031
0.000690797
0.00251522
0.00405007
0.00531571
0.00633656
0.00713945
0.00775134
0.00819817
0.00850433
0.00869227
0.00878217
0.00879188
0.00873683
0.00863017
0.00848296
0.00830422
0.00810132
0.00787973
0.00764404
0.00739652
0.00714025
0.00687375
0.00660084
0.00631397
0.00602158
0.00570602
0.00538345
0.00502708
0.0046506
0.00424082
0.00377218
0.00328407
0.00268928
0.00206276
0.00130781
0.000495639
-0.0597414
-0.0631285
-0.063809
-0.0625433
-0.0605588
-0.0585139
-0.0564853
-0.0543022
-0.0518129
-0.0489747
-0.0458295
-0.0424489
-0.0388999
-0.0352373
-0.0315093
-0.0277639
-0.0240525
-0.0204261
-0.0169323
-0.0136148
-0.0105096
-0.00764117
-0.00502655
-0.00267889
-0.000602535
0.00120791
0.00276244
0.00407396
0.00515993
0.00604121
0.0067395
0.00727634
0.00767276
0.00794855
0.00812194
0.00820965
0.00822647
0.00818521
0.00809687
0.00797068
0.00781433
0.00763371
0.00743391
0.00721767
0.00698859
0.00674563
0.00649312
0.00622383
0.00594663
0.00564428
0.00533285
0.00498672
0.00461798
0.00421662
0.00375301
0.00327138
0.00268067
0.00205721
0.00130671
0.00049489
-0.0519715
-0.0549673
-0.0556839
-0.0547591
-0.0532113
-0.051601
-0.0500029
-0.0482763
-0.0462887
-0.0439967
-0.0414286
-0.0386402
-0.0356851
-0.0326072
-0.0294449
-0.0262371
-0.0230256
-0.0198538
-0.0167629
-0.0137929
-0.0109786
-0.00834432
-0.00590919
-0.00369039
-0.00169758
6.93123e-05
0.00161456
0.00294472
0.00407096
0.0050086
0.00577436
0.00638533
0.00685898
0.00721235
0.00746147
0.0076215
0.00770617
0.00772765
0.00769665
0.00762229
0.00751242
0.00737317
0.00720995
0.0070259
0.00682505
0.00660673
0.0063757
0.00612511
0.00586413
0.005576
0.00527662
0.00494163
0.00458144
0.00418924
0.00373143
0.00325679
0.00267095
0.00205087
0.00130534
0.000494244
-0.0449345
-0.0475723
-0.0483126
-0.0476668
-0.0464791
-0.0452317
-0.0439944
-0.0426502
-0.0410846
-0.0392556
-0.0371816
-0.0349052
-0.0324688
-0.0299072
-0.0272506
-0.0245295
-0.0217779
-0.0190315
-0.0163253
-0.0136951
-0.0111732
-0.00878291
-0.0065434
-0.00447438
-0.00258926
-0.000891822
0.00061782
0.00194092
0.00308327
0.00405525
0.00486905
0.00553748
0.00607422
0.00649358
0.00680925
0.00703453
0.00718177
0.00726221
0.00728598
0.00726191
0.00719772
0.00709962
0.00697322
0.00682189
0.00665
0.0064572
0.00624861
0.00601769
0.00577389
0.00550095
0.00521452
0.00489158
0.00454075
0.00415847
0.00370727
0.00324017
0.00265998
0.00204374
0.00130366
0.000493713
-0.0386137
-0.0409323
-0.0416768
-0.0412321
-0.0403331
-0.0393843
-0.0384452
-0.037418
-0.0362044
-0.0347647
-0.0331101
-0.031273
-0.0292863
-0.0271768
-0.0249681
-0.0226836
-0.0203503
-0.0179971
-0.0156531
-0.0133496
-0.0111158
-0.00897288
-0.00693906
-0.00503516
-0.003277
-0.00167086
-0.000219956
0.00107274
0.0022085
0.00319344
0.00403576
0.00474449
0.00532946
0.00580241
0.00617424
0.00645644
0.00665977
0.00679427
0.00686925
0.00689298
0.0068729
0.00681509
0.00672519
0.00660668
0.00646414
0.00629745
0.00611203
0.00590161
0.00567586
0.005419
0.00514639
0.00483635
0.00449572
0.00412413
0.00368035
0.00322143
0.00264765
0.0020358
0.00130164
0.000493296
-0.0329186
-0.0349381
-0.0356568
-0.0353906
-0.034732
-0.0340285
-0.033335
-0.0325697
-0.0316478
-0.0305333
-0.0292322
-0.027769
-0.0261686
-0.0244518
-0.0226362
-0.0207394
-0.0187827
-0.0167888
-0.0147812
-0.0127868
-0.0108317
-0.00893413
-0.00711041
-0.00538152
-0.00376459
-0.00226728
-0.000894714
0.000347036
0.00145561
0.00243361
0.00328563
0.00401733
0.00463468
0.00514866
0.00556549
0.0058953
0.00614716
0.00632977
0.00645138
0.00651956
0.00654121
0.00652211
0.00646778
0.00638168
0.00626847
0.00612817
0.0059664
0.0057771
0.00557012
0.00533012
0.00507213
0.00477581
0.0044462
0.00408609
0.00365052
0.00320051
0.00263386
0.00202706
0.00129926
0.000492993
-0.0277927
-0.0295508
-0.0302396
-0.0301082
-0.0296437
-0.0291381
-0.0286439
-0.0280929
-0.0274114
-0.0265667
-0.0255613
-0.0244136
-0.0231426
-0.0217638
-0.0202901
-0.0187346
-0.0171134
-0.015444
-0.0137449
-0.012039
-0.0103489
-0.00868976
-0.00707552
-0.00552639
-0.00406002
-0.00268458
-0.00140606
-0.000232663
0.00083041
0.00178335
0.00262796
0.00336652
0.00400345
0.00454209
0.00499189
0.00535926
0.00565123
0.00587505
0.00603783
0.00614619
0.00620637
0.00622369
0.00620338
0.00614873
0.00606438
0.00595035
0.00581241
0.00564461
0.00545694
0.00523443
0.00499178
0.00470991
0.00439209
0.00404425
0.00361763
0.00317734
0.00261855
0.00201749
0.00129653
0.000492808
-0.0231921
-0.0247193
-0.0253703
-0.0253421
-0.0250331
-0.0246862
-0.0243507
-0.0239729
-0.0234882
-0.0228661
-0.0221065
-0.0212232
-0.0202306
-0.0191404
-0.0179616
-0.0167036
-0.0153782
-0.0139987
-0.0125792
-0.0111386
-0.00969671
-0.00826525
-0.00685544
-0.00548627
-0.00417519
-0.00293016
-0.00175739
-0.000666263
0.000336022
0.0012475
0.00206818
0.00279767
0.00343754
0.00399037
0.00446169
0.00485619
0.00517925
0.00543669
0.00563435
0.00577782
0.00587257
0.0059233
0.0059348
0.00591006
0.00585361
0.00576533
0.00565104
0.00550484
0.00533679
0.00513221
0.00490548
0.00463873
0.00433336
0.00399859
0.00358162
0.00315187
0.00260165
0.00200708
0.0012935
0.00049275
-0.0190692
-0.0203909
-0.0209994
-0.0210491
-0.0208656
-0.0206485
-0.0204383
-0.0201957
-0.019869
-0.0194292
-0.0188729
-0.0182098
-0.017451
-0.0166049
-0.0156782
-0.014677
-0.0136099
-0.0124866
-0.0113175
-0.0101182
-0.00890537
-0.00768772
-0.00647366
-0.00528067
-0.00412545
-0.00301527
-0.00195595
-0.000957308
-2.78444e-05
0.000828738
0.00161074
0.00231636
0.00294718
0.00350147
0.00398255
0.00439355
0.00473832
0.00502122
0.00524683
0.00541968
0.00554433
0.00562476
0.00566523
0.00566831
0.00563826
0.00557474
0.00548357
0.00535873
0.00521036
0.00502395
0.00481353
0.00456245
0.00427008
0.00394915
0.00354242
0.00312411
0.00258313
0.00199583
0.00129021
0.000492843
-0.0153762
-0.0165179
-0.0170826
-0.0171905
-0.0171056
-0.0169924
-0.0168852
-0.0167499
-0.0165466
-0.0162521
-0.0158616
-0.0153806
-0.0148167
-0.014176
-0.013463
-0.0126816
-0.011838
-0.0109389
-0.00999152
-0.00900881
-0.00800465
-0.00698481
-0.00595495
-0.004931
-0.00392883
-0.00295447
-0.00201278
-0.00111378
-0.000266393
0.000525379
0.00125799
0.00193099
0.00253836
0.00308175
0.00356123
0.00397813
0.00433503
0.00463491
0.00488111
0.00507704
0.00522634
0.00533218
0.0053982
0.00542642
0.00542077
0.00538058
0.00531157
0.00520751
0.00507858
0.00491034
0.00471643
0.00448139
0.00420243
0.00389605
0.00350006
0.00309407
0.00256301
0.00198372
0.00128673
0.000493117
-0.0120756
-0.0130606
-0.0135819
-0.0137322
-0.0137243
-0.0136927
-0.0136665
-0.0136181
-0.0135127
-0.0133325
-0.0130746
-0.0127419
-0.0123387
-0.011869
-0.0113355
-0.0107406
-0.0100885
-0.00938366
-0.00863076
-0.00784014
-0.00702337
-0.00618354
-0.00532374
-0.00445834
-0.00360231
-0.00276085
-0.00193779
-0.00114298
-0.000385994
0.000329886
0.000997646
0.00163462
0.0022128
0.00273515
0.00320243
0.00361527
0.00397501
0.0042834
0.00454262
0.00475503
0.0049233
0.00504978
0.0051374
0.0051876
0.00520388
0.00518513
0.00513693
0.0050527
0.00494264
0.00479228
0.00461482
0.00439606
0.0041307
0.0038395
0.0034546
0.0030618
0.0025413
0.00197073
0.00128312
0.000493614
-0.00912456
-0.00997235
-0.010451
-0.0106312
-0.010683
-0.0107151
-0.010752
-0.0107722
-0.010747
-0.0106594
-0.0105063
-0.0102932
-0.0100219
-0.00969334
-0.00930889
-0.00887089
-0.00838265
-0.00784599
-0.00726279
-0.00664126
-0.00599095
-0.00531268
-0.00460724
-0.00388726
-0.00316674
-0.0024496
-0.00173826
-0.00104241
-0.000374766
0.000268987
0.000886296
0.00144982
0.00197997
0.00246802
0.00291165
0.00331018
0.0036634
0.0039718
0.00423638
0.00445844
0.00463973
0.00478171
0.00488661
0.00495519
0.00499051
0.00499089
0.00496174
0.00489604
0.00480397
0.00467092
0.00450959
0.00430711
0.00405531
0.00377984
0.00340615
0.00302737
0.00251803
0.00195684
0.00127945
0.00049438
-0.00651558
-0.00724494
-0.00768198
-0.00788062
-0.00797575
-0.00805492
-0.00813888
-0.00821145
-0.00825074
-0.00824347
-0.00818511
-0.00807311
-0.0079077
-0.0076867
-0.00742282
-0.00711821
-0.00677347
-0.00638427
-0.0059499
-0.0054775
-0.00497563
-0.00444352
-0.00388019
-0.00329704
-0.00270749
-0.002115
-0.00152048
-0.000929063
-0.000374961
0.000222596
0.000787583
0.00131384
0.00180413