/*--------------------------------*- C++ -*----------------------------------*\
| =========                 |                                                 |
| \\      /  F ield         | OpenFOAM: The Open Source CFD Toolbox           |
|  \\    /   O peration     | Version:  2512                                  |
|   \\  /    A nd           | Website:  www.openfoam.com                      |
|    \\/     M anipulation  |                                                 |
\*---------------------------------------------------------------------------*/
FoamFile
{
    version     2.0;
    format      ascii;
    arch        "LSB;label=32;scalar=64";
    class       volVectorField;
    location    "8.75";
    object      U;
}
// * * * * * * * * * * * * * * * * * * * * * * * * * * * * * * * * * * * * * //

dimensions      [0 1 -1 0 0 0 0];

internalField   nonuniform List<vector> 
13248
(
(-0.0138007 0.0125372 8.05971e-20)
(-0.0263709 0.0276927 0)
(-0.0233076 0.0369816 -1.52065e-19)
(-0.00487499 0.0420283 1.43243e-19)
(0.0286892 0.0441423 1.33726e-19)
(0.0771589 0.0443729 0)
(0.1402 0.0435455 0)
(0.217204 0.0423088 3.23391e-19)
(0.307077 0.0411376 -4.72794e-22)
(0.408045 0.0403213 -2.8448e-19)
(0.517536 0.0399497 2.67391e-19)
(0.632197 0.0399162 -1.67506e-19)
(0.748071 0.0399443 0)
(0.860886 0.039639 -2.95896e-19)
(0.966431 0.0385554 5.54328e-19)
(1.06095 0.0362748 -1.3263e-19)
(1.14148 0.0324796 -2.37901e-19)
(1.20617 0.026989 2.23348e-19)
(1.25439 0.0198653 0)
(1.2867 0.0110398 0)
(1.3049 0.00161647 0)
(1.311 -0.0110332 0)
(1.30808 -0.0183653 6.44893e-20)
(1.29757 -0.0440425 2.27265e-19)
(-0.0137468 0.0110324 -2.43218e-19)
(-0.0214763 0.0217608 1.65638e-19)
(-0.00963288 0.026813 -1.62669e-21)
(0.0210022 0.0284469 -2.18599e-19)
(0.0699232 0.0283501 -1.33582e-19)
(0.136555 0.0277912 -1.26317e-19)
(0.219901 0.0276678 -2.32194e-19)
(0.318247 0.0285606 2.19626e-19)
(0.428918 0.0307492 0)
(0.548212 0.0342095 4.43516e-22)
(0.671545 0.038628 6.5952e-22)
(0.793808 0.0434539 1.6671e-19)
(0.909863 0.04799 0)
(1.01508 0.0515072 0)
(1.1058 0.0533632 2.00866e-19)
(1.17969 0.0531022 -3.77642e-19)
(1.23592 0.0505166 2.26158e-19)
(1.27508 0.0456632 -2.1234e-19)
(1.299 0.0388207 -9.27759e-20)
(1.31037 0.0304429 -1.69412e-19)
(1.31213 0.0210595 -6.86416e-20)
(1.30725 0.0110178 -1.2898e-19)
(1.29774 0.00240037 1.90816e-19)
(1.28643 -0.0103937 5.35044e-20)
(-0.0126389 0.0092347 0)
(-0.0127265 0.0157193 0)
(0.0115106 0.0175115 7.73062e-20)
(0.0584319 0.0171495 7.11212e-20)
(0.126828 0.0165328 -1.77724e-21)
(0.215166 0.0170476 -1.30658e-19)
(0.320999 0.0195312 0)
(0.44064 0.0243156 -1.09336e-19)
(0.569122 0.0312601 1.03135e-19)
(0.700496 0.0397982 6.22657e-22)
(0.828426 0.0490401 -1.77686e-19)
(0.946934 0.0579299 -1.64166e-19)
(1.05111 0.0654294 2.17649e-21)
(1.13762 0.0706901 -1.37786e-19)
(1.20498 0.0731765 3.29661e-19)
(1.25354 0.0727195 0)
(1.28514 0.0694982 -2.15233e-19)
(1.30266 0.0639493 1.05101e-19)
(1.30944 0.0566893 9.27056e-20)
(1.30866 0.0482693 0)
(1.30305 0.0395382 7.54156e-20)
(1.2944 0.0301665 -2.54916e-19)
(1.28407 0.0229862 2.39306e-19)
(1.27312 0.0109717 1.47131e-19)
(-0.00990396 0.0069383 -8.58704e-20)
(0.00111242 0.00923028 -8.8807e-20)
(0.0415583 0.00880464 8.02801e-20)
(0.108585 0.00806708 0)
(0.199691 0.00887711 0)
(0.31158 0.0125194 -2.96282e-21)
(0.439457 0.0195055 0)
(0.576954 0.0296128 -3.34927e-19)
(0.716588 0.0419964 3.11616e-19)
(0.850652 0.0553716 -3.85416e-19)
(0.972261 0.0682708 8.87764e-20)
(1.07625 0.0793237 0)
(1.15971 0.0874919 1.48908e-19)
(1.22209 0.0922072 -2.7618e-19)
(1.2649 0.0933956 6.59158e-20)
(1.29108 0.0913973 1.69873e-19)
(1.30429 0.0868208 -7.317e-21)
(1.30822 0.0803857 -1.88034e-19)
(1.306 0.0727732 0)
(1.30003 0.0645743 0)
(1.29188 0.0562396 -6.70288e-20)
(1.28247 0.0478898 5.99326e-20)
(1.27237 0.0408822 2.14084e-19)
(1.26213 0.0305796 -2.01004e-19)
(-0.00505264 0.00417854 -9.05374e-20)
(0.0210744 0.00247116 -9.02281e-20)
(0.0815518 0.00106109 2.53756e-19)
(0.1719 0.00179688 -1.53989e-19)
(0.28757 0.00615725 1.4494e-19)
(0.422587 0.0149688 2.63453e-19)
(0.569057 0.0280178 -1.86342e-19)
(0.717738 0.0441675 -2.27252e-19)
(0.859276 0.0616692 4.16901e-21)
(0.985638 0.0785667 2.91263e-19)
(1.09126 0.0931063 0)
(1.17358 0.104049 8.05235e-20)
(1.23293 0.110816 0)
(1.27187 0.113458 -1.32389e-19)
(1.29429 0.112503 1.86437e-19)
(1.30447 0.108728 2.13241e-21)
(1.3063 0.102966 -4.89234e-20)
(1.3029 0.0959516 9.23076e-20)
(1.29644 0.0882634 7.90958e-20)
(1.28829 0.0803044 -7.09195e-20)
(1.27927 0.0723826 6.70143e-20)
(1.26978 0.064545 -5.99188e-20)
(1.26008 0.0576066 0)
(1.25044 0.0483977 -4.49734e-20)
(0.00231399 0.00119006 9.05244e-20)
(0.0479301 -0.00389307 9.50888e-20)
(0.132028 -0.00469687 -8.50486e-20)
(0.247937 -0.000388935 1.58611e-19)
(0.388182 0.00966666 -1.49282e-19)
(0.543299 0.0253404 1.35172e-19)
(0.702065 0.0452382 -6.49152e-20)
(0.853076 0.0670621 1.70553e-19)
(0.986712 0.0882379 -1.07315e-19)
(1.09664 0.10652 1.90585e-19)
(1.18041 0.12041 -4.4013e-19)
(1.23905 0.129303 1.61687e-19)
(1.27608 0.133389 -1.42241e-19)
(1.29627 0.133395 1.33611e-19)
(1.30444 0.130288 1.15815e-19)
(1.30478 0.125028 1.01963e-19)
(1.30042 0.118415 -2.83276e-19)
(1.29348 0.111046 1.76001e-19)
(1.28522 0.103327 -7.91006e-20)
(1.27637 0.0955273 2.05861e-19)
(1.26727 0.087818 -6.65486e-20)
(1.25808 0.0802965 -1.61162e-19)
(1.24887 0.0733511 1.48705e-19)
(1.23974 0.0649661 4.49606e-20)
(0.0125066 -0.00165446 0)
(0.0821085 -0.00884832 8.63842e-22)
(0.19284 -0.00701558 1.78161e-19)
(0.335144 0.00311738 -1.67032e-19)
(0.497786 0.0207451 -1.50818e-19)
(0.667459 0.0442203 2.80372e-19)
(0.830276 0.0706456 -1.30238e-19)
(0.974374 0.0966434 1.73739e-19)
(1.09202 0.119274 -3.6921e-21)
(1.1804 0.136635 -9.85628e-20)
(1.24098 0.148025 2.15601e-19)
(1.27814 0.153758 -3.18295e-19)
(1.29747 0.154784 0)
(1.30447 0.152289 -6.2642e-20)
(1.3037 0.147399 -1.67743e-19)
(1.29847 0.141018 5.26572e-20)
(1.29093 0.133793 2.10375e-21)
(1.28233 0.126152 -1.16294e-19)
(1.27334 0.118365 7.2339e-21)
(1.26426 0.1106 1.34578e-19)
(1.25524 0.102968 -6.01494e-20)
(1.24629 0.0955534 -2.26791e-20)
(1.23741 0.0884718 7.0194e-20)
(1.22862 0.0806569 0)
(0.0257238 -0.00389473 0)
(0.123588 -0.0111948 4.8315e-20)
(0.262977 -0.0043067 -2.32418e-19)
(0.430735 0.0138271 8.46198e-20)
(0.61138 0.0402813 -7.96382e-20)
(0.788241 0.0714471 -7.28333e-20)
(0.946442 0.102957 -1.28779e-19)
(1.07593 0.130864 6.42376e-20)
(1.17276 0.152582 5.59234e-20)
(1.23843 0.167152 0)
(1.27799 0.174957 1.27775e-19)
(1.29795 0.177188 -1.9025e-19)
(1.30461 0.175305 1.41728e-19)
(1.30311 0.170665 6.26764e-20)
(1.2971 0.164331 -5.1381e-20)
(1.28888 0.157044 -4.30861e-20)
(1.27978 0.149279 -4.03779e-20)
(1.27045 0.141322 1.20465e-19)
(1.26121 0.133346 0)
(1.25216 0.125459 6.05834e-20)
(1.24331 0.11774 5.09598e-20)
(1.23465 0.11025 -1.26581e-19)
(1.22612 0.102982 -8.65562e-20)
(1.21769 0.0955506 7.99428e-20)
(0.0420059 -0.005017 -5.21206e-20)
(0.171796 -0.00969325 -1.99017e-21)
(0.340492 0.00487796 4.73275e-20)
(0.53085 0.0328 1.32423e-19)
(0.72334 0.068425 3.85526e-20)
(0.899409 0.106085 -7.44647e-20)
(1.04552 0.140447 6.80029e-20)
(1.1555 0.167803 -5.96442e-20)
(1.23014 0.186622 1.06929e-19)
(1.27491 0.197223 4.56142e-20)
(1.2973 0.201038 -1.29405e-19)
(1.30463 0.199875 3.82081e-20)
(1.30285 0.195414 6.53178e-20)
(1.29617 0.188958 -3.2129e-20)
(1.28722 0.1814 0)
(1.27746 0.173295 4.81413e-20)
(1.26762 0.164967 8.15018e-20)
(1.25801 0.156602 1.39915e-20)
(1.24872 0.14831 -6.80086e-20)
(1.23976 0.140166 2.8468e-20)
(1.23111 0.132224 0)
(1.2227 0.124516 -2.23841e-20)
(1.21448 0.117 -2.12147e-20)
(1.20636 0.109729 0)
(0.0611771 -0.00448851 0)
(0.22554 -0.00319957 2.73144e-20)
(0.422585 0.0216308 5.06061e-20)
(0.630972 0.0604473 -1.35073e-19)
(0.82826 0.104573 4.3641e-20)
(0.996269 0.146684 0)
(1.1251 0.181367 6.56074e-20)
(1.21368 0.205995 -9.1594e-20)
(1.26739 0.220538 -5.33946e-20)
(1.29463 0.226611 2.41491e-20)
(1.304 0.226448 -3.86746e-20)
(1.3026 0.222174 9.39045e-20)
(1.29549 0.215447 4.71269e-20)
(1.28581 0.207394 -3.27395e-20)
(1.27529 0.198703 -3.0429e-21)
(1.26478 0.189764 -8.99464e-20)
(1.25463 0.180788 4.09811e-20)
(1.24495 0.171894 -1.04984e-21)
(1.23574 0.163154 0)
(1.22697 0.15462 -2.84978e-20)
(1.21855 0.146328 0)
(1.21043 0.13828 6.44946e-20)
(1.20254 0.130478 -7.67482e-20)
(1.19475 0.123184 3.49795e-20)
(0.0828046 -0.00179813 -1.42508e-20)
(0.283026 0.00921748 -6.89281e-20)
(0.505825 0.0465502 7.84457e-20)
(0.726492 0.0964941 4.61354e-20)
(0.921668 0.147542 -2.20309e-20)
(1.07603 0.191609 3.70222e-20)
(1.18493 0.22422 -1.79812e-20)
(1.25263 0.244468 2.99297e-20)
(1.28818 0.253951 0)
(1.30165 0.255371 6.78888e-20)
(1.30169 0.251451 -2.76802e-21)
(1.29458 0.244364 -5.48523e-20)
(1.28426 0.235598 2.35265e-20)
(1.27292 0.226056 -2.65876e-20)
(1.26163 0.216235 -1.01512e-20)
(1.25081 0.206396 1.16948e-20)
(1.2406 0.19667 -9.0535e-21)
(1.231 0.187133 -4.9177e-20)
(1.22197 0.177832 3.01383e-20)
(1.21343 0.168803 6.18257e-21)
(1.20531 0.160061 5.44885e-21)
(1.19751 0.151594 4.80332e-21)
(1.18994 0.143473 0)
(1.18247 0.135952 0)
(0.106266 0.00350955 1.42607e-20)
(0.342098 0.0281936 -1.42815e-20)
(0.58665 0.0796772 -2.61507e-20)
(0.813367 0.140061 0)
(1.00047 0.195817 -1.09436e-20)
(1.13759 0.239298 -9.85378e-21)
(1.22609 0.267868 -1.68649e-20)
(1.27491 0.282655 0)
(1.29561 0.286757 0)
(1.29881 0.283649 0)
(1.29248 0.276243 0)
(1.28181 0.266578 0)
(1.26969 0.2559 -1.47904e-20)
(1.25754 0.244889 6.73901e-21)
(1.24596 0.233885 1.17311e-20)
(1.23513 0.223052 5.4853e-21)
(1.22505 0.212469 1.35981e-20)
(1.21567 0.202181 0)
(1.20693 0.192217 -3.2703e-21)
(1.19873 0.182598 -3.12207e-21)
(1.19098 0.17332 -5.45753e-21)
(1.18359 0.164379 -4.81099e-21)
(1.17643 0.155912 0)
(1.16939 0.148004 3.45887e-21)
(-0.00461233 0.0031451 8.15048e-21)
(-0.0211591 0.00635866 -8.5684e-21)
(-0.0497138 0.00760765 -1.63662e-20)
(-0.0836247 0.00773913 0)
(-0.119544 0.00721612 -2.23382e-20)
(-0.156078 0.00629219 7.02763e-21)
(-0.192398 0.00510785 -1.36179e-20)
(-0.227982 0.00373394 0)
(-0.262503 0.00220191 0)
(-0.295708 0.000525317 0)
(-0.327349 -0.00128686 0)
(-0.35715 -0.00322282 0)
(-0.384805 -0.00526433 5.94503e-23)
(-0.409971 -0.00738559 -1.0161e-20)
(-0.432279 -0.00955354 1.97281e-20)
(-0.451336 -0.0117289 2.81809e-20)
(-0.46674 -0.0138673 9.00119e-21)
(-0.478095 -0.0159203 0)
(-0.485025 -0.0178348 7.76937e-21)
(-0.487188 -0.0195517 -2.1903e-20)
(-0.484276 -0.0210059 -1.34499e-20)
(-0.4761 -0.022115 -1.22541e-20)
(-0.462944 -0.0227244 0)
(-0.445639 -0.0228743 0)
(-0.00559926 0.0158608 -2.4671e-20)
(-0.022424 0.0346173 4.28469e-20)
(-0.0497294 0.0451751 -1.62702e-20)
(-0.0817097 0.0507305 -3.14653e-20)
(-0.115371 0.0531649 4.44925e-20)
(-0.149424 0.0536486 -2.87554e-20)
(-0.183062 0.0529107 4.06633e-20)
(-0.215753 0.0513584 2.63887e-20)
(-0.247146 0.0491779 0)
(-0.276969 0.0464214 -2.46409e-20)
(-0.30496 0.0430716 -1.1068e-21)
(-0.330847 0.0390839 2.17471e-20)
(-0.354333 0.0344099 3.24963e-20)
(-0.375098 0.0290099 4.17728e-20)
(-0.392802 0.0228592 -1.90523e-20)
(-0.40709 0.0159528 -5.6221e-20)
(-0.417596 0.00831118 1.80731e-20)
(-0.423953 -1.07731e-05 -6.78253e-20)
(-0.425809 -0.00890983 0)
(-0.42283 -0.0182158 1.45872e-20)
(-0.414659 -0.0276566 1.34288e-20)
(-0.400852 -0.0368727 1.22346e-20)
(-0.381667 -0.0456223 0)
(-0.358556 -0.053188 0)
(-0.00739798 0.0263816 0)
(-0.0245657 0.0587449 8.78646e-20)
(-0.0490968 0.0780583 -3.31411e-20)
(-0.0768737 0.0890867 3.17882e-20)
(-0.105623 0.0947368 -9.05819e-20)
(-0.134269 0.096908 0)
(-0.162063 0.0968419 -5.58586e-20)
(-0.188455 0.0952728 2.61849e-20)
(-0.213048 0.0925679 -5.14258e-20)
(-0.235527 0.0888581 2.51049e-20)
(-0.255606 0.0841405 1.4338e-19)
(-0.273015 0.0783503 -6.73555e-20)
(-0.287482 0.071403 -1.10263e-19)
(-0.298738 0.0632172 -4.41393e-20)
(-0.306515 0.0537248 -1.43107e-21)
(-0.310548 0.0428776 1.53531e-19)
(-0.310577 0.0306535 -7.2583e-20)
(-0.306342 0.0170666 -8.05604e-22)
(-0.29759 0.00219522 0)
(-0.284029 -0.0137782 -6.12713e-20)
(-0.265326 -0.0305325 0)
(-0.241486 -0.0476772 -4.82974e-20)
(-0.211603 -0.0643894 1.84404e-19)
(-0.176459 -0.079307 -4.0139e-21)
(-0.0095576 0.0335055 0)
(-0.0271031 0.0762729 8.34134e-22)
(-0.0479162 0.103229 3.43373e-20)
(-0.069965 0.119601 -3.29382e-20)
(-0.0919126 0.128735 2.97067e-20)
(-0.113004 0.132955 1.76618e-19)
(-0.132613 0.133872 -5.56855e-20)
(-0.150214 0.132506 -5.42302e-20)
(-0.165389 0.129427 1.03457e-19)
(-0.177792 0.124891 -1.50256e-19)
(-0.187129 0.118965 4.71521e-20)
(-0.193146 0.111616 4.64121e-20)
(-0.195619 0.102768 0)
(-0.194353 0.0923368 4.23458e-20)
(-0.189176 0.0802467 0)
(-0.179945 0.0664365 7.86187e-20)
(-0.166541 0.0508637 -1.49533e-19)
(-0.148852 0.0334938 3.40272e-20)
(-0.126769 0.0143404 1.32553e-19)
(-0.10022 -0.00654559 6.11729e-20)
(-0.0692677 -0.0290832 0)
(-0.0339021 -0.0529316 -1.5602e-19)
(0.00660564 -0.0769933 4.90226e-20)
(0.0562161 -0.0990651 0)
(-0.0115674 0.0367662 0)
(-0.0294688 0.0859256 -1.09568e-19)
(-0.0463293 0.118781 -3.51647e-20)
(-0.0620865 0.139949 -6.60856e-20)
(-0.0763603 0.152611 6.22289e-20)
(-0.0887855 0.159162 -5.91225e-20)
(-0.0989447 0.16138 1.14911e-19)
(-0.106421 0.160483 5.63031e-20)
(-0.11084 0.157229 -1.55655e-19)
(-0.111886 0.152031 1.01814e-19)
(-0.109298 0.145069 -1.45198e-19)
(-0.102875 0.136388 3.27427e-19)
(-0.0924687 0.125963 -1.77112e-19)
(-0.0779773 0.113743 8.60194e-20)
(-0.0593389 0.0996729 2.48999e-19)
(-0.0365188 0.083704 -7.59535e-20)
(-0.00953144 0.0657901 -7.32177e-20)
(0.021605 0.0459025 -7.06454e-20)
(0.056881 0.0240396 0)
(0.0962151 0.000193357 -1.25399e-19)
(0.139507 -0.0255862 -1.14478e-19)
(0.18689 -0.0530392 1.63865e-19)
(0.236927 -0.0816549 1.92077e-19)
(0.301643 -0.108687 -1.81222e-19)
(-0.013018 0.0364549 0)
(-0.0311753 0.0877813 -1.50407e-19)
(-0.0444929 0.124209 -1.03729e-21)
(-0.0543445 0.14902 1.33425e-19)
(-0.0611344 0.164773 0)
(-0.0648905 0.173623 0)
(-0.0654714 0.177299 0)
(-0.0626564 0.177091 -5.59085e-20)
(-0.0562089 0.173886 -2.0463e-21)
(-0.0459159 0.16824 9.9897e-20)
(-0.0316106 0.160464 -1.47874e-19)
(-0.013181 0.150709 -1.64039e-21)
(0.00943057 0.13903 0)
(0.0362357 0.125429 -8.59434e-20)
(0.067211 0.109886 8.35946e-20)
(0.102315 0.0923669 -2.33842e-19)
(0.141496 0.0728455 2.99812e-19)
(0.184705 0.0513167 7.24347e-20)
(0.231896 0.0277678 6.38608e-22)
(0.283022 0.00222892 -2.51574e-19)
(0.337616 -0.0252492 -1.16167e-19)
(0.397186 -0.0542037 3.74743e-19)
(0.453982 -0.0851226 -2.49324e-19)
(0.535379 -0.11452 0)
(-0.0137223 0.033454 7.4827e-20)
(-0.0319689 0.0831378 7.55078e-20)
(-0.0425772 0.120459 -7.21935e-20)
(-0.0476155 0.14714 -1.35718e-19)
(-0.0479775 0.164915 1.27784e-19)
(-0.0440151 0.175505 -1.21986e-19)
(-0.0358761 0.180426 1.72402e-19)
(-0.0235911 0.180909 -5.60504e-20)
(-0.00712717 0.177879 1.0412e-19)
(0.0135658 0.171984 0)
(0.0385265 0.163647 9.77276e-20)
(0.0677729 0.153117 -1.81251e-19)
(0.101294 0.140535 1.78527e-19)
(0.139071 0.125961 -1.67668e-19)
(0.18107 0.109424 0)
(0.227291 0.090936 1.54394e-19)
(0.27775 0.0704832 2.94502e-19)
(0.332421 0.0480495 -2.77887e-19)
(0.3912 0.023627 -1.30013e-19)
(0.454153 -0.00262156 -1.24439e-19)
(0.519808 -0.0308901 3.47277e-19)
(0.591957 -0.0596771 1.03077e-19)
(0.654853 -0.0913592 -9.91263e-20)
(0.750449 -0.119724 8.62219e-20)
(-0.0137606 0.0289448 -7.48371e-20)
(-0.0319122 0.0741038 2.32082e-19)
(-0.0407598 0.109672 -7.32845e-20)
(-0.0423612 0.136051 1.36775e-19)
(-0.0377792 0.154221 -1.28775e-19)
(-0.0275727 0.165432 -4.00887e-22)
(-0.0121306 0.170909 5.71925e-20)
(0.00827991 0.17173 2.19234e-19)
(0.0334898 0.168777 2.72132e-21)
(0.0633951 0.162726 -9.85259e-20)
(0.0979314 0.154059 0)
(0.137095 0.143082 -9.13785e-20)
(0.180879 0.130025 1.71659e-19)
(0.229331 0.115023 1.67091e-19)
(0.282538 0.0981461 -7.88326e-20)
(0.340545 0.079413 -2.01986e-21)
(0.403344 0.058821 -7.2695e-20)
(0.47084 0.0364109 1.33808e-19)
(0.542596 0.0122174 1.29971e-19)
(0.618388 -0.0133253 -1.21854e-19)
(0.695381 -0.0408124 1.09668e-19)
(0.778187 -0.0672775 -1.00978e-19)
(0.846176 -0.097747 0)
(0.947294 -0.121288 -8.61599e-20)
(-0.0134299 0.0240918 7.63533e-20)
(-0.0313307 0.063034 -7.77436e-20)
(-0.0391486 0.0946459 7.36056e-20)
(-0.0384508 0.118563 0)
(-0.0302139 0.135272 0)
(-0.0150709 0.145654 1.21745e-19)
(0.00645494 0.150658 -1.14603e-19)
(0.0339571 0.151185 1.08858e-19)
(0.0671611 0.148025 -5.13569e-19)
(0.105914 0.141822 -1.08905e-21)
(0.15013 0.133056 9.21058e-20)
(0.199859 0.122127 0)
(0.255242 0.109296 -1.70518e-19)
(0.316336 0.0947058 3.22845e-19)
(0.383155 0.078439 -2.30853e-19)
(0.455582 0.0605601 -3.69257e-19)
(0.533214 0.0411397 -2.60788e-21)
(0.615299 0.020296 2.57733e-19)
(0.700515 -0.0018863 0)
(0.787543 -0.0247709 0)
(0.872644 -0.0491851 -1.09663e-19)
(0.958398 -0.0712305 1.00974e-19)
(1.02622 -0.0982652 -3.53589e-19)
(1.11641 -0.114267 3.31218e-19)
(-0.0131119 0.0197851 0)
(-0.0306055 0.0519693 0)
(-0.0375882 0.0781709 -2.211e-19)
(-0.0349648 0.0979213 7.02071e-20)
(-0.0234798 0.111556 5.69005e-22)
(-0.00371208 0.119765 1.2186e-19)
(0.0238268 0.123312 0)
(0.0587461 0.122955 -1.07302e-19)
(0.100806 0.119383 1.02221e-19)
(0.149914 0.113193 -1.92e-19)
(0.206104 0.104887 -1.13736e-21)
(0.269381 0.0948339 1.74797e-19)
(0.339686 0.0832467 2.28622e-21)
(0.416823 0.070307 1.60635e-19)
(0.500237 0.0561343 -2.23679e-19)
(0.588942 0.0408085 0)
(0.681451 0.0244092 2.69876e-19)
(0.775759 0.00704512 -3.8261e-19)
(0.869356 -0.0111527 1.16163e-19)
(0.959585 -0.0297288 0)
(1.0428 -0.0491874 9.93374e-20)
(1.11856 -0.0663297 3.69541e-19)
(1.17587 -0.0884035 -3.46836e-19)
(1.23799 -0.0976848 -3.72013e-19)
(-0.0130951 0.0164833 2.32433e-19)
(-0.0298705 0.0422276 -3.18615e-19)
(-0.0354053 0.0624307 1.06518e-21)
(-0.0300554 0.0770886 7.04794e-20)
(-0.0142953 0.0867033 -1.30737e-19)
(0.0114527 0.0919615 -1.21784e-19)
(0.0468214 0.0935664 2.27961e-19)
(0.0915551 0.092196 2.54389e-22)
(0.145509 0.0884754 -2.0145e-19)
(0.208576 0.0829425 3.815e-19)
(0.28058 0.0760303 2.55197e-21)
(0.361131 0.0680261 -1.69947e-19)
(0.449432 0.059146 0)
(0.544214 0.0495023 0)
(0.643634 0.0391308 -7.39574e-20)
(0.745286 0.0280178 -1.35836e-19)
(0.846297 0.0161456 -2.59777e-19)
(0.943484 0.00347747 2.43846e-19)
(1.03364 -0.00986321 -1.16224e-19)
(1.11373 -0.0239195 2.07699e-19)
(1.18126 -0.0383262 -1.04222e-19)
(1.23503 -0.0522934 1.67537e-19)
(1.2718 -0.0691929 -4.01362e-19)
(1.30062 -0.0760616 7.41302e-20)
(-0.0134134 0.014183 7.82288e-20)
(-0.0287589 0.0342439 0)
(-0.0312684 0.0486404 1.50134e-19)
(-0.0210565 0.0581665 -1.41427e-19)
(0.0016112 0.0636969 1.30863e-19)
(0.0364917 0.0660639 0)
(0.0833681 0.0660041 0)
(0.142026 0.0641725 -1.06935e-19)
(0.212161 0.0611328 -2.0738e-23)
(0.29321 0.0573318 9.42117e-20)
(0.384176 0.0530835 -8.94655e-20)
(0.483481 0.0485554 1.68309e-19)
(0.58888 0.0437842 0)
(0.697501 0.0386867 3.02483e-19)
(0.805972 0.0330934 -5.68803e-19)
(0.910646 0.0267899 4.03315e-19)
(1.00789 0.0195789 2.49116e-19)
(1.09441 0.0112694 -2.33856e-19)
(1.16757 0.00192409 0)
(1.22557 -0.0087999 0)
(1.268 -0.0197573 0)
(1.29522 -0.0329201 0)
(1.30906 -0.044721 7.66879e-20)
(1.31375 -0.0558907 -2.59085e-19)
(-0.420964 -0.0227133 -6.06037e-21)
(-0.387096 -0.0221915 6.08578e-21)
(-0.341271 -0.0207242 -1.51482e-22)
(-0.285832 -0.0184622 0)
(-0.220544 -0.0155061 -2.36817e-21)
(-0.14679 -0.0117774 3.76756e-21)
(-0.0661862 -0.00801753 -7.54703e-22)
(0.0190706 -0.00388565 -6.50959e-22)
(0.106465 0.000152863 0)
(0.19361 0.00385918 0)
(0.278316 0.00711966 6.09239e-23)
(0.358736 0.00987264 7.15106e-23)
(0.433576 0.0121052 1.32058e-21)
(0.502105 0.0138558 -1.20957e-21)
(0.564053 0.0152218 0)
(0.619506 0.0162965 0)
(0.668785 0.017171 -9.63678e-22)
(0.712445 0.0179802 7.12807e-23)
(0.751097 0.0186879 7.90608e-22)
(0.78523 0.0193146 4.45555e-23)
(0.815273 0.0199094 0)
(0.841562 0.0205232 0)
(0.864435 0.0210668 0)
(0.884177 0.0216014 0)
(0.900995 0.0221301 0)
(0.915167 0.0226577 0)
(0.927023 0.023168 -1.02614e-22)
(0.936919 0.0236627 1.67334e-22)
(0.945203 0.0241732 0)
(0.952187 0.0247412 0)
(0.958127 0.0253973 8.60998e-23)
(0.96322 0.0261544 -8.36805e-23)
(0.967612 0.0270093 -3.5872e-23)
(0.971417 0.0279493 0)
(0.974727 0.0289611 0)
(0.977619 0.0300363 -5.04771e-23)
(0.980157 0.0311723 4.90668e-23)
(0.982396 0.0323719 0)
(0.984382 0.0336415 -3.78627e-23)
(0.986152 0.0349898 5.46396e-23)
(0.987738 0.0364267 -1.6294e-23)
(0.989162 0.0379635 0)
(0.990449 0.0396089 2.65738e-23)
(0.99161 0.0413822 -2.58403e-23)
(0.992672 0.0432749 0)
(0.993624 0.0453541 0)
(0.994517 0.0475023 9.44893e-24)
(0.9953 0.0500386 -2.70346e-23)
(0.99607 0.0523201 0)
(0.996719 0.0557106 0)
(0.997389 0.057667 6.50536e-24)
(0.997957 0.0627403 -2.31402e-27)
(0.998522 0.0635876 5.0558e-25)
(0.999067 0.071162 -4.51046e-24)
(0.999545 0.0708206 0)
(1.00006 0.0803571 0)
(1.00051 0.0801896 0)
(1.00106 0.0908104 0)
(1.00134 0.090863 0)
(1.00213 0.103552 0)
(-0.329313 -0.0608537 -6.45841e-22)
(-0.300241 -0.0724212 -2.19515e-20)
(-0.257886 -0.0821049 3.5233e-21)
(-0.206641 -0.0896665 1.72241e-20)
(-0.146059 -0.0950792 1.93795e-22)
(-0.0776401 -0.0970592 0)
(-0.00264515 -0.0959647 -2.95217e-21)
(0.0769285 -0.0920475 3.27137e-21)
(0.158161 -0.085725 -3.09268e-22)
(0.239065 -0.0775009 -3.27263e-21)
(0.317705 -0.0680528 3.11967e-21)
(0.392373 -0.0580936 -4.67599e-21)
(0.461864 -0.0482611 4.52926e-21)
(0.525524 -0.0390518 1.46742e-22)
(0.583138 -0.030733 4.56276e-21)
(0.634807 -0.023374 -4.43409e-21)
(0.680928 -0.0169562 3.84339e-21)
(0.721946 -0.01134 -3.62404e-21)
(0.758328 -0.00648519 3.12832e-21)
(0.790603 -0.00226883 -5.76312e-21)
(0.819202 0.00143398 2.65035e-21)
(0.84437 0.00472052 1.38278e-22)
(0.866378 0.00785918 1.86502e-21)
(0.885507 0.0107802 -3.45218e-21)
(0.901924 0.0133154 1.59353e-21)
(0.915848 0.0155088 -8.29565e-23)
(0.927545 0.0173965 -1.15443e-21)
(0.937336 0.0190099 6.64814e-23)
(0.945555 0.0204032 1.83454e-21)
(0.952503 0.0216596 -1.62717e-21)
(0.958427 0.0228542 7.55146e-22)
(0.963518 0.0240387 -8.05071e-23)
(0.96792 0.0252383 3.5945e-23)
(0.971741 0.0264597 -6.46717e-23)
(0.975071 0.0277025 0)
(0.977983 0.0289676 0)
(0.980543 0.0302599 1.83808e-22)
(0.982804 0.0315883 -1.35512e-22)
(0.984813 0.0329646 -1.12822e-22)
(0.986606 0.0344018 -8.8255e-24)
(0.988215 0.0359134 1.51266e-22)
(0.989663 0.0375134 -2.99428e-23)
(0.990976 0.0392128 0)
(0.992163 0.0410323 0)
(0.993252 0.0429647 0)
(0.994234 0.0450787 0)
(0.995156 0.0472554 -3.90427e-23)
(0.995972 0.0498198 1.78619e-23)
(0.996773 0.0521187 0)
(0.997458 0.0555365 0)
(0.998168 0.0574969 0)
(0.998768 0.0626005 1.12075e-23)
(0.999387 0.0634426 -9.65093e-25)
(0.999961 0.0710404 9.54437e-24)
(1.0005 0.0707028 0)
(1.00106 0.0802424 0)
(1.00154 0.0800871 -4.82046e-24)
(1.00218 0.0907118 -1.14979e-23)
(1.00247 0.0907639 0)
(1.00336 0.103461 0)
(-0.140775 -0.0924597 -4.37404e-21)
(-0.115106 -0.114185 -5.32717e-20)
(-0.0777027 -0.134793 3.98301e-20)
(-0.0328402 -0.151903 -3.72301e-20)
(0.0200466 -0.164417 -1.95069e-22)
(0.080584 -0.171876 0)
(0.145765 -0.173835 -8.16875e-21)
(0.213954 -0.170681 7.96162e-21)
(0.283245 -0.162615 -7.50199e-24)
(0.351767 -0.150443 -4.63366e-23)
(0.417863 -0.135413 -8.99489e-23)
(0.480198 -0.118884 -1.35355e-22)
(0.537859 -0.102103 9.21913e-21)
(0.590419 -0.0860582 -9.10685e-21)
(0.637868 -0.0714161 0)
(0.680418 -0.0584056 -2.53854e-22)
(0.718421 -0.0470447 7.50622e-21)
(0.752305 -0.0372844 -7.40545e-21)
(0.78253 -0.0288833 0)
(0.80954 -0.0215997 0)
(0.833675 -0.0152226 4.94177e-21)
(0.855294 -0.00957349 -9.15285e-21)
(0.874557 -0.00438109 7.82756e-21)
(0.891409 0.000305707 -4.47212e-22)
(0.906033 0.00466925 -5.97417e-21)
(0.91868 0.0085244 5.43037e-21)
(0.929504 0.0117337 -4.57016e-21)
(0.938703 0.0144127 3.26052e-22)
(0.946526 0.0166546 1.92869e-21)
(0.953218 0.0185788 0)
(0.958982 0.0202983 0)
(0.963979 0.0219016 -4.606e-22)
(0.96833 0.0234415 6.04886e-22)
(0.972128 0.0249423 -9.48558e-26)
(0.975452 0.0264158 -4.51814e-22)
(0.978369 0.0278712 4.39089e-22)
(0.980941 0.0293204 0)
(0.983218 0.0307783 -4.33329e-23)
(0.985245 0.0322617 -3.45424e-22)
(0.987059 0.0337882 6.48696e-22)
(0.98869 0.0353746 -2.71436e-22)
(0.990163 0.0370379 -3.01649e-23)
(0.9915 0.0387911 2.69648e-22)
(0.992713 0.0406568 -2.08485e-22)
(0.993829 0.0426286 -4.65063e-23)
(0.99484 0.0447774 -4.27061e-23)
(0.995791 0.0469824 3.9142e-23)
(0.996641 0.0495751 0)
(0.997474 0.0518914 0)
(0.998194 0.0553367 1.17803e-22)
(0.998945 0.0573016 -5.63085e-23)
(0.999576 0.0624357 4.89027e-23)
(1.00025 0.0632733 -6.54736e-23)
(1.00085 0.0708962 -7.44532e-23)
(1.00144 0.0705615 1.74852e-23)
(1.00206 0.0801089 -2.74976e-23)
(1.00257 0.0799637 2.1871e-23)
(1.00329 0.0905976 -9.4006e-24)
(1.0036 0.0906488 0)
(1.00458 0.103359 0)
(0.0933296 -0.11965 -1.17337e-19)
(0.117986 -0.148065 1.28062e-20)
(0.150701 -0.176674 9.90613e-20)
(0.19006 -0.201629 -5.72884e-22)
(0.2343 -0.220177 0)
(0.283212 -0.232511 0)
(0.335465 -0.237848 -2.25038e-20)
(0.389415 -0.235579 1.14995e-20)
(0.443369 -0.226123 9.94159e-21)
(0.495897 -0.210691 -3.58658e-21)
(0.545867 -0.190997 3.49763e-21)
(0.592449 -0.168952 7.30827e-21)
(0.635144 -0.146335 -7.28111e-21)
(0.673774 -0.124537 0)
(0.708517 -0.104544 8.20774e-21)
(0.739722 -0.0868525 -7.48395e-21)
(0.767706 -0.0714999 0)
(0.792803 -0.058322 0)
(0.815371 -0.0470235 -5.91354e-21)
(0.83575 -0.0372875 4.5039e-22)
(0.854225 -0.0287982 4.98857e-21)
(0.871021 -0.0212651 4.31971e-21)
(0.88624 -0.0146037 -4.30156e-21)
(0.900036 -0.00860738 3.37607e-21)
(0.912394 -0.00308629 -3.87141e-22)
(0.923183 0.00197743 -2.80102e-21)
(0.93261 0.00639162 -2.94222e-22)
(0.94086 0.0100223 -7.52426e-25)
(0.948042 0.0130189 0)
(0.954306 0.0155514 -1.57427e-21)
(0.95979 0.017758 1.62075e-21)
(0.96461 0.0197565 -8.15893e-23)
(0.968852 0.0216226 0)
(0.972587 0.0233957 6.55437e-23)
(0.975878 0.0250965 -9.11372e-22)
(0.978783 0.0267413 1.60248e-21)
(0.981355 0.0283477 4.24142e-23)
(0.98364 0.0299358 -4.73167e-23)
(0.985681 0.0315272 -5.78915e-22)
(0.987513 0.0331436 -7.24418e-23)
(0.989164 0.0348055 5.14566e-22)
(0.990659 0.0365325 -4.39517e-22)
(0.99202 0.0383399 1.03592e-25)
(0.993259 0.0402521 -1.98191e-22)
(0.994401 0.0422635 2.39347e-22)
(0.995442 0.0444473 2.95831e-22)
(0.996421 0.0466808 -8.3454e-23)
(0.997305 0.0493021 -1.40203e-22)
(0.99817 0.0516358 2.64267e-22)
(0.998926 0.0551091 -1.84498e-22)
(0.999717 0.0570789 5.04736e-23)
(1.00038 0.0622441 -5.7046e-23)
(1.00111 0.0630778 -4.77972e-23)
(1.00174 0.0707275 1.13082e-22)
(1.00239 0.070395 -2.19356e-24)
(1.00306 0.0799548 2.76839e-23)
(1.0036 0.079818 0)
(1.0044 0.0904665 9.56211e-24)
(1.00473 0.0905169 -1.34972e-23)
(1.0058 0.103247 0)
(0.333334 -0.136801 1.23931e-19)
(0.35913 -0.172295 -2.31452e-19)
(0.387483 -0.207126 1.0641e-19)
(0.420565 -0.23749 7.75309e-20)
(0.456247 -0.261462 -1.36547e-19)
(0.493666 -0.277973 1.50396e-20)
(0.53204 -0.285809 4.3328e-20)
(0.570172 -0.284297 1.65029e-20)
(0.606931 -0.27394 -1.60978e-20)
(0.641601 -0.2562 0)
(0.673801 -0.23313 7.85734e-21)
(0.703351 -0.207045 -1.91679e-20)
(0.730253 -0.180132 1.12699e-20)
(0.754613 -0.154089 0)
(0.77666 -0.130038 0)
(0.796771 -0.108704 -2.38144e-22)
(0.81522 -0.0902547 1.34742e-20)
(0.832137 -0.0744796 -1.309e-20)
(0.847656 -0.0610238 0)
(0.861943 -0.0494998 -1.0596e-20)
(0.875154 -0.0395304 1.91991e-20)
(0.88744 -0.0307743 -1.71887e-20)
(0.898887 -0.0229591 1.55624e-20)
(0.909513 -0.0158446 -6.15836e-22)
(0.919383 -0.00949564 -1.2261e-20)
(0.928399 -0.00378667 5.7635e-21)
(0.936405 0.00147253 1.48233e-22)
(0.943536 0.00593159 1.87399e-21)
(0.949952 0.00956935 -1.6535e-22)
(0.955694 0.0126308 -1.73127e-21)
(0.960822 0.0152717 -9.22633e-23)
(0.965403 0.0176309 1.26734e-21)
(0.969489 0.0198017 -2.36754e-21)
(0.973124 0.0218336 1.23641e-21)
(0.976356 0.0237542 0)
(0.979229 0.0255846 9.39908e-22)
(0.981787 0.0273465 -9.05819e-22)
(0.984072 0.0290642 5.96312e-22)
(0.986121 0.0307636 -7.45439e-22)
(0.987967 0.0324701 7.32809e-23)
(0.989636 0.0342077 0)
(0.991152 0.0359987 6.12118e-23)
(0.992536 0.0378604 -1.68123e-22)
(0.9938 0.0398193 0)
(0.994968 0.0418704 -4.61228e-22)
(0.996038 0.0440895 1.83369e-22)
(0.997045 0.0463513 -7.9304e-23)
(0.997962 0.0490015 -7.2772e-23)
(0.99886 0.0513528 0)
(0.999651 0.0548543 0)
(1.00048 0.0568295 1.60499e-22)
(1.00118 0.0620262 -2.46705e-22)
(1.00196 0.0628566 1.36e-22)
(1.00262 0.0705348 -4.29203e-23)
(1.00333 0.0702038 -7.07774e-23)
(1.00405 0.0797805 -2.77103e-23)
(1.00462 0.0796505 4.42104e-23)
(1.00551 0.0903186 0)
(1.00586 0.0903683 2.16274e-23)
(1.00703 0.103124 5.11945e-24)
(0.560084 -0.14583 1.27977e-19)
(0.583925 -0.186785 -1.27289e-19)
(0.609723 -0.22603 8.19666e-22)
(0.637558 -0.259937 -7.22601e-22)
(0.66495 -0.287286 5.65128e-22)
(0.69098 -0.306712 -4.35427e-22)
(0.715341 -0.316449 7.22344e-22)
(0.737314 -0.315649 0)
(0.756401 -0.304987 -3.16395e-22)
(0.772805 -0.286134 1.60484e-22)
(0.787078 -0.261319 3.92232e-23)
(0.799787 -0.233066 1.23571e-22)
(0.811449 -0.203768 0)
(0.822478 -0.175299 0)
(0.833094 -0.148853 -1.71291e-22)
(0.843492 -0.125141 0)
(0.853841 -0.10454 1.80769e-22)
(0.864084 -0.0869275 0)
(0.874059 -0.0719217 1.04557e-20)
(0.883666 -0.0590966 -2.00179e-20)
(0.892877 -0.0480427 1.8256e-20)
(0.901715 -0.0383799 -8.69218e-21)
(0.910201 -0.0297949 -7.22142e-21)
(0.918335 -0.0220297 7.01275e-21)
(0.926087 -0.0149448 5.92764e-21)
(0.933482 -0.00863333 -5.74044e-21)
(0.940327 -0.00303512 0)
(0.94646 0.00209727 -1.29882e-22)
(0.952092 0.00630252 0)
(0.957294 0.00983083 0)
(0.962033 0.0128548 -2.67723e-21)
(0.966341 0.0155396 2.77974e-21)
(0.970236 0.0179912 -1.49081e-22)
(0.973742 0.0202661 -1.34154e-22)
(0.97689 0.0223966 1.20714e-22)
(0.979712 0.0244067 8.42841e-22)
(0.982243 0.0263208 -8.18378e-22)
(0.984518 0.0281665 7.82688e-22)
(0.986569 0.0299732 -6.73152e-22)
(0.988423 0.0317698 -1.48186e-22)
(0.990107 0.033583 5.25546e-22)
(0.991642 0.0354381 3.25456e-23)
(0.993047 0.0373543 -3.53768e-22)
(0.994335 0.03936 0)
(0.995528 0.0414506 1.90434e-22)
(0.996627 0.0437052 -2.52481e-22)
(0.997662 0.0459952 3.29911e-22)
(0.998612 0.0486747 7.32354e-23)
(0.999542 0.0510434 0)
(1.00037 0.0545736 -5.6855e-23)
(1.00124 0.0565544 1.14477e-22)
(1.00197 0.061783 -1.1621e-25)
(1.00281 0.0626106 4.43648e-23)
(1.0035 0.0703189 -7.33695e-23)