/*--------------------------------*- C++ -*----------------------------------*\
| =========                 |                                                 |
| \\      /  F ield         | OpenFOAM: The Open Source CFD Toolbox           |
|  \\    /   O peration     | Version:  2512                                  |
|   \\  /    A nd           | Website:  www.openfoam.com                      |
|    \\/     M anipulation  |                                                 |
\*---------------------------------------------------------------------------*/
FoamFile
{
    version     2.0;
    format      ascii;
    arch        "LSB;label=32;scalar=64";
    class       surfaceScalarField;
    location    "113.5";
    object      phi;
}
// * * * * * * * * * * * * * * * * * * * * * * * * * * * * * * * * * * * * * //

dimensions      [0 3 -1 0 0 0 0];

oriented        oriented;

internalField   nonuniform List<scalar> 
26232
(
4.10601e-05
0.000810938
-0.000851998
0.00029338
0.00126906
-0.00152138
0.000913908
0.00077181
-0.00139234
0.00207185
-0.000591313
-0.00056663
0.00394088
-0.00277531
0.000906275
0.00669063
-0.00575739
0.00300765
0.0104756
-0.00952036
0.00573538
0.0154214
-0.0140357
0.00908996
0.0216092
-0.0192492
0.0130615
0.0290615
-0.0250717
0.0176194
0.0377323
-0.0313777
0.0227068
0.0475044
-0.0380114
0.0282393
0.0581951
-0.0447986
0.0341079
0.0695698
-0.0515622
0.0401874
0.0813621
-0.0581376
0.0463453
0.0932964
-0.0643869
0.0524526
0.105111
-0.0702084
0.058394
0.116577
-0.0755423
0.064076
0.127517
-0.0803697
0.0694296
0.137812
-0.0847174
0.0744227
0.1474
-0.0886226
0.0790342
0.156288
-0.0922127
0.0833252
0.164486
-0.0954482
0.0872496
-0.0987233
0.0913278
0.171882
0.000117702
0.000693236
0.000615467
0.0007713
0.0016653
-0.000278023
0.00344941
-0.00237542
0.00614966
-0.00547556
0.00993269
-0.00954043
0.0149303
-0.014518
0.0212178
-0.0203233
0.0287947
-0.0268262
0.0375729
-0.0338499
0.0473763
-0.0411811
0.0579536
-0.0485887
0.0690026
-0.0558475
0.0802008
-0.0627604
0.0912391
-0.0691759
0.101851
-0.0749988
0.111836
-0.0801933
0.121072
-0.0847786
0.129522
-0.0888191
0.137217
-0.092413
0.144262
-0.0956674
0.150779
-0.0987293
0.156933
-0.101603
-0.104694
0.162904
0.000195687
0.00049755
0.000952292
1.46946e-05
0.00246155
-0.00178728
0.00491641
-0.00483028
0.00849572
-0.00905487
0.0133394
-0.0143841
0.0195198
-0.0206984
0.0270158
-0.0278192
0.0356983
-0.0355087
0.0453334
-0.043485
0.0556045
-0.0514521
0.066149
-0.0591332
0.0766032
-0.0663018
0.0866452
-0.0728023
0.0960287
-0.0785594
0.104605
-0.0835747
0.112326
-0.0879143
0.119237
-0.09169
0.125456
-0.0950377
0.131141
-0.0980984
0.13647
-0.100997
0.141595
-0.103854
0.146679
-0.106687
-0.109776
0.151761
0.000282523
0.000215027
0.00132276
-0.00102555
0.00332897
-0.00379349
0.00649437
-0.00799568
0.0109716
-0.0135321
0.0168369
-0.0202495
0.0240565
-0.0279179
0.0324673
-0.0362301
0.0417836
-0.044825
0.0516295
-0.0533309
0.0615908
-0.0614135
0.0712745
-0.0688169
0.0803599
-0.0753872
0.0886344
-0.0810768
0.0960069
-0.0859319
0.1025
-0.0900679
0.108226
-0.0936402
0.113351
-0.0968149
0.11806
-0.0997466
0.122525
-0.102564
0.12689
-0.105362
0.131251
-0.108215
0.135688
-0.111124
-0.114277
0.140188
0.000384387
-0.00016936
0.00174002
-0.00238118
0.00427926
-0.00633273
0.00817331
-0.0118897
0.0135129
-0.0188717
0.0202647
-0.0270013
0.0282448
-0.0358979
0.037125
-0.0451104
0.0464769
-0.0541769
0.0558397
-0.0626937
0.064795
-0.0703687
0.0730264
-0.0770484
0.0803539
-0.0827147
0.0867369
-0.0874597
0.0922516
-0.0914466
0.097053
-0.0948693
0.10133
-0.0979175
0.10527
-0.100754
0.109029
-0.103506
0.112725
-0.10626
0.116436
-0.109073
0.120203
-0.111981
0.124061
-0.114982
-0.118194
0.127978
0.000503853
-0.000673213
0.0022051
-0.00408243
0.00529699
-0.00942462
0.0098949
-0.0164876
0.0159833
-0.02496
0.023376
-0.034394
0.0317176
-0.0442396
0.0405342
-0.053927
0.0493192
-0.0629618
0.0576248
-0.0709992
0.0651318
-0.0778758
0.0716817
-0.0835983
0.0772694
-0.0883023
0.0820069
-0.0921972
0.0860735
-0.0955133
0.0896671
-0.0984629
0.0929676
-0.101218
0.0961175
-0.103904
0.0992172
-0.106606
0.10233
-0.109373
0.105493
-0.112236
0.108723
-0.115211
0.112037
-0.118295
-0.121554
0.115397
0.000639188
-0.0013124
0.00270414
-0.00614738
0.00633637
-0.0130568
0.0115535
-0.0217047
0.0181906
-0.0315972
0.0258858
-0.0420892
0.0341303
-0.052484
0.0423696
-0.0621663
0.0501161
-0.0707083
0.0570318
-0.0779149
0.0629616
-0.0838055
0.067918
-0.0885547
0.0720332
-0.0924175
0.0754995
-0.0956636
0.0785176
-0.0985314
0.0812617
-0.101207
0.083864
-0.10382
0.0864148
-0.106455
0.0889701
-0.109161
0.0915616
-0.111965
0.0942055
-0.11488
0.0969074
-0.117913
0.0996728
-0.121061
-0.124352
0.102471
0.000784759
-0.00209716
0.00321047
-0.00857309
0.00732801
-0.0171744
0.0130149
-0.0273916
0.0199293
-0.0385117
0.0275446
-0.0497045
0.0352583
-0.0601977
0.0425277
-0.0694357
0.0489735
-0.0771542
0.0544216
-0.0833629
0.0588828
-0.0882668
0.0624962
-0.0921681
0.0654612
-0.0953825
0.0679807
-0.0981831
0.0702269
-0.100778
0.0723272
-0.103307
0.0743668
-0.10586
0.0763974
-0.108486
0.0784481
-0.111212
0.0805339
-0.11405
0.0826614
-0.117007
0.0848317
-0.120083
0.087046
-0.123275
-0.126588
0.0892813
0.000932102
-0.00302926
0.00368904
-0.01133
0.00819131
-0.0216766
0.014144
-0.0333443
0.0210282
-0.0453959
0.0282003
-0.0568767
0.0350485
-0.0670459
0.041126
-0.0755132
0.0462116
-0.0822399
0.0502936
-0.0874449
0.0535053
-0.0914784
0.0560484
-0.0947113
0.0581302
-0.0974642
0.0599248
-0.0999777
0.0615601
-0.102413
0.0631198
-0.104867
0.0646541
-0.107394
0.0661909
-0.110023
0.067745
-0.112766
0.0693233
-0.115629
0.0709284
-0.118613
0.0725603
-0.121715
0.0742175
-0.124932
-0.128256
0.0758856
0.00107088
-0.00410014
0.00410156
-0.0143607
0.00884833
-0.0264234
0.0148311
-0.0393271
0.0213853
-0.0519501
0.0278232
-0.0633145
0.0336038
-0.0728265
0.038427
-0.0803364
0.0422319
-0.0860447
0.0451306
-0.0903437
0.0473222
-0.09367
0.049019
-0.0964081
0.050402
-0.0988472
0.0516038
-0.10118
0.0527108
-0.10352
0.0537743
-0.10593
0.0548222
-0.108442
0.0558696
-0.11107
0.0569241
-0.11382
0.0579891
-0.116694
0.0590655
-0.119689
0.0601527
-0.122802
0.0612478
-0.126027
-0.129352
0.0623437
0.00119056
-0.0052907
0.00441289
-0.017583
0.00923732
-0.0312478
0.0150109
-0.0451006
0.0209803
-0.0579195
0.0264902
-0.0688244
0.0311261
-0.0774623
0.0347447
-0.083955
0.0374151
-0.0887152
0.0393235
-0.0922521
0.0406869
-0.0950334
0.0416966
-0.0974178
0.042495
-0.0996456
0.0431752
-0.10186
0.0437919
-0.104137
0.0443751
-0.106514
0.0449405
-0.109008
0.0454961
-0.111626
0.0460466
-0.11437
0.0465937
-0.117241
0.0471375
-0.120233
0.0476767
-0.123341
0.0482075
-0.126558
-0.129871
0.0487272
0.00128432
-0.00657502
0.00459872
-0.0208974
0.00932283
-0.035972
0.014669
-0.0504468
0.0198653
-0.0631158
0.0243506
-0.0733097
0.0278586
-0.0809704
0.0303833
-0.0864796
0.0320801
-0.090412
0.0331651
-0.0933371
0.0338418
-0.0957101
0.0342673
-0.0978432
0.0345458
-0.0999241
0.034739
-0.102053
0.0348804
-0.104278
0.034987
-0.10662
0.0350677
-0.109088
0.0351274
-0.111685
0.0351692
-0.114412
0.0351945
-0.117266
0.0352035
-0.120242
0.0351948
-0.123332
0.0351644
-0.126528
0.035112
-0.129819
-0.000213162
-0.0024357
0.00264887
-0.000783864
-0.00601355
0.00658425
-0.00166855
-0.00864949
0.00953417
-0.00282347
-0.0105112
0.0116661
-0.00420433
-0.0117695
0.0131504
-0.00576981
-0.0125907
0.0141562
-0.00748437
-0.013118
0.0148326
-0.00931928
-0.0134587
0.0152936
-0.0112519
-0.0136795
0.0156122
-0.013264
-0.0138091
0.0158211
-0.0153388
-0.0138441
0.015919
-0.0174592
-0.0137576
0.015878
-0.0196052
-0.0135063
0.0156524
-0.0217522
-0.0130373
0.0151843
-0.0238697
-0.0122915
0.014409
-0.0259204
-0.0112072
0.013258
-0.0278603
-0.00972187
0.0116618
-0.029639
-0.00777429
0.00955295
-0.0312
-0.00530601
0.00686709
-0.0324906
-0.0022461
0.00353665
-0.0334267
0.00133139
-0.000395282
-0.0339989
0.00553279
-0.00496055
-0.0341737
0.0103588
-0.0101841
0.0157977
-0.0340131
-0.0159583
-0.000300057
-0.00213565
-0.00105641
-0.00525719
-0.00217821
-0.00752768
-0.00359126
-0.00909814
-0.00523384
-0.010127
-0.00705689
-0.0107677
-0.00902361
-0.0111513
-0.0111075
-0.0113748
-0.0132896
-0.0114975
-0.0155546
-0.011544
-0.0178884
-0.0115104
-0.0202741
-0.0113719
-0.0226904
-0.01109
-0.0251099
-0.0106178
-0.0274972
-0.00990424
-0.0298085
-0.00889598
-0.0319905
-0.00753988
-0.0339833
-0.00578145
-0.0357147
-0.00357461
-0.0371212
-0.000839599
-0.0381129
0.00232312
-0.0386587
0.00607852
-0.0387057
0.0104059
0.0153587
-0.0382667
-0.000365798
-0.00176985
-0.00125713
-0.00436586
-0.00254278
-0.00624204
-0.00412198
-0.00751893
-0.0059171
-0.00833185
-0.00787056
-0.00881423
-0.00994152
-0.00908033
-0.0121016
-0.0092147
-0.0143301
-0.00926897
-0.0166098
-0.00926437
-0.0189227
-0.00919752
-0.0212473
-0.00904726
-0.0235564
-0.0087809
-0.0258151
-0.00835906
-0.0279803
-0.00773908
-0.029999
-0.00687724
-0.0318085
-0.00573041
-0.0333333
-0.00425667
-0.0344952
-0.00241275
-0.0351599
-0.000174804
-0.0353184
0.00248161
-0.0348546
0.00561472
-0.0336922
0.00924343
0.0134516
-0.0317851
-0.000407441
-0.00136241
-0.00137944
-0.00339385
-0.00275405
-0.00486743
-0.00440937
-0.00586362
-0.00625393
-0.00648729
-0.00822118
-0.00684697
-0.0102638
-0.00703767
-0.0123479
-0.00713065
-0.0144468
-0.0071701
-0.0165363
-0.00717488
-0.0185904
-0.00714334
-0.0205787
-0.00705899
-0.0224638
-0.0068958
-0.0242005
-0.00662233
-0.0257349
-0.00620475
-0.0270031
-0.00560905
-0.0279309
-0.00480252
-0.0284323
-0.00375534
-0.0284048
-0.00244027
-0.0277429
-0.000836644
-0.0263407
0.00107937
-0.0240826
0.00335664
-0.0208806
0.00604147
0.00914353
-0.0165726
-0.000424719
-0.000937691
-0.00142371
-0.00239486
-0.00281542
-0.00347572
-0.00446309
-0.00421594
-0.0062642
-0.00468619
-0.00814338
-0.00496779
-0.0100454
-0.00513564
-0.0119282
-0.00524787
-0.0137564
-0.0053419
-0.0154961
-0.00543513
-0.0171109
-0.00552852
-0.018559
-0.00561094
-0.0197914
-0.00566339
-0.0207513
-0.00566243
-0.0213733
-0.00558274
-0.0215831
-0.00539922
-0.021297
-0.00508864
-0.0204211
-0.00463126
-0.0188491
-0.00401221
-0.0164636
-0.00322221
-0.0131306
-0.00225356
-0.00868274
-0.00109127
-0.00295218
0.00031091
0.00224092
0.00395043
-0.000418663
-0.000519028
-0.00139356
-0.00141996
-0.00273459
-0.0021347
-0.00429644
-0.00265409
-0.00596842
-0.00301421
-0.0076669
-0.00326931
-0.00932787
-0.00347468
-0.0108996
-0.00367617
-0.0123361
-0.00390532
-0.0135924
-0.00417886
-0.0146201
-0.00450081
-0.0153655
-0.00486554
-0.015768
-0.00526092
-0.0157596
-0.00567086
-0.0152648
-0.00607748
-0.0142011
-0.00646289
-0.0124788
-0.00681096
-0.010001
-0.00710907
-0.00666331
-0.00734993
-0.00235245
-0.00753306
0.00306046
-0.00766647
0.00972991
-0.00776072
0.0178138
-0.00777297
-0.00786975
0.0279245
-0.000390834
-0.000128194
-0.00129331
-0.000517483
-0.00251845
-0.000909561
-0.00391777
-0.00125477
-0.00537459
-0.00155739
-0.00679709
-0.00184681
-0.00811114
-0.00216063
-0.00925334
-0.00253397
-0.0101649
-0.00299372
-0.0107871
-0.00355666
-0.0110578
-0.00423011
-0.0109097
-0.00501366
-0.0102695
-0.00590111
-0.00905817
-0.00688223
-0.00719118
-0.00794448
-0.00457984
-0.00907423
-0.00113196
-0.0102588
0.00324699
-0.011488
0.00865346
-0.0127564
0.0151854
-0.014065
0.0229405
-0.0154216
0.0320588
-0.016879
0.0425468
-0.018261
-0.0205428
0.0552199
-0.000343232
0.000215038
-0.00112776
0.000267044
-0.00217292
0.000135602
-0.00333063
-9.70663e-05
-0.00447893
-0.00040909
-0.00551651
-0.000809228
-0.0063566
-0.00132054
-0.00692064
-0.00196993
-0.00713321
-0.00278115
-0.00691801
-0.00377186
-0.00619572
-0.0049524
-0.00488309
-0.00632629
-0.0028933
-0.0078909
-0.000137166
-0.00963836
0.00347495
-0.0115566
0.00803156
-0.0136308
0.0136178
-0.015845
0.0203136
-0.0181839
0.0281924
-0.0206352
0.0373214
-0.0231939
0.0477422
-0.0258424
0.0595641
-0.0287008
0.0725774
-0.0312743
-0.0355592
0.0875937
-0.000278771
0.000493809
-0.000903924
0.000892198
-0.00170736
0.000939033
-0.00254217
0.000737752
-0.0032802
0.000328935
-0.00380825
-0.000281176
-0.00402359
-0.0011052
-0.00382842
-0.0021651
-0.00312737
-0.00348221
-0.00182384
-0.00507539
0.000179106
-0.00695535
0.00297819
-0.00912537
0.00666748
-0.0115802
0.0113353
-0.0143062
0.017061
-0.0172823
0.0239116
-0.0204815
0.0319398
-0.0238732
0.0411816
-0.0274258
0.0516554
-0.0311089
0.0633637
-0.0349023
0.0762753
-0.0387541
0.0904013
-0.0428268
0.105506
-0.0463785
-0.0520052
0.121951
-0.000202203
0.000696012
-0.000633923
0.00132392
-0.00113943
0.00144454
-0.00157243
0.00117075
-0.00179679
0.000553291
-0.00168495
-0.000393014
-0.00111526
-0.00167489
3.00862e-05
-0.00331044
0.0018674
-0.00531953
0.00450777
-0.00771576
0.00805722
-0.0105048
0.0126114
-0.0136795
0.0182506
-0.0172194
0.025035
-0.0210906
0.0330004
-0.0252477
0.0421558
-0.0296369
0.0524823
-0.0341997
0.063934
-0.0388775
0.07644
-0.043615
0.089906
-0.0483683
0.104225
-0.0530728
0.119243
-0.057845
0.134896
-0.062032
-0.0679079
0.150799
-0.000119555
0.000815567
-0.000333936
0.0015383
-0.000496209
0.00160681
-0.000458108
0.00113265
-7.3431e-05
0.000168613
0.000800809
-0.00126725
0.00230425
-0.00317834
0.00457129
-0.00557748
0.00772776
-0.00847599
0.0118869
-0.0118749
0.0171411
-0.015759
0.0235554
-0.0200938
0.0311606
-0.0248246
0.0399488
-0.0298788
0.049872
-0.0351708
0.060843
-0.0406079
0.0727406
-0.0460972
0.0854159
-0.0515528
0.0987007
-0.0568998
0.112416
-0.0620834
0.126395
-0.0670519
0.140401
-0.0718508
0.154533
-0.0761641
-0.0812427
0.167868
-3.64312e-05
-1.95175e-05
0.00019496
0.000760982
0.00183587
0.00357626
0.00613331
0.00964579
0.0142313
0.0199758
0.0269236
0.0350691
0.0443524
0.054661
0.0658355
0.0776802
0.089977
0.1025
0.11503
0.127369
0.139352
0.150826
0.161911
0.171996
-0.0316355
0.0287678
-0.0311454
-0.0288104
0.0407587
-0.0435838
-0.0255033
0.0536449
-0.056952
-0.0217459
0.0668766
-0.070634
-0.0175411
0.0798036
-0.0840083
-0.0128108
0.0916708
-0.0964011
-0.00725045
0.101465
-0.107025
-0.000404677
0.10809
-0.114936
0.00822689
0.110272
-0.118904
0.0189086
0.106663
-0.117345
0.0316228
0.0961129
-0.108827
0.0457841
0.0781057
-0.092267
0.0605378
0.0528964
-0.0676501
0.0750714
0.0211597
-0.0356933
0.0889058
-0.0159249
0.00209044
0.101812
-0.0564787
0.0435722
0.113288
-0.096079
0.0846035
0.122537
-0.128928
0.119679
0.128817
-0.151016
0.144735
0.131977
-0.162308
0.159148
0.132597
-0.165522
0.164902
0.131138
-0.163977
0.165435
0.12715
-0.162072
0.16606
0.120301
-0.164628
0.171478
0.112312
-0.170839
0.178828
0.106955
-0.16904
0.174396
0.10736
-0.142961
0.142555
0.113791
-0.0862283
0.0797972
0.12413
-0.0101169
-0.000221499
0.13529
0.0663231
-0.0774835
0.14473
0.127201
-0.136641
0.151333
0.167022
-0.173624
0.155131
0.187253
-0.191052
0.155672
0.196865
-0.197405
0.152017
0.209505
-0.20585
0.144853
0.227569
-0.220404
0.137427
0.234473
-0.227048
0.133415
0.19946
-0.195448
0.134471
0.118956
-0.120013
0.139567
0.0083875
-0.0134834
0.146428
-0.0909323
0.0840714
0.152678
-0.164367
0.158116
0.155637
-0.204097
0.201138
0.153018
-0.226234
0.228853
0.145591
-0.247899
0.255326
0.137571
-0.242671
0.250691
0.1342
-0.210964
0.214334
0.137003
-0.103345
0.100542
0.143816
-0.00081064
-0.00600286
0.149027
0.115262
-0.120473
0.148882
0.19747
-0.197325
0.144349
0.253681
-0.249148
0.140322
0.304527
-0.3005
0.140229
0.215776
-0.215683
0.143302
0.165551
-0.168623
0.144772
-0.0184368
0.016966
0.143753
-0.135841
0.13686
0.141969
-0.224595
0.226379
0.140248
-0.366975
0.368696
-0.149228
0.150865
-0.0352581
0.0257592
-0.031413
0.0369136
-0.0267015
0.0489333
-0.0210924
0.0612676
-0.0144578
0.0731689
-0.00689714
0.0841101
0.00204722
0.0925208
0.0124262
0.0977113
0.024326
0.0983722
0.0376624
0.0933267
0.0520067
0.0817686
0.066628
0.0634844
0.0807597
0.0387647
0.0937952
0.00812422
0.105544
-0.0276736
0.115911
-0.0668458
0.124486
-0.104654
0.130644
-0.135086
0.133965
-0.154337
0.134533
-0.162876
0.133036
-0.164024
0.130132
-0.161073
0.125405
-0.157344
0.11797
-0.157193
0.108806
-0.161676
0.101674
-0.161907
0.100622
-0.141909
0.106715
-0.0923215
0.117885
-0.021286
0.130566
0.0536416
0.141858
0.11591
0.150396
0.158483
0.155874
0.181775
0.157649
0.19509
0.154992
0.212162
0.148878
0.233683
0.142367
0.240984
0.138631
0.203197
0.139094
0.118493
0.142941
0.00454062
0.148184
-0.096175
0.152939
-0.169122
0.154979
-0.206137
0.151915
-0.223169
0.144231
-0.240216
0.136001
-0.234442
0.132751
-0.207713
0.136049
-0.106644
0.143384
-0.00814545
0.148988
0.109658
0.149039
0.19742
0.144705
0.258015
0.140621
0.308611
0.140509
0.215889
0.143818
0.162242
0.145471
-0.0200898
0.144482
-0.134852
0.142583
-0.222696
0.14082
-0.365213
-0.147574
-0.0281676
0.0221417
-0.0233911
0.0321372
-0.017397
0.0429392
-0.0104008
0.0542714
-0.00201103
0.0647791
0.0081945
0.0739046
0.0195069
0.0812084
0.0320023
0.085216
0.0455689
0.0848056
0.0598533
0.0790424
0.0742767
0.0673452
0.0881482
0.0496128
0.100808
0.0261045
0.111844
-0.00291152
0.121296
-0.0371255
0.129062
-0.0746118
0.134747
-0.110338
0.137878
-0.138218
0.138382
-0.154841
0.136629
-0.161123
0.133341
-0.160736
0.129243
-0.156975
0.124061
-0.152163
0.116533
-0.149665
0.106728
-0.15187
0.0979981
-0.153177
0.095163
-0.139074
0.100379
-0.0975374
0.111854
-0.0327609
0.12572
0.0397749
0.138721
0.102909
0.14917
0.148034
0.156365
0.17458
0.159521
0.191934
0.158119
0.213564
0.153265
0.238537
0.147697
0.246552
0.14411
0.206784
0.143863
0.118739
0.146299
0.00210486
0.149913
-0.0997892
0.153143
-0.172351
0.154299
-0.207293
0.150929
-0.219799
0.143146
-0.232433
0.134782
-0.226077
0.131583
-0.204513
0.13525
-0.110311
0.143012
-0.0159072
0.149023
0.103647
0.149326
0.197117
0.145219
0.262122
0.141059
0.312771
0.140892
0.216056
0.144456
0.158678
0.146322
-0.0219549
0.14535
-0.13388
0.143316
-0.220661
0.141513
-0.363411
-0.145922
-0.0124184
0.0179876
-0.0071636
0.0268823
-0.000462772
0.0362383
0.00832198
0.0454866
0.0183247
0.0547764
0.0293753
0.062854
0.0416343
0.0689494
0.0548627
0.0719875
0.0687001
0.0709682
0.0826511
0.0650914
0.0961251
0.0538712
0.108517
0.0372211
0.119316
0.015305
0.128336
-0.0119315
0.135591
-0.0443806
0.140932
-0.0799529
0.143896
-0.113302
0.144169
-0.138491
0.142046
-0.152718
0.13824
-0.157317
0.133473
-0.155969
0.12839
-0.151892
0.12292
-0.146694
0.115726
-0.142471
0.105973
-0.142117
0.0960841
-0.143288
0.0912377
-0.134228
0.0949292
-0.101229
0.106033
-0.0438647
0.12073
0.0250779
0.135258
0.0883815
0.147557
0.135735
0.156494
0.165642
0.161185
0.187243
0.161272
0.213477
0.157859
0.24195
0.153252
0.251159
0.149712
0.210323
0.148579
0.119873
0.149631
0.00105251
0.15159
-0.101748
0.153288
-0.174049
0.153572
-0.207577
0.150001
-0.216229
0.142264
-0.224696
0.133845
-0.217658
0.130628
-0.201296
0.134539
-0.114222
0.142659
-0.0240277
0.149106
0.0972001
0.149736
0.196486
0.145905
0.265953
0.141664
0.317012
0.1414
0.21632
0.14522
0.154858
0.147316
-0.024051
0.146353
-0.132918
0.144166
-0.218474
0.142319
-0.361564
-0.14429
0.00905203
0.012886
0.0152048
0.0207296
0.022697
0.0287461
0.0313344
0.0368493
0.0413815
0.0447293
0.0526047
0.0516307
0.0648296
0.0567245
0.0777435
0.0590737
0.0909008
0.0578108
0.103766
0.0522258
0.115788
0.0418493
0.126482
0.026527
0.135532
0.00625582
0.142821
-0.0192208
0.148202
-0.049762
0.151308
-0.083058
0.151653
-0.113648
0.149223
-0.13606
0.14473
-0.148225
0.139186
-0.151773
0.1333
-0.150083
0.127505
-0.146097
0.121858
-0.141047
0.11524
-0.135854
0.10618
-0.133056
0.0958345
-0.132943
0.0890502
-0.127444
0.0905878
-0.102766
0.100633
-0.0539098
0.115641
0.0100699
0.131416
0.0726066
0.145428
0.121722
0.1561
0.154971
0.162463
0.180879
0.164257
0.211683
0.162447
0.24376
0.158833
0.254773
0.155258
0.213898
0.15317
0.121961
0.152817
0.00140557
0.153168
-0.102099
0.153349
-0.17423
0.15277
-0.206998
0.149083
-0.212542
0.141518
-0.217131
0.133116
-0.209257
0.129813
-0.197993
0.13385
-0.118258
0.142274
-0.0324515
0.149203
0.0902712
0.150257
0.195432
0.146772
0.269437
0.142458
0.321327
0.142049
0.216729
0.146102
0.150805
0.148442
-0.0263902
0.147485
-0.131961
0.145128
-0.216117
0.143227
-0.359664
-0.142695
0.0329265
0.00788402
0.038846
0.0148101
0.0459612
0.0216309
0.0543833
0.0284272
0.0640588
0.0350537
0.0747856
0.040904
0.086325
0.0451851
0.0983261
0.0470726
0.110327
0.04581
0.121814
0.0407386
0.132307
0.0313562
0.141407
0.0174273
0.149103
-0.00143994
0.154944
-0.0250619
0.158708
-0.0535261
0.159744
-0.0840946
0.157647
-0.11155
0.152801
-0.131214
0.146309
-0.141733
0.139377
-0.144842
0.132696
-0.143402
0.12646
-0.139861
0.12071
-0.135297
0.114731
-0.129874
0.106848
-0.125174
0.0968915
-0.122986
0.0886541
-0.119206
0.0876797
-0.101792
0.0958607
-0.0620907
0.110541
-0.00461037
0.127145
0.0560029
0.142639
0.106227
0.154987
0.142623
0.163128
0.172739
0.166809
0.208002
0.166757
0.243813
0.164208
0.257321
0.16058
0.217527
0.157498
0.125043
0.155755
0.00314808
0.154583
-0.100927
0.153293
-0.172941
0.151852
-0.205557
0.148114
-0.208804
0.140831
-0.209849
0.132511
-0.200937
0.129059
-0.194541
0.133113
-0.122312
0.141795
-0.0411338
0.149266
0.0828005
0.15086
0.193838
0.147816
0.272481
0.143455
0.325688
0.142853
0.217331
0.147098
0.146559
0.149684
-0.028976
0.148734
-0.131011
0.146194
-0.213577
0.144226
-0.357696
-0.141154
0.0587661
0.00433784
0.0633802
0.0101959
0.0692847
0.0157264
0.0766114
0.0211005
0.0851975
0.0264676
0.0948129
0.0312886
0.105185
0.0348126
0.115942
0.036316
0.126627
0.0351253
0.136764
0.0306014
0.145944
0.0221762
0.15378
0.00959089
0.160251
-0.0079105
0.164839
-0.0296502
0.167
-0.0556866
0.165989
-0.0830838
0.16163
-0.107192
0.154726
-0.124311
0.146672
-0.133679
0.138732
-0.136902
0.131544
-0.136214
0.125116
-0.133433
0.11935
-0.129531
0.113908
-0.124433
0.107396
-0.118661
0.0986356
-0.114226
0.0898117
-0.110382
0.0863912
-0.0983716
0.092085
-0.0677845
0.105524
-0.0180494
0.122443
0.0390844
0.139078
0.0895923
0.152973
0.128728
0.162936
0.162776
0.168652
0.202286
0.170518
0.241946
0.169153
0.258687
0.165539
0.221141
0.161454
0.129128
0.15833
0.00627217
0.155769
-0.0983653
0.153082
-0.170253
0.150779
-0.203254
0.147034
-0.205059
0.14013
-0.202944
0.131949
-0.192756
0.128287
-0.19088
0.132253
-0.126277
0.141156
-0.0500375
0.149238
0.0747185
0.151507
0.19157
0.149022
0.274966
0.144659
0.330051
0.14382
0.21817
0.148198
0.142181
0.151027
-0.0318052
0.150089
-0.130073
0.147355
-0.210843
0.145304
-0.355644
-0.139685
0.0885245
0.00340703
0.0908024
0.00791799
0.0945717
0.0119571
0.0998528
0.0158194
0.106456
0.0198648
0.1142
0.0235445
0.122815
0.0261978
0.131914
0.0272167
0.141049
0.0259899
0.149758
0.0218927
0.157642
0.0142926
0.1643
0.00293279
0.169467
-0.0130777
0.1726
-0.0327828
0.17293
-0.0560166
0.169818
-0.0799726
0.163432
-0.100806
0.154915
-0.115794
0.145789
-0.124553
0.137232
-0.128345
0.129777
-0.128759
0.123343
-0.126998
0.117672
-0.12386
0.112622
-0.119382
0.107356
-0.113396
0.100313
-0.107182
0.0919576
-0.102027
0.0866966
-0.0931106
0.0894849
-0.0705729
0.100896
-0.0294604
0.117377
0.0226034
0.134686
0.0722835
0.149917
0.113496
0.161679
0.151014
0.169492
0.194473
0.173382
0.238056
0.173343
0.258726
0.169882
0.224601
0.164901
0.134109
0.160477
0.0106961
0.156652
-0.0945403
0.152669
-0.16627
0.149504
-0.20009
0.14578
-0.201335
0.139343
-0.196508
0.131352
-0.184764
0.127423
-0.186951
0.131203
-0.130057
0.140287
-0.0591214
0.149056
0.0659494
0.152143
0.188482
0.150357
0.276752
0.14606
0.334348
0.144952
0.219278
0.149392
0.137741
0.152453
-0.034866
0.151536
-0.129156
0.148596
-0.207904
0.146446
-0.353493
-0.138307
0.120656
0.00470299
0.120749
0.00782491
0.122241
0.0104651
0.125097
0.0129633
0.129248
0.0157137
0.134602
0.0181907
0.140921
0.0198782
0.147857
0.0202815
0.155001
0.0188453
0.161893
0.0150009
0.167985
0.00820004
0.173318
-0.00240004
0.176675
-0.0164343
0.177892
-0.034
0.176125
-0.0542498
0.170973
-0.0748205
0.162937
-0.0927692
0.153336
-0.106193
0.143635
-0.114852
0.134826
-0.119535
0.1273
-0.121233
0.120969
-0.120667
0.115501
-0.118392
0.110755
-0.114636
0.10643
-0.10907
0.101202
-0.101954
0.0942438
-0.0950689
0.0881985
-0.0870653
0.0882245
-0.0705988
0.0968862
-0.0381221
0.112085
0.00740442
0.129469
0.0548994
0.145721
0.0972444
0.159168
0.137567
0.169127
0.184513
0.175186
0.231997
0.176591
0.257321
0.173408
0.227784
0.167729
0.139789
0.16206
0.0163646
0.157133
-0.0896131
0.151985
-0.161122
0.147966
-0.196071
0.144271
-0.19764
0.138402
-0.190638
0.130658
-0.177021
0.126403
-0.182696
0.129903
-0.133556
0.139118
-0.068337
0.148646
0.0564212
0.152708
0.184421
0.151778
0.277682
0.147635
0.338491
0.146238
0.220675
0.150668
0.133312
0.15394
-0.038138
0.153056
-0.128273
0.149902
-0.204749
0.147636
-0.351228
-0.137045
0.148551
0.00695148
0.147576
0.00880009
0.14766
0.0103804
0.148707
0.0119164
0.15087
0.0135504
0.154085
0.0149757
0.158146
0.0158178
0.162787
0.01564
0.167677
0.0139556
0.172432
0.010246
0.176562
0.00407015
0.179644
-0.00548198
0.180947
-0.0177377
0.179977
-0.0330304
0.176114
-0.0503868
0.169244
-0.0679497
0.160094
-0.0836197
0.149969
-0.0960679
0.140128
-0.10501
0.131346
-0.110754
0.123899
-0.113786
0.117729
-0.114497
0.112544
-0.113207
0.108116
-0.110208
0.10443
-0.105385
0.100756
-0.0982807
0.0957273
-0.0900398
0.0901094
-0.0814475
0.0881155
-0.0686049
0.0937344
-0.043741
0.1068
-0.00566123
0.123519
0.0381806
0.140359
0.0804045
0.155272
0.122654
0.167264
0.172522
0.175477
0.223783
0.178507
0.254292
0.17587
0.230421
0.169688
0.14597
0.163094
0.0229582
0.157156
-0.0836744
0.150989
-0.154955
0.14613
-0.191212
0.142447
-0.193957
0.137245
-0.185436
0.129832
-0.169607
0.125195
-0.178059
0.128307
-0.136668
0.137589
-0.0776188
0.14794
0.0460699
0.153123
0.179237
0.153216
0.277589
0.149345
0.342362
0.14767
0.22235
0.152004
0.128977
0.155469
-0.0416031
0.15463
-0.127434
0.151254
-0.201373
0.148862
-0.348835
-0.135928
0.165866
0.00895301
0.164847
0.00981931
0.164465
0.0107624
0.164719
0.0116622
0.165836
0.0124332
0.167741
0.0130707
0.170253
0.0133057
0.173162
0.0127313
0.176198
0.0109194
0.17899
0.00745401
0.180972
0.00208853
0.181995
-0.00650508
0.181332
-0.017075
0.178445
-0.0301436
0.172962
-0.0449029
0.165032
-0.0600199
0.155466
-0.0740538
0.145396
-0.0859982
0.135809
-0.095423
0.127287
-0.102232
0.120029
-0.106528
0.114022
-0.10849
0.10909
-0.108275
0.104964
-0.106082
0.101658
-0.102079
0.0990208
-0.0956438
0.0958768
-0.0868957
0.0916026
-0.0771733
0.0887186
-0.0657209
0.0915421
-0.0465645
0.101801
-0.0159204
0.117013
0.0229685
0.133854
0.0635641
0.150008
0.106499
0.164097
0.158434
0.174659
0.21322
0.179378
0.249574
0.177303
0.232496
0.170997
0.152276
0.163561
0.0303937
0.156837
-0.0769497
0.149805
-0.147924
0.144134
-0.18554
0.140384
-0.190207
0.135893
-0.180946
0.128895
-0.162609
0.123844
-0.173007
0.126425
-0.13925
0.135652
-0.0868453
0.146854
0.0348676
0.153319
0.172772
0.154614
0.276294
0.151137
0.345839
0.149225
0.224261
0.153386
0.124817
0.157022
-0.0452391
0.156239
-0.126651
0.152637
-0.197771
0.150115
-0.346313
-0.134991
0.171156
0.00979382
0.170496
0.0104789
0.17027
0.0109886
0.170517
0.0114146
0.171224
0.0117269
0.172421
0.0118733
0.174023
0.011704
0.175832
0.0109219
0.177597
0.0091543
0.179031
0.00602047
0.180057
0.00106258
0.179415
-0.00586334
0.177298
-0.0149576
0.173216
-0.0260622
0.167021
-0.0387078
0.159003
-0.0520021
0.149888
-0.0649383
0.140538
-0.0766489
0.131659
-0.0865438
0.123679
-0.0942519
0.116768
-0.0996166
0.110949
-0.102672
0.10618
-0.103505
0.102255
-0.102157
0.0991065
-0.0989303
0.0969173
-0.0934546
0.0951091
-0.0850875
0.0924631
-0.0745273
0.0897404
-0.0629982
0.0905127
-0.0473368
0.0974955
-0.0229032
0.110441
0.0100231
0.12632
0.0476846
0.14282
0.0899992
0.158406
0.142848
0.171281
0.200345
0.178078
0.242777
0.177225
0.233349
0.171227
0.158273
0.163674
0.0379469
0.156134
-0.0694096
0.148483
-0.140273
0.142122
-0.179179
0.138211
-0.186297
0.134399
-0.177134
0.127871
-0.15608
0.122422
-0.167558
0.124384
-0.141212
0.133414
-0.0958752
0.145383
0.0228981
0.153187
0.164969
0.155854
0.273627
0.15296
0.348733
0.150888
0.226333
0.154792
0.120913
0.158574
-0.0490213
0.157854
-0.125931
0.154046
-0.193962
0.151391
-0.343659
-0.134256
0.19055
0.0108268
-0.191583
0.190061
0.0109672
0.189839
0.011211
0.189905
0.0113487
0.190333
0.0112986
0.191199
0.0110071
0.192562
0.0103411
0.194433
0.00905147
0.196749
0.0068381
0.199322
0.00344701
0.201873
-0.00148825
0.204109
-0.00809885
0.205604
-0.0164528
0.205903
-0.0263613
0.204639
-0.0374441
0.201692
-0.0490543
0.197205
-0.060452
0.191488
-0.0709316
0.184889
-0.0799448
0.177741
-0.0871041
0.170334
-0.0922096
0.162885
-0.0952224
0.155582
-0.0962029
0.148489
-0.0950637
0.141551
-0.0919916
0.13495
-0.0868537
0.128745
-0.0788824
0.122044
-0.0678266
0.114256
-0.0552105
0.107295
-0.0403759
0.104566
-0.0201741
0.107276
0.00731315
0.113763
0.0411983
0.121258
0.0825036
0.128196
0.13591
0.134819
0.193723
0.141983
0.235613
0.151379
0.223952
0.16232
0.147333
0.170416
0.0298502
0.173613
-0.0726066
0.170754
-0.137413
0.164402
-0.172827
0.157733
-0.179628
0.150643
-0.170044
0.141831
-0.147268
0.133416
-0.159144
0.130059
-0.137855
0.1317
-0.0975161
0.13525
0.0193482
0.137015
0.163204
0.137133
0.273509
0.137106
0.34876
0.139555
0.223884
0.146415
0.114053
0.151537
-0.0541437
0.150241
-0.124635
0.145539
-0.18926
0.140292
-0.338411
-0.131353
0.202874
0.0110615
-0.203108
0.202904
0.010937
0.2032
0.0109149
0.203748
0.0108004
0.204572
0.0104746
0.205717
0.00986232
0.207208
0.00884997
0.209008
0.00725161
0.211007
0.00483858
0.213058
0.00139616
0.214926
-0.00335561
0.216314
-0.00948723
0.216883
-0.0170222
0.21633
-0.0258081
0.214424
-0.0355377
0.211092
-0.0457225
0.206428
-0.0557879
0.20065
-0.0651534
0.194046
-0.0733408
0.186924
-0.079982
0.179575
-0.0848611
0.17221
-0.0878578
0.164986
-0.0889782
0.158004
-0.0880815
0.151213
-0.0852005
0.144658
-0.0802988
0.138607
-0.0728316
0.13265
-0.0618697
0.125812
-0.048373
0.118787
-0.0333508
0.11438
-0.0157666
0.115136
0.00655729
0.120465
0.0358688
0.12803
0.0749382
0.135949
0.127991
0.143927
0.185745
0.152849
0.226692
0.164193
0.212608
0.176236
0.13529
0.184734
0.0213521
0.187171
-0.0750439
0.1833
-0.133542
0.175774
-0.1653
0.168179
-0.172034
0.16077
-0.162634
0.15173
-0.138228
0.142796
-0.150209
0.13872
-0.133778
0.140042
-0.0988381
0.143909
0.0154809
0.146295
0.160818
0.147327
0.272477
0.148086
0.348001
0.150742
0.221228
0.157773
0.107022
0.16293
-0.0593008
0.161308