/*--------------------------------*- C++ -*----------------------------------*\
| =========                 |                                                 |
| \\      /  F ield         | OpenFOAM: The Open Source CFD Toolbox           |
|  \\    /   O peration     | Version:  2512                                  |
|   \\  /    A nd           | Website:  www.openfoam.com                      |
|    \\/     M anipulation  |                                                 |
\*---------------------------------------------------------------------------*/
FoamFile
{
    version     2.0;
    format      ascii;
    arch        "LSB;label=32;scalar=64";
    class       volScalarField;
    location    "118";
    object      p;
}
// * * * * * * * * * * * * * * * * * * * * * * * * * * * * * * * * * * * * * //

dimensions      [0 2 -2 0 0 0 0];

internalField   nonuniform List<scalar> 
13248
(
-0.462379
-0.459271
-0.455619
-0.451736
-0.448023
-0.444911
-0.442671
-0.44137
-0.440861
-0.440804
-0.4407
-0.439952
-0.437942
-0.434112
-0.428038
-0.419477
-0.408385
-0.3949
-0.379287
-0.361898
-0.342963
-0.322878
-0.300706
-0.277319
-0.471322
-0.467643
-0.463402
-0.458912
-0.454536
-0.450657
-0.447475
-0.444962
-0.442881
-0.44082
-0.438258
-0.434653
-0.429519
-0.422504
-0.413424
-0.402274
-0.389197
-0.374437
-0.358286
-0.341025
-0.32288
-0.304062
-0.284431
-0.264814
-0.482331
-0.477801
-0.472836
-0.467689
-0.462613
-0.457892
-0.45361
-0.449621
-0.445602
-0.441118
-0.435714
-0.428998
-0.420703
-0.410718
-0.399085
-0.385962
-0.371578
-0.356186
-0.340021
-0.323292
-0.306142
-0.288759
-0.271038
-0.253474
-0.495464
-0.489823
-0.483991
-0.478098
-0.472204
-0.466447
-0.460763
-0.454893
-0.448477
-0.441149
-0.432619
-0.422723
-0.411438
-0.398868
-0.385199
-0.370653
-0.355454
-0.339794
-0.323836
-0.307709
-0.29152
-0.275397
-0.259301
-0.243703
-0.510623
-0.503661
-0.496833
-0.490065
-0.483152
-0.476041
-0.468525
-0.460284
-0.451017
-0.440531
-0.42878
-0.415849
-0.401925
-0.38724
-0.372027
-0.35649
-0.340791
-0.32505
-0.309355
-0.293774
-0.278367
-0.263199
-0.248254
-0.233811
-0.527588
-0.519169
-0.511237
-0.503429
-0.495199
-0.48629
-0.476403
-0.465261
-0.452744
-0.438925
-0.424023
-0.408336
-0.392171
-0.375793
-0.359409
-0.343158
-0.327126
-0.311364
-0.295903
-0.280765
-0.265973
-0.25155
-0.237494
-0.223976
-0.546008
-0.536075
-0.526951
-0.517882
-0.507923
-0.496652
-0.48379
-0.469251
-0.453213
-0.436049
-0.418209
-0.400113
-0.382094
-0.364378
-0.347097
-0.330314
-0.314046
-0.298289
-0.283029
-0.268254
-0.253955
-0.240124
-0.226762
-0.213916
-0.565362
-0.553937
-0.543531
-0.532901
-0.52069
-0.506414
-0.48999
-0.471676
-0.452014
-0.43165
-0.411175
-0.391032
-0.3715
-0.35272
-0.33474
-0.317549
-0.301107
-0.285369
-0.270288
-0.255824
-0.241943
-0.22862
-0.21585
-0.203581
-0.584921
-0.572092
-0.560295
-0.547712
-0.532643
-0.514727
-0.494274
-0.472001
-0.448805
-0.425519
-0.402765
-0.380925
-0.360174
-0.340557
-0.322037
-0.304542
-0.287989
-0.272299
-0.257398
-0.243225
-0.229726
-0.216865
-0.204615
-0.192854
-0.603722
-0.589628
-0.576284
-0.561281
-0.54274
-0.520663
-0.495931
-0.469748
-0.443288
-0.417452
-0.392797
-0.369584
-0.347873
-0.32761
-0.308689
-0.29099
-0.274394
-0.258794
-0.244097
-0.23022
-0.217096
-0.204676
-0.1929
-0.181624
-0.620596
-0.605394
-0.590291
-0.572356
-0.549799
-0.523234
-0.494209
-0.464363
-0.435022
-0.407042
-0.380849
-0.35656
-0.334121
-0.313393
-0.294213
-0.27642
-0.259866
-0.244423
-0.229978
-0.216433
-0.203708
-0.191736
-0.18042
-0.169634
-0.634283
-0.618154
-0.60106
-0.57969
-0.552662
-0.521423
-0.488219
-0.455029
-0.423205
-0.393473
-0.366084
-0.341009
-0.318081
-0.297088
-0.277816
-0.260071
-0.243681
-0.228497
-0.21439
-0.20125
-0.188989
-0.177523
-0.166724
-0.156534
-0.356367
-0.358466
-0.359817
-0.360918
-0.362206
-0.363811
-0.36576
-0.368037
-0.370596
-0.373368
-0.376265
-0.379179
-0.381971
-0.384443
-0.386429
-0.387722
-0.388083
-0.387282
-0.385114
-0.381424
-0.376128
-0.36923
-0.360852
-0.351323
-0.369927
-0.371451
-0.37261
-0.373819
-0.375451
-0.377634
-0.380393
-0.383709
-0.38753
-0.39178
-0.39636
-0.401141
-0.405956
-0.410582
-0.414731
-0.418181
-0.420529
-0.421417
-0.420483
-0.417403
-0.411919
-0.403842
-0.393063
-0.379975
-0.383482
-0.384286
-0.385143
-0.38636
-0.388223
-0.390854
-0.394281
-0.398476
-0.403379
-0.408903
-0.414937
-0.421327
-0.427878
-0.434331
-0.440363
-0.445525
-0.449441
-0.451578
-0.451436
-0.448524
-0.442426
-0.432803
-0.419342
-0.402364
-0.396408
-0.396413
-0.396868
-0.397962
-0.399891
-0.402773
-0.406635
-0.411444
-0.417129
-0.423589
-0.430692
-0.438256
-0.446046
-0.453758
-0.461003
-0.467291
-0.472195
-0.474905
-0.474896
-0.471545
-0.464318
-0.452785
-0.436554
-0.415642
-0.408164
-0.40737
-0.407349
-0.408174
-0.409963
-0.412839
-0.416835
-0.421917
-0.428001
-0.434973
-0.442673
-0.450894
-0.459358
-0.467716
-0.475527
-0.482252
-0.487274
-0.489873
-0.489338
-0.484978
-0.476198
-0.462524
-0.443842
-0.419365
-0.418375
-0.416871
-0.416331
-0.416744
-0.418174
-0.420761
-0.424559
-0.429539
-0.435613
-0.44265
-0.450469
-0.458831
-0.4674
-0.475798
-0.483532
-0.490003
-0.494521
-0.496334
-0.494678
-0.488837
-0.478258
-0.462418
-0.441857
-0.41461
-0.426895
-0.424839
-0.423776
-0.423655
-0.424522
-0.426551
-0.429831
-0.43435
-0.440025
-0.446715
-0.454228
-0.462322
-0.47045
-0.478363
-0.485473
-0.491119
-0.494567
-0.495041
-0.491785
-0.484118
-0.471651
-0.453827
-0.431912
-0.403054
-0.433828
-0.431412
-0.429857
-0.429116
-0.42926
-0.430512
-0.43301
-0.436772
-0.441725
-0.447718
-0.454511
-0.461763
-0.46927
-0.47633
-0.482369
-0.486704
-0.48858
-0.487237
-0.481992
-0.472276
-0.457938
-0.438519
-0.415734
-0.386538
-0.439521
-0.436927
-0.434928
-0.433523
-0.432847
-0.433185
-0.434729
-0.43754
-0.441564
-0.446642
-0.452525
-0.458863
-0.465212
-0.470977
-0.475493
-0.478032
-0.477852
-0.474269
-0.466754
-0.454948
-0.438951
-0.418554
-0.395505
-0.367094
-0.444525
-0.441877
-0.439476
-0.437402
-0.435878
-0.435255
-0.43578
-0.437551
-0.440529
-0.444554
-0.449329
-0.454437
-0.459347
-0.463417
-0.465938
-0.466186
-0.463497
-0.45735
-0.447442
-0.433717
-0.416507
-0.395946
-0.373533
-0.346869
-0.449528
-0.446851
-0.444061
-0.441338
-0.438995
-0.43744
-0.436959
-0.437677
-0.439556
-0.442396
-0.445845
-0.449412
-0.452491
-0.454397
-0.454429
-0.451945
-0.446435
-0.437599
-0.425379
-0.410007
-0.391964
-0.371799
-0.350752
-0.326806
-0.455264
-0.452464
-0.44926
-0.445918
-0.442822
-0.440411
-0.438991
-0.438678
-0.4394
-0.440901
-0.442754
-0.444397
-0.44518
-0.444436
-0.441553
-0.436052
-0.427646
-0.416269
-0.402057
-0.385369
-0.366602
-0.346492
-0.32574
-0.304435
-0.339501
-0.324967
-0.311613
-0.30074
-0.293698
-0.291323
-0.29352
-0.29915
-0.305814
-0.310535
-0.309447
-0.299537
-0.278778
-0.248266
-0.2121
-0.176233
-0.146103
-0.124889
-0.113206
-0.110149
-0.115247
-0.129383
-0.152275
-0.178319
-0.196482
-0.196347
-0.177183
-0.147277
-0.116952
-0.0928497
-0.0772554
-0.0694744
-0.068013
-0.0735688
-0.0875051
-0.105722
-0.117615
-0.114373
-0.0988691
-0.0806351
-0.0666575
-0.058444
-0.0557837
-0.0609528
-0.0714587
-0.0782161
-0.0750721
-0.0647551
-0.0535838
-0.0449615
-0.0388496
-0.03751
-0.0363813
-0.0347313
-0.0329629
-0.028989
-0.020752
-0.0154787
-0.010466
-0.00463065
-0.363923
-0.342044
-0.319954
-0.299117
-0.28141
-0.268477
-0.261038
-0.258748
-0.25945
-0.262304
-0.261439
-0.253304
-0.236965
-0.212852
-0.184168
-0.155834
-0.132536
-0.117117
-0.110179
-0.111159
-0.12025
-0.138733
-0.165835
-0.194909
-0.213957
-0.212251
-0.189942
-0.156291
-0.122548
-0.0955631
-0.0773925
-0.0672289
-0.0634395
-0.066272
-0.0770586
-0.0926601
-0.103583
-0.101618
-0.0889184
-0.0740652
-0.0632565
-0.0577585
-0.0576883
-0.0655158
-0.078608
-0.0866179
-0.0829479
-0.070324
-0.0565681
-0.0457933
-0.037602
-0.0346116
-0.0317968
-0.0301526
-0.0286585
-0.0259122
-0.0195541
-0.0155615
-0.0119931
-0.00569024
-0.383249
-0.354836
-0.324806
-0.294754
-0.26706
-0.243914
-0.226534
-0.215323
-0.209945
-0.206547
-0.208049
-0.201946
-0.189829
-0.172571
-0.151749
-0.131286
-0.115099
-0.105618
-0.103427
-0.108374
-0.121312
-0.143743
-0.174425
-0.205981
-0.225896
-0.223375
-0.198961
-0.162619
-0.126286
-0.0970344
-0.0767253
-0.0644533
-0.0585209
-0.0587705
-0.0664325
-0.0793567
-0.0892445
-0.0884827
-0.0785046
-0.0669503
-0.0592471
-0.0564834
-0.0590681
-0.0695511
-0.0851894
-0.0944854
-0.0903639
-0.0755455
-0.0592231
-0.0463993
-0.0363187
-0.0318675
-0.0274525
-0.0257
-0.0243252
-0.0227733
-0.0183186
-0.0156224
-0.0135159
-0.00676321
-0.393997
-0.360956
-0.32442
-0.286832
-0.251247
-0.219494
-0.19279
-0.172378
-0.160794
-0.153279
-0.149109
-0.147801
-0.139464
-0.129195
-0.116096
-0.103314
-0.0940035
-0.0901712
-0.0923639
-0.100939
-0.11734
-0.143233
-0.177026
-0.210799
-0.231776
-0.229371
-0.203997
-0.166095
-0.12811
-0.097311
-0.0753979
-0.0613801
-0.0535591
-0.0514497
-0.0561326
-0.0663703
-0.0750905
-0.0754113
-0.0679219
-0.059462
-0.0547024
-0.0545853
-0.0597653
-0.0728011
-0.0909234
-0.101558
-0.097139
-0.0803225
-0.0615181
-0.0467733
-0.0350065
-0.0292956
-0.0233862
-0.0214196
-0.020013
-0.0196044
-0.0170594
-0.015659
-0.0150213
-0.00784037
-0.395449
-0.359423
-0.319024
-0.277134
-0.235694
-0.196861
-0.162119
-0.131893
-0.117238
-0.103562
-0.0944394
-0.0941116
-0.0895495
-0.0843761
-0.0781357
-0.0723709
-0.0693356
-0.0705403
-0.0766508
-0.0885429
-0.108109
-0.137077
-0.173546
-0.209273
-0.231482
-0.23015
-0.205039
-0.166798
-0.128189
-0.0965686
-0.0735744
-0.0582079
-0.0488052
-0.0446353
-0.046545
-0.0541395
-0.0615748
-0.0628816
-0.0574269
-0.051755
-0.0496747
-0.0520132
-0.0596318
-0.0750577
-0.0955468
-0.107564
-0.103086
-0.0845646
-0.0634372
-0.0469229
-0.0336712
-0.0268991
-0.0196248
-0.0173534
-0.0157724
-0.0164383
-0.0157888
-0.0156686
-0.0164928
-0.00891079
-0.388612
-0.351351
-0.310129
-0.266664
-0.222376
-0.179439
-0.13989
-0.105745
-0.0804696
-0.0614909
-0.0488658
-0.044032
-0.0413667
-0.0399006
-0.0392296
-0.0392829
-0.0415509
-0.0471073
-0.0568007
-0.0718559
-0.0943852
-0.126005
-0.164612
-0.201953
-0.225448
-0.225907
-0.202189
-0.164867
-0.126696
-0.0949794
-0.0714021
-0.0550699
-0.0444009
-0.0385258
-0.037973
-0.0430306
-0.0490746
-0.0509222
-0.0472374
-0.0439885
-0.0442301
-0.0487564
-0.0585853
-0.076164
-0.0988501
-0.112293
-0.108031
-0.0881872
-0.0649697
-0.0468551
-0.0323124
-0.0246673
-0.0161843
-0.0135341
-0.011651
-0.013303
-0.0145172
-0.0156472
-0.0179121
-0.00996327
-0.375457
-0.338547
-0.299342
-0.257319
-0.213175
-0.169231
-0.127576
-0.0900728
-0.0586702
-0.033824
-0.01599
-0.00568656
-0.000902501
-0.000167699
-0.00219958
-0.00602749
-0.0121823
-0.0213304
-0.0342718
-0.0523335
-0.0775687
-0.111327
-0.151412
-0.189882
-0.214332
-0.21731
-0.195857
-0.160576
-0.123833
-0.0927108
-0.0690079
-0.0520548
-0.0404187
-0.0331736
-0.0305435
-0.0332556
-0.0378599
-0.0397885
-0.0376141
-0.0363395
-0.0384852
-0.044863
-0.0565896
-0.0760235
-0.100702
-0.11558
-0.11183
-0.0911113
-0.0661038
-0.0465768
-0.0309305
-0.0225777
-0.0130624
-0.00998492
-0.0076925
-0.0102201
-0.0132531
-0.01559
-0.0192611
-0.0109869
-0.358074
-0.322795
-0.287685
-0.249479
-0.208011
-0.165718
-0.12454
-0.0859049
-0.051312
-0.0219465
0.00124951
0.0175192
0.0270719
0.0304441
0.0290329
0.0241052
0.0159251
0.00433444
-0.0112317
-0.0319063
-0.0593808
-0.0946134
-0.135431
-0.174525
-0.199259
-0.205225
-0.186565
-0.154224
-0.119763
-0.0898651
-0.0664617
-0.0492039
-0.0368822
-0.0285862
-0.0242664
-0.0248939
-0.0280783
-0.0299093
-0.0288144
-0.0290006
-0.0325882
-0.0404193
-0.0536803
-0.0746132
-0.101036
-0.117322
-0.114392
-0.0932769
-0.066836
-0.0461013
-0.0295334
-0.0206219
-0.010246
-0.00671312
-0.0039356
-0.00720488
-0.0120039
-0.0154924
-0.0205228
-0.0119712
-0.338581
-0.306114
-0.276149
-0.242811
-0.205466
-0.166646
-0.127939
-0.0903326
-0.0550531
-0.023376
0.00364543
0.0251232
0.0403789
0.0488599
0.0506116
0.0473147
0.0393903
0.0270315
0.0099825
-0.0124653
-0.0414004
-0.0772899
-0.118066
-0.157443
-0.186281
-0.190709
-0.174939
-0.14625
-0.114774
-0.0866518
-0.0639379
-0.0466583
-0.033898
-0.0248257
-0.0191753
-0.018
-0.0198046
-0.0213893
-0.0210027
-0.0221442
-0.0267174
-0.0355365
-0.0498763
-0.0719663
-0.0998963
-0.117513
-0.115675
-0.0946715
-0.0672161
-0.045488
-0.0281503
-0.0188191
-0.00775698
-0.00371969
-0.000409463
-0.00426502
-0.0107764
-0.0153505
-0.0216805
-0.0129062
-0.319305
-0.290764
-0.265922
-0.237148
-0.204221
-0.16967
-0.134494
-0.0993245
-0.0650562
-0.032955
-0.00418673
0.020336
0.0399508
0.0541292
0.0606276
0.0607641
0.0553508
0.0441744
0.0271976
0.00426919
-0.0249457
-0.0603738
-0.100101
-0.138468
-0.166772
-0.173839
-0.161775
-0.137406
-0.109508
-0.083621
-0.0619141
-0.0448069
-0.0317541
-0.0220797
-0.0153516
-0.0126111
-0.0131005
-0.0142982
-0.0142717
-0.0159039
-0.020999
-0.0303597
-0.0453982
-0.0682073
-0.0973027
-0.116172
-0.115744
-0.0953036
-0.0673377
-0.0448413
-0.0268264
-0.0171584
-0.00564236
-0.00104565
0.002852
-0.00140031
-0.00957846
-0.0151591
-0.0227174
-0.0137808
-0.30221
-0.27895
-0.258488
-0.233257
-0.204437
-0.174188
-0.142804
-0.110597
-0.0782078
-0.0467155
-0.0171485
0.00952462
0.0324871
0.0526477
0.0610639
0.0644852
0.0630424
0.0549518
0.0398461
0.0178572
-0.0105891
-0.0448206
-0.0827581
-0.119227
-0.147767
-0.155243
-0.147101
-0.127633
-0.103883
-0.0806566
-0.0602521
-0.0434836
-0.0302422
-0.0201215
-0.01253
-0.00841461
-0.00769172
-0.0085454
-0.00873235
-0.0105145
-0.0156907
-0.0249298
-0.0400886
-0.0634212
-0.0936217
-0.113416
-0.114645
-0.0949166
-0.0670366
-0.0440543
-0.025488
-0.0154974
-0.00376078
0.0012866
0.00574679
0.00139984
-0.0084102
-0.0149164
-0.0236195
-0.0145796
-0.286238
-0.270494
-0.253296
-0.230652
-0.205834
-0.179954
-0.152452
-0.123517
-0.0939236
-0.0646155
-0.0364013
-0.0101702
0.0130712
0.0314297
0.049508
0.0592349
0.0614364
0.0572884
0.045945
0.0271613
0.00164506
-0.029451
-0.0638971
-0.0969377
-0.117301
-0.132114
-0.128477
-0.114235
-0.0949146
-0.0747294
-0.0561642
-0.0403059
-0.0273766
-0.0173034
-0.00938173
-0.00434364
-0.00259569
-0.00322464
-0.00387325
-0.00576376
-0.0109775
-0.019868
-0.0347243
-0.057903
-0.0884443
-0.109145
-0.111072
-0.0929826
-0.065577
-0.0424637
-0.0237404
-0.0135954
-0.00166716
0.00358535
0.00841468
0.0040892
-0.007298
-0.0146104
-0.024366
-0.0152975
-0.261116
-0.259258
-0.241647
-0.218426
-0.194795
-0.17088
-0.145696
-0.119129
-0.0917713
-0.0644348
-0.0379206
-0.0129998
0.0096688
0.0291239
0.045032
0.0550484
0.0593906
0.0575763
0.0483669
0.0313416
0.00729323
-0.0224473
-0.0557132
-0.0875059
-0.112462
-0.119473
-0.115079
-0.101899
-0.0844518
-0.0662989
-0.0495057
-0.0349659
-0.0228785
-0.0132959
-0.00554684
-0.000230141
0.0022405
0.00211437
0.00159988
0.00024771
-0.00453022
-0.0126068
-0.0272754
-0.0512204
-0.0837906
-0.106762
-0.113022
-0.0912502
-0.0632563
-0.0400347
-0.0215579
-0.0116316
0.00060928
0.00605324
0.0115973
0.00694436
-0.006169
-0.0142514
-0.0249978
-0.0159552
-0.23716
-0.238883
-0.222904
-0.200663
-0.178676
-0.157265
-0.135053
-0.111525
-0.0871345
-0.0626553
-0.038821
-0.016286
0.00434111
0.022066
0.0368531
0.0469631
0.0518906
0.0509707
0.0432331
0.0282934
0.00682385
-0.0197926
-0.0491925
-0.0766164
-0.0960007
-0.10246
-0.0985851
-0.0875812
-0.0730028
-0.0575815
-0.0429838
-0.0299999
-0.0189008
-0.00993737
-0.00250244
0.00289432
0.00573181
0.00579874
0.00520786
0.00381623
-0.000102292
-0.0072692
-0.0213045
-0.0453899
-0.0789497
-0.102671
-0.107513
-0.0874756
-0.0599153
-0.0372492
-0.0192519
-0.00954652
0.00263483
0.00792099
0.0140463
0.00913299
-0.0052634
-0.0139721
-0.0253803
-0.0163862
-0.21567
-0.217712
-0.204309
-0.18445
-0.164564
-0.145496
-0.125956
-0.105221
-0.0835844
-0.0617581
-0.0404366
-0.0202057
-0.00158759
0.0146878
0.0281147
0.037558
0.0423254
0.0418183
0.03532
0.0225901
0.00429274
-0.0180936
-0.0421796
-0.0641101
-0.0796766
-0.0855162
-0.0829218
-0.074449
-0.0626621
-0.0496905
-0.0370029
-0.025402
-0.0151997
-0.00679448
0.00029383
0.00563725
0.00873583
0.00903652
0.0085041
0.00711691
0.00354364
-0.00322584
-0.0169156
-0.040677
-0.0734942
-0.096609
-0.101224
-0.0826502
-0.0560698
-0.0342007
-0.0168151
-0.00739566
0.00459964
0.00967596
0.0162071
0.0109132
-0.00452815
-0.0137065
-0.0254894
-0.0166406
-0.194988
-0.197487
-0.186693
-0.1695
-0.151769
-0.134788
-0.117594
-0.0994155
-0.0803681
-0.0610558
-0.0421112
-0.0240528
-0.0073738
0.00730778
0.0193927
0.0280797
0.0327311
0.0328097
0.0277931
0.0175706
0.00278026
-0.0152158
-0.0344136
-0.0517903
-0.0646901
-0.0701501
-0.0688046
-0.0624416
-0.0530068
-0.0421918
-0.0312584
-0.0209877
-0.0116876
-0.00385328
0.00284634
0.00804741
0.011338
0.0119625
0.0116279
0.0104031
0.00714115
0.000663903
-0.0126704
-0.035472
-0.0667879
-0.0892894
-0.0939359
-0.0768041
-0.0516341
-0.0308487
-0.0142503
-0.00517096
0.00651323
0.0113406
0.0181577
0.0125183
-0.0038181
-0.013342
-0.0253243
-0.0167177
-0.17558
-0.178771
-0.170124
-0.155368
-0.139753
-0.124752
-0.109707
-0.0938797
-0.0772532
-0.0603037
-0.0435961
-0.0276162
-0.0128301
0.000270819
0.0111304
0.0191404
0.0237513
0.0245064
0.0210332
0.0132892
0.00179567
-0.0123464
-0.0274777
-0.0408238
-0.0517777
-0.0567497
-0.0563079
-0.0516535
-0.0442114
-0.035279
-0.0259072
-0.0168581
-0.00842774
-0.00115284
0.0051532
0.0101514
0.0135552
0.0145163
0.0144798
0.0135647
0.0107547
0.00480483
-0.0077482
-0.0291502
-0.0589897
-0.080839
-0.0854557
-0.0699177
-0.0466236
-0.0272323
-0.011584
-0.00289721
0.00837624
0.0128767
0.0198553
0.0140105
-0.0030581
-0.0128371
-0.0248508
-0.0165774
-0.158166
-0.161515
-0.154527
-0.141967
-0.128408
-0.115316
-0.102255
-0.088575
-0.0741778
-0.0594265
-0.0448145
-0.0307853
-0.0177448
-0.00613021
0.00361458
0.0109907
0.0155383
0.0168876
0.0147725
0.00918193
0.000521801
-0.0103445
-0.0221816
-0.0336497
-0.0412685
-0.0454697
-0.0455887
-0.0422239
-0.0363647
-0.0289991
-0.0209815
-0.0130352
-0.00543646
0.00128658
0.00720873
0.0119662
0.0154059
0.0166883
0.0170514
0.016609
0.0143475
0.00920538
-0.00219962
-0.022041
-0.0502747
-0.0712435
-0.0758532
-0.0621142
-0.0410987
-0.0233939
-0.00884524
-0.000600693
0.0101835
0.0142727
0.0212521
0.0153539
-0.00222455
-0.0121569
-0.0239916
-0.0161707
-0.1422
-0.145457
-0.139898
-0.129341
-0.117716
-0.106421
-0.0951825
-0.0834461
-0.0710762
-0.0583425
-0.0456628
-0.0334322
-0.0220052
-0.0117492
-0.00303997
0.00371892
0.00815342
0.00996887
0.00897482
0.0051852
-0.00107926
-0.00914403
-0.0180468
-0.026567
-0.0327377
-0.036224
-0.0365889
-0.0341132
-0.0294616
-0.0233761
-0.0165209
-0.00955448
-0.00273542
0.00344599
0.00900187
0.0135125
0.0169289
0.0185017
0.0193232
0.0194139
0.0178685
0.0137105
0.00362681
-0.0144531
-0.0407622
-0.0606929
-0.065363
-0.0535856
-0.0351577
-0.0193894
-0.00607004
0.00169146
0.0119311
0.015535
0.0223092
0.0165067
-0.00126574
-0.0112237
-0.0226646
-0.0154504
-0.127294
-0.130607
-0.126315
-0.117529
-0.107656
-0.0980069
-0.0884213
-0.0784306
-0.0678842
-0.0569779
-0.0460585
-0.035474
-0.0255227
-0.0165163
-0.00876759
-0.00260161
0.00168221
0.00385119
0.0037685
0.00146027
-0.00282399
-0.00856984
-0.0150293
-0.021267
-0.0260252
-0.0287667
-0.0291362
-0.0272336
-0.0234797
-0.0184182
-0.012546
-0.00643768
-0.000334732
0.00532006
0.0105228
0.014806
0.0181659
0.0199841
0.0212647
0.0219358
0.0212681
0.0182118
0.00958582
-0.00655332
-0.0307581
-0.0495457
-0.0543159
-0.0445956
-0.0289433
-0.0152864
-0.00329719
0.00395342
0.0136143
0.0166884
0.0230103
0.0174759
-7.50475e-05
-0.00993116
-0.0207996
-0.0143756
-0.113711
-0.117023
-0.113746
-0.106481
-0.0981704
-0.09001
-0.0819115
-0.0734799
-0.0645609
-0.0552946
-0.0459647
-0.0368763
-0.0282585
-0.0203899
-0.0135232
-0.00791965
-0.00381679
-0.0013976
-0.000764295
-0.00189208
-0.00459299
-0.00846913
-0.0129361
-0.0173468
-0.0208156
-0.0228207
-0.0230423
-0.021477
-0.0183702
-0.0141114
-0.00906006
-0.00369661
0.00176044
0.00691299
0.0117668
0.0158468
0.0191455
0.021172
0.0228703
0.0245743
0.0244892
0.0226742
0.0156069
0.00132635
-0.020781
-0.0382678
-0.0431141
-0.0354654
-0.0226356
-0.0111624
-0.00056571
0.00616086
0.0152239
0.0177825
0.0233837
0.0183322
0.00148774
-0.00816633
-0.0183498
-0.0129216
-0.10148
-0.104584
-0.102098
-0.0961491
-0.0892259
-0.0823973
-0.0756232
-0.0685717
-0.0610919
-0.0532819
-0.0453686
-0.0375933
-0.0301962
-0.0233613
-0.0173041
-0.0122348
-0.00834271
-0.00577251
-0.00460307
-0.00481494
-0.00626789
-0.0086629
-0.0115734
-0.0144847
-0.0168243
-0.0181311
-0.0181163
-0.0167198
-0.0140669
-0.0104275
-0.00605352
-0.00133202
0.00354971
0.00823472
0.0127402
0.0166288
0.0198729
0.0220832
0.024088
0.0262754
0.0272851
0.0268387
0.0212955
0.00861819
-0.0113779
-0.0273138
-0.032186
-0.0265464
-0.016441
-0.00710317
0.00208737
0.00829184
0.0167469
0.018886
0.0235159
0.0192024
0.00356699
-0.00583094
-0.0153155
-0.0110964
-0.0902044
-0.09315
-0.0913644
-0.0865412
-0.0808081
-0.0751562
-0.0695441
-0.0637006
-0.057482
-0.0509551
-0.0443
-0.0377095
-0.0313763
-0.0254646
-0.0201462
-0.0155845
-0.011929
-0.00929462
-0.00774379
-0.00726402
-0.00775279
-0.00898679
-0.0106761
-0.0124043
-0.0137914
-0.0144645
-0.0141756
-0.0128365
-0.010494
-0.007327
-0.00350631
0.000666134
0.00503805
0.00929656
0.013459
0.017153
0.0203391
0.0227129
0.0249598
0.0275045
0.0293839
0.0300955
0.0258908
0.0147223
-0.00293409
-0.017063
-0.0219491
-0.0181867
-0.0105714
-0.00320211
0.00462486
0.010324
0.0181686
0.0200676
0.0235536
0.0202521
0.0062714
-0.00288031
-0.0117708
-0.00896081
-0.0798817
-0.0827047
-0.0815024
-0.0776562
-0.0729837
-0.0682985
-0.0636745
-0.0588693
-0.0537433
-0.0483303
-0.0427717
-0.0372236
-0.0318384
-0.0267556
-0.022109
-0.0180273
-0.014628
-0.0120024
-0.0102028
-0.00922204
-0.00898549
-0.00933311
-0.0100657
-0.0108817
-0.0114921
-0.0116173
-0.0110538
-0.00970496
-0.00757024
-0.00476134
-0.00138977
0.00231598
0.00623702
0.0101096
0.0139413
0.0174304
0.0205381
0.0230466
0.025486
0.0281824
0.0305392
0.0319025
0.028777
0.0192687
0.00428355
-0.00789836
-0.0127886
-0.0106891
-0.00521499
0.000448105
0.00700593
0.0122258
0.0194665
0.0213616
0.0237008
0.0216459
0.00960633
0.000621875
-0.00788985
-0.00663858
-0.0705484
-0.0731914
-0.072424
-0.0693729
-0.0655718
-0.0617649
-0.0580047
-0.0540949
-0.0499065
-0.045454
-0.0408419
-0.0362002
-0.0316517
-0.0273061
-0.0232682
-0.0196387
-0.0165097
-0.0139536
-0.0120145
-0.0106919
-0.00993264
-0.00963631
-0.00964015
-0.00974919
-0.00974389
-0.00941554
-0.00860147
-0.00720894
-0.00521248
-0.00267586
0.00033142
0.00364163
0.007165
0.0106866
0.0142027
0.017478
0.0204762
0.023065
0.0256618
0.0282762
0.0306973
0.0321945
0.0299003
0.0221864
0.0100111
-0.000219941
-0.00501859
-0.00425815
-0.000503204
0.00376902
0.00918902
0.0139529
0.020599
0.0227221
0.024171
0.023468
0.0134022
0.00444786
-0.00394886
-0.00430502
-0.0620825
-0.0645072
-0.0640756
-0.0616907
-0.0586395
-0.0555714
-0.052544
-0.0493937
-0.0460015
-0.0423671
-0.0385703
-0.0347142
-0.0308957
-0.0272013
-0.0237124
-0.0205069
-0.0176563
-0.0152177
-0.0132289
-0.0116938
-0.0105806
-0.00981737
-0.00929726
-0.00887664
-0.00839977
-0.00771192
-0.00668636
-0.00524056
-0.00333892
-0.0010125
0.00169747
0.00467195
0.0078444
0.0110458
0.0142626
0.0173127
0.0201625
0.0227418
0.025545
0.0277906
0.0300185
0.0313434
0.029648
0.023635
0.0140918
0.0057282
0.00123273
0.00104454
0.00350437
0.00670419
0.0111384
0.0154587
0.0215098
0.0240032
0.0250874
0.0256307
0.017291
0.00820099
-0.000280925
-0.00215293
-0.0543599
-0.0565863
-0.0564227
-0.0545889
-0.0521648
-0.0497149
-0.0473016
-0.0447883
-0.0420668
-0.0391262
-0.0360246
-0.0328425
-0.0296564
-0.026534
-0.0235377
-0.0207269
-0.0181565
-0.0158713
-0.0139039
-0.0122618
-0.0109284
-0.00985392
-0.00896599
-0.00816531
-0.00734269
-0.00638416
-0.00519379
-0.00370164
-0.00187108
0.000287621
0.00275159
0.00543946
0.00830146
0.0112095
0.0141427
0.0169594
0.0196174
0.0220051
0.0240174
0.0267136
0.0287335
0.0297968
0.0285119
0.0239464
0.0166651
0.0100163
0.00604274
0.005277
0.00681137
0.00921982
0.0128247
0.0167105
0.022155
0.0250027
0.0263176
0.0277856
0.0207644
0.0114331
0.00282356
-0.000333537
-0.0473499
-0.0493878
-0.0494237
-0.0480353
-0.0461288
-0.0441923
-0.0422889
-0.040305
-0.038143
-0.0357844
-0.0332704
-0.0306628
-0.0280214
-0.0253984
-0.0228415
-0.0203955
-0.0181021
-0.0159965
-0.0141062
-0.0124397
-0.0109895
-0.00972431
-0.00859771
-0.00754148
-0.00648042
-0.00533196
-0.00402569
-0.00250442
-0.000735775
0.00128251
0.00353844
0.0059784
0.00856515
0.0112039
0.0138686
0.0164508
0.0189093
0.0211525
0.02318
0.0253955
0.0270993
0.0279093
0.0269151
0.0235116
0.018078
0.0129255
0.00960522
0.00855573
0.0094586
0.0113034
0.0142239
0.0176833
0.0225078
0.0255779
0.0274196
0.0293323
0.0233098
0.0138329
0.00520435
0.00108655
-0.0410086
-0.0428508
-0.0430254
-0.0419942
-0.040513
-0.039
-0.0375166
-0.0359685
-0.0342687
-0.0323942
-0.0303729
-0.0282517
-0.0260767
-0.0238876
-0.0217202
-0.0196078
-0.0175831
-0.0156803
-0.0138985
-0.012269
-0.0107828
-0.00942356
-0.00816174
-0.00695111
-0.00574158
-0.00447437
-0.00309963
-0.00157212
0.000134016
0.00202766
0.00410234
0.00632422
0.00866517
0.011056
0.0134689
0.0158198
0.0180728
0.0201565
0.0220622
0.023903
0.0253046
0.025915
0.0251511
0.0226513
0.018678
0.014776
0.0121655
0.0110102
0.0115037
0.0129562
0.0153189
0.0183538
0.0225343
0.0256599
0.0279184
0.0297241
0.0245841
0.0153092
0.00683728
0.00182637
-0.0352584
-0.0369113
-0.0371823
-0.0364366
-0.035302
-0.0341351
-0.0329942
-0.0318016
-0.0304804
-0.0290054
-0.0273943
-0.0256821
-0.0239038
-0.0220893
-0.0202648
-0.0184541
-0.0166813
-0.0149652
-0.0133395
-0.0117949
-0.0103371
-0.00895821
-0.00764144
-0.00635687
-0.00507252
-0.0037474
-0.00234771
-0.000838809
0.000798211
0.00257465
0.00448606
0.00651256
0.00863155
0.0107936
0.0129718
0.0150996
0.0171458
0.0190451
0.0207757
0.0223231
0.0234774
0.0239525
0.0233895
0.0215833
0.0187257
0.015822
0.0139206
0.0127516
0.0130122
0.0141905
0.0160981
0.0187156
0.022236
0.0252174
0.0274653
0.028801
0.0245629
0.0159315
0.00782167
0.00245502
-0.0300447
-0.0315223
-0.0318566
-0.0313358
-0.0304805
-0.0295937
-0.0287296
-0.0278243
-0.0268105
-0.0256626
-0.0243906
-0.0230202
-0.0215778
-0.0200854
-0.0185622
-0.017026
-0.0154939
-0.0139821
-0.0125069
-0.0110735
-0.00968664
-0.00834205
-0.00703101
-0.0057349
-0.00443443
-0.00310176
-0.0017152
-0.000249073
0.00130898
0.00297018
0.00473025
0.00657818
0.00849485
0.0104457
0.0124055
0.0143205
0.016164
0.0178703
0.0194153
0.0207315
0.0216991
0.0220962
0.0217146
0.020441
0.0184123
0.0162115
0.0141822
0.0138428
0.014055
0.0150332
0.0165682
0.0187796
0.021645
0.0241718
0.0259872
0.0268802
0.0234944
0.015834
0.00825682
0.00276195
-0.0253287
-0.0266408
-0.0270102
-0.0266638
-0.0260316
-0.0253699
-0.0247276
-0.0240526
-0.0232866
-0.0224045
-0.0214111
-0.0203248
-0.019165
-0.0179481
-0.0166874
-0.0153959
-0.0140868
-0.0127697
-0.0114556
-0.0101522
-0.00886532
-0.00759341
-0.00633265
-0.00507195
-0.00380074
-0.00250074
-0.00115913
0.000242421
0.00171079
0.00325559
0.00487199
0.00655402
0.00828505
0.0100404
0.0117972
0.0135117
0.015161
0.0166812
0.0180507
0.0191858
0.0200185
0.0203812
0.0201634
0.0193012
0.0179013
0.0163381
0.014998
0.0145936
0.014724
0.015528
0.0167521
0.0185739
0.0208234
0.0228824
0.0242198
0.0244833
0.021744
0.0151866
0.00826949
0.00283447
-0.0210654
-0.0222224
-0.022606
-0.0223936
-0.0219387
-0.0214565
-0.0209907
-0.0204988
-0.019931
-0.0192634
-0.0184973
-0.0176457
-0.0167227
-0.0157398
-0.0147062
-0.0136311
-0.0125239
-0.011391
-0.0102394
-0.00907601
-0.00790741
-0.00673384
-0.00555448
-0.00436308
-0.00315482
-0.00191831
-0.000646924
0.00067175
0.00204043
0.00346644
0.00494409
0.0064702
0.00802975
0.00960411
0.0111735
0.0127018
0.01417
0.0155186
0.0167301
0.0177247
0.0184622
0.0188192
0.0187435
0.0181999
0.0172744
0.0162235
0.0153317
0.0149992
0.0150755
0.015723
0.0166793
0.018134
0.0198247
0.0213861
0.0222599
0.0219846
0.0196602
0.0141728
0.00798762
0.00275543
-0.0172135
-0.0182281
-0.0186114
-0.0185008
-0.0181857
-0.0178454
-0.0175189
-0.0171716
-0.016761
-0.0162654
-0.0156838
-0.0150249
-0.0142989
-0.0135138
-0.0126756
-0.01179
-0.0108638
-0.0099016
-0.00890783
-0.00788747
-0.00684651
-0.00578665
-0.00470881
-0.00360973
-0.00248808
-0.00133732
-0.000155055
0.00106663
0.00232741
0.00363231
0.00497505
0.00635299
0.00775306
0.00916083
0.0105589
0.0119164
0.0132184
0.0144135
0.0154873
0.0163726
0.0170417
0.0174071
0.0174499
0.0171512
0.0165782
0.0159137
0.015332
0.0151059
0.0151554
0.0156645
0.0163875
0.0175001
0.0187067
0.0197817
0.0202552
0.0195892
0.0175054
0.0129548
0.00751497
0.00259018
-0.0137395
-0.0146244
-0.0149965
-0.0149619
-0.0147559
-0.0145274
-0.0143099
-0.0140758
-0.0137892
-0.0134307
-0.0129978
-0.0124964
-0.0119335
-0.0113145
-0.0106433
-0.00992275
-0.00915711
-0.00835043
-0.00750579
-0.00662578
-0.00571498
-0.00477595
-0.0038108
-0.00281803
-0.0017982
-0.000747969
0.00033233
0.00144722
0.00259454
0.00377697
0.00498791
0.0062249
0.00747629
0.00873012
0.00997221
0.011176
0.0123289
0.0133892
0.0143542
0.0151406
0.0157572
0.0161352
0.0162718
0.0161583
0.0158431
0.0154595
0.0150975
0.01497
0.0150083
0.0153961
0.0159174
0.0167189
0.0175217
0.0181596
0.0183017
0.0173895
0.0154442
0.0116568
0.0069303
0.00238236
-0.0106124
-0.0113795
-0.0117333
-0.0117546
-0.0116334
-0.0114921
-0.0113594
-0.0112133
-0.0110238
-0.010774
-0.0104604
-0.0100869
-0.00965843
-0.00917818
-0.00864843
-0.00807058
-0.0074466
-0.00677961
-0.00607241
-0.00532593
-0.00454282
-0.00372565
-0.00287731
-0.00199753
-0.00108768
-0.000146359
0.000824534
0.00182711
0.00285804
0.00391822
0.00500119
0.00610393
0.00721652
0.00832845
0.00942788
0.0104933
0.0115132
0.0124517
0.0133059
0.0140228
0.0146008
0.014991
0.0151979
0.0152208
0.0150896
0.014902
0.0146985
0.0146468
0.0146788
0.0149589
0.0153091
0.0158365
0.0163107
0.0165855
0.0164572
0.0154126
0.0135616
0.0103684
0.00629256
0.0021592
-0.00780408
-0.00846555
-0.00879658
-0.00885823
-0.00880248
-0.00872884
-0.00866176
-0.00858359
-0.0084697
-0.00830542
-0.0080872
-0.00781722
-0.00749876
-0.00713377
-0.00672318
-0.00626757
-0.0057675
-0.00522451
-0.00464125
-0.00401849
-0.00335705
-0.0026585
-0.0019259
-0.00116
-0.000362564
0.000466803
0.00132552
0.00221403
0.00312855
0.00406863
0.00502815
0.00600366
0.00698652
0.0079677
0.00893699
0.00987669