/*--------------------------------*- C++ -*----------------------------------*\
| =========                 |                                                 |
| \\      /  F ield         | OpenFOAM: The Open Source CFD Toolbox           |
|  \\    /   O peration     | Version:  2512                                  |
|   \\  /    A nd           | Website:  www.openfoam.com                      |
|    \\/     M anipulation  |                                                 |
\*---------------------------------------------------------------------------*/
FoamFile
{
    version     2.0;
    format      ascii;
    arch        "LSB;label=32;scalar=64";
    class       volVectorField;
    location    "118";
    object      U;
}
// * * * * * * * * * * * * * * * * * * * * * * * * * * * * * * * * * * * * * //

dimensions      [0 1 -1 0 0 0 0];

internalField   nonuniform List<vector> 
13248
(
(-0.0133508 0.0127575 9.8005e-20)
(-0.021894 0.0267669 0)
(-0.0115916 0.0341976 -1.85058e-19)
(0.0164925 0.0364873 1.74318e-19)
(0.0615326 0.0349674 1.63228e-19)
(0.122775 0.030825 0)
(0.199269 0.0250261 0)
(0.289644 0.0183371 3.98991e-19)
(0.39186 0.0113346 -1.63138e-22)
(0.503039 0.00440088 -3.51646e-19)
(0.619445 -0.00227188 3.29785e-19)
(0.736671 -0.00865951 -2.06648e-19)
(0.849998 -0.0148647 0)
(0.95486 -0.0210609 -3.56901e-19)
(1.04733 -0.02743 6.64594e-19)
(1.12451 -0.034106 -1.59409e-19)
(1.18481 -0.0411337 -2.75337e-19)
(1.22805 -0.0484618 2.58512e-19)
(1.25529 -0.0559097 0)
(1.26855 -0.0634214 0)
(1.27062 -0.0702155 0)
(1.26347 -0.0783529 0)
(1.25124 -0.0811631 6.86476e-20)
(1.23058 -0.0994452 2.32853e-19)
(-0.0121411 0.0103174 -2.95687e-19)
(-0.0139387 0.0187393 2.01286e-19)
(0.00680725 0.0213716 -1.77779e-21)
(0.0485518 0.0201292 -2.65923e-19)
(0.110129 0.0166014 -1.63053e-19)
(0.19025 0.012099 -1.54443e-19)
(0.287025 0.00758242 -2.85389e-19)
(0.39764 0.0036952 2.69563e-19)
(0.518191 0.000776584 0)
(0.643759 -0.00113354 7.02079e-22)
(0.768765 -0.00226152 9.10735e-22)
(0.88753 -0.00302691 2.04553e-19)
(0.994926 -0.00393865 0)
(1.08695 -0.00548164 0)
(1.16111 -0.00801783 2.37864e-19)
(1.21661 -0.0117226 -4.4715e-19)
(1.25422 -0.0165664 2.61456e-19)
(1.276 -0.0223387 -2.45493e-19)
(1.28478 -0.0287072 -1.05346e-19)
(1.28369 -0.0352732 -1.88179e-19)
(1.27564 -0.0415981 -7.38183e-20)
(1.26309 -0.0475569 -1.37443e-19)
(1.24791 -0.0510501 2.07495e-19)
(1.23028 -0.058868 5.71767e-20)
(-0.00981261 0.00773698 0)
(-0.00195893 0.0108753 0)
(0.0328108 0.00966825 9.41012e-20)
(0.0920911 0.00624013 8.68734e-20)
(0.173879 0.00231767 -1.76999e-21)
(0.275675 -0.000748387 -1.59023e-19)
(0.39382 -0.00213563 0)
(0.523266 -0.0015262 -1.34326e-19)
(0.657745 0.000933493 1.26176e-19)
(0.790339 0.00470318 4.37351e-23)
(0.914306 0.00897996 -2.17056e-19)
(1.02395 0.0128755 -1.98913e-19)
(1.11529 0.0155978 4.01031e-21)
(1.18639 0.0165934 -1.62789e-19)
(1.2374 0.0156223 3.92899e-19)
(1.27013 0.0127566 0)
(1.28755 0.00831812 -2.4898e-19)
(1.29314 0.00277674 1.22051e-19)
(1.2903 -0.00333321 1.05265e-19)
(1.28189 -0.00956289 0)
(1.27017 -0.0153285 8.35806e-20)
(1.25648 -0.0208881 -2.79507e-19)
(1.24206 -0.024117 2.62388e-19)
(1.22651 -0.0318278 1.57501e-19)
(-0.00583123 0.00487395 -1.0384e-19)
(0.0151988 0.00306002 -1.07241e-19)
(0.0677736 -0.000783992 9.73351e-20)
(0.148194 -0.00469181 0)
(0.252939 -0.00703258 0)
(0.377435 -0.00663678 -3.0798e-21)
(0.515411 -0.00310105 0)
(0.659085 0.00325272 -4.08384e-19)
(0.799985 0.0115267 3.79637e-19)
(0.930113 0.0204735 -4.69474e-19)
(1.04309 0.0287787 1.08085e-19)
(1.13492 0.0353303 0)
(1.20428 0.0394072 1.78063e-19)
(1.25222 0.0407503 -3.29083e-19)
(1.28155 0.0395199 7.86277e-20)
(1.29604 0.036175 1.98237e-19)
(1.29961 0.0313231 -1.05443e-20)
(1.29578 0.0255882 -2.18244e-19)
(1.2873 0.0195133 0)
(1.27615 0.0135349 0)
(1.26357 0.0079828 -7.56842e-20)
(1.25031 0.0028855 6.71491e-20)
(1.23695 -0.000592463 2.35636e-19)
(1.22307 -0.00730088 -2.21285e-19)
(0.000297992 0.00175911 -1.08765e-19)
(0.0385245 -0.00446461 -1.08748e-19)
(0.112621 -0.00945026 3.06002e-19)
(0.217067 -0.0118212 -1.8642e-19)
(0.345988 -0.010396 1.75462e-19)
(0.491842 -0.00455899 3.20041e-19)
(0.645191 0.00527507 -2.26008e-19)
(0.795714 0.0178234 -2.74865e-19)
(0.933802 0.0313159 5.55915e-21)
(1.05209 0.0439338 3.52908e-19)
(1.14637 0.0541983 0)
(1.21579 0.0612124 9.63311e-20)
(1.26226 0.064716 0)
(1.28951 0.0649831 -1.5668e-19)
(1.30201 0.0626277 2.20508e-19)
(1.30411 0.0583972 2.50146e-21)
(1.29946 0.0530101 -5.70591e-20)
(1.29076 0.0470619 1.06664e-19)
(1.27983 0.0409993 9.11736e-20)
(1.26781 0.0351283 -8.12551e-20)
(1.25535 0.0296645 7.56655e-20)
(1.2428 0.0246401 -6.71315e-20)
(1.23039 0.0206656 0)
(1.21792 0.01448 -5.02705e-20)
(0.00898509 -0.00139794 1.08749e-19)
(0.0687205 -0.0110602 1.13839e-19)
(0.167679 -0.0153257 -1.02476e-19)
(0.297878 -0.0139062 1.91233e-19)
(0.450205 -0.00656267 -1.79983e-19)
(0.613504 0.00626436 1.63231e-19)
(0.775305 0.0229339 -7.81844e-20)
(0.923878 0.0410531 2.06301e-19)
(1.05033 0.058162 -1.29352e-19)
(1.14985 0.0723076 2.2856e-19)
(1.22178 0.0823605 -5.26691e-19)
(1.26876 0.0880488 1.92798e-19)
(1.29539 0.0897741 -1.68714e-19)
(1.30688 0.0883285 1.58481e-19)
(1.30806 0.0846213 1.36183e-19)
(1.3028 0.0794862 1.19045e-19)
(1.29384 0.0735869 -3.30613e-19)
(1.28299 0.0674014 2.04991e-19)
(1.27129 0.0612507 -9.11767e-20)
(1.25932 0.0553437 2.35998e-19)
(1.24737 0.049809 -7.62377e-20)
(1.23559 0.0447139 -1.83268e-19)
(1.22405 0.0403387 1.68828e-19)
(1.21259 0.0345943 5.02556e-20)
(0.0205261 -0.00424218 0)
(0.106094 -0.0157671 8.63209e-22)
(0.232516 -0.0170654 2.13191e-19)
(0.388641 -0.00952498 -2.0006e-19)
(0.561404 0.00553261 -1.8104e-19)
(0.736005 0.0260889 3.36535e-19)
(0.89802 0.0490578 -1.5632e-19)
(1.03625 0.0711337 2.08309e-19)
(1.14457 0.0896817 -4.67357e-21)
(1.22207 0.103205 -1.17779e-19)
(1.27191 0.111361 2.56901e-19)
(1.29953 0.114681 -3.7839e-19)
(1.31097 0.114165 0)
(1.31168 0.110926 -7.39776e-20)
(1.3059 0.105954 -1.97419e-19)
(1.29656 0.100011 6.20727e-20)
(1.28551 0.0936316 2.64573e-21)
(1.2738 0.0871618 -1.35203e-19)
(1.26196 0.0808193 9.05487e-21)
(1.25026 0.0747384 1.5607e-19)
(1.23881 0.0690024 -6.9051e-20)
(1.22764 0.0636748 -2.59703e-20)
(1.21674 0.0587993 8.09151e-20)
(1.20602 0.0532521 0)
(0.0350732 -0.00631825 0)
(0.150458 -0.0174381 5.76901e-20)
(0.305829 -0.0132163 -2.76527e-19)
(0.486238 0.00260059 1.00884e-19)
(0.674441 0.0264762 -9.49451e-20)
(0.852866 0.0544677 -8.65446e-20)
(1.00707 0.0822013 -1.53369e-19)
(1.12859 0.10603 7.64096e-20)
(1.21551 0.123819 6.67502e-20)
(1.27115 0.135019 0)
(1.30175 0.14026 1.51514e-19)
(1.31431 0.140789 -2.24947e-19)
(1.31511 0.137985 1.67667e-19)
(1.30898 0.133059 7.40175e-20)
(1.2992 0.126926 -6.04493e-20)
(1.28778 0.120207 -5.05148e-20)
(1.27582 0.113296 -4.70925e-20)
(1.26389 0.106428 1.41089e-19)
(1.25221 0.0997473 0)
(1.24089 0.0933425 7.04985e-20)
(1.22994 0.0872747 5.89497e-20)
(1.21933 0.0815873 -1.46701e-19)
(1.20902 0.0762303 -9.95817e-20)
(1.19892 0.0707782 9.22411e-20)
(0.052598 -0.00711368 -6.12922e-20)
(0.201056 -0.0148881 -1.92608e-21)
(0.385434 -0.00247212 5.61247e-20)
(0.586675 0.0233069 1.56578e-19)
(0.783908 0.0561793 4.54895e-20)
(0.958577 0.0903109 -8.78458e-20)
(1.09854 0.120626 8.04958e-20)
(1.19976 0.143913 -7.07575e-20)
(1.26503 0.15913 1.26386e-19)
(1.30124 0.166909 5.39791e-20)
(1.31649 0.168773 -1.5277e-19)
(1.31818 0.166459 4.51738e-20)
(1.31198 0.16149 7.7102e-20)
(1.30175 0.155009 -3.792e-20)
(1.2898 0.147776 0)
(1.27739 0.140259 5.66875e-20)
(1.26512 0.132729 9.59495e-20)
(1.25323 0.125342 1.64176e-20)
(1.24181 0.118191 -7.99715e-20)
(1.23087 0.111336 3.35324e-20)
(1.22036 0.104823 0)
(1.21023 0.0986624 -2.63112e-20)
(1.20043 0.0927919 -2.46352e-20)
(1.19085 0.0872314 0)
(0.0728486 -0.00610472 0)
(0.256539 -0.0070435 3.20167e-20)
(0.468401 0.016111 5.93275e-20)
(0.68553 0.0528139 -1.58934e-19)
(0.884887 0.0938903 5.11045e-20)
(1.04927 0.13213 0)
(1.17088 0.162636 7.71051e-20)
(1.25089 0.183376 -1.07556e-19)
(1.29637 0.194743 -6.29391e-20)
(1.31661 0.198521 2.85664e-20)
(1.3204 0.196902 -4.55198e-20)
(1.31467 0.191857 1.10644e-19)
(1.30412 0.184865 5.56347e-20)
(1.29158 0.176904 -3.86002e-20)
(1.27855 0.168563 -3.55954e-21)
(1.26575 0.160169 -1.06344e-19)
(1.25346 0.151902 4.84624e-20)
(1.24178 0.143862 -1.12112e-21)
(1.23068 0.13611 0)
(1.22014 0.128689 -3.3567e-20)
(1.21008 0.121625 0)
(1.20044 0.114904 7.60527e-20)
(1.19113 0.108521 -9.06278e-20)
(1.18203 0.102705 4.13011e-20)
(0.0953232 -0.00280237 -1.64523e-20)
(0.315004 0.00693436 -8.03765e-20)
(0.5513 0.0429801 9.12106e-20)
(0.77847 0.0906984 5.38179e-20)
(0.973483 0.138355 -2.5784e-20)
(1.12284 0.178304 4.32233e-20)
(1.22433 0.206772 -2.10423e-20)
(1.28423 0.223435 3.50833e-20)
(1.31286 0.230188 0)
(1.32073 0.229764 7.97264e-20)
(1.31641 0.224748 -3.15336e-21)
(1.30588 0.217125 -6.45722e-20)
(1.29277 0.208213 2.77745e-20)
(1.27903 0.198792 -3.14754e-20)
(1.26555 0.189288 -1.21075e-20)
(1.25271 0.179919 1.38272e-20)
(1.2406 0.170799 -1.07969e-20)
(1.22921 0.16199 -5.84948e-20)
(1.21849 0.153533 3.5896e-20)
(1.20838 0.145453 7.41275e-21)
(1.19879 0.137754 6.54266e-21)
(1.18962 0.130416 5.77526e-21)
(1.18078 0.123509 0)
(1.17214 0.117252 0)
(0.119349 0.00321396 1.64637e-20)
(0.374254 0.0275721 -1.65416e-20)
(0.630686 0.0780344 -3.03526e-20)
(0.861808 0.135982 0)
(1.0471 0.188043 -1.27613e-20)
(1.17859 0.227301 -1.14211e-20)
(1.26005 0.2519 -1.96417e-20)
(1.30211 0.263463 0)
(1.31714 0.265246 0)
(1.31588 0.260644 0)
(1.30609 0.252382 0)
(1.29265 0.242307 0)
(1.27818 0.231518 -1.7492e-20)
(1.26394 0.220604 7.97948e-21)
(1.25043 0.209853 1.39283e-20)
(1.23778 0.199402 6.50438e-21)
(1.22599 0.189319 1.62268e-20)
(1.21501 0.179637 0)
(1.20476 0.170379 -3.93749e-21)
(1.19514 0.161557 -3.72774e-21)
(1.18607 0.153158 -6.55301e-21)
(1.17744 0.145168 -5.78442e-21)
(1.16914 0.137739 0)
(1.16102 0.130901 4.20683e-21)
(-0.00266138 0.0429347 9.52949e-21)
(-0.00957601 0.0953578 -9.8716e-21)
(-0.0205203 0.124438 -1.86752e-20)
(-0.0337004 0.136944 0)
(-0.0480271 0.138271 -2.49001e-20)
(-0.0629173 0.132499 7.73019e-21)
(-0.0779399 0.122425 -1.4952e-20)
(-0.0927691 0.10971 0)
(-0.107169 0.0951249 0)
(-0.120963 0.0788315 0)
(-0.134013 0.0606452 0)
(-0.146208 0.0402346 0)
(-0.157448 0.0172518 -2.98131e-22)
(-0.167567 -0.00859051 -9.95607e-21)
(-0.176452 -0.0374439 1.95514e-20)
(-0.184034 -0.0693213 2.736e-20)
(-0.190159 -0.104122 9.05381e-21)
(-0.194687 -0.141553 0)
(-0.197496 -0.181129 7.27163e-21)
(-0.198494 -0.222161 -2.10523e-20)
(-0.197622 -0.26376 -1.31738e-20)
(-0.194837 -0.304873 -1.21306e-20)
(-0.190164 -0.344312 0)
(-0.184043 -0.380742 0)
(-0.00528959 0.0461225 -2.89632e-20)
(-0.0144984 0.103677 4.96863e-20)
(-0.0251804 0.136773 -1.92486e-20)
(-0.0367128 0.152264 -3.59617e-20)
(-0.0486411 0.155656 5.05353e-20)
(-0.0606926 0.15118 -3.22481e-20)
(-0.0725971 0.141796 4.52791e-20)
(-0.0840972 0.129313 2.94543e-20)
(-0.0949707 0.114618 0)
(-0.105033 0.0979605 -2.58127e-20)
(-0.114134 0.0792081 -5.8551e-22)
(-0.122155 0.0580595 2.27076e-20)
(-0.128991 0.0341845 3.39155e-20)
(-0.134541 0.00730839 4.28262e-20)
(-0.138695 -0.0227864 -1.91538e-20)
(-0.141405 -0.0561003 -5.65669e-20)
(-0.142643 -0.0925443 1.88101e-20)
(-0.142344 -0.131817 -6.92066e-20)
(-0.140496 -0.173417 0)
(-0.137144 -0.216607 1.42054e-20)
(-0.132402 -0.26042 1.31547e-20)
(-0.126362 -0.303673 1.2113e-20)
(-0.118968 -0.344962 0)
(-0.110851 -0.3826 0)
(-0.00800876 0.0475837 0)
(-0.0195958 0.108524 1.04125e-19)
(-0.02977 0.144983 -3.91683e-20)
(-0.0391276 0.163389 3.6677e-20)
(-0.0478871 0.169044 -1.05549e-19)
(-0.0561134 0.166145 0)
(-0.0637235 0.157725 -6.34062e-20)
(-0.0705482 0.145709 3.02141e-20)
(-0.0763889 0.131115 -5.80504e-20)
(-0.0810519 0.114305 2.87422e-20)
(-0.084366 0.0952363 1.5739e-19)
(-0.0861911 0.0736649 -7.40682e-20)
(-0.0864206 0.0492924 -1.18148e-19)
(-0.0849747 0.0218532 -4.73287e-20)
(-0.0817455 -0.00882292 -1.09186e-21)
(-0.0767075 -0.0428322 1.6281e-19)
(-0.0699218 -0.0799992 -7.68274e-20)
(-0.0614103 -0.120015 -2.15594e-21)
(-0.0512681 -0.162387 0)
(-0.0396688 -0.206341 -6.53566e-20)
(-0.0269111 -0.250859 0)
(-0.0133137 -0.294678 -5.12769e-20)
(0.00131119 -0.336207 1.96733e-19)
(0.0170117 -0.373486 -3.70262e-21)
(-0.010541 0.0471692 0)
(-0.0244029 0.109415 1.24602e-21)
(-0.0339193 0.148286 4.09158e-20)
(-0.0407849 0.1693 -3.88842e-20)
(-0.045855 0.177252 3.51352e-20)
(-0.0495328 0.176117 2.06229e-19)
(-0.051944 0.168881 -6.46896e-20)
(-0.0530344 0.157536 -6.26517e-20)
(-0.0526511 0.143215 1.17744e-19)
(-0.0506045 0.126409 -1.68834e-19)
(-0.0467083 0.107182 5.38717e-20)
(-0.0408002 0.0853754 5.21758e-20)
(-0.0327508 0.0607425 0)
(-0.0224722 0.0330544 4.59853e-20)
(-0.00996891 0.00215216 0)
(0.00484702 -0.0320062 8.67216e-20)
(0.0219733 -0.0692378 -1.62423e-19)
(0.0411718 -0.109236 3.685e-20)
(0.0622527 -0.151437 1.43569e-19)
(0.0849605 -0.195027 6.5274e-20)
(0.108794 -0.238964 0)
(0.133128 -0.281937 -1.66571e-19)
(0.157807 -0.322115 5.27385e-20)
(0.185771 -0.356989 0)
(-0.0126351 0.044969 0)
(-0.0284801 0.106305 -1.31289e-19)
(-0.0372973 0.14635 -4.18103e-20)
(-0.0416044 0.169371 -7.83851e-20)
(-0.0427667 0.17942 7.38053e-20)
(-0.0414975 0.180071 -6.9253e-20)
(-0.038142 0.174144 1.33989e-19)
(-0.0327882 0.163623 6.42881e-20)
(-0.0253592 0.149722 -1.79767e-19)
(-0.0156946 0.133051 1.16537e-19)
(-0.00360944 0.113794 -1.65286e-19)
(0.01107 0.09189 3.72763e-19)
(0.0284867 0.0671633 -2.00513e-19)
(0.0487405 0.0394321 9.76276e-20)
(0.0718714 0.00858612 2.79305e-19)
(0.0978775 -0.0253282 -8.449e-20)
(0.126681 -0.0621803 -8.27945e-20)
(0.158056 -0.101599 -7.78509e-20)
(0.191659 -0.142938 0)
(0.227016 -0.185339 -1.36261e-19)
(0.263397 -0.227715 -1.21951e-19)
(0.300176 -0.268713 1.76754e-19)
(0.335402 -0.306707 2.02134e-19)
(0.378375 -0.337471 -1.90276e-19)
(-0.0141194 0.0412984 0)
(-0.0315022 0.0996037 -1.80712e-19)
(-0.0396577 0.139369 -9.39173e-22)
(-0.0415434 0.163486 1.59599e-19)
(-0.0388577 0.175132 0)
(-0.0325575 0.177358 0)
(-0.0231951 0.172709 0)
(-0.011015 0.163074 -6.50502e-20)
(0.0039584 0.149696 -1.84859e-21)
(0.0218325 0.133272 1.16566e-19)
(0.0427747 0.114101 -1.69669e-19)
(0.0669596 0.0922234 -1.48331e-21)
(0.0945519 0.0675379 0)
(0.125666 0.0399601 -9.75659e-20)
(0.160346 0.00943162 9.59153e-20)
(0.198539 -0.023987 -2.66966e-19)
(0.240061 -0.0600749 3.38355e-19)
(0.284555 -0.0983875 8.00706e-20)
(0.331443 -0.138228 -2.23441e-21)
(0.379968 -0.17864 -2.78598e-19)
(0.42887 -0.218515 -1.2626e-19)
(0.478063 -0.256177 3.97725e-19)
(0.521338 -0.291471 -2.62306e-19)
(0.578886 -0.316933 0)
(-0.014943 0.0366403 9.01593e-20)
(-0.0333093 0.0901102 9.08132e-20)
(-0.0408501 0.128053 -8.6803e-20)
(-0.0405531 0.152081 -1.62482e-19)
(-0.0342452 0.164508 1.52979e-19)
(-0.0230353 0.167812 -1.45355e-19)
(-0.00764044 0.164188 2.05639e-19)
(0.0115492 0.155355 -6.53394e-20)
(0.0344052 0.142518 1.23441e-19)
(0.0609765 0.126419 0)
(0.0914117 0.107438 1.15738e-19)
(0.125867 0.0856997 -2.15083e-19)
(0.164526 0.0612481 2.08815e-19)
(0.207527 0.0340532 -1.96114e-19)
(0.254828 0.00412418 0)
(0.30626 -0.0283893 1.78533e-19)
(0.361421 -0.0631623 3.38178e-19)
(0.419627 -0.0996479 -3.17937e-19)
(0.479852 -0.137066 -1.46833e-19)
(0.540927 -0.174331 -1.35259e-19)
(0.600634 -0.210527 3.80174e-19)
(0.659944 -0.243165 1.06742e-19)
(0.707566 -0.274692 -1.05149e-19)
(0.773764 -0.29325 8.65874e-20)
(-0.0151854 0.031557 -9.01717e-20)
(-0.0339303 0.0788754 2.79591e-19)
(-0.0408104 0.113517 -8.83786e-20)
(-0.0384973 0.136109 1.64465e-19)
(-0.0287551 0.14824 -1.54844e-19)
(-0.0127399 0.151853 3.97004e-23)
(0.00873611 0.148766 6.90001e-20)
(0.0351837 0.14048 2.64331e-19)
(0.0663971 0.128103 3.08466e-21)
(0.10238 0.11237 -1.17354e-19)
(0.143257 0.0937157 0)
(0.189223 0.0723771 -1.09855e-19)
(0.240377 0.04847 2.0488e-19)
(0.296699 0.0220392 1.98137e-19)
(0.357994 -0.00675607 -9.30941e-20)
(0.423738 -0.0376441 -1.19256e-21)
(0.493036 -0.0701775 -8.40975e-20)
(0.564594 -0.103693 1.5441e-19)
(0.63667 -0.137357 1.46786e-19)
(0.707518 -0.169958 -1.35314e-19)
(0.773969 -0.201013 1.19098e-19)
(0.837577 -0.227157 -1.06817e-19)
(0.884627 -0.253606 0)
(0.948858 -0.264192 -8.65326e-20)
(-0.0150288 0.0265834 9.21162e-20)
(-0.0335319 0.0670022 -9.37369e-20)
(-0.0394811 0.0970872 8.89631e-20)
(-0.0350202 0.11691 0)
(-0.0217077 0.127563 0)
(-0.000644095 0.130556 1.48193e-19)
(0.0273546 0.127363 -1.3865e-19)
(0.061776 0.11925 1.32766e-19)
(0.102388 0.107203 -6.23758e-19)
(0.14917 0.0919257 -1.24457e-21)
(0.2022 0.0738832 1.12491e-19)
(0.26153 0.0533707 0)
(0.327064 0.0305748 -2.06048e-19)
(0.39841 0.00571541 3.89132e-19)
(0.474798 -0.020932 -2.76653e-19)
(0.554985 -0.0489734 -4.36293e-19)
(0.637233 -0.0778604 1.26184e-21)
(0.719375 -0.106877 3.01021e-19)
(0.79888 -0.135224 0)
(0.873381 -0.161751 0)
(0.939534 -0.186361 -1.19097e-19)
(0.99841 -0.205509 1.06819e-19)
(1.0385 -0.22611 -3.57117e-19)
(1.08839 -0.229377 3.3477e-19)
(-0.0146915 0.0221257 0)
(-0.0322907 0.0554367 0)
(-0.0366588 0.0800724 -2.67551e-19)
(-0.0293689 0.0960119 8.49546e-20)
(-0.0116995 0.104119 3.91409e-22)
(0.0153884 0.105613 1.48747e-19)
(0.0511634 0.101701 0)
(0.0951573 0.0934481 -1.31558e-19)
(0.147136 0.0817197 1.24647e-19)
(0.206985 0.0671704 -2.36832e-19)
(0.274556 0.0502711 -1.18263e-21)
(0.349502 0.0313766 2.14205e-19)
(0.431107 0.0107851 1.9816e-21)
(0.518154 -0.0111968 1.93527e-19)
(0.608861 -0.0342112 -2.71504e-19)
(0.700898 -0.0578171 0)
(0.791511 -0.0814785 3.15186e-19)
(0.87771 -0.104583 -4.45506e-19)
(0.956555 -0.126477 1.31596e-19)
(1.02551 -0.146385 0)
(1.08221 -0.164246 1.07394e-19)
(1.1271 -0.177463 3.84016e-19)
(1.15392 -0.192511 -3.60453e-19)
(1.18143 -0.191167 -3.67573e-19)
(-0.0143329 0.0183871 2.81761e-19)
(-0.0302192 0.0447997 -3.86392e-19)
(-0.0318142 0.0635432 1.12376e-21)
(-0.0202428 0.0749038 8.56155e-20)
(0.00349493 0.0797594 -1.59339e-19)
(0.0386177 0.0791994 -1.48397e-19)
(0.0845126 0.0742651 2.79806e-19)
(0.140734 0.0658767 6.03531e-22)
(0.206913 0.0547996 -2.48071e-19)
(0.282583 0.0416367 4.71296e-19)
(0.366976 0.0268595 2.57245e-21)
(0.458837 0.010843 -2.09981e-19)
(0.556294 -0.00609505 0)
(0.656841 -0.0236549 0)
(0.757421 -0.0415267 -8.93869e-20)
(0.85464 -0.0593769 -1.61938e-19)
(0.945057 -0.0768374 -3.02762e-19)
(1.02551 -0.093545 2.84217e-19)
(1.0935 -0.109066 -1.31678e-19)
(1.14733 -0.123152 2.27263e-19)
(1.18652 -0.1354 -1.17624e-19)
(1.21184 -0.145122 1.70171e-19)
(1.22256 -0.155715 -4.18029e-19)
(1.22877 -0.15381 7.42083e-20)
(-0.0139538 0.0153371 9.49712e-20)
(-0.0269961 0.0353012 0)
(-0.0239555 0.0481841 1.82575e-19)
(-0.00575964 0.0548263 -1.71982e-19)
(0.0267838 0.0562935 1.59488e-19)
(0.073024 0.0536775 0)
(0.132358 0.0479472 0)
(0.204134 0.0399311 -1.32449e-19)
(0.28747 0.0303109 -6.24275e-22)
(0.381027 0.019622 1.16668e-19)
(0.482815 0.00826385 -1.10662e-19)
(0.590113 -0.00347997 2.08245e-19)
(0.699525 -0.0154153 0)
(0.807181 -0.0274077 3.6688e-19)
(0.909066 -0.0393532 -6.85737e-19)
(1.00141 -0.0511525 4.8247e-19)
(1.08106 -0.0626845 2.89305e-19)
(1.14581 -0.0738276 -2.71606e-19)
(1.19467 -0.0843459 0)
(1.22768 -0.0943135 0)
(1.24644 -0.102929 0)
(1.2525 -0.111614 0)
(1.24932 -0.118167 7.93544e-20)
(1.24124 -0.121347 -2.61307e-19)
(-0.176319 -0.418619 -6.47412e-21)
(-0.169944 -0.458629 6.51727e-21)
(-0.15762 -0.488361 -1.88219e-22)
(-0.139753 -0.504157 0)
(-0.114443 -0.502325 -5.27613e-21)
(-0.0802062 -0.479401 1.02579e-20)
(-0.0359524 -0.432807 6.62846e-23)
(0.0170779 -0.361748 -4.91098e-21)
(0.0769792 -0.266962 0)
(0.141827 -0.151553 0)
(0.208452 -0.0211493 -2.7153e-22)
(0.275156 0.117198 -2.55568e-22)
(0.341138 0.255242 -4.02425e-21)
(0.404813 0.380705 3.68584e-21)
(0.462877 0.480409 0)
(0.511278 0.545876 0)
(0.547318 0.576717 1.74001e-21)
(0.570221 0.58036 -2.05929e-22)
(0.577893 0.57182 -1.35863e-21)
(0.566583 0.568094 -8.1419e-23)
(0.538778 0.571964 0)
(0.50997 0.559775 0)
(0.502615 0.492957 0)
(0.528732 0.350282 0)
(0.581895 0.147178 0)
(0.647335 -0.0723264 0)
(0.710774 -0.260552 5.61485e-22)
(0.762154 -0.388834 -9.38097e-22)
(0.795362 -0.456301 0)
(0.811327 -0.47866 0)
(0.815797 -0.472907 -3.15476e-22)
(0.808818 -0.464524 3.06615e-22)
(0.782003 -0.47187 1.33382e-22)
(0.735576 -0.483871 0)
(0.689903 -0.448705 0)
(0.669115 -0.32716 4.1592e-22)
(0.681601 -0.133768 -4.04299e-22)
(0.716469 0.0736816 0)
(0.759374 0.23333 3.07779e-22)
(0.801423 0.334045 -4.27945e-22)
(0.830893 0.37854 1.05106e-22)
(0.833128 0.416333 0)
(0.803136 0.435119 -1.78465e-22)
(0.755852 0.426374 1.73542e-22)
(0.727729 0.330121 0)
(0.728625 0.159007 0)
(0.759774 -0.0224952 -9.57635e-23)
(0.803518 -0.187634 2.7291e-22)
(0.830343 -0.261681 0)
(0.824797 -0.352906 0)
(0.791237 -0.356673 -4.67877e-23)
(0.761348 -0.343129 3.60385e-24)
(0.767557 -0.226097 -1.60709e-24)
(0.789857 -0.0415915 3.3088e-23)
(0.810973 0.0646284 0)
(0.806352 0.285439 0)
(0.796644 0.286728 0)
(0.786938 0.343001 0)
(0.79479 0.24768 0)
(0.78371 -0.0358938 0)
(-0.105163 -0.420929 -6.93483e-22)
(-0.110405 -0.464492 -2.60502e-20)
(-0.112404 -0.499162 1.83162e-21)
(-0.112169 -0.521107 2.26975e-20)
(-0.107564 -0.526947 3.09995e-22)
(-0.0957583 -0.513134 0)
(-0.0740294 -0.47611 -1.75169e-20)
(-0.0406798 -0.414032 3.45107e-20)
(0.004285 -0.326283 -1.69843e-20)
(0.0582676 -0.216016 1.64538e-20)
(0.117639 -0.0856938 -1.57203e-20)
(0.181613 0.0524934 1.43914e-20)
(0.248814 0.192088 -1.39155e-20)
(0.316674 0.321577 -3.3749e-22)
(0.382077 0.42876 -9.27363e-21)
(0.440863 0.504964 9.0121e-21)
(0.489308 0.548353 -6.42848e-21)
(0.524133 0.565651 6.07308e-21)
(0.540987 0.571573 -5.46168e-21)
(0.537565 0.580079 1.07669e-20)
(0.521121 0.588186 -5.30605e-21)
(0.510474 0.568732 -3.93635e-22)
(0.525267 0.486832 -7.80588e-21)
(0.570209 0.329255 1.61857e-20)
(0.63529 0.116792 -8.3571e-21)
(0.705505 -0.106098 5.41148e-22)
(0.766685 -0.291263 6.91743e-21)
(0.810598 -0.411311 -1.0866e-21)
(0.833958 -0.46867 -9.07851e-21)
(0.839345 -0.482892 6.94206e-21)
(0.833783 -0.471265 -2.98332e-21)
(0.820144 -0.455837 2.75489e-22)
(0.789941 -0.454746 -1.33643e-22)
(0.740124 -0.462644 2.47088e-22)
(0.687303 -0.432955 0)
(0.657326 -0.324228 0)
(0.662608 -0.143656 -1.48994e-21)
(0.694676 0.0562516 1.11297e-21)
(0.740114 0.214465 8.32475e-22)
(0.787358 0.319002 -4.25808e-23)
(0.822694 0.371783 -9.96547e-22)
(0.82787 0.420254 1.80005e-22)
(0.80186 0.446925 0)
(0.759051 0.438361 0)
(0.737161 0.335603 0)
(0.741237 0.155456 0)
(0.771775 -0.0323584 4.74811e-22)
(0.81416 -0.197406 -1.79943e-22)
(0.838631 -0.264665 0)
(0.83379 -0.347806 0)
(0.797625 -0.348986 0)
(0.76753 -0.340024 -7.24939e-23)
(0.770724 -0.229454 1.67216e-23)
(0.789633 -0.0466431 -7.32659e-23)
(0.808739 0.0626634 0)
(0.801217 0.287063 0)
(0.794078 0.288089 3.66132e-23)
(0.783627 0.343081 9.07489e-23)
(0.795256 0.247953 0)
(0.786167 -0.0346981 0)
(0.0225385 -0.411087 -3.60045e-21)
(0.00986508 -0.455288 -5.84839e-20)
(-0.00319948 -0.492251 4.8536e-20)
(-0.0180991 -0.518121 -4.54138e-20)
(-0.0338881 -0.530143 -3.12078e-22)
(-0.0469426 -0.526007 0)
(-0.052734 -0.500988 -3.06997e-20)
(-0.0471185 -0.451468 2.99956e-20)
(-0.0273615 -0.376051 2.38542e-22)
(0.00909465 -0.275947 3.55316e-22)
(0.0554244 -0.153143 3.42758e-22)
(0.10962 -0.0164202 4.24855e-22)
(0.173828 0.122335 -2.10597e-20)
(0.242595 0.254595 2.08057e-20)
(0.312313 0.368301 0)
(0.378467 0.454824 3.90422e-22)
(0.4361 0.511553 -1.14368e-20)
(0.479886 0.544278 1.12882e-20)
(0.504823 0.565603 0)
(0.511093 0.585099 0)
(0.509525 0.595008 -1.25651e-20)
(0.519527 0.567585 2.6924e-20)
(0.556055 0.473479 -3.0405e-20)
(0.618038 0.306193 -1.63533e-21)
(0.693231 0.0894434 3.56481e-20)
(0.766683 -0.133358 -3.53938e-20)
(0.824629 -0.313868 2.94953e-20)
(0.860162 -0.426082 -3.51685e-21)
(0.873256 -0.474756 -1.06102e-20)
(0.86844 -0.482402 0)
(0.853295 -0.466665 0)
(0.833199 -0.44584 1.52835e-21)
(0.800362 -0.436973 -2.01129e-21)
(0.748564 -0.440444 -2.94496e-23)
(0.689753 -0.416102 2.24742e-21)
(0.650691 -0.320988 -2.18426e-21)
(0.648097 -0.1545 0)
(0.676736 0.0366894 3.36701e-22)
(0.724118 0.192785 2.29412e-21)
(0.77577 0.30136 -4.06377e-21)
(0.816381 0.363071 1.64374e-21)
(0.824539 0.422661 1.70592e-22)
(0.803079 0.457401 -1.94506e-21)
(0.765351 0.449389 1.53575e-21)
(0.749787 0.341207 5.11748e-22)
(0.757103 0.153356 5.53828e-22)
(0.78666 -0.0403168 -4.76011e-22)
(0.826995 -0.205859 0)
(0.848691 -0.266974 0)
(0.844372 -0.342264 -8.89094e-22)
(0.805573 -0.341103 4.07048e-22)
(0.77503 -0.336804 -2.92204e-22)
(0.77521 -0.232847 3.7392e-22)
(0.790835 -0.0514797 4.39278e-22)
(0.808096 0.0607159 -1.28758e-22)
(0.797393 0.288525 1.88906e-22)
(0.792509 0.289318 -1.56453e-22)
(0.781171 0.342799 6.92496e-23)
(0.796857 0.247857 0)
(0.789762 -0.0335906 0)
(0.190943 -0.393668 -1.2384e-19)
(0.176123 -0.435164 1.20307e-20)
(0.15731 -0.46996 1.06005e-19)
(0.13367 -0.49506 -6.87895e-22)
(0.103042 -0.509901 0)
(0.0685855 -0.512325 0)
(0.0362135 -0.498587 -5.1253e-20)
(0.0106186 -0.464018 3.9378e-21)
(-0.00225433 -0.405392 6.47914e-20)
(0.0043711 -0.32116 -1.1092e-21)
(0.0297069 -0.214339 -1.91368e-20)
(0.0673489 -0.0850879 -1.68967e-20)
(0.119915 0.0491647 1.68629e-20)
(0.184627 0.182185 0)
(0.254293 0.301152 -1.21668e-20)
(0.323799 0.397474 1.11324e-20)
(0.386842 0.467833 0)
(0.436943 0.516273 0)
(0.469753 0.552113 9.53815e-21)
(0.487873 0.580386 1.19254e-21)
(0.503916 0.590276 -9.81444e-21)
(0.535551 0.555852 -1.48841e-20)
(0.592429 0.454074 1.5028e-20)
(0.669145 0.282803 -1.94522e-20)
(0.752678 0.0654857 -1.91726e-22)
(0.828742 -0.154416 1.85906e-20)
(0.883251 -0.329382 1.98728e-21)
(0.910159 -0.43436 -9.90734e-24)
(0.912843 -0.475632 0)
(0.89831 -0.477871 6.21274e-21)
(0.874197 -0.459427 -6.36094e-21)
(0.847706 -0.435052 2.66524e-22)
(0.812611 -0.419333 0)
(0.760317 -0.417586 -2.20354e-22)
(0.697269 -0.3975 3.80382e-21)
(0.649657 -0.316388 -7.51092e-21)
(0.638597 -0.165549 -7.70315e-22)
(0.662971 0.0155225 2.01167e-22)
(0.71145 0.168678 3.54219e-21)
(0.766555 0.281323 4.25558e-22)
(0.811825 0.352308 -2.86082e-21)
(0.823039 0.423198 2.42704e-21)
(0.806569 0.466163 -1.73341e-24)
(0.774365 0.459281 1.96374e-21)
(0.765179 0.347078 -2.42263e-21)
(0.775806 0.152767 -3.99838e-21)
(0.804131 -0.0462033 1.08792e-21)
(0.841856 -0.212923 1.52357e-21)
(0.860376 -0.268729 -2.61185e-21)
(0.856349 -0.336397 1.57129e-21)
(0.814885 -0.332961 -2.95985e-22)
(0.783586 -0.33332 4.04126e-22)
(0.780758 -0.23621 2.54727e-22)
(0.79332 -0.0561455 -5.76572e-22)
(0.808982 0.0587571 -1.2683e-23)
(0.794863 0.289871 -1.54349e-22)
(0.79195 0.290469 0)
(0.779609 0.342145 -6.45734e-23)
(0.79963 0.247373 1.87951e-22)
(0.794512 -0.0325661 0)
(0.380463 -0.372931 1.25473e-19)
(0.366588 -0.411258 -2.33075e-19)
(0.34618 -0.441133 1.06519e-19)
(0.318649 -0.461297 7.88921e-20)
(0.281506 -0.472971 -1.41956e-19)
(0.235862 -0.474955 1.11232e-20)
(0.18543 -0.466523 5.11599e-20)
(0.134369 -0.444931 3.4231e-20)
(0.088458 -0.405349 -3.3563e-20)
(0.0582637 -0.342278 0)
(0.052031 -0.2552 -2.37671e-20)
(0.0633422 -0.145848 4.54032e-20)
(0.0945622 -0.0206537 -2.18689e-20)
(0.146518 0.10856 0)
(0.209404 0.230208 0)
(0.276974 0.334838 2.99267e-22)
(0.34149 0.417734 -1.48328e-20)
(0.39601 0.480572 1.44094e-20)
(0.437209 0.528975 0)
(0.469108 0.563935 1.95775e-20)
(0.504254 0.573239 -4.16578e-20)
(0.557035 0.534383 5.08923e-20)
(0.631729 0.430006 -6.26544e-20)
(0.720427 0.26009 -5.02981e-21)
(0.811276 0.0460531 7.6984e-20)
(0.890028 -0.168974 -3.88257e-20)
(0.941116 -0.337503 -1.01276e-21)
(0.959444 -0.435651 -1.05715e-20)
(0.951817 -0.471047 2.62845e-21)
(0.92822 -0.46937 8.17575e-21)
(0.896124 -0.449565 3.28264e-22)
(0.863576 -0.42352 -3.66994e-21)
(0.826431 -0.402431 6.67553e-21)
(0.774835 -0.395101 -3.35736e-21)
(0.709584 -0.377742 0)
(0.654496 -0.310076 -3.9843e-21)
(0.634559 -0.176094 3.93038e-21)
(0.653623 -0.00648122 -3.05553e-21)
(0.702079 0.142526 3.80356e-21)
(0.759526 0.258984 -3.24862e-22)
(0.808811 0.339259 0)
(0.823171 0.421454 -3.22782e-22)
(0.811997 0.472865 1.10747e-21)
(0.785627 0.467952 0)
(0.782695 0.353246 5.91104e-21)
(0.796771 0.15373 -2.18419e-21)
(0.823884 -0.0498692 1.11028e-21)
(0.85854 -0.218417 9.30673e-22)
(0.873506 -0.269874 0)
(0.869538 -0.330181 0)
(0.825404 -0.324497 -9.39179e-22)
(0.79297 -0.329491 1.27849e-21)
(0.787102 -0.239524 -6.02518e-22)
(0.79691 -0.0607109 1.55294e-22)
(0.811306 0.0567534 2.92392e-22)
(0.793605 0.291141 1.54498e-22)
(0.792414 0.291589 -2.52568e-22)
(0.778976 0.341107 0)
(0.803599 0.246475 -2.73342e-22)
(0.80043 -0.0316237 -1.19001e-22)
(0.575597 -0.350576 1.25188e-19)
(0.56127 -0.386337 -1.24448e-19)
(0.541024 -0.411927 7.91434e-22)
(0.512789 -0.426633 -6.40852e-22)
(0.474633 -0.431793 5.44652e-22)
(0.426664 -0.428165 -4.34896e-22)
(0.369569 -0.417108 6.00916e-22)
(0.305075 -0.399875 0)
(0.23772 -0.373372 -2.94909e-22)
(0.17699 -0.330678 1.96e-22)
(0.133319 -0.267847 1.29244e-22)
(0.110121 -0.184562 -2.68239e-22)
(0.111063 -0.077413 0)
(0.138132 0.0409486 0)
(0.185007 0.160275 7.32292e-23)
(0.243307 0.269336 0)
(0.304515 0.361737 -9.00163e-23)
(0.36139 0.436392 0)
(0.410927 0.495007 -1.27869e-20)
(0.457164 0.535158 2.86081e-20)
(0.511059 0.544416 -3.65317e-20)
(0.582811 0.504377 2.05048e-20)
(0.672095 0.402314 3.3134e-20)
(0.770403 0.23832 -3.21679e-20)
(0.86766 0.0309508 -3.97286e-20)
(0.949003 -0.177371 3.85662e-20)
(0.996903 -0.338615 0)
(1.00701 -0.430406 7.93978e-22)
(0.98951 -0.461521 0)
(0.957626 -0.457447 0)
(0.91869 -0.437361 8.43176e-21)
(0.880561 -0.411264 -8.7967e-21)
(0.841391 -0.386555 3.57194e-22)
(0.791359 -0.37368 3.40026e-22)
(0.726012 -0.357309 -2.71921e-22)
(0.665096 -0.301827 -2.83958e-21)
(0.636322 -0.185415 2.75749e-21)
(0.648831 -0.0289134 -3.27194e-21)
(0.695817 0.114721 2.77552e-21)
(0.754429 0.234414 6.03586e-22)
(0.807072 0.323686 -2.47589e-21)
(0.824656 0.417032 -6.48924e-22)
(0.818941 0.477213 1.95076e-21)
(0.798566 0.475285 0)
(0.801648 0.359686 -2.3332e-21)
(0.819373 0.156495 3.8046e-21)
(0.845467 -0.0511454 -4.92161e-21)
(0.876774 -0.222174 -9.36563e-22)
(0.887868 -0.270379 0)
(0.883718 -0.323641 3.34043e-22)
(0.83698 -0.315644 -7.88313e-22)
(0.803004 -0.325189 -2.08425e-23)
(0.793983 -0.242764 -1.06195e-22)
(0.801388 -0.0652706 1.62352e-22)
(0.814948 0.0546551 -2.2282e-22)
(0.79359 0.292358 0)