/*--------------------------------*- C++ -*----------------------------------*\
| =========                 |                                                 |
| \\      /  F ield         | OpenFOAM: The Open Source CFD Toolbox           |
|  \\    /   O peration     | Version:  2512                                  |
|   \\  /    A nd           | Website:  www.openfoam.com                      |
|    \\/     M anipulation  |                                                 |
\*---------------------------------------------------------------------------*/
FoamFile
{
    version     2.0;
    format      ascii;
    arch        "LSB;label=32;scalar=64";
    class       surfaceScalarField;
    location    "72";
    object      phi;
}
// * * * * * * * * * * * * * * * * * * * * * * * * * * * * * * * * * * * * * //

dimensions      [0 3 -1 0 0 0 0];

oriented        oriented;

internalField   nonuniform List<scalar> 
26232
(
1.78195e-05
0.00100898
-0.0010268
0.000317099
0.00195772
-0.002257
0.00109571
0.00198679
-0.0027654
0.00252923
0.0011359
-0.00256941
0.0047856
-0.000582361
-0.00167401
0.00802788
-0.00316936
-7.29129e-05
0.012411
-0.00662849
0.00224536
0.0180675
-0.010953
0.0052965
0.0250915
-0.0161125
0.00908848
0.0335187
-0.0220432
0.013616
0.0433088
-0.028643
0.0188529
0.0543347
-0.0357724
0.0247465
0.0663817
-0.0432621
0.0312151
0.0791566
-0.0509246
0.0381497
0.0923075
-0.0585686
0.0454176
0.105452
-0.0660142
0.05287
0.118208
-0.0731068
0.0603504
0.13023
-0.0797295
0.0677075
0.141241
-0.0858073
0.0747968
0.151043
-0.0913269
0.0815244
0.159555
-0.0962719
0.08776
0.166721
-0.10082
0.0936539
0.17244
-0.104607
0.0988885
-0.108793
0.104705
0.176528
6.68665e-05
0.000942111
0.00053358
0.00149101
0.00162776
0.000892606
0.00355655
-0.000792891
0.00651478
-0.00354059
0.0106789
-0.00733352
0.0161917
-0.0121413
0.0231393
-0.0179005
0.0315279
-0.0245012
0.0412662
-0.0317815
0.0521582
-0.0395349
0.0639119
-0.0475261
0.0761622
-0.0555125
0.0885052
-0.0632676
0.100538
-0.0706018
0.111902
-0.0773775
0.122313
-0.0835182
0.131593
-0.0890097
0.13968
-0.0938937
0.146608
-0.0982555
0.152534
-0.102197
0.157577
-0.105863
0.162181
-0.109212
-0.112864
0.166253
0.000143704
0.000798407
0.000848695
0.000786019
0.0023651
-0.000623804
0.00492118
-0.00334896
0.00871968
-0.00733909
0.0139184
-0.0125323
0.0206021
-0.018825
0.0287539
-0.0260523
0.0382359
-0.0339832
0.0487887
-0.0423343
0.060051
-0.0507972
0.0715983
-0.0590734
0.0829935
-0.0669077
0.0938383
-0.0741124
0.103818
-0.0805818
0.112734
-0.0862931
0.120512
-0.0912967
0.1272
-0.0956972
0.132935
-0.0996285
0.137912
-0.103233
0.14234
-0.106626
0.146409
-0.109931
0.150298
-0.113101
-0.116568
0.154002
0.000244097
0.000554311
0.00124794
-0.000217825
0.00327314
-0.00264901
0.0065505
-0.00662632
0.0112597
-0.0120482
0.0174944
-0.018767
0.0252265
-0.0265571
0.0342837
-0.0351095
0.0443533
-0.0440528
0.0550149
-0.0529959
0.0657969
-0.0615792
0.0762429
-0.0695194
0.0859724
-0.0766372
0.0947255
-0.0828655
0.102383
-0.088239
0.108959
-0.0928694
0.114576
-0.0969133
0.119418
-0.10054
0.123692
-0.103903
0.127586
-0.107127
0.131257
-0.110296
0.1348
-0.113474
0.138334
-0.116635
-0.120051
0.141817
0.000363686
0.000190624
0.00171308
-0.00156721
0.00430526
-0.00524119
0.00834583
-0.0106669
0.0139492
-0.0176516
0.0210923
-0.0259101
0.029585
-0.0350498
0.0390745
-0.044599
0.0490908
-0.054069
0.0591211
-0.0630262
0.0686934
-0.0711515
0.0774449
-0.0782709
0.0851631
-0.0843554
0.0917924
-0.0894947
0.0974092
-0.0938558
0.102178
-0.0976386
0.106303
-0.101037
0.109979
-0.104216
0.11337
-0.107295
0.116598
-0.110355
0.119744
-0.113442
0.122854
-0.116585
0.125985
-0.119766
-0.123141
0.129076
0.000498973
-0.000308348
0.00222554
-0.00329378
0.00540894
-0.00842458
0.0101925
-0.0154504
0.0165762
-0.0240353
0.0243729
-0.0337068
0.0332066
-0.0438835
0.0425662
-0.0539586
0.0518985
-0.0634013
0.0607096
-0.0718373
0.0686434
-0.0790853
0.0755188
-0.0851463
0.081323
-0.0901596
0.0861716
-0.0943433
0.0902527
-0.097937
0.093773
-0.101159
0.0969181
-0.104183
0.0998328
-0.10713
0.102618
-0.11008
0.10534
-0.113076
0.108039
-0.116141
0.110738
-0.119284
0.113468
-0.122496
-0.125859
0.116186
0.000646591
-0.000954939
0.00276444
-0.00541163
0.00652334
-0.0121835
0.0119604
-0.0208875
0.018915
-0.03099
0.0270103
-0.041802
0.0357046
-0.0525778
0.0444014
-0.0626554
0.0525718
-0.0715717
0.0598466
-0.0791122
0.0660541
-0.0852928
0.0712031
-0.0902953
0.0754309
-0.0943873
0.0789377
-0.0978502
0.081931
-0.10093
0.0845884
-0.103816
0.0870431
-0.106637
0.089385
-0.109472
0.0916703
-0.112365
0.0939325
-0.115339
0.0961916
-0.1184
0.0984588
-0.121551
0.100749
-0.124786
-0.128138
0.103029
0.000801737
-0.00175668
0.0033033
-0.00791319
0.00757678
-0.016457
0.013509
-0.0268197
0.0207492
-0.0382302
0.0287427
-0.0497956
0.0368481
-0.0606832
0.0444838
-0.0702911
0.0512421
-0.07833
0.0569344
-0.0848045
0.0615701
-0.0899285
0.0652941
-0.0940193
0.0683133
-0.0974066
0.0708372
-0.100374
0.0730406
-0.103134
0.0750516
-0.105827
0.0769544
-0.10854
0.0788001
-0.111318
0.0806182
-0.114184
0.0824261
-0.117146
0.0842339
-0.120208
0.0860486
-0.123366
0.0878785
-0.126616
-0.129963
0.0897033
0.000957159
-0.00271384
0.00380911
-0.0107651
0.00848994
-0.0211378
0.0147024
-0.0330321
0.0219056
-0.0454334
0.0294196
-0.0573096
0.0365941
-0.0678577
0.0429535
-0.0766505
0.0482622
-0.0836387
0.0525068
-0.0890491
0.0558267
-0.0932483
0.0584318
-0.0966244
0.0605356
-0.0995104
0.0623157
-0.102154
0.0639006
-0.104719
0.0653732
-0.1073
0.0667827
-0.10995
0.0681568
-0.112692
0.0695113
-0.115538
0.0708555
-0.118491
0.0721956
-0.121548
0.0735363
-0.124706
0.0748813
-0.127961
-0.131302
0.0762199
0.00110323
-0.00381706
0.00424475
-0.0139067
0.00918552
-0.0260786
0.0154311
-0.0392777
0.0222846
-0.0522869
0.0290194
-0.0640444
0.0350629
-0.0739012
0.0400977
-0.0816853
0.0440595
-0.0876005
0.0470662
-0.0920557
0.0493249
-0.0955071
0.0510553
-0.0983547
0.0524424
-0.100898
0.0536201
-0.103332
0.0546745
-0.105773
0.0556558
-0.108281
0.0565916
-0.110885
0.057497
-0.113598
0.0583812
-0.116422
0.0592497
-0.119359
0.0601069
-0.122405
0.060956
-0.125555
0.0617986
-0.128804
-0.132135
0.0626317
0.00122955
-0.00504662
0.00457511
-0.0172522
0.00960157
-0.031105
0.0156305
-0.0453067
0.0218707
-0.058527
0.0276307
-0.0698045
0.0324738
-0.0787442
0.0362495
-0.085461
0.0390306
-0.0903817
0.0410116
-0.0940367
0.0424171
-0.0969127
0.0434439
-0.0993815
0.0442364
-0.10169
0.0448882
-0.103984
0.0454533
-0.106338
0.0459612
-0.108789
0.0464273
-0.111351
0.0468605
-0.114031
0.0472666
-0.116828
0.0476497
-0.119742
0.0480129
-0.122768
0.0483579
-0.1259
0.0486844
-0.12913
-0.132443
0.048993
0.00132922
-0.00637584
0.00477559
-0.0206986
0.00970267
-0.0360321
0.0152888
-0.0508928
0.0207229
-0.0639611
0.0254146
-0.0744962
0.0290844
-0.082414
0.031726
-0.0881026
0.0335022
-0.0921579
0.0346372
-0.0951716
0.0353409
-0.0976164
0.0357738
-0.0998144
0.0360414
-0.101958
0.0362052
-0.104147
0.0362981
-0.106431
0.0363372
-0.108828
0.0363313
-0.111346
0.0362864
-0.113986
0.0362068
-0.116749
0.0360959
-0.119631
0.0359567
-0.122629
0.0357905
-0.125734
0.0355962
-0.128936
0.0353765
-0.132224
-0.000174579
0.00139853
-0.00122395
-0.000626467
0.00367884
-0.00322695
-0.00131185
0.0055901
-0.00490472
-0.00219356
0.00716707
-0.00628537
-0.00323777
0.00845229
-0.00740808
-0.00441357
0.00950137
-0.00832557
-0.00569318
0.0103756
-0.00909601
-0.00705226
0.0111333
-0.00977426
-0.00846996
0.0118229
-0.0104052
-0.00992862
0.0124788
-0.0110202
-0.011413
0.0131198
-0.0116353
-0.0129094
0.0137498
-0.0122534
-0.0144043
0.0143601
-0.0128652
-0.0158831
0.0149313
-0.0134524
-0.0173295
0.0154353
-0.013989
-0.0187241
0.0158373
-0.0144426
-0.0200444
0.016096
-0.0147758
-0.0212642
0.0161654
-0.0149456
-0.0223545
0.0159953
-0.0149051
-0.0232846
0.0155343
-0.0146041
-0.0240245
0.0147318
-0.0139919
-0.0245494
0.0135416
-0.0130167
-0.0248584
0.0119305
-0.0116215
0.00991585
-0.0250132
-0.00976106
-0.000108991
0.00150752
-0.000408439
0.00397829
-0.00088027
0.00606193
-0.00150427
0.00779108
-0.00225728
0.0092053
-0.00311378
0.0103579
-0.00404702
0.0113089
-0.00503034
0.0121167
-0.00603827
0.0128309
-0.00704717
0.0134877
-0.00803526
0.0141079
-0.00898225
0.0146968
-0.00986846
0.0152463
-0.0106738
0.0157366
-0.0113768
0.0161383
-0.0119534
0.0164139
-0.0123763
0.0165189
-0.0126139
0.016403
-0.0126297
0.0160112
-0.0123823
0.0152869
-0.0118256
0.0141751
-0.0109114
0.0126274
-0.00960269
0.0106218
0.00822336
-0.0079102
-4.14958e-05
0.00154902
-0.000179656
0.00411645
-0.000419115
0.00630139
-0.000754495
0.00812646
-0.00117185
0.00962265
-0.00165074
0.0108368
-0.00216516
0.0118233
-0.00268585
0.0126373
-0.00318201
0.0133271
-0.0036228
0.0139285
-0.00397802
0.0144631
-0.00421851
0.0149373
-0.00431572
0.0153435
-0.0042411
0.015662
-0.00396531
0.0158625
-0.00345742
0.015906
-0.00268405
0.0157455
-0.00160862
0.0153276
-0.000190478
0.014593
0.00161809
0.0134783
0.00387319
0.01192
0.00663609
0.00986451
0.00997524
0.00728269
0.00423277
0.0139658
2.02025e-05
0.00152881
3.55194e-05
0.00410113
2.54608e-05
0.00631145
-1.50367e-05
0.00816695
-7.97781e-05
0.00968739
-0.000151359
0.0109083
-0.000204572
0.0118765
-0.000207935
0.0126407
-0.000125763
0.0132449
7.9921e-05
0.0137228
0.000447918
0.0140951
0.00101725
0.014368
0.00182667
0.0145341
0.00291491
0.0145737
0.00432103
0.0144564
0.00608492
0.0141421
0.00824767
0.0135828
0.010852
0.0127232
0.0139429
0.0115021
0.0175678
0.0098534
0.0217789
0.00770897
0.0266407
0.00500264
0.0322133
0.00171007
-0.00224406
0.0386902
6.89707e-05
0.00145984
0.000213777
0.00395632
0.000406957
0.00611827
0.000639023
0.00793489
0.000913627
0.00941279
0.00124539
0.0105766
0.00165921
0.0114627
0.00218825
0.0121117
0.00287193
0.0125612
0.003754
0.0128407
0.00488095
0.0129681
0.00630069
0.0129482
0.00806201
0.0127728
0.0102142
0.0124215
0.0128072
0.0118634
0.0158917
0.0110576
0.0195193
0.00995518
0.0237424
0.00850017
0.0286141
0.00663045
0.034189
0.00427843
0.0405132
0.00138479
0.0476664
-0.00215058
0.0556469
-0.00627039
-0.0114151
0.0648179
9.95694e-05
0.00136027
0.00033662
0.00371927
0.000687551
0.00576734
0.00114561
0.00747682
0.00171554
0.00884286
0.00241269
0.00987943
0.00326248
0.0106129
0.00429944
0.0110747
0.00556569
0.0112949
0.00710941
0.011297
0.00898328
0.0110943
0.0112433
0.0106882
0.0139479
0.0100682
0.0171576
0.00921185
0.0209347
0.00808623
0.0253433
0.00664903
0.0304502
0.0048482
0.0363219
0.00262851
0.0430211
-6.87205e-05
0.0506221
-0.00332262
0.0591745
-0.00716764
0.0687539
-0.0117299
0.079248
-0.0167645
-0.0233304
0.0911633
0.000109122
0.00125115
0.000393723
0.00343467
0.000844651
0.00531641
0.00146499
0.00685649
0.00226575
0.0080421
0.0032662
0.00887897
0.00449453
0.00938456
0.00598783
0.0095814
0.00779167
0.00949112
0.00995916
0.00912953
0.01255
0.00850341
0.0156296
0.0076086
0.0192683
0.0064295
0.0235409
0.0049393
0.0285263
0.00310079
0.034303
0.000872391
0.0409595
-0.00180835
0.0485763
-0.00498822
0.0572337
-0.00872618
0.0669925
-0.0130814
0.0778901
-0.0180652
0.0899993
-0.0238391
0.103094
-0.0298597
-0.0379281
0.117692
9.82695e-05
0.00115288
0.000386585
0.00314635
0.000879656
0.00482334
0.00159687
0.00613927
0.00256072
0.00707825
0.00379886
0.00764084
0.00534623
0.00783718
0.00724653
0.00768111
0.00955279
0.00718485
0.0123275
0.00635478
0.0156424
0.00518858
0.0195773
0.00367366
0.0242195
0.00178731
0.0296614
-0.000502563
0.0360008
-0.00323869
0.0433365
-0.00646325
0.0517536
-0.0102255
0.0613333
-0.0145679
0.0721318
-0.0195247
0.0841736
-0.0251232
0.0974331
-0.0313247
0.111874
-0.0382798
0.127243
-0.0452288
-0.0543674
0.143682
7.18378e-05
0.00108104
0.000331062
0.00288713
0.000823595
0.00433081
0.00159077
0.0053721
0.0026721
0.00599692
0.00410964
0.00620329
0.00595183
0.00599499
0.00825631
0.00537664
0.0110916
0.00434958
0.0145376
0.00290877
0.0186848
0.00104135
0.0236329
-0.00127445
0.029487
-0.0040668
0.0363529
-0.00736848
0.044328
-0.0112137
0.0534971
-0.0156323
0.0639175
-0.0206459
0.0756114
-0.0262618
0.0885533
-0.0324665
0.102656
-0.039226
0.117777
-0.0464455
0.133667
-0.0541698
0.150133
-0.0616952
-0.0708791
0.166645
3.89279e-05
0.00104212
0.000257495
0.00266856
0.000737583
0.00385072
0.00154747
0.00456222
0.00275
0.00479439
0.00440938
0.00454391
0.0065964
0.00380796
0.00939202
0.00258102
0.0128886
0.000852948
0.0171893
-0.00139193
0.0224043
-0.00417362
0.0286443
-0.00751446
0.0360127
-0.0114351
0.0445944
-0.0159503
0.0544442
-0.0210634
0.0655744
-0.0267626
0.0779444
-0.0330159
0.0914522
-0.0397696
0.105929
-0.0469435
0.121142
-0.054439
0.136804
-0.0621073
0.152514
-0.0698798
0.168094
-0.077275
-0.0853369
0.182552
1.18144e-05
0.0010303
0.000206536
0.00247384
0.000703993
0.00335326
0.00160388
0.00366233
0.00299899
0.00339927
0.00498363
0.00255927
0.0076587
0.0011329
0.011134
-0.000894315
0.0155265
-0.00353954
0.0209539
-0.00681934
0.0275257
-0.0107454
0.0353305
-0.0153192
0.0444219
-0.0205265
0.054805
-0.0263334
0.0664247
-0.0326831
0.079158
-0.0394958
0.0928113
-0.0466692
0.107126
-0.0540844
0.121786
-0.0616037
0.136452
-0.0691044
0.150759
-0.0764147
0.164392
-0.0835124
0.177132
-0.0900152
-0.0963884
0.188183
3.50461e-06
0.000220344
0.000808202
0.00190112
0.00362639
0.00611275
0.00949101
0.0138932
0.0194421
0.0262388
0.0343463
0.0437736
0.0544622
0.0662785
0.079013
0.0923872
0.106068
0.119692
0.132885
0.145305
0.15665
0.166791
0.175665
0.183981
-0.0242127
0.00865154
-0.00945201
-0.0231478
0.00244549
-0.00351036
-0.0217096
-0.0053433
0.00390505
-0.019946
-0.0148433
0.0130797
-0.0179083
-0.0259441
0.0239064
-0.0155836
-0.0385335
0.0362089
-0.0131429
-0.052062
0.0496212
-0.010741
-0.0660736
0.0636717
-0.00851825
-0.0799857
0.077763
-0.00654889
-0.0931546
0.0911852
-0.00471984
-0.104932
0.103103
-0.00262569
-0.114642
0.112548
0.000367932
-0.121217
0.118223
0.00534634
-0.123355
0.118376
0.0127226
-0.118806
0.11143
0.0226922
-0.105924
0.0959546
0.0347065
-0.083683
0.0716686
0.0479258
-0.0523652
0.0391459
0.0616633
-0.0138162
7.87673e-05
0.0754417
0.0292043
-0.0429827
0.0885996
0.0723534
-0.0855112
0.100088
0.11035
-0.121839
0.108948
0.139236
-0.148095
0.114738
0.157719
-0.163509
0.116998
0.167872
-0.170132
0.114909
0.175499
-0.17341
0.108776
0.186165
-0.180032
0.101641
0.196798
-0.189663
0.0981324
0.192588
-0.18908
0.100977
0.157354
-0.160198
0.109543
0.0884698
-0.0970361
0.121136
0.000707114
-0.0123004
0.132714
-0.0835634
0.0719859
0.141577
-0.148266
0.139403
0.14697
-0.188793
0.183399
0.149452
-0.20718
0.204699
0.148349
-0.211477
0.21258
0.142262
-0.218022
0.224109
0.132576
-0.232317
0.242003
0.12419
-0.233537
0.241923
0.121629
-0.188048
0.19061
0.125513
-0.0914938
0.0876096
0.133401
0.0269987
-0.0348871
0.142215
0.127496
-0.13631
0.148292
0.194356
-0.200434
0.148197
0.240825
-0.240729
0.14177
0.278972
-0.272545
0.132944
0.3005
-0.291675
0.127447
0.255954
-0.250456
0.12885
0.151278
-0.152682
0.135032
-0.00240322
-0.00377808
0.140722
-0.121086
0.115396
0.140943
-0.223848
0.223627
0.136245
-0.29092
0.295618
0.130641
-0.315856
0.321459
0.126952
-0.298014
0.301704
0.127662
-0.13693
0.136219
0.129208
-0.0507147
0.0491688
0.127336
0.172831
-0.170959
0.223287
-0.221283
-0.00641628
0.00715763
-0.0049176
0.000946808
-0.00318791
-0.007073
-0.00127154
-0.0167596
0.00076877
-0.0279844
0.00263597
-0.0404007
0.00433758
-0.0537636
0.00570731
-0.0674433
0.0064897
-0.080768
0.00646008
-0.093125
0.00557685
-0.104049
0.00405117
-0.113116
0.00271179
-0.119877
0.0026763
-0.123319
0.0055162
-0.121646
0.0119305
-0.112338
0.021925
-0.0936775
0.0347009
-0.0651411
0.0491448
-0.0282601
0.0643719
0.0139772
0.0793001
0.0574252
0.0928568
0.0967934
0.10394
0.128153
0.111728
0.149931
0.115383
0.164217
0.114367
0.176515
0.109842
0.19069
0.105261
0.201379
0.104461
0.193388
0.108903
0.152912
0.117475
0.0798978
0.127873
-0.00969113
0.137684
-0.0933743
0.144637
-0.155219
0.14809
-0.192246
0.148981
-0.208071
0.147061
-0.209556
0.140642
-0.211604
0.130466
-0.222141
0.121284
-0.224356
0.11821
-0.184973
0.122405
-0.0956893
0.131406
0.0179976
0.141505
0.117398
0.148543
0.187318
0.149069
0.240299
0.143104
0.284937
0.134622
0.308983
0.129082
0.261493
0.13001
0.15035
0.135675
-0.00806821
0.141089
-0.126501
0.141179
-0.223937
0.136343
-0.286084
0.130974
-0.310487
0.127585
-0.294626
0.12824
-0.137585
0.129393
-0.0518674
0.126761
0.175463
0.225651
0.0159351
0.00518835
0.0178613
-0.000979376
0.0197666
-0.00897829
0.0216372
-0.0186303
0.0233754
-0.0297227
0.0249663
-0.0419916
0.0262181
-0.0550154
0.0269325
-0.0681577
0.0268652
-0.0807008
0.0257203
-0.0919801
0.023169
-0.101498
0.0191318
-0.109079
0.0140514
-0.114797
0.00916558
-0.118433
0.00628566
-0.118766
0.00740759
-0.11346
0.0134534
-0.0997233
0.0241199
-0.0758076
0.0381055
-0.0422458
0.0541942
-0.00211146
0.0705274
0.041092
0.0859176
0.0814032
0.0989959
0.115074
0.108574
0.140352
0.113664
0.159127
0.114177
0.176002
0.111903
0.192965
0.110219
0.203064
0.111964
0.191643
0.117581
0.147295
0.1257
0.0717786
0.134572
-0.0185628
0.142384
-0.101186
0.147382
-0.160217
0.148988
-0.193851
0.148358
-0.207441
0.145724
-0.206922
0.139219
-0.205099
0.128831
-0.211752
0.118969
-0.214494
0.115285
-0.181289
0.119609
-0.100014
0.129523
0.00808386
0.140777
0.106144
0.148771
0.179324
0.150026
0.239043
0.144677
0.290286
0.136658
0.317002
0.131095
0.267056
0.131446
0.149999
0.136462
-0.0130838
0.141568
-0.131607
0.141556
-0.223925
0.13657
-0.281097
0.131377
-0.305295
0.128288
-0.291537
0.128892
-0.138188
0.129714
-0.0526898
0.126359
0.178818
0.228384
0.0408393
0.00303924
0.0431459
-0.00328601
0.0452816
-0.0111139
0.0471994
-0.0205481
0.0488099
-0.0313332
0.0500568
-0.0432384
0.0508385
-0.0557971
0.0510027
-0.0683219
0.0503263
-0.0800243
0.0484848
-0.0901386
0.0451107
-0.0981237
0.0398802
-0.103849
0.032731
-0.107648
0.0243308
-0.110033
0.0163595
-0.110795
0.0113155
-0.108416
0.011489
-0.0998968
0.0178779
-0.0821966
0.029718
-0.0540858
0.0451244
-0.0175178
0.0622582
0.0239582
0.0790504
0.064611
0.0938083
0.100316
0.105034
0.129127
0.111766
0.152395
0.114335
0.173433
0.114826
0.192474
0.116173
0.201717
0.120165
0.187651
0.126494
0.140966
0.133896
0.0643758
0.141036
-0.0257026
0.146735
-0.106886
0.149772
-0.163253
0.149652
-0.193732
0.147582
-0.205371
0.14428
-0.20362
0.137882
-0.198701
0.12759
-0.20146
0.117242
-0.204146
0.112883
-0.17693
0.117119
-0.104249
0.127724
-0.00252205
0.139997
0.0938708
0.148942
0.170379
0.15104
0.236946
0.146467
0.294858
0.139031
0.324439
0.133472
0.272615
0.133157
0.150313
0.137392
-0.0173188
0.142143
-0.136357
0.142055
-0.223837
0.136911
-0.275953
0.13182
-0.300203
0.129011
-0.288728
0.129587
-0.138764
0.13015
-0.0532532
0.126123
0.182846
0.231479
0.0670945
0.000762674
0.069587
-0.00577857
0.0718717
-0.0133986
0.0737541
-0.0224305
0.0751328
-0.0327119
0.0759524
-0.044058
0.0761115
-0.0559562
0.0754901
-0.0677005
0.0739675
-0.0785017
0.0713984
-0.0875695
0.0675606
-0.0942859
0.0621141
-0.0984022
0.0546523
-0.100186
0.0450603
-0.100441
0.0341735
-0.0999082
0.0241204
-0.0983632
0.0178758
-0.0936522
0.0179957
-0.0823165
0.0252442
-0.0613344
0.0382158
-0.0304894
0.0547296
0.00744433
0.0721059
0.0472347
0.0880832
0.0843392
0.100849
0.116362
0.109506
0.143737
0.114625
0.168313
0.118242
0.188857
0.12262
0.197339
0.128546
0.181725
0.135246
0.134266
0.141669
0.0579528
0.147067
-0.0311
0.15063
-0.110449
0.151717
-0.16434
0.150013
-0.192028
0.146628
-0.201986
0.142695
-0.199688
0.136555
-0.192561
0.126655
-0.191559
0.116061
-0.193552
0.111019
-0.171888
0.114948
-0.108179
0.125982
-0.0135555
0.139118
0.0807347
0.149006
0.160491
0.15206
0.233892
0.148426
0.298492
0.141687
0.331179
0.136167
0.278134
0.135124
0.151357
0.138461
-0.020656
0.142793
-0.140689
0.142651
-0.223695
0.137356
-0.270659
0.13228
-0.295127
0.129715
-0.286164
0.1303
-0.139349
0.130679
-0.0536324
0.126044
0.187481
0.234919
0.0938922
-0.0019662
0.0962475
-0.00813383
0.0983529
-0.015504
0.0999011
-0.0239787
0.100784
-0.0335949
0.100929
-0.0442026
0.100231
-0.0552583
0.0986142
-0.0660839
0.0960494
-0.0759368
0.0925323
-0.0840525
0.0880468
-0.0898003
0.082485
-0.0928404
0.0755293
-0.09323
0.0666683
-0.0915802
0.0556868
-0.0889268
0.043473
-0.0861494
0.0324998
-0.0826789
0.0260981
-0.0759148
0.0268452
-0.0620815
0.0350426
-0.0386868
0.048936
-0.00644909
0.0655436
0.0306271
0.0819904
0.0678924
0.096095
0.102257
0.106858
0.132974
0.11482
0.160351
0.121697
0.18198
0.12897
0.190066
0.136557
0.174138
0.143368
0.127455
0.148794
0.0525258
0.152486
-0.0347913
0.153975
-0.111938
0.15314
-0.163504
0.150003
-0.188892
0.145466
-0.197449
0.140928
-0.195149
0.135134
-0.186768
0.125896
-0.182321
0.115324
-0.18298
0.109641
-0.166206
0.113066
-0.111603
0.124253
-0.024743
0.138074
0.0669138
0.148893
0.149672
0.153018
0.229767
0.150476
0.301033
0.144536
0.337119
0.139103
0.283567
0.137306
0.153154
0.139655
-0.023005
0.143497
-0.144531
0.143313
-0.223512
0.13789
-0.265235
0.132744
-0.289981
0.130374
-0.283793
0.131007
-0.139982
0.131277
-0.053902
0.126112
0.192646
0.238673
0.120006
-0.00428024
0.121977
-0.0101048
0.123554
-0.0170803
0.124415
-0.0248406
0.124491
-0.0336707
0.12369
-0.0434011
0.121901
-0.0534701
0.119094
-0.0632761
0.115314
-0.0721573
0.110668
-0.079406
0.105294
-0.0844266
0.0993125
-0.0868591
0.0927023
-0.0866199
0.0851194
-0.0839973
0.0759206
-0.079728
0.0647165
-0.0749453
0.0524171
-0.0703795
0.0416821
-0.0651798
0.0360037
-0.056403
0.0377453
-0.0404285
0.0467965
-0.0155003
0.0607557
0.0166679
0.076498
0.0521502
0.0913998
0.0873551
0.104116
0.120258
0.114866
0.149602
0.124827
0.172018
0.134672
0.180221
0.143611
0.165198
0.150488
0.120579
0.15501
0.048004
0.157143
-0.0369245
0.15666
-0.111456
0.15397
-0.160815
0.149555
-0.184477
0.144063
-0.191957
0.138948
-0.190034
0.133521
-0.181341
0.125169
-0.173969
0.114898
-0.172709
0.108655
-0.159963
0.111394
-0.114342
0.122471
-0.0358193
0.136786
0.0525986
0.148517
0.137941
0.153823
0.22446
0.15252
0.302337
0.147471
0.342168
0.142177
0.288861
0.13964
0.15569
0.140951
-0.0243155
0.144229
-0.147809
0.144009
-0.223292
0.138496
-0.259723
0.133205
-0.28469
0.130967
-0.281555
0.131688
-0.140703
0.13192
-0.0541341
0.126316
0.19825
0.242697
0.1449
-0.00549848
0.14599
-0.0111944
0.146493
-0.0175833
0.146189
-0.0245372
0.145053
-0.0325341
0.142968
-0.041316
0.139833
-0.0503352
0.135664
-0.0591068
0.130572
-0.0670655
0.124748
-0.0735816
0.118438
-0.0781171
0.111897
-0.0803177
0.105305
-0.0800282
0.098631
-0.0773233
0.0914517
-0.0725487
0.0829547
-0.0664483
0.072621
-0.0600458
0.0613327
-0.0538915
0.0518128
-0.0468832
0.0474709
-0.0360866
0.0503393
-0.0183687
0.0597562
0.00725098
0.0732104
0.038696
0.0878586
0.0727069
0.101867
0.106249
0.114899
0.13657
0.12745
0.159467
0.139385
0.168285
0.149354
0.15523
0.156224
0.113709
0.160025
0.0442028
0.160825
-0.0377246
0.158564
-0.109194
0.154144
-0.156394
0.148597
-0.17893
0.142368
-0.185729
0.136728
-0.184394
0.131623
-0.176235
0.124317
-0.166663
0.114625
-0.163017
0.107933
-0.153271
0.109837
-0.116247
0.120539
-0.0465214
0.135167
0.0379714
0.147788
0.12532
0.154373
0.217876
0.154435
0.302274
0.150363
0.346239
0.145264
0.29396
0.142053
0.158901
0.142315
-0.0245776
0.144961
-0.150455
0.144702
-0.223033
0.139153
-0.254174
0.133657
-0.279194
0.131479
-0.279377
0.132323
-0.141547
0.132586
-0.0543971
0.126647
0.204189
0.246933
0.166595
-0.00544903
0.16629
-0.0108894
0.165259
-0.0165516
0.16344
-0.0227186
0.160829
-0.0299232
0.157278
-0.0377647
0.152718
-0.045775
0.147211
-0.0536006
0.140913
-0.0607674
0.134064
-0.0667326
0.126974
-0.0710269
0.119966
-0.0733098
0.113314
-0.0733755
0.107162
-0.0711722
0.101413
-0.066799
0.0955197
-0.0605552
0.088553
-0.0530791
0.0799238
-0.0452623
0.0704856
-0.0374449
0.0628711
-0.0284721
0.0602568
-0.0157544
0.0641408
0.003367
0.0737327
0.0291041
0.0866916
0.0597479
0.100853
0.0920879
0.115233
0.122191
0.129573
0.145127
0.142963
0.154895
0.153621
0.144572
0.160506
0.106824
0.163735
0.0409733
0.163404
-0.0373933
0.159561
-0.105351
0.153565
-0.150398
0.147022
-0.172388
0.140283
-0.17899
0.134213
-0.178324
0.129344
-0.171366
0.123173
-0.160492
0.114337
-0.15418
0.107337
-0.146272
0.10828
-0.11719
0.118364
-0.0566048
0.133124
0.0232107
0.146606
0.111838
0.154568
0.209914
0.156121
0.300721
0.153087
0.349274
0.148245
0.298802
0.144457
0.162689
0.143705
-0.0238261
0.145662
-0.152411
0.145351
-0.222722
0.139832
-0.248655
0.134096
-0.273458
0.131904
-0.277185
0.132896
-0.142539
0.133255
-0.0547557
0.127095
0.210349
0.251311
0.181444
-0.00434174
0.179758
-0.00920295
0.177219
-0.0140124
0.174004
-0.0195035
0.170064
-0.0259836
0.165242
-0.0329432
0.15953
-0.0400623
0.153023
-0.0470937
0.145894
-0.0536388
0.138406
-0.0592438
0.130882
-0.063503
0.12366
-0.066088
0.117042
-0.0667577
0.111255
-0.0653853
0.106399
-0.0619427
0.102282
-0.056438
0.0982724
-0.0490699
0.0933912
-0.0403811
0.0870313
-0.0310851
0.0799944
-0.0214351
0.0747341
-0.0104941
0.0739484
0.00415271
0.0789204
0.024132
0.0887943
0.0498741
0.101706
0.0791764
0.116216
0.107681
0.131341
0.130002
0.145465
0.140771
0.156473
0.133564
0.163383
0.0999139
0.166236
0.0381202
0.164867
-0.0360249
0.159576
-0.10006
0.152166
-0.142987
0.144753
-0.164975
0.137718
-0.171955
0.131365
-0.171971
0.126626
-0.166626
0.121591
-0.155457
0.113879
-0.146469
0.106761
-0.139154
0.106636
-0.117064
0.11585
-0.0658191
0.130573
0.00848777
0.144883
0.0975279
0.154284
0.200514
0.157414
0.297591
0.155487
0.351201
0.150996
0.303293
0.146778
0.166908
0.145082
-0.0221301
0.146306
-0.153635
0.145928
-0.222345
0.140508
-0.243234
0.134524
-0.267475
0.132244
-0.274904
0.1334
-0.143695
0.133911
-0.055267
0.127654
0.216605
0.255758
0.186664
-0.00282231
0.184136
-0.00667528
0.180737
-0.0106131
0.176754
-0.0155208
0.172054
-0.0212834
0.166547
-0.0274359
0.160279
-0.0337944
0.153352
-0.0401666
0.145943
-0.0462303
0.138315
-0.0516157
0.130778
-0.055966
0.123655
-0.0589652
0.117259
-0.0603608
0.111867
-0.0599937
0.107632
-0.0577078
0.10452
-0.0533261
0.102252
-0.0468015
0.100203
-0.0383327
0.09754
-0.0284218
0.0938177
-0.0177128
0.0898385
-0.00651488
0.0871415
0.00684966
0.0883805
0.022893
0.0945437
0.043711
0.104878
0.068842
0.118119
0.0944401
0.13283
0.115291
0.146826
0.126775
0.157878
0.122513
0.165099
0.0926931
0.16775
0.0354689
0.165457
-0.0337318
0.158844
-0.0934477
0.150236
-0.134379
0.142082
-0.156821
0.134899
-0.164771
0.128407
-0.165479
0.123646
-0.161866
0.119592
-0.151403
0.1132
-0.140076
0.106188
-0.132142
0.104906
-0.115782
0.112958
-0.073871
0.127411
-0.00596515
0.142525
0.0824137
0.153494
0.189545
0.158317
0.292768
0.1575
0.352017
0.153426
0.307367
0.148951
0.171383
0.146448
-0.0196272
0.146909
-0.154096
0.146439
-0.221875
0.14117
-0.237966
0.134954
-0.261258
0.132523
-0.272473
0.133839
-0.145011
0.134537
-0.0559657
0.128315
0.222827
0.260197
0.182399
-0.00124005
0.179675
-0.00395104
0.176403
-0.00734114
0.172528
-0.0116453
0.167885
-0.0166408
0.162531
-0.0220817
0.156533
-0.0277965
0.149982
-0.033616
0.143056
-0.0393048
0.136009
-0.0445677
0.129127
-0.0490843
0.122699
-0.0525375
0.116975
-0.0546364
0.11213
-0.055149
0.108294
-0.0538719
0.105581
-0.0506128
0.104018
-0.0452388
0.103409
-0.0377239
0.103203
-0.0282158
0.102609
-0.0171183
0.101045
-0.00495148
0.0997633
0.00813171
0.100089
0.022567
0.103674
0.0401259
0.111115
0.0614016
0.121959
0.0835959
0.134978
0.102272
0.148042
0.113711
0.159075
0.11148
0.166555
0.0852126
0.168972
0.0330527
0.165248
-0.0300076
0.157375
-0.0855752
0.14797
-0.124974
0.139357
-0.148208
0.132147
-0.157561
0.125631
-0.158963
0.120694
-0.156928
0.117319
-0.148028
0.112299
-0.135056
0.105629
-0.125472
0.103202
-0.113356
0.109901
-0.0805702
0.123724
-0.0197881
0.139406
0.0667314
0.151864
0.177088
0.158508
0.286123
0.158922
0.351603
0.15542
0.310869
0.150926
0.175878
0.147766
-0.0164675
0.147464
-0.153794
0.146888
-0.221298
0.141798
-0.232876
0.13538
-0.25484
0.132768
-0.269862
0.13423
-0.146472
0.135134
-0.0568697
0.129077
0.228884
0.264554
0.205769
0.000244229
-0.207253
0.205033
-0.00321503
0.204205
-0.00651302
0.20299
-0.0104302
0.201289
-0.0149401
0.199037
-0.0198296
0.196179
-0.0249382
0.192662
-0.0300992
0.188472
-0.0351151
0.183652
-0.0397476
0.178294
-0.043726
0.172526
-0.046769
0.166497
-0.048608
0.160358
-0.04901
0.154257
-0.0477704
0.148347
-0.0447027
0.14276
-0.0396524
0.137571
-0.032535
0.132707
-0.0233513
0.12785
-0.0122615
0.122587
0.000312113
0.116787
0.0139314
0.111288
0.0280662
0.107552
0.0438612
0.107273
0.0616813
0.111589
0.0792794
0.12044
0.0934206
0.13309
0.101062
0.149216
0.0953532
0.166944
0.0674845
0.181137
0.0188601
0.188519
-0.0373896
0.188718
-0.0857747
0.183588
-0.119843
0.175689
-0.14031
0.167026
-0.148898
0.157955
-0.149893
0.149389
-0.148362
0.142257
-0.140897
0.134432
-0.12723
0.124576
-0.115616
0.116505
-0.105285
0.115096
-0.0791613
0.119869
-0.0245611
0.125783
0.0608175
0.129603
0.173268
0.131345
0.28438
0.133557
0.349391
0.138445
0.305981
0.144669
0.169653
0.149109
-0.0209076
0.151134
-0.15582
0.149644
-0.219808
0.143002
-0.226234
0.134766
-0.246603
0.128581
-0.263677
0.126242
-0.144134
0.123841
-0.0544686
0.117145
0.235581
0.268123
0.215677
0.00112944
-0.216562
0.214712
-0.00224966
0.213826
-0.00562749
0.212621
-0.00922504
0.210907
-0.0132262
0.208646
-0.0175689
0.205806
-0.0220981
0.202358
-0.0266505
0.198298
-0.0310552
0.193665
-0.0351153
0.188543
-0.0386032
0.183047
-0.0412732
0.17732
-0.0428815
0.171515
-0.043205
0.165787
-0.0420423
0.160296
-0.0392114
0.155193
-0.0345497
0.150606
-0.0279482
0.146612
-0.0193572
0.143094
-0.00874336
0.139702
0.0037045
0.136256
0.0173765
0.132858
0.0314651
0.130516
0.0462028
0.130839
0.061358
0.135126
0.0749929
0.143646
0.0849001
0.15613
0.088578
0.171846
0.0796367
0.187836
0.051495
0.199608
0.0070883
0.204272
-0.0420542
0.202353
-0.083855
0.195668
-0.113158
0.186645
-0.131287
0.177323
-0.139576
0.167948
-0.140518
0.158945
-0.139359
0.151515
-0.133467
0.14404
-0.119755
0.134401
-0.105977
0.125527
-0.096411
0.122924
-0.0765585
0.127067
-0.0287037
0.133305
0.0545789
0.137806
0.168767
0.140443
0.281744
0.143805
0.346029
0.149958
0.299828
0.157105
0.162506
0.161578
-0.0253808
0.162955
-0.157197
0.160654
-0.217507
0.153295
-0.218875
0.144162
-0.23747
0.137281
-0.256796
0.134531
-0.141383
0.131873
-0.051811
0.124811
0.242643
0.271834
0.224883
0.00166142
-0.225415
0.224077
-0.00144389
0.223118