/*--------------------------------*- C++ -*----------------------------------*\
| =========                 |                                                 |
| \\      /  F ield         | OpenFOAM: The Open Source CFD Toolbox           |
|  \\    /   O peration     | Version:  2512                                  |
|   \\  /    A nd           | Website:  www.openfoam.com                      |
|    \\/     M anipulation  |                                                 |
\*---------------------------------------------------------------------------*/
FoamFile
{
    version     2.0;
    format      ascii;
    arch        "LSB;label=32;scalar=64";
    class       volVectorField;
    location    "153.5";
    object      U;
}
// * * * * * * * * * * * * * * * * * * * * * * * * * * * * * * * * * * * * * //

dimensions      [0 1 -1 0 0 0 0];

internalField   nonuniform List<vector> 
13248
(
(-0.0130851 0.0126995 1.00312e-19)
(-0.0207069 0.0264451 0)
(-0.00904201 0.0335013 -1.89491e-19)
(0.0206407 0.035197 1.78492e-19)
(0.0673648 0.0328621 1.67252e-19)
(0.13026 0.0277298 0)
(0.208271 0.0208171 0)
(0.299912 0.0129404 4.09718e-19)
(0.403025 0.00472269 -2.01407e-22)
(0.514605 -0.0034075 -3.61014e-19)
(0.6308 -0.0112096 3.37962e-19)
(0.747121 -0.0186074 -2.11769e-19)
(0.858828 -0.0256492 0)
(0.961414 -0.0324559 -3.62708e-19)
(1.05109 -0.0391632 6.74104e-19)
(1.12516 -0.0458709 -1.61707e-19)
(1.1823 -0.0526066 -2.76258e-19)
(1.22253 -0.0593203 2.59378e-19)
(1.24713 -0.0658551 0)
(1.25825 -0.0721765 0)
(1.25869 -0.0775931 0)
(1.25041 -0.0840316 0)
(1.23754 -0.0853859 6.72489e-20)
(1.21646 -0.100926 2.25678e-19)
(-0.011622 0.0100362 -3.0262e-19)
(-0.01223 0.0179699 2.0599e-19)
(0.00998695 0.0201675 -1.76751e-21)
(0.0533486 0.0183969 -2.72202e-19)
(0.116566 0.0142054 -1.67072e-19)
(0.198234 0.00891485 -1.58237e-19)
(0.296335 0.00351336 -2.92728e-19)
(0.40792 -0.00132206 2.76328e-19)
(0.528953 -0.0052157 0)
(0.654402 -0.00808836 8.486e-22)
(0.77862 -0.0101235 1.075e-21)
(0.895934 -0.0116944 2.09285e-19)
(1.00129 -0.0132619 0)
(1.09085 -0.0152652 0)
(1.16233 -0.0180279 2.40572e-19)
(1.21514 -0.0217 -4.52194e-19)
(1.25026 -0.0262431 2.62592e-19)
(1.26988 -0.0314554 -2.46561e-19)
(1.27691 -0.0370277 -1.05284e-19)
(1.27447 -0.0425972 -1.86769e-19)
(1.26544 -0.0477564 -7.2592e-20)
(1.25223 -0.0524398 -1.34761e-19)
(1.23671 -0.0545816 2.047e-19)
(1.2187 -0.0610566 5.61457e-20)
(-0.00906654 0.0073062 0)
(0.000233043 0.009782 0)
(0.0365701 0.00806585 9.63242e-20)
(0.0974565 0.0041297 8.89876e-20)
(0.180784 -0.000361701 -1.74011e-21)
(0.283931 -0.00406936 -1.62678e-19)
(0.403098 -0.00616366 0)
(0.533093 -0.00631011 -1.37712e-19)
(0.667538 -0.00463135 1.29136e-19)
(0.799456 -0.00163672 -1.52389e-22)
(0.922129 0.00190921 -2.21899e-19)
(1.02996 0.00516241 -2.02795e-19)
(1.11914 0.00737686 4.51596e-21)
(1.18794 0.00804093 -1.64699e-19)
(1.23669 0.00694522 3.9852e-19)
(1.26737 0.00417645 0)
(1.28304 5.36324e-05 -2.50333e-19)
(1.2872 -0.00497089 1.22826e-19)
(1.28324 -0.0103923 1.05202e-19)
(1.27398 -0.0157889 0)
(1.26164 -0.0206284 8.29296e-20)
(1.2475 -0.0251511 -2.76585e-19)
(1.23282 -0.0274168 2.59644e-19)
(1.21704 -0.033982 1.5489e-19)
(-0.00488798 0.00436201 -1.0613e-19)
(0.0178265 0.00178206 -1.09568e-19)
(0.072059 -0.00262257 9.95365e-20)
(0.154056 -0.00702724 0)
(0.260196 -0.00987094 0)
(0.385774 -0.0100118 -2.98417e-21)
(0.524376 -0.00705624 0)
(0.668106 -0.00132378 -4.17667e-19)
(0.808441 0.00630292 3.88103e-19)
(0.93742 0.0146051 -4.79838e-19)
(1.04878 0.0223084 1.10405e-19)
(1.13872 0.0283469 0)
(1.20609 0.0320434 1.80943e-19)
(1.25213 0.0331724 -3.34048e-19)
(1.27976 0.0319113 7.98203e-20)
(1.2928 0.0287195 1.99945e-19)
(1.2952 0.0241906 -1.12547e-20)
(1.29042 0.0189254 -2.19809e-19)
(1.28119 0.0134419 0)
(1.26944 0.00814964 0)
(1.25641 0.00335691 -7.55692e-20)
(1.24281 -0.000931739 6.68893e-20)
(1.22925 -0.00360864 2.33507e-19)
(1.21518 -0.00946006 -2.1929e-19)
(0.00141468 0.00121932 -1.1101e-19)
(0.0415403 -0.00580329 -1.11042e-19)
(0.11737 -0.011362 3.12511e-19)
(0.223334 -0.0142087 -1.90489e-19)
(0.353453 -0.0132355 1.79291e-19)
(0.50005 -0.00786613 3.27175e-19)
(0.653572 0.00146341 -2.30929e-19)
(0.803651 0.013467 -2.80554e-19)
(0.940726 0.0263914 5.85461e-21)
(1.05756 0.0384527 3.60262e-19)
(1.15016 0.0482176 0)
(1.21784 0.0548337 9.79954e-20)
(1.26267 0.0580755 0)
(1.28847 0.0582345 -1.58805e-19)
(1.29976 0.0559256 2.23433e-19)
(1.30088 0.0518844 2.5086e-21)
(1.29542 0.0468103 -5.75631e-20)
(1.28605 0.041278 1.07274e-19)
(1.27459 0.0357145 9.16198e-20)
(1.26213 0.0304092 -8.14903e-20)
(1.24932 0.0255591 7.55501e-20)
(1.23651 0.0211874 -6.68713e-20)
(1.22394 0.0178589 0)
(1.21133 0.0123501 -5.0025e-20)
(0.0102581 -0.00192726 1.10994e-19)
(0.0720758 -0.0123621 1.16099e-19)
(0.172809 -0.0171757 -1.04632e-19)
(0.304421 -0.0161996 1.95217e-19)
(0.457686 -0.00927224 -1.83732e-19)
(0.621337 0.00311994 1.6662e-19)
(0.782853 0.0193131 -7.9767e-20)
(0.930558 0.0369182 2.1059e-19)
(1.05571 0.0535044 -1.31938e-19)
(1.1537 0.0671627 2.32766e-19)
(1.22406 0.0768094 -5.36056e-19)
(1.26959 0.0822068 1.96052e-19)
(1.29496 0.0837739 -1.71206e-19)
(1.30541 0.0823031 1.60823e-19)
(1.30575 0.0786924 1.37781e-19)
(1.29979 0.0737589 1.20133e-19)
(1.29026 0.0681487 -3.33608e-19)
(1.27892 0.0623247 2.06703e-19)
(1.2668 0.0565946 -9.16225e-20)
(1.25448 0.0511555 2.36694e-19)
(1.24226 0.0461251 -7.6466e-20)
(1.23027 0.0415596 -1.83279e-19)
(1.21859 0.0377161 1.68746e-19)
(1.20701 0.0325152 5.00102e-20)
(0.0219406 -0.00473368 0)
(0.109732 -0.0169611 8.35819e-22)
(0.237921 -0.0187561 2.17332e-19)
(0.39529 -0.0116243 -2.03991e-19)
(0.568677 0.00303319 -1.84605e-19)
(0.743226 0.0231538 3.43128e-19)
(0.90456 0.0456407 -1.59367e-19)
(1.04164 0.0672109 2.12258e-19)
(1.14856 0.0852733 -4.84053e-21)
(1.22462 0.0983776 -1.199e-19)
(1.27313 0.106218 2.61212e-19)
(1.29962 0.109342 -3.84508e-19)
(1.31013 0.108749 0)
(1.3101 0.10554 -7.49859e-20)
(1.3037 0.100689 -1.99809e-19)
(1.29386 0.0949432 6.28624e-20)
(1.28237 0.0888227 2.74008e-21)
(1.27028 0.0826636 -1.36155e-19)
(1.25811 0.0766746 9.37034e-21)
(1.24614 0.0709819 1.57041e-19)
(1.23446 0.065661 -6.92556e-20)
(1.22311 0.0607673 -2.59935e-20)
(1.21209 0.0563318 8.11728e-20)
(1.20128 0.0512246 0)
(0.0366119 -0.00675085 0)
(0.15431 -0.0184731 5.87915e-20)
(0.311376 -0.0146847 -2.81649e-19)
(0.492803 0.000750014 1.02756e-19)
(0.681288 0.0242187 -9.67071e-20)
(0.859295 0.0517491 -8.80769e-20)
(1.01254 0.0789815 -1.56106e-19)
(1.13279 0.102312 7.77789e-20)
(1.21837 0.119659 6.79619e-20)
(1.27276 0.130511 0)
(1.3023 0.135518 1.53916e-19)
(1.314 0.135924 -2.28291e-19)
(1.31412 0.133098 1.70153e-19)
(1.30744 0.128233 7.50261e-20)
(1.2972 0.122228 -6.11477e-20)
(1.28538 0.115691 -5.09817e-20)
(1.27308 0.109007 -4.74508e-20)
(1.26084 0.102405 1.42432e-19)
(1.2489 0.0960216 0)
(1.23735 0.0899406 7.09383e-20)
(1.22621 0.0842174 5.91614e-20)
(1.21545 0.0788887 -1.47385e-19)
(1.20503 0.0738974 -9.97797e-20)
(1.19486 0.0688057 9.24731e-20)
(0.0542378 -0.00747017 -6.23201e-20)
(0.205041 -0.015729 -1.8866e-21)
(0.39098 -0.0036842 5.71284e-20)
(0.592969 0.0217228 1.59259e-19)
(0.790154 0.0541612 4.62305e-20)
(0.964121 0.0877958 -8.92884e-20)
(1.10298 0.117594 8.18593e-20)
(1.20294 0.140402 -7.19632e-20)
(1.26702 0.155228 1.28422e-19)
(1.3022 0.162726 5.48212e-20)
(1.31663 0.164421 -1.551e-19)
(1.31767 0.162038 4.58483e-20)
(1.31097 0.15708 7.8161e-20)
(1.30032 0.150672 -3.84542e-20)
(1.28802 0.143563 0)
(1.27529 0.136209 5.73491e-20)
(1.26273 0.128875 9.69593e-20)
(1.25059 0.121714 1.65074e-20)
(1.23895 0.114813 -8.07376e-20)
(1.22782 0.10823 3.38216e-20)
(1.21715 0.102003 0)
(1.20689 0.0961408 -2.64888e-20)
(1.19699 0.0905755 -2.47336e-20)
(1.18734 0.0853138 0)
(0.07456 -0.00637149 0)
(0.260563 -0.0076693 3.25375e-20)
(0.473799 0.0151653 6.02765e-20)
(0.691393 0.0514871 -1.61522e-19)
(0.89042 0.0920901 5.18979e-20)
(1.05393 0.129799 0)
(1.17439 0.159785 7.82997e-20)
(1.25326 0.180078 -1.09202e-19)
(1.29772 0.191107 -6.39208e-20)
(1.31715 0.194663 2.90223e-20)
(1.32031 0.192925 -4.61505e-20)
(1.3141 0.187844 1.12228e-19)
(1.30315 0.180879 5.63865e-20)
(1.29028 0.172993 -3.91497e-20)
(1.27696 0.164764 -3.63941e-21)
(1.2639 0.156512 -1.07638e-19)
(1.25138 0.148413 4.9036e-20)
(1.23948 0.140564 -1.11819e-21)
(1.22821 0.133023 0)
(1.2175 0.12583 -3.38564e-20)
(1.20731 0.119005 0)
(1.19754 0.112534 7.65846e-20)
(1.18815 0.106406 -9.12355e-20)
(1.17898 0.100839 4.15607e-20)
(0.097071 -0.00297025 -1.6679e-20)
(0.318971 0.0065302 -8.15926e-20)
(0.556419 0.0422903 9.25433e-20)
(0.783784 0.0896017 5.46158e-20)
(0.978258 0.136743 -2.61823e-20)
(1.12665 0.17614 4.38538e-20)
(1.22706 0.2041 -2.13603e-20)
(1.28596 0.220356 3.56057e-20)
(1.31376 0.226822 0)
(1.321 0.226222 8.08623e-20)
(1.3162 0.221121 -3.20567e-21)
(1.3053 0.213482 -6.54739e-20)
(1.29188 0.204602 2.81533e-20)
(1.27786 0.19525 -3.1888e-20)
(1.26415 0.185843 -1.2254e-20)
(1.25109 0.176596 1.40034e-20)
(1.23878 0.167619 -1.09295e-20)
(1.22721 0.158972 -5.91483e-20)
(1.21634 0.150692 3.62981e-20)
(1.20609 0.142803 7.49279e-21)
(1.19637 0.135306 6.60957e-21)
(1.1871 0.128176 5.83088e-21)
(1.17819 0.121483 0)
(1.16949 0.115435 0)
(0.121095 0.00314882 1.66906e-20)
(0.378071 0.0273819 -1.6775e-20)
(0.635416 0.0775735 -3.07854e-20)
(0.866501 0.135078 0)
(1.05112 0.186587 -1.29499e-20)
(1.18165 0.225287 -1.15762e-20)
(1.26214 0.249404 -1.99173e-20)
(1.30335 0.260603 0)
(1.31772 0.262143 0)
(1.31597 0.257401 0)
(1.30581 0.249076 0)
(1.29207 0.238993 0)
(1.27735 0.228235 -1.77276e-20)
(1.26289 0.217381 8.08642e-21)
(1.24917 0.206713 1.41096e-20)
(1.23634 0.196365 6.58651e-21)
(1.22438 0.186402 1.64284e-20)
(1.21325 0.176856 0)
(1.20286 0.167747 -3.9831e-21)
(1.19313 0.159086 -3.76508e-21)
(1.18396 0.150856 -6.62002e-21)
(1.17524 0.14304 -5.84012e-21)
(1.16686 0.13579 0)
(1.15869 0.12913 4.24475e-21)
(-0.00276502 0.0394518 9.54911e-21)
(-0.0101757 0.0850041 -9.90078e-21)
(-0.0220118 0.107692 -1.87412e-20)
(-0.0361733 0.114617 0)
(-0.0514628 0.11127 -2.49946e-20)
(-0.0672822 0.101635 7.75409e-21)
(-0.0832019 0.0883023 -1.50125e-20)
(-0.0988973 0.0726958 0)
(-0.114131 0.0553763 0)
(-0.128724 0.0363621 0)
(-0.142541 0.0153997 0)
(-0.155421 -0.00784653 0)
(-0.167233 -0.0336449 -3.21861e-22)
(-0.177893 -0.0621358 -9.90559e-21)
(-0.187266 -0.0933901 1.93975e-20)
(-0.195201 -0.127294 2.70413e-20)
(-0.201553 -0.163564 8.90788e-21)
(-0.206172 -0.201732 0)
(-0.208923 -0.241137 7.11359e-21)
(-0.209699 -0.280919 -2.05334e-20)
(-0.208418 -0.320046 -1.27837e-20)
(-0.204964 -0.357343 -1.17344e-20)
(-0.199298 -0.391541 0)
(-0.191969 -0.421319 0)
(-0.00528924 0.0433386 -2.9044e-20)
(-0.0148487 0.0947345 4.98439e-20)
(-0.0264689 0.121726 -1.93346e-20)
(-0.0391544 0.1317 -3.6141e-20)
(-0.0522965 0.130386 5.07739e-20)
(-0.0655798 0.121985 -3.24184e-20)
(-0.0787163 0.109285 4.55002e-20)
(-0.09144 0.0938633 2.96465e-20)
(-0.103528 0.0763974 0)
(-0.114801 0.0569857 -2.58238e-20)
(-0.125115 0.0354275 -5.15466e-22)
(-0.134348 0.0114301 2.27175e-20)
(-0.14234 -0.0152986 3.38906e-20)
(-0.149045 -0.0449656 4.25872e-20)
(-0.154439 -0.0775925 -1.91358e-20)
(-0.158407 -0.113081 -5.6027e-20)
(-0.160892 -0.151161 1.84534e-20)
(-0.161869 -0.191365 -6.79778e-20)
(-0.161341 -0.233017 0)
(-0.159373 -0.275226 1.38365e-20)
(-0.156069 -0.316891 1.27662e-20)
(-0.151447 -0.356736 1.17183e-20)
(-0.145425 -0.393371 0)
(-0.138942 -0.425274 0)
(-0.00798355 0.0456347 0)
(-0.0198009 0.10136 1.04762e-19)
(-0.0308736 0.132166 -3.9406e-20)
(-0.0414298 0.145217 3.69073e-20)
(-0.0515176 0.146175 -1.06391e-19)
(-0.0611413 0.139303 0)
(-0.0701816 0.12751 -6.39217e-20)
(-0.0784468 0.11252 3.05071e-20)
(-0.0857303 0.0951476 -5.86033e-20)
(-0.09184 0.0756023 2.90925e-20)
(-0.0966127 0.0537628 1.58308e-19)
(-0.0999218 0.0293789 -7.44914e-20)
(-0.101698 0.00218886 -1.18202e-19)
(-0.101827 -0.0280171 -4.71028e-20)
(-0.10024 -0.061245 -7.72058e-22)
(-0.0969778 -0.0974012 1.61442e-19)
(-0.0920671 -0.13621 -7.60176e-20)
(-0.0855865 -0.177196 -2.17531e-21)
(-0.0776824 -0.21967 0)
(-0.0685869 -0.262718 -6.33745e-20)
(-0.0586175 -0.305204 0)
(-0.0480697 -0.345778 -4.87108e-20)
(-0.0367912 -0.383022 1.86683e-19)
(-0.0249099 -0.415311 -3.99569e-21)
(-0.0105711 0.046087 0)
(-0.024578 0.104202 1.36446e-21)
(-0.034865 0.138023 4.13393e-20)
(-0.0428354 0.153962 -3.93406e-20)
(-0.049191 0.157304 3.54082e-20)
(-0.0542701 0.152181 2.08624e-19)
(-0.0581476 0.141532 -6.54204e-20)
(-0.0607305 0.127186 -6.34927e-20)
(-0.061845 0.110095 1.19091e-19)
(-0.0612963 0.0905981 -1.70481e-19)
(-0.0589045 0.068674 5.45533e-20)
(-0.0545267 0.0441387 5.27103e-20)
(-0.0480621 0.0167786 0)
(-0.0394357 -0.0135311 4.60396e-20)
(-0.0285998 -0.046842 0)
(-0.0156003 -0.0830281 8.64846e-20)
(-0.000541068 -0.121781 -1.60335e-19)
(0.0163976 -0.162587 3.71858e-20)
(0.034939 -0.20471 1.4082e-19)
(0.0546892 -0.247195 6.32955e-20)
(0.0751266 -0.288869 0)
(0.0954948 -0.328393 -1.58305e-19)
(0.115412 -0.364093 5.03268e-20)
(0.138454 -0.393409 0)
(-0.0127825 0.0446795 0)
(-0.0287268 0.103007 -1.3268e-19)
(-0.0381103 0.138727 -4.23985e-20)
(-0.0432906 0.15709 -7.94064e-20)
(-0.0455354 0.162719 7.4768e-20)
(-0.0455012 0.15944 -7.01341e-20)
(-0.0434746 0.150098 1.36006e-19)
(-0.0394899 0.13657 6.51718e-20)
(-0.0334316 0.119922 -1.82388e-19)
(-0.0251203 0.100624 1.18202e-19)
(-0.0143677 0.0787713 -1.67428e-19)
(-0.00101738 0.0542702 3.77543e-19)
(0.0150501 0.0269765 -2.02777e-19)
(0.0339133 -0.00320266 9.85452e-20)
(0.0555913 -0.0362657 2.801e-19)
(0.0800111 -0.0720574 -8.51408e-20)
(0.106999 -0.110227 -8.34062e-20)
(0.136262 -0.150204 -7.72475e-20)
(0.16737 -0.191184 0)
(0.199736 -0.232146 -1.31765e-19)
(0.232558 -0.271892 -1.1555e-19)
(0.265053 -0.309072 1.69519e-19)
(0.29597 -0.341894 1.89272e-19)
(0.33281 -0.366272 -1.7824e-19)
(-0.0144124 0.0416428 0)
(-0.0318743 0.0979911 -1.833e-19)
(-0.0403365 0.134239 -1.18533e-21)
(-0.0427545 0.154243 1.61971e-19)
(-0.0408053 0.161789 0)
(-0.0354142 0.160243 0)
(-0.0270747 0.152244 0)
(-0.0159672 0.139635 -6.61757e-20)
(-0.00206312 0.123551 -1.8756e-21)
(0.0147781 0.104574 1.18756e-19)
(0.0347382 0.0829134 -1.72216e-19)
(0.057989 0.0585777 -1.32603e-21)
(0.0846622 0.0315076 0)
(0.114831 0.00166668 -9.84813e-20)
(0.14848 -0.0308887 9.63769e-20)
(0.185469 -0.0659489 -2.68287e-19)
(0.225505 -0.103103 3.36753e-19)
(0.26811 -0.141709 7.76224e-20)
(0.312596 -0.180889 -4.67793e-21)
(0.358096 -0.219543 -2.72468e-19)
(0.40337 -0.256461 -1.21789e-19)
(0.448051 -0.290066 3.77886e-19)
(0.487186 -0.319877 -2.48333e-19)
(0.538743 -0.339011 0)
(-0.0153688 0.0374091 9.1652e-20)
(-0.0337994 0.0898116 9.21525e-20)
(-0.0413561 0.125058 -8.83667e-20)
(-0.0411795 0.145619 -1.65482e-19)
(-0.0351561 0.154393 1.55806e-19)
(-0.0243977 0.154203 -1.48362e-19)
(-0.00957485 0.147389 2.10018e-19)
(0.00898908 0.135678 -6.65162e-20)
(0.0312269 0.120213 1.26172e-19)
(0.0572276 0.101649 0)
(0.0871575 0.0802955 1.18242e-19)
(0.121191 0.0562715 -2.19896e-19)
(0.159458 0.0296078 2.1224e-19)
(0.201991 0.000348029 -1.99332e-19)
(0.248684 -0.0313692 0)
(0.299232 -0.0652468 1.79563e-19)
(0.353083 -0.100785 3.37188e-19)
(0.409406 -0.137255 -3.16804e-19)
(0.467065 -0.173715 -1.44726e-19)
(0.524798 -0.208981 -1.305e-19)
(0.580548 -0.242031 3.68261e-19)
(0.634973 -0.270642 1.00803e-19)
(0.678234 -0.296892 -1.00527e-19)
(0.738744 -0.309604 8.0833e-20)
(-0.0156918 0.0325253 -9.16645e-20)
(-0.0344645 0.0794384 2.84884e-19)
(-0.0410615 0.112145 -9.00964e-20)
(-0.0384306 0.131964 1.67867e-19)
(-0.0284668 0.140993 -1.58048e-19)
(-0.0123651 0.141506 9.0737e-23)
(0.00908846 0.135494 7.06413e-20)
(0.0354631 0.124506 2.71202e-19)
(0.0666136 0.109629 3.22471e-21)
(0.10258 0.0915501 -1.20176e-19)
(0.143503 0.0706688 0)
(0.189532 0.047196 -1.12343e-19)
(0.240716 0.0212601 2.09411e-19)
(0.29694 -0.0069828 2.01241e-19)
(0.35784 -0.0372761 -9.46726e-20)
(0.422728 -0.0692066 -1.02707e-21)
(0.490539 -0.102167 -8.41818e-20)
(0.559844 -0.135345 1.53734e-19)
(0.628845 -0.167781 1.44677e-19)
(0.695783 -0.198238 -1.32139e-19)
(0.757771 -0.226138 1.15424e-19)
(0.816245 -0.248491 -1.02458e-19)
(0.858721 -0.270098 0)
(0.917907 -0.27569 -8.07706e-20)
(-0.0155344 0.0275448 9.396e-20)
(-0.0339812 0.0679652 -9.555e-20)
(-0.0393597 0.0967569 9.08861e-20)
(-0.0341629 0.11448 0)
(-0.0201295 0.122629 0)
(0.00156952 0.122998 1.52105e-19)
(0.0301182 0.117234 -1.42108e-19)
(0.0650409 0.106678 1.36496e-19)
(0.106148 0.0923251 -6.40692e-19)
(0.153443 0.0748693 -1.22709e-21)
(0.206983 0.0547594 1.15541e-19)
(0.266749 0.0322866 0)
(0.332535 0.00770516 -2.1041e-19)
(0.40381 -0.0186977 3.96627e-19)
(0.479624 -0.0465398 -2.8118e-19)
(0.55856 -0.0752997 -4.39459e-19)
(0.638745 -0.104301 3.46478e-21)
(0.717946 -0.132723 3.01264e-19)
(0.793683 -0.159694 0)
(0.863723 -0.184091 0)
(0.925071 -0.205767 -1.15421e-19)
(0.978973 -0.221568 1.02458e-19)
(1.01471 -0.237967 -3.38017e-19)
(1.06075 -0.23725 3.16925e-19)
(-0.015103 0.0229192 0)
(-0.0325003 0.0563954 0)
(-0.0360366 0.0802151 -2.73528e-19)
(-0.0276535 0.0946439 8.67901e-20)
(-0.00883157 0.100822 2.14496e-22)
(0.0193747 0.100195 1.52576e-19)
(0.0562064 0.0941187 0)
(0.1012 0.0837405 -1.35233e-19)
(0.154126 0.0699604 1.28101e-19)
(0.214852 0.0534459 -2.43544e-19)
(0.28317 0.0346787 -1.08124e-21)
(0.358625 0.0140477 2.19538e-19)
(0.440354 -0.00808918 1.43611e-21)
(0.526974 -0.0313476 1.96286e-19)
(0.616543 -0.0552736 -2.76621e-19)
(0.706615 -0.0793252 0)
(0.794394 -0.102877 3.15517e-19)
(0.876956 -0.125256 -4.45361e-19)
(0.951536 -0.145787 1.30404e-19)
(1.01588 -0.163735 0)
(1.06796 -0.179064 1.04787e-19)
(1.10858 -0.189454 3.69158e-19)
(1.13185 -0.20106 -3.46507e-19)
(1.15699 -0.196646 -3.47932e-19)
(-0.0145656 0.0189127 2.88181e-19)
(-0.0300453 0.0454558 -3.9526e-19)
(-0.0305874 0.0636816 1.05415e-21)
(-0.0176564 0.0739853 8.76334e-20)
(0.00754787 0.0774053 -1.63325e-19)
(0.0441369 0.0751873 -1.52223e-19)
(0.0914415 0.0684923 2.87544e-19)
(0.148982 0.0583156 7.99146e-22)
(0.216346 0.0454672 -2.5511e-19)
(0.293001 0.030585 4.8461e-19)
(0.378075 0.0141754 2.40384e-21)
(0.470176 -0.00333963 -2.15638e-19)
(0.567285 -0.0215794 0)
(0.666758 -0.040169 0)
(0.765455 -0.0587192 -9.0801e-20)
(0.859972 -0.0768225 -1.6365e-19)
(0.946961 -0.0940561 -3.0332e-19)
(1.02345 -0.110026 2.84744e-19)
(1.08723 -0.124313 -1.30484e-19)
(1.1369 -0.136695 2.23052e-19)
(1.1723 -0.146866 -1.16294e-19)
(1.19447 -0.15421 1.63139e-19)
(1.20278 -0.162124 -4.04142e-19)
(1.20778 -0.157708 7.06374e-20)
(-0.0139496 0.0155603 9.71775e-20)
(-0.0263386 0.0354883 0)
(-0.0220706 0.0479878 1.86947e-19)
(-0.00235168 0.0538743 -1.76099e-19)
(0.0318309 0.0542782 1.63477e-19)
(0.0797136 0.0503875 0)
(0.140609 0.0432539 0)
(0.21379 0.0337668 -1.36164e-19)
(0.298287 0.0226586 -6.57966e-22)
(0.392652 0.0105094 1.19925e-19)
(0.494768 -0.00223438 -1.13421e-19)
(0.601782 -0.0152348 2.13695e-19)
(0.710192 -0.0282357 0)
(0.816076 -0.0410375 3.73227e-19)
(0.915448 -0.0534745 -6.96101e-19)
(1.00465 -0.0653969 4.88321e-19)
(1.08074 -0.0766528 2.90053e-19)
(1.14179 -0.0871096 -2.72311e-19)
(1.18706 -0.0965586 0)
(1.21688 -0.105085 0)
(1.233 -0.11202 0)
(1.23707 -0.118663 0)
(1.23254 -0.123235 7.66724e-20)
(1.22377 -0.123965 -2.50976e-19)
(-0.182684 -0.450001 -6.38107e-21)
(-0.171601 -0.476265 6.4189e-21)
(-0.15282 -0.488545 -1.85989e-22)
(-0.126941 -0.483841 0)
(-0.0923083 -0.45899 -5.60494e-21)
(-0.0483975 -0.411781 1.09832e-20)
(0.00359663 -0.34169 1.06754e-22)
(0.0623342 -0.249746 -5.33365e-21)
(0.125353 -0.137524 0)
(0.189923 -0.0115994 0)
(0.254944 0.122637 -2.76123e-22)
(0.319256 0.256916 -2.50472e-22)
(0.381738 0.380212 -3.72349e-21)
(0.439487 0.480132 3.40641e-21)
(0.488664 0.547906 0)
(0.526357 0.582015 0)
(0.551273 0.588604 1.62584e-21)
(0.561136 0.581439 -1.12311e-22)
(0.55229 0.576958 -1.33883e-21)
(0.526877 0.579433 -8.94753e-23)
(0.499378 0.56834 0)
(0.491692 0.507219 0)
(0.516744 0.372679 0)
(0.569385 0.175768 0)
(0.635384 -0.0438255 0)
(0.700551 -0.239347 0)
(0.754527 -0.377886 4.87598e-22)
(0.791195 -0.454572 -8.14372e-22)
(0.809688 -0.483078 0)
(0.815597 -0.481308 0)
(0.811664 -0.469555 -3.04677e-22)
(0.791172 -0.472018 2.96122e-22)
(0.750078 -0.48566 1.41547e-22)
(0.701655 -0.472203 0)
(0.672224 -0.378666 0)
(0.67432 -0.203418 4.46895e-22)
(0.704069 0.00742302 -4.34404e-22)
(0.74544 0.190118 0)
(0.788379 0.308554 2.79491e-22)
(0.823779 0.372791 -3.89875e-22)
(0.839135 0.402857 1.00058e-22)
(0.821617 0.437013 0)
(0.780595 0.438109 -1.97186e-22)
(0.738294 0.391129 1.91746e-22)
(0.72825 0.244302 0)
(0.743626 0.0579998 0)
(0.784612 -0.114471 -9.30835e-23)
(0.822789 -0.244534 2.60516e-22)
(0.835345 -0.301449 0)
(0.812729 -0.378571 0)
(0.778123 -0.348716 -4.85297e-23)
(0.758744 -0.307146 4.02633e-24)
(0.779719 -0.146861 -1.62606e-24)
(0.801944 0.0258659 3.53039e-23)
(0.816254 0.138379 0)
(0.804239 0.337179 0)
(0.798486 0.292471 0)
(0.789316 0.332112 0)
(0.801219 0.167083 0)
(0.787621 -0.0957872 0)
(-0.135515 -0.455696 -6.60352e-22)
(-0.140007 -0.487717 -2.51091e-20)
(-0.138499 -0.506995 1.43976e-21)
(-0.132261 -0.510478 2.21969e-20)
(-0.1185 -0.494754 3.06662e-22)
(-0.095216 -0.456767 0)
(-0.0613311 -0.395076 -1.87058e-20)
(-0.0158262 -0.309239 3.69393e-20)
(0.0375548 -0.202534 -1.82269e-20)
(0.095479 -0.0773608 1.70133e-20)
(0.158308 0.0574059 -1.62595e-20)
(0.223826 0.192994 1.38971e-20)
(0.290428 0.31993 -1.34469e-20)
(0.35525 0.426694 -3.11707e-22)
(0.414437 0.504618 -8.38842e-21)
(0.46418 0.551091 8.15191e-21)
(0.50088 0.571556 -6.19439e-21)
(0.520126 0.579266 5.84442e-21)
(0.519611 0.587514 -5.90791e-21)
(0.506054 0.59479 1.19974e-20)
(0.497354 0.576919 -6.0752e-21)
(0.512789 0.500695 -4.78252e-22)
(0.558044 0.351065 -8.98819e-21)
(0.623837 0.144421 1.79491e-20)
(0.695631 -0.0789948 -8.9544e-21)
(0.759489 -0.27196 5.08417e-22)
(0.806358 -0.402662 5.97789e-21)
(0.83308 -0.469014 -1.05206e-21)
(0.840828 -0.488569 -7.67981e-21)
(0.836317 -0.480682 6.01236e-21)
(0.824432 -0.462728 -2.64259e-21)
(0.799852 -0.45696 2.64518e-22)
(0.755566 -0.464519 -1.41824e-22)
(0.701319 -0.453501 2.77816e-22)
(0.662643 -0.371313 0)
(0.656504 -0.209836 0)
(0.681774 -0.00855215 -1.48859e-21)
(0.723746 0.170755 1.12389e-21)
(0.771529 0.291225 7.67458e-22)
(0.812825 0.362103 -2.06606e-23)
(0.833126 0.402245 -9.41345e-22)
(0.818412 0.446114 1.84984e-22)
(0.782539 0.451237 0)
(0.745483 0.400183 0)
(0.741048 0.245137 0)
(0.7573 0.050626 0)
(0.796636 -0.125195 4.62717e-22)
(0.832865 -0.251729 -1.70145e-22)
(0.843571 -0.300197 0)
(0.821253 -0.371133 0)
(0.783542 -0.342096 0)
(0.763976 -0.307157 -7.63461e-23)
(0.780886 -0.151962 1.58753e-23)
(0.800324 0.0215139 -7.80307e-23)
(0.812862 0.137894 0)
(0.79924 0.339124 0)
(0.796455 0.293326 3.99833e-23)
(0.786989 0.331731 1.09468e-22)
(0.80367 0.167362 0)
(0.791099 -0.0944271 0)
(-0.024515 -0.445681 -3.65531e-21)
(-0.0416915 -0.481168 -5.47e-20)
(-0.0560462 -0.505674 4.57442e-20)
(-0.0697549 -0.516691 -4.28111e-20)
(-0.0796958 -0.510908 -3.08743e-22)
(-0.0823207 -0.484513 0)
(-0.0741314 -0.43482 -3.18341e-20)
(-0.0525269 -0.360547 3.11009e-20)
(-0.0162663 -0.26373 2.54821e-22)
(0.030699 -0.146315 3.73953e-22)
(0.0844688 -0.0116902 3.51622e-22)
(0.146444 0.122314 4.18261e-22)
(0.213887 0.251676 -1.99072e-20)
(0.282705 0.364388 1.96597e-20)
(0.348769 0.452094 0)
(0.40716 0.511669 3.68915e-22)
(0.452527 0.547638 -1.13891e-20)
(0.479991 0.570993 1.12434e-20)
(0.489675 0.590542 0)
(0.491704 0.599966 0)
(0.504529 0.574323 -1.52229e-20)
(0.542843 0.485864 3.2535e-20)
(0.606259 0.326486 -3.57469e-20)
(0.683013 0.115466 -3.79605e-22)
(0.758909 -0.107815 3.64776e-20)
(0.820437 -0.29618 -3.34396e-20)
(0.859306 -0.419098 2.60827e-20)
(0.875534 -0.476546 -3.24695e-21)
(0.872796 -0.488818 -8.84598e-21)
(0.858442 -0.476547 0)
(0.838883 -0.454155 0)
(0.810773 -0.441143 1.5163e-21)
(0.764607 -0.442503 -1.9718e-21)
(0.705917 -0.433627 -3.87896e-23)
(0.658436 -0.363281 2.58416e-21)
(0.643596 -0.216727 -2.51153e-21)
(0.6636 -0.0263018 0)
(0.705524 0.148652 3.244e-22)
(0.757467 0.270972 2.15019e-21)
(0.803922 0.349073 -3.86968e-21)
(0.82893 0.399857 1.588e-21)
(0.817448 0.4537 1.84751e-22)
(0.787335 0.463125 -2.21672e-21)
(0.755885 0.408747 1.75406e-21)
(0.757032 0.246925 5.76044e-22)
(0.774123 0.0451521 5.76323e-22)
(0.811222 -0.134048 -4.63882e-22)
(0.844886 -0.257875 0)
(0.853488 -0.298366 0)
(0.831399 -0.363312 -8.28933e-22)
(0.790522 -0.335364 3.8545e-22)
(0.770586 -0.307111 -2.93245e-22)
(0.78349 -0.157074 3.95138e-22)
(0.800254 0.0173269 4.78691e-22)
(0.811039 0.137277 -1.36672e-22)
(0.79542 0.340851 2.05166e-22)
(0.795375 0.293977 -1.74384e-22)
(0.78562 0.330897 8.58467e-23)
(0.807329 0.167299 0)
(0.795721 -0.0930972 0)
(0.137813 -0.423742 -1.14065e-19)
(0.114085 -0.457909 1.16673e-20)
(0.0892191 -0.483897 9.69943e-20)
(0.0600418 -0.49889 -6.4191e-22)
(0.0292943 -0.500787 0)
(0.000567621 -0.485988 0)
(-0.0214315 -0.450415 -5.09765e-20)
(-0.03094 -0.392829 2.43832e-21)
(-0.0237707 -0.310706 6.68612e-20)
(0.00430521 -0.206767 -1.20569e-21)
(0.0422789 -0.0817006 -1.98914e-20)
(0.0909925 0.0481271 -1.65653e-20)
(0.154308 0.178055 1.65369e-20)
(0.222464 0.295528 0)
(0.291216 0.392538 -1.15675e-20)
(0.354454 0.465389 1.05786e-20)
(0.40593 0.516889 0)
(0.441544 0.554695 0)
(0.463745 0.583084 1.09709e-20)
(0.4842 0.592627 1.94526e-21)
(0.519574 0.560075 -1.18231e-20)
(0.579178 0.463939 -1.8106e-20)
(0.658045 0.300701 1.82611e-20)
(0.743791 0.0896511 -2.07863e-20)
(0.822981 -0.130434 1.47224e-21)
(0.881871 -0.313034 1.81851e-20)
(0.912556 -0.428524 1.72598e-21)
(0.918121 -0.478362 -4.41917e-24)
(0.905254 -0.484662 0)
(0.881796 -0.469298 5.28594e-21)
(0.854827 -0.444266 -5.41557e-21)
(0.823354 -0.42535 2.48822e-22)
(0.776515 -0.420176 0)
(0.71527 -0.412144 -2.42039e-22)
(0.660005 -0.353503 4.36612e-21)
(0.636085 -0.223284 -8.40421e-21)
(0.649925 -0.0453227 -4.84522e-22)
(0.690955 0.124243 4.29292e-22)
(0.746135 0.248091 3.41817e-21)
(0.796931 0.333737 4.07662e-22)
(0.826424 0.395412 -2.97757e-21)
(0.818564 0.459349 2.52125e-21)
(0.794605 0.473456 -9.82862e-24)
(0.769054 0.416833 2.25432e-21)
(0.77569 0.249817 -2.76957e-21)
(0.793678 0.0418774 -4.07353e-21)
(0.828137 -0.140883 1.13783e-21)
(0.858703 -0.263 1.38759e-21)
(0.864922 -0.296126 -2.37606e-21)
(0.842947 -0.355159 1.43249e-21)
(0.798833 -0.328389 -2.96626e-22)
(0.778278 -0.306867 3.76934e-22)
(0.787311 -0.162186 2.5008e-22)
(0.801636 0.0132521 -6.37521e-22)
(0.810741 0.136531 -1.181e-23)
(0.792783 0.342419 -1.81004e-22)
(0.795273 0.294456 0)
(0.785248 0.32959 -7.59937e-23)
(0.812216 0.166888 2.47186e-22)
(0.801495 -0.0917885 0)
(0.328738 -0.395831 1.14756e-19)
(0.30497 -0.426329 -2.11777e-19)
(0.275333 -0.449108 9.61387e-20)
(0.238957 -0.462108 6.98534e-20)
(0.195873 -0.46541 -1.24992e-19)
(0.149149 -0.457717 8.5485e-21)
(0.100731 -0.436196 4.5923e-20)
(0.058648 -0.396296 3.35016e-20)
(0.0316995 -0.333687 -3.28573e-20)
(0.0272682 -0.246964 0)
(0.039736 -0.143085 -2.42298e-20)
(0.0681934 -0.0217529 4.5715e-20)
(0.117158 0.103771 -2.17313e-20)
(0.177345 0.22334 0)
(0.243149 0.32799 0)
(0.307189 0.412741 2.92322e-22)
(0.362912 0.478082 -1.60132e-20)
(0.407229 0.528076 1.55561e-20)
(0.443813 0.563039 0)
(0.484025 0.572064 2.44391e-20)
(0.541168 0.535118 -5.23645e-20)
(0.619155 0.436487 6.3434e-20)
(0.710343 0.275195 -7.47384e-20)
(0.803605 0.0682679 -2.37276e-21)
(0.885954 -0.146497 7.87506e-20)
(0.942215 -0.322252 -3.79342e-20)
(0.96481 -0.430441 -8.77798e-22)
(0.959852 -0.474118 -8.68512e-21)
(0.9374 -0.476134 2.18121e-21)
(0.905887 -0.459015 6.70172e-21)
(0.87214 -0.433061 2.82834e-22)
(0.837431 -0.410031 -3.38072e-21)
(0.790789 -0.398558 6.3894e-21)
(0.728935 -0.389923 -3.36212e-21)
(0.667449 -0.341924 0)
(0.634423 -0.228782 -4.41216e-21)
(0.641134 -0.0649399 4.31457e-21)
(0.680092 0.0979834 -2.97455e-21)
(0.737397 0.222811 3.70145e-21)
(0.791631 0.315976 -3.27521e-22)
(0.825384 0.388527 0)
(0.821481 0.462646 -3.58278e-22)
(0.803905 0.482028 1.28893e-21)
(0.784405 0.424436 0)
(0.796404 0.2538 6.44428e-21)
(0.8155 0.0408749 -2.4669e-21)
(0.847063 -0.145534 1.06695e-21)
(0.874113 -0.266968 8.36354e-22)
(0.877687 -0.29346 0)
(0.855716 -0.346644 0)
(0.808284 -0.321092 -8.84648e-22)
(0.78678 -0.30636 1.23286e-21)
(0.792105 -0.16732 -6.04345e-22)
(0.804329 0.00922343 1.69462e-22)
(0.811905 0.135655 3.35161e-22)
(0.791329 0.343877 1.81179e-22)
(0.796173 0.294796 -3.17339e-22)
(0.78591 0.327791 0)
(0.818341 0.166111 -3.56174e-22)
(0.808419 -0.0904939 -1.41805e-22)
(0.529841 -0.366303 1.14144e-19)
(0.506712 -0.393828 -1.13411e-19)
(0.47707 -0.411467 7.06195e-22)
(0.43955 -0.41902 -5.56524e-22)
(0.39274 -0.417975 4.7285e-22)
(0.337527 -0.409815 -3.71236e-22)
(0.275389 -0.39444 4.93017e-22)
(0.211777 -0.366895 0)
(0.15483 -0.324026 -2.37316e-22)
(0.11378 -0.260856 1.58622e-22)
(0.0918403 -0.180503 1.13535e-22)
(0.0906097 -0.0776705 -2.68121e-22)
(0.114259 0.0365547 0)
(0.157209 0.153077 0)
(0.212382 0.261138 8.01865e-23)
(0.27209 0.354319 0)
(0.329644 0.430515 -1.12613e-22)
(0.382194 0.490082 0)
(0.433198 0.53003 -1.63884e-20)
(0.492231 0.539085 3.72346e-20)
(0.568392 0.501031 -4.78541e-20)
(0.661016 0.404918 2.68125e-20)
(0.76165 0.250169 3.8817e-20)
(0.861193 0.0507264 -3.76841e-20)
(0.946448 -0.156501 -3.90161e-20)
(1.00015 -0.324287 3.77687e-20)
(1.01495 -0.425383 0)
(0.999983 -0.464381 6.5546e-22)
(0.968679 -0.463834 0)
(0.930265 -0.446109 0)
(0.890555 -0.420597 7.19146e-21)
(0.852654 -0.395349 -7.48919e-21)
(0.806733 -0.378284 3.2303e-22)
(0.746092 -0.367631 3.49929e-22)
(0.680509 -0.328537 -2.9973e-22)
(0.638814 -0.232532 -3.14864e-21)
(0.637449 -0.0846281 3.05763e-21)
(0.672931 0.0703691 -3.2406e-21)
(0.731033 0.195354 2.74823e-21)
(0.787745 0.295667 6.16875e-22)
(0.825523 0.378837 -2.72306e-21)
(0.825835 0.463212 -8.87307e-22)
(0.814688 0.488649 2.24141e-21)
(0.801271 0.431537 0)
(0.818463 0.258883 -2.6373e-21)
(0.839025 0.0417351 3.73854e-21)
(0.867667 -0.147909 -4.90252e-21)
(0.890873 -0.26967 -8.41643e-22)
(0.891564 -0.290397 0)
(0.869497 -0.337764 3.05618e-22)
(0.818715 -0.313366 -7.01259e-22)
(0.795851 -0.30549 -2.55283e-23)
(0.79761 -0.172512 -1.01617e-22)
(0.808154 0.00514714 2.05168e-22)
(0.814445 0.134632 -2.66753e-22)
(0.791061 0.345259 0)
(0.798098 0.295021 3.17488e-22)