/*--------------------------------*- C++ -*----------------------------------*\
| =========                 |                                                 |
| \\      /  F ield         | OpenFOAM: The Open Source CFD Toolbox           |
|  \\    /   O peration     | Version:  2512                                  |
|   \\  /    A nd           | Website:  www.openfoam.com                      |
|    \\/     M anipulation  |                                                 |
\*---------------------------------------------------------------------------*/
FoamFile
{
    version     2.0;
    format      ascii;
    arch        "LSB;label=32;scalar=64";
    class       volScalarField;
    location    "96.25";
    object      p;
}
// * * * * * * * * * * * * * * * * * * * * * * * * * * * * * * * * * * * * * //

dimensions      [0 2 -2 0 0 0 0];

internalField   nonuniform List<scalar> 
13248
(
-0.379661
-0.37771
-0.374647
-0.370754
-0.366425
-0.362073
-0.358073
-0.354726
-0.352231
-0.350667
-0.349975
-0.349968
-0.350348
-0.350738
-0.350723
-0.349901
-0.347924
-0.344534
-0.339567
-0.332993
-0.324683
-0.314856
-0.3023
-0.287967
-0.387999
-0.385366
-0.381735
-0.377392
-0.372689
-0.368002
-0.363648
-0.359843
-0.356691
-0.354171
-0.352138
-0.350349
-0.348495
-0.346248
-0.343299
-0.339401
-0.334389
-0.328181
-0.320763
-0.31216
-0.302382
-0.291471
-0.279155
-0.266335
-0.398605
-0.394991
-0.390616
-0.38572
-0.380564
-0.375458
-0.370621
-0.366154
-0.362043
-0.358173
-0.354354
-0.350353
-0.345937
-0.340906
-0.335121
-0.328509
-0.321059
-0.312804
-0.303788
-0.294064
-0.283632
-0.27258
-0.260717
-0.248692
-0.411395
-0.406556
-0.401278
-0.395714
-0.38998
-0.384282
-0.378709
-0.373224
-0.367709
-0.362005
-0.355951
-0.349412
-0.342302
-0.334591
-0.3263
-0.31748
-0.308198
-0.298513
-0.288471
-0.2781
-0.267415
-0.256474
-0.245182
-0.23415
-0.426248
-0.420003
-0.413699
-0.407348
-0.400864
-0.394305
-0.38761
-0.380623
-0.37318
-0.365166
-0.35654
-0.347332
-0.337625
-0.327534
-0.317175
-0.306647
-0.296021
-0.285338
-0.274617
-0.26386
-0.253068
-0.242259
-0.231384
-0.22082
-0.443007
-0.435244
-0.42783
-0.420568
-0.413093
-0.405284
-0.396946
-0.387873
-0.377959
-0.36724
-0.35586
-0.344027
-0.331958
-0.319842
-0.307818
-0.295969
-0.284334
-0.272919
-0.261709
-0.250686
-0.23983
-0.229135
-0.218575
-0.208387
-0.461426
-0.452099
-0.443522
-0.435188
-0.426382
-0.416798
-0.406185
-0.394413
-0.381561
-0.36789
-0.353747
-0.339471
-0.325341
-0.311545
-0.298187
-0.285306
-0.272894
-0.260922
-0.249349
-0.238136
-0.227247
-0.216654
-0.206343
-0.196403
-0.481093
-0.470227
-0.46044
-0.450801
-0.440197
-0.428201
-0.414646
-0.399633
-0.383529
-0.366844
-0.350076
-0.333619
-0.317732
-0.302551
-0.288118
-0.274414
-0.261391
-0.248988
-0.237142
-0.225798
-0.214905
-0.204425
-0.194342
-0.184631
-0.50138
-0.489063
-0.477996
-0.466723
-0.453746
-0.438657
-0.421562
-0.402938
-0.38348
-0.363895
-0.344749
-0.326405
-0.30905
-0.292736
-0.277435
-0.263079
-0.249581
-0.236855
-0.224821
-0.213408
-0.202553
-0.19221
-0.182347
-0.172859
-0.521401
-0.507775
-0.495313
-0.481976
-0.465997
-0.447199
-0.426155
-0.40379
-0.381089
-0.358863
-0.337649
-0.317719
-0.299156
-0.281927
-0.265938
-0.251076
-0.237227
-0.224281
-0.212142
-0.200724
-0.189955
-0.179781
-0.17014
-0.160894
-0.540042
-0.525271
-0.511233
-0.495329
-0.475745
-0.452779
-0.427611
-0.401601
-0.375926
-0.351394
-0.328441
-0.307212
-0.287682
-0.269737
-0.25323
-0.238009
-0.223934
-0.210879
-0.19873
-0.18739
-0.176775
-0.166817
-0.15742
-0.148457
-0.556063
-0.540342
-0.524514
-0.505522
-0.481793
-0.454345
-0.42503
-0.395582
-0.367256
-0.340767
-0.316396
-0.294153
-0.273902
-0.255456
-0.23862
-0.22321
-0.209063
-0.196034
-0.183996
-0.172843
-0.162483
-0.152833
-0.143768
-0.135221
-0.341357
-0.342656
-0.343442
-0.344019
-0.344713
-0.345684
-0.34702
-0.34877
-0.350957
-0.353595
-0.356701
-0.36029
-0.364378
-0.36897
-0.374058
-0.37961
-0.385559
-0.391796
-0.398165
-0.404453
-0.410394
-0.415668
-0.419934
-0.422933
-0.346824
-0.347308
-0.34762
-0.347934
-0.348483
-0.349429
-0.350879
-0.352897
-0.355526
-0.358799
-0.362752
-0.367424
-0.372851
-0.37906
-0.386056
-0.39381
-0.402247
-0.411232
-0.420559
-0.42994
-0.439005
-0.447333
-0.454283
-0.459449
-0.352005
-0.351681
-0.351496
-0.351495
-0.351821
-0.352638
-0.354072
-0.356203
-0.35909
-0.36278
-0.367324
-0.372772
-0.379171
-0.386557
-0.394937
-0.404278
-0.414489
-0.425408
-0.436781
-0.448256
-0.459374
-0.469559
-0.478053
-0.484143
-0.356482
-0.355436
-0.354759
-0.354392
-0.354399
-0.354951
-0.356194
-0.358228
-0.361127
-0.364952
-0.369761
-0.375607
-0.382539
-0.390587
-0.399754
-0.409992
-0.42119
-0.433157
-0.4456
-0.458117
-0.470183
-0.481122
-0.490208
-0.496046
-0.360003
-0.358394
-0.357267
-0.356491
-0.356078
-0.35621
-0.357061
-0.358757
-0.361393
-0.365043
-0.369769
-0.375624
-0.382649
-0.390864
-0.400254
-0.410753
-0.422227
-0.434455
-0.447113
-0.45975
-0.471804
-0.482476
-0.49137
-0.495945
-0.362499
-0.360536
-0.359032
-0.357821
-0.356898
-0.356466
-0.356731
-0.357857
-0.359965
-0.363149
-0.367477
-0.373001
-0.379751
-0.387731
-0.396907
-0.407186
-0.418407
-0.430312
-0.442534
-0.454582
-0.465911
-0.475425
-0.48335
-0.485753
-0.364092
-0.362
-0.360208
-0.358558
-0.357063
-0.355957
-0.355488
-0.355861
-0.357235
-0.359728
-0.363424
-0.368373
-0.374598
-0.382083
-0.390769
-0.400523
-0.411144
-0.422336
-0.433685
-0.444587
-0.454552
-0.462171
-0.468291
-0.467839
-0.365083
-0.363062
-0.361067
-0.358991
-0.356901
-0.35507
-0.353791
-0.353316
-0.353847
-0.355535
-0.358479
-0.362737
-0.368319
-0.375177
-0.383218
-0.392272
-0.402061
-0.412202
-0.422215
-0.431406
-0.439324
-0.444398
-0.447812
-0.444187
-0.36593
-0.364109
-0.361971
-0.359494
-0.356825
-0.354284
-0.352209
-0.3509
-0.350599
-0.351489
-0.353689
-0.357244
-0.362151
-0.368332
-0.375613
-0.383737
-0.392344
-0.400964
-0.409051
-0.415884
-0.421032
-0.423096
-0.423164
-0.41649
-0.367213
-0.365616
-0.36335
-0.360498
-0.357303
-0.354131
-0.351359
-0.349324
-0.348304
-0.348496
-0.350022
-0.352917
-0.357118
-0.362472
-0.36872
-0.375504
-0.38237
-0.388786
-0.394196
-0.398001
-0.399862
-0.398872
-0.395822
-0.38688
-0.369568
-0.368093
-0.36566
-0.362453
-0.358803
-0.355115
-0.35179
-0.349185
-0.347586
-0.34719
-0.348088
-0.350262
-0.353577
-0.357784
-0.362529
-0.367362
-0.371773
-0.375243
-0.377281
-0.377524
-0.375807
-0.371955
-0.366675
-0.357102
-0.373577
-0.372012
-0.369319
-0.36576
-0.361724
-0.357634
-0.353897
-0.350861
-0.348789
-0.347838
-0.34804
-0.349298
-0.351387
-0.35397
-0.356621
-0.358867
-0.360227
-0.360273
-0.358651
-0.355204
-0.349804
-0.34282
-0.33469
-0.325296
-0.424967
-0.422509
-0.414728
-0.401007
-0.379286
-0.353552
-0.3232
-0.290626
-0.258727
-0.230507
-0.208765
-0.195741
-0.192591
-0.198592
-0.210464
-0.222609
-0.228434
-0.222745
-0.203758
-0.175153
-0.144073
-0.117228
-0.0984205
-0.0884527
-0.0862455
-0.0908721
-0.103391
-0.124738
-0.150196
-0.168328
-0.168136
-0.150627
-0.12368
-0.0975689
-0.0784503
-0.0673342
-0.0626175
-0.0645348
-0.0748576
-0.0895506
-0.0980674
-0.0936065
-0.0799488
-0.0660589
-0.0561752
-0.050645
-0.0513773
-0.0574798
-0.0621226
-0.0607106
-0.0531612
-0.0460157
-0.0389759
-0.0330699
-0.0305662
-0.0282036
-0.0254315
-0.0244189
-0.017654
-0.00354004
-0.46419
-0.462298
-0.453728
-0.437767
-0.413692
-0.38278
-0.34641
-0.307081
-0.267901
-0.23202
-0.202269
-0.180983
-0.169603
-0.168211
-0.174631
-0.184085
-0.190271
-0.187478
-0.173684
-0.151558
-0.12696
-0.105823
-0.0918271
-0.0858931
-0.0871104
-0.0950223
-0.111217
-0.136424
-0.164977
-0.18429
-0.182757
-0.161918
-0.131339
-0.101971
-0.0799684
-0.0663306
-0.0593407
-0.0587551
-0.0662502
-0.0785352
-0.0862072
-0.0828244
-0.0719095
-0.0611492
-0.0541776
-0.0511538
-0.0544515
-0.0631932
-0.0692093
-0.0675545
-0.0580099
-0.048789
-0.039815
-0.0319621
-0.0280645
-0.0241979
-0.0216111
-0.0208493
-0.0152061
-0.00307402
-0.490718
-0.489497
-0.48006
-0.462414
-0.435905
-0.401178
-0.360024
-0.315188
-0.269932
-0.227655
-0.191321
-0.163173
-0.144661
-0.136212
-0.136752
-0.142777
-0.14875
-0.148943
-0.14024
-0.12479
-0.106911
-0.0917623
-0.0828368
-0.0810654
-0.0857143
-0.0968257
-0.116385
-0.144918
-0.176094
-0.196572
-0.19422
-0.170829
-0.13727
-0.105168
-0.0807073
-0.0648366
-0.0557873
-0.0528799
-0.0576306
-0.0675054
-0.0743125
-0.0719056
-0.0636297
-0.0558699
-0.0517678
-0.0513085
-0.0572659
-0.0687244
-0.076174
-0.0745464
-0.0626774
-0.0513049
-0.0404875
-0.030845
-0.0256833
-0.0203316
-0.0178448
-0.0172567
-0.0127488
-0.002614
-0.50347
-0.502732
-0.492952
-0.47437
-0.446327
-0.409239
-0.364941
-0.316311
-0.266797
-0.219895
-0.178562
-0.14496
-0.120478
-0.105737
-0.100321
-0.102079
-0.106728
-0.10902
-0.104938
-0.0960713
-0.0847303
-0.0754795
-0.0715446
-0.073739
-0.0815408
-0.0954575
-0.117844
-0.149177
-0.182735
-0.204566
-0.202065
-0.177063
-0.141317
-0.107111
-0.0807156
-0.0629864
-0.0521444
-0.0471653
-0.0493557
-0.0568851
-0.0627616
-0.061146
-0.0553012
-0.0503206
-0.0489675
-0.0510405
-0.0596607
-0.0738684
-0.0828125
-0.0810795
-0.0670847
-0.053533
-0.0409754
-0.0297153
-0.0234351
-0.0166318
-0.0141679
-0.0136751
-0.0103033
-0.00216623
-0.502924
-0.501857
-0.492336
-0.473962
-0.445631
-0.407817
-0.362482
-0.312421
-0.260976
-0.211566
-0.167049
-0.129457
-0.100111
-0.0797721
-0.0685342
-0.0653296
-0.0673705
-0.0704326
-0.0696073
-0.0667666
-0.061281
-0.0574408
-0.0580143
-0.0637019
-0.0742057
-0.0904363
-0.115101
-0.148763
-0.18443
-0.207816
-0.20605
-0.180501
-0.143484
-0.107883
-0.0800947
-0.060911
-0.0485764
-0.0418206
-0.0416853
-0.0469889
-0.051906
-0.050838
-0.0471005
-0.0445952
-0.0457834
-0.05027
-0.0614833
-0.07842
-0.0889038
-0.0871155
-0.0711567
-0.0554507
-0.0412703
-0.0285687
-0.0213263
-0.0131216
-0.010613
-0.0101364
-0.00788929
-0.00173678
-0.490579
-0.488152
-0.479402
-0.462343
-0.435005
-0.398174
-0.353972
-0.304922
-0.254039
-0.204462
-0.158817
-0.118946
-0.0860519
-0.0609525
-0.0441496
-0.0354786
-0.0335731
-0.0357789
-0.0390189
-0.0383402
-0.0374455
-0.0381613
-0.0424778
-0.051049
-0.0637542
-0.0818187
-0.108207
-0.143659
-0.181156
-0.206323
-0.206088
-0.181083
-0.143795
-0.107575
-0.0789413
-0.0587079
-0.0451884
-0.03696
-0.0348022
-0.0380479
-0.0420248
-0.0418849
-0.0391911
-0.038785
-0.0422328
-0.0489421
-0.0626006
-0.0821769
-0.0942277
-0.0925146
-0.0748253
-0.057042
-0.041365
-0.027397
-0.0193543
-0.00981939
-0.00720654
-0.00666933
-0.00552322
-0.00133135
-0.469005
-0.464248
-0.456506
-0.441491
-0.416223
-0.381944
-0.340821
-0.294916
-0.246782
-0.199165
-0.154354
-0.113965
-0.0790744
-0.0504564
-0.0287915
-0.0145582
-0.00756528
-0.0065248
-0.00890704
-0.0111992
-0.0139303
-0.0181515
-0.0253749
-0.0361729
-0.0505633
-0.0699964
-0.0975955
-0.1343
-0.173358
-0.200449
-0.20226
-0.178822
-0.142335
-0.10629
-0.077341
-0.0564439
-0.0420391
-0.0326318
-0.0287698
-0.0301727
-0.0332224
-0.033114
-0.031669
-0.0330015
-0.0383623
-0.0470273
-0.062907
-0.0849653
-0.0985979
-0.0971473
-0.078025
-0.0582931
-0.0412574
-0.026194
-0.0175057
-0.00673439
-0.00396883
-0.00329937
-0.00321771
-0.000955948
-0.440698
-0.433081
-0.426563
-0.413977
-0.391572
-0.361145
-0.324619
-0.283416
-0.239599
-0.195502
-0.153062
-0.113663
-0.0782702
-0.0476059
-0.0223466
-0.00321028
0.00923695
0.0150549
0.0155273
0.0130174
0.00849152
0.00203822
-0.00721076
-0.0195961
-0.035212
-0.0556444
-0.084053
-0.121513
-0.161758
-0.190702
-0.194966
-0.173933
-0.139205
-0.104101
-0.0753497
-0.0541539
-0.0391555
-0.0288495
-0.0235988
-0.0233912
-0.0255721
-0.0253851
-0.0246639
-0.0273769
-0.0342376
-0.0445363
-0.062336
-0.0866665
-0.101883
-0.100893
-0.0806982
-0.0591974
-0.040956
-0.0249649
-0.0157768
-0.00386806
-0.000912086
-4.83425e-05
-0.00098212
-0.000617199
-0.408068
-0.398167
-0.393211
-0.38297
-0.36381
-0.338061
-0.306991
-0.271313
-0.232636
-0.192895
-0.153725
-0.116338
-0.0816304
-0.050301
-0.0229709
-0.000328835
0.0168538
0.0278796
0.0327594
0.0325971
0.0286511
0.0215767
0.0113416
-0.001975
-0.0184106
-0.0395815
-0.0685625
-0.106456
-0.147417
-0.177928
-0.184811
-0.166784
-0.134646
-0.10121
-0.0731462
-0.0519779
-0.0366464
-0.0256791
-0.0193174
-0.0177157
-0.0190877
-0.018768
-0.0182352
-0.022054
-0.0299436
-0.0414727
-0.0608626
-0.0872378
-0.103997
-0.103672
-0.0828231
-0.0597837
-0.040498
-0.0237292
-0.0141929
-0.00123999
0.0019579
0.00306637
0.00117779
-0.000322011
-0.374455
-0.364018
-0.360675
-0.352099
-0.336126
-0.315257
-0.289734
-0.25966
-0.226259
-0.191066
-0.155448
-0.120522
-0.087201
-0.0561742
-0.0280567
-0.00346776
0.01698
0.0324349
0.0421323
0.0459794
0.0448422
0.0390682
0.0291496
0.015632
-0.00122983
-0.0228912
-0.0521471
-0.0899825
-0.131142
-0.162955
-0.172419
-0.157954
-0.129183
-0.0981148
-0.0711782
-0.0502645
-0.0347629
-0.0232805
-0.015981
-0.0131348
-0.0137703
-0.0133252
-0.0123677
-0.0171445
-0.0255536
-0.0379578
-0.0585376
-0.0866204
-0.10488
-0.105508
-0.0843904
-0.0601152
-0.0399371
-0.0224997
-0.0127511
0.00109628
0.00462398
0.00602887
0.00325876
-7.83638e-05
-0.343767
-0.335165
-0.332702
-0.324761
-0.311688
-0.295391
-0.275029
-0.25031
-0.222057
-0.191372
-0.159363
-0.127084
-0.0954848
-0.0651664
-0.0367784
-0.0109901
0.0115655
0.0301722
0.0441375
0.0528415
0.0555444
0.0526451
0.0447227
0.0321321
0.0154637
-0.00635128
-0.0357502
-0.0736081
-0.114545
-0.146495
-0.158392
-0.1474
-0.122649
-0.0946448
-0.0692802
-0.0488225
-0.0332796
-0.0214473
-0.0133683
-0.00937198
-0.00936223
-0.00904266
-0.00714862
-0.0129103
-0.021126
-0.0338826
-0.0553347
-0.085008
-0.104578
-0.106403
-0.0851974
-0.0601063
-0.0391905
-0.0212091
-0.0113089
0.00318436
0.00705381
0.00880561
0.00526491
0.000106751
-0.316922
-0.312871
-0.30926
-0.300302
-0.289015
-0.275982
-0.259719
-0.239694
-0.216263
-0.190091
-0.161974
-0.132769
-0.103342
-0.0744576
-0.0468281
-0.0211224
0.0020778
0.0222015
0.0387499
0.0515189
0.058827
0.0602031
0.0553699
0.0449654
0.0295225
0.00850173
-0.0200034
-0.0565724
-0.096113
-0.127423
-0.139828
-0.13282
-0.112576
-0.0880953
-0.0648981
-0.0455143
-0.0304571
-0.0188175
-0.0104835
-0.00569641
-0.00515792
-0.00527115
-0.00849969
-0.0094099
-0.0170222
-0.0297935
-0.0514826
-0.0820826
-0.102976
-0.104982
-0.0848131
-0.0592954
-0.037875
-0.0196433
-0.00965316
0.00535403
0.00926649
0.0114227
0.00717546
0.000220183
-0.290577
-0.298946
-0.29288
-0.281524
-0.269541
-0.256724
-0.241463
-0.222928
-0.201256
-0.17706
-0.151082
-0.124063
-0.0967243
-0.0697308
-0.0437053
-0.0192257
0.0032007
0.0231239
0.0401046
0.0539119
0.0623022
0.0660526
0.0641377
0.056026
0.0419807
0.021584
-0.00726468
-0.0455296
-0.0869648
-0.118642
-0.130586
-0.121881
-0.102182
-0.0793575
-0.0580212
-0.0401517
-0.0261256
-0.0151252
-0.00707104
-0.0020829
-0.00117145
-0.00108787
-0.00309556
-0.00422919
-0.0111464
-0.0239232
-0.0463337
-0.0790109
-0.102268
-0.110334
-0.0843003
-0.0577672
-0.0360355
-0.0178647
-0.00796227
0.00768166
0.0129047
0.0140622
0.00899303
0.000246783
-0.263279
-0.27521
-0.270062
-0.257931
-0.245466
-0.233165
-0.219281
-0.202631
-0.183172
-0.161477
-0.138214
-0.113981
-0.0893374
-0.0648337
-0.0410159
-0.0184105
0.00251339
0.0213646
0.0377522
0.0506619
0.0604351
0.0655656
0.0652756
0.0588581
0.0463129
0.0270565
-0.00108076
-0.0385286
-0.077932
-0.106259
-0.115169
-0.106813
-0.0893687
-0.0695489
-0.0509148
-0.0349521
-0.0221616
-0.011966
-0.00428745
0.000769538
0.00189571
0.0019746
0.000373434
-0.000778947
-0.00695041
-0.0192783
-0.041853
-0.0757058
-0.100019
-0.106624
-0.0822659
-0.0554479
-0.0338653
-0.0159263
-0.00618878
0.0096394
0.0145654
0.0163496
0.0105027
0.000262107
-0.238318
-0.250486
-0.246769
-0.235441
-0.223399
-0.211901
-0.199441
-0.184689
-0.16742
-0.148095
-0.127307
-0.105563
-0.0833232
-0.0610581
-0.039258
-0.0184061
0.00105504
0.0187462
0.0342758
0.0469287
0.0564713
0.0618701
0.0622241
0.0567042
0.0451442
0.0269363
0.000472385
-0.0334715
-0.0674739
-0.09109
-0.0982516
-0.0913734
-0.0769419
-0.0602541
-0.0441809
-0.0300052
-0.0183626
-0.00892205
-0.00167798
0.003345
0.00467153
0.00480252
0.00358662
0.0022671
-0.00371112
-0.0158652
-0.0383327
-0.0719578
-0.0960292
-0.102393
-0.0792981
-0.0526421
-0.0314303
-0.0138508
-0.00433609
0.0114661
0.0162281
0.0184434
0.0118455
0.000295164
-0.21568
-0.22682
-0.224326
-0.214406
-0.203253
-0.192569
-0.181304
-0.168196
-0.152882
-0.135693
-0.117149
-0.0976994
-0.077731
-0.0576352
-0.0378334
-0.0187565
-0.000817671
0.0156118
0.0301321
0.0421282
0.0511941
0.0565692
0.0573443
0.0526401
0.0421955
0.0255748
0.00200027
-0.0270662
-0.0554105
-0.0749027
-0.0812511
-0.0762749
-0.0648521
-0.0511443
-0.0375403
-0.0251448
-0.014661
-0.00598768
0.000761862
0.00567562
0.00720935
0.00753618
0.00666446
0.00529732
-0.000557691
-0.0126008
-0.034501
-0.0670985
-0.0907473
-0.0971448
-0.0753601
-0.0493155
-0.0287093
-0.011637
-0.00238927
0.0131518
0.0178267
0.0203615
0.0130896
0.000344323
-0.194291
-0.20461
-0.203064
-0.194537
-0.18445
-0.174654
-0.164499
-0.15289
-0.139389
-0.1242
-0.107757
-0.0904581
-0.0726328
-0.0546062
-0.0367377
-0.0194132
-0.00302235
0.0120689
0.025471
0.036653
0.0451705
0.0503986
0.0515275
0.0477512
0.038791
0.0244221
0.00445016
-0.0196368
-0.042904
-0.0590924
-0.0650098
-0.0619937
-0.0534483
-0.0425177
-0.0312003
-0.0204921
-0.0111316
-0.00319718
0.00303467
0.00777796
0.00949883
0.0101024
0.00953766
0.00829765
0.0027739
-0.00885377
-0.0297225
-0.061122
-0.0842551
-0.0906299
-0.0703853
-0.0454498
-0.025724
-0.00930372
-0.000361912
0.0146774
0.0192934
0.0220809
0.0142362
0.000405519
-0.174501
-0.184057
-0.183131
-0.175824
-0.166864
-0.158049
-0.148988
-0.138767
-0.126935
-0.113595
-0.099098
-0.0837925
-0.0679659
-0.051893
-0.0358811
-0.0202724
-0.00542516
0.00831261
0.0205721
0.0308773
0.0388119
0.0438344
0.045283
0.0424901
0.0351923
0.023298
0.00695966
-0.0124628
-0.0312165
-0.0446851
-0.0503984
-0.0491208
-0.0430651
-0.0345416
-0.0252427
-0.0160875
-0.00780607
-0.00057562
0.00514042
0.00966406
0.0115348
0.0124625
0.0122476
0.0112516
0.00629845
-0.00458404
-0.0241602
-0.054153
-0.0764926
-0.0828173
-0.0644012
-0.0410638
-0.0225059
-0.00687586
0.00172978
0.016027
0.0205896
0.0235569
0.015245
0.000484858
-0.156496
-0.165056
-0.164539
-0.158327
-0.150491
-0.14269
-0.134696
-0.125753
-0.115438
-0.103789
-0.0910829
-0.0776201
-0.0636525
-0.0494158
-0.0351719
-0.0212185
-0.00787714
0.00452216
0.0156179
0.0250583
0.032397
0.0371872
0.0389094
0.0370387
0.0313531
0.0218535
0.00888862
-0.00639841
-0.021292
-0.0324781
-0.0379408
-0.0379427
-0.0338467
-0.0273129
-0.0197458
-0.0119825
-0.00471922
0.00184769
0.00707567
0.0113481
0.0133372
0.0146049
0.0148179
0.0141448
0.00995039
9.46611e-06
-0.018045
-0.046241
-0.0675505
-0.0738204
-0.057494
-0.0362049
-0.019097
-0.00438551
0.00386486
0.0171926
0.021688
0.0247455
0.0160801
0.000600102
-0.139845
-0.147483
-0.14732
-0.142098
-0.13532
-0.1285
-0.121519
-0.113751
-0.104812
-0.0947019
-0.0836379
-0.0718731
-0.0596273
-0.047103
-0.0345226
-0.0221436
-0.0102503
0.000855025
0.010849
0.0194008
0.0261401
0.0306819
0.0326213
0.0315614
0.0273398
0.0200157
0.00998349
-0.00185438
-0.0135219
-0.0226945
-0.0277052
-0.0284952
-0.0258367
-0.0208836
-0.0147631
-0.00821425
-0.00189279
0.00404886
0.00883586
0.0128436
0.0149296
0.0165232
0.017244
0.016968
0.0136728
0.00483833
-0.0114409
-0.0375253
-0.0576522
-0.0638465
-0.0498185
-0.0309573
-0.0155492
-0.00186868
0.00601756
0.0181807
0.0225752
0.0256165
0.016733
0.000780186
-0.124466
-0.131357
-0.131487
-0.127124
-0.121304
-0.115401
-0.109365
-0.102673
-0.094982
-0.0862675
-0.0766995
-0.0664898
-0.0558279
-0.0448874
-0.0338575
-0.022959
-0.0124411
-0.00257265
0.00635955
0.0140616
0.0202178
0.024506
0.026613
0.0262456
0.0232945
0.0178348
0.0102359
0.00122973
-0.00775201
-0.0151332
-0.0195176
-0.020678
-0.0190035
-0.0152613
-0.0103232
-0.00481082
0.000659792
0.00600978
0.0104086
0.0141622
0.016328
0.0182106
0.019494
0.0197342
0.0174823
0.00992999
-0.00445676
-0.0283025
-0.0471264
-0.0532131
-0.0416077
-0.0254438
-0.0119223
0.000637908
0.008157
0.0190182
0.0232626
0.0261651
0.0172267
0.00106633
-0.11049
-0.116637
-0.116954
-0.113333
-0.108381
-0.103323
-0.0981561
-0.0924435
-0.0858787
-0.0784234
-0.0702099
-0.0614147
-0.0521992
-0.0427122
-0.0331143
-0.0235933
-0.0143632
-0.0056577
0.00227277
0.00917058
0.0147696
0.0188039
0.0210311
0.0212343
0.0193428
0.0154314
0.00982982
0.00313418
-0.0036022
-0.00943088
-0.0130937
-0.0143222
-0.0132713
-0.0104249
-0.00643426
-0.00179111
0.00293124
0.00772267
0.0117746
0.0153064
0.0175449
0.0196603
0.0215008
0.0224859
0.0214058
0.0152477
0.00262246
-0.0190222
-0.0364106
-0.0423284
-0.03316
-0.0198218
-0.00828125
0.00309944
0.0102476
0.0197595
0.0237965
0.02642
0.0176181
0.00151284
-0.0977815
-0.103187
-0.103636
-0.100667
-0.0964974
-0.0922085
-0.0878295
-0.0829979
-0.0774425
-0.0711155
-0.0641194
-0.0566007
-0.0486962
-0.0405321
-0.0322436
-0.023988
-0.0159471
-0.00832145
-0.00132595
0.00481909
0.00989089
0.0136717
0.0159719
0.0166308
0.0156059
0.0129646
0.00898322
0.00413791
-0.000646274
-0.00522156
-0.00813819
-0.00923755
-0.00854159
-0.0063343
-0.00308687
0.000836891
0.00491703
0.00918907
0.0129204
0.0162608
0.0185787
0.0208771
0.0231926
0.0250687
0.0252543
0.0204853
0.0093313
-0.0102094
-0.0259762
-0.0316334
-0.0248102
-0.0142742
-0.00469531
0.00548313
0.0122489
0.0204837
0.0242646
0.0264531
0.0180012
0.0021802
-0.0861395
-0.0909156
-0.0914858
-0.0890872
-0.0856054
-0.0820003
-0.0783252
-0.0742781
-0.0696193
-0.0642956
-0.0583852
-0.052009
-0.0452825
-0.0383112
-0.0312073
-0.0241026
-0.0171488
-0.0105145
-0.00438077
0.00106603
0.00564193
0.00916907
0.0114993
0.0125131
0.0121837
0.0105664
0.00787259
0.00443163
0.000676917
-0.0022713
-0.00439337
-0.00523742
-0.00470496
-0.00293565
-0.000258185
0.00307664
0.00661553
0.0104139
0.0138445
0.0170062
0.0194022
0.0218491
0.0245278
0.0271245
0.0284781
0.0249617
0.015092
-0.00227858
-0.0162226
-0.0215725
-0.0169078
-0.00899282
-0.00123877
0.00775349
0.0141136
0.0212728
0.0247753
0.0263832
0.0184946
0.00311292
-0.0755867
-0.0798056
-0.0804365
-0.0785113
-0.075634
-0.0726363
-0.0695848
-0.0662298
-0.0623606
-0.0579216
-0.0529717
-0.0476096
-0.0419317
-0.0360257
-0.0299844
-0.0239152
-0.0179436
-0.0122095
-0.00686368
-0.00205934
0.00205264
0.00532724
0.0076484
0.00892519
0.00914015
0.0083363
0.00667986
0.00442378
0.00194659
-0.000138472
-0.00159834
-0.00214163
-0.00164808
-0.000165958
0.0020843
0.00494146
0.00802963
0.0114028
0.0145513
0.0175348
0.0199803
0.0225255
0.0254557
0.0284387
0.0304897
0.0279649
0.0194352
0.00449605
-0.0075178
-0.0125499
-0.00977305
-0.00415004
0.00201117
0.00986642
0.0157871
0.0221732
0.0254615
0.0263592
0.0191974
0.00430137
-0.0660547
-0.0697492
-0.0704097
-0.0688814
-0.0665237
-0.064059
-0.0615553
-0.058805
-0.0556247
-0.0519587
-0.0478506
-0.0433807
-0.038628
-0.0336647
-0.028566
-0.0234192
-0.0183273
-0.0134038
-0.00877064
-0.00455338
-0.000874761
0.00214858
0.004424
0.00588184
0.00650921
0.00634081
0.0055085
0.0041931
0.0026785
0.00134255
0.00044977
0.000209766
0.000739874
0.00204319
0.00397989
0.00645289
0.00916702
0.0121635
0.0150471
0.0178464
0.020292
0.0228501
0.0256742
0.0288059
0.0310385
0.0292476
0.02219
0.00987356
-0.000230676
-0.00487262
-0.00363978
0.000133236
0.0049808
0.0117736
0.0172161
0.0231386
0.0262913
0.0265292
0.0201322
0.00563437
-0.0574252
-0.0606506
-0.0613338
-0.0601422
-0.0582277
-0.0562183
-0.0541866
-0.0519581
-0.0493734
-0.0463776
-0.0430012
-0.0393083
-0.035364
-0.0312273
-0.0269584
-0.0226261
-0.0183127
-0.0141117
-0.0101194
-0.00643621
-0.00316083
-0.000387495
0.00180958
0.0033764
0.0043039
0.00461767
0.00441686
0.00382054
0.00304288
0.00233114
0.00191439
0.00195671
0.00256353
0.00376233
0.00547212
0.00763854
0.010041
0.0127067
0.0153394
0.0179457
0.0203356
0.0228341
0.0255246
0.0283556
0.030379
0.0290926
0.0234813
0.013712
0.00539976
0.00131399
0.00138432
0.0038013
0.00760574
0.013433
0.018365
0.0240021
0.0272219
0.0269967
0.0212062
0.00688465
-0.0496243
-0.052443
-0.0531338
-0.0522331
-0.050693
-0.0490624
-0.0474316
-0.0456482
-0.0435737
-0.0411534
-0.0384073
-0.0353856
-0.0321413
-0.0287223
-0.025176
-0.0215562
-0.0179286
-0.0143677
-0.010946
-0.00774497
-0.00484373
-0.0023183
-0.000227694
0.00138567
0.00251319
0.00317679
0.00347123
0.00337798
0.00316176
0.00295305
0.00293087
0.00322128
0.00391954
0.0050614
0.0066071
0.00852947
0.0106707
0.0130457
0.0154385
0.0178445
0.0201199
0.0224802
0.0249252
0.0273142
0.0289569
0.0279954
0.0236484
0.0161255
0.00937669
0.00500863
0.00530317
0.00685404
0.00983833
0.0148059
0.019224
0.0245371
0.0283695
0.0276509
0.0221623
0.00779374
-0.0426043
-0.0450576
-0.0457357
-0.0450715
-0.0438632
-0.0425744
-0.0412686
-0.0398434
-0.0382013
-0.0362685
-0.0340583
-0.0316102
-0.0289669
-0.0261657
-0.0232436
-0.0202425
-0.0172142
-0.0142147
-0.0112961
-0.00852881
-0.0059752
-0.00369367
-0.00173253
-0.000127033
0.00111026
0.00198971
0.00253519
0.00291586
0.00313205
0.00331657
0.0036097
0.00410752
0.00489492
0.00600707
0.00743236
0.0091587
0.011079
0.013198
0.0153597
0.0175577
0.0196732
0.0218333
0.0239748
0.0259115
0.0271548
0.0264094
0.0231006
0.0174457
0.0121418
0.00863737
0.00838913
0.00933007
0.0116568
0.0158489
0.0197842
0.0245379
0.028463
0.027976
0.0225671
0.00820598
-0.0362903
-0.0384153
-0.0390693
-0.0385977
-0.0376639
-0.0366607
-0.035656
-0.03456
-0.0332534
-0.0317151
-0.0299517
-0.0279872
-0.0258524
-0.0235767
-0.0211892
-0.0187213
-0.0162131
-0.0137137
-0.0112272
-0.00884673
-0.00661323
-0.00457028
-0.00275579
-0.00120006
8.16746e-05
0.00111565
0.00191075
0.00253426
0.00304389
0.0035137
0.00404422
0.00470454
0.00556717
0.00666176
0.00799478
0.00956062
0.0112906
0.0131835
0.0151254
0.0171111
0.0190342
0.0209614
0.0227881
0.0243309
0.0252323
0.0246526
0.0221687
0.018008
0.0139526
0.0111831
0.0107036
0.0112579
0.013061
0.0165278
0.0200041
0.0239901
0.0276865
0.027448
0.022028
0.00812049
-0.0306102
-0.0324483
-0.0330724
-0.0327561
-0.0320477
-0.0312786
-0.030511
-0.0296701
-0.0286706
-0.0274744
-0.0260823
-0.0245194
-0.0228112
-0.0209794
-0.019045
-0.017028
-0.0149517
-0.0128425
-0.0107765
-0.00875549
-0.0068211
-0.00500968
-0.00335221
-0.0018768
-0.000579228
0.000513002
0.00144293
0.00223697
0.00294366
0.00361018
0.00430886
0.00508682
0.00600412
0.00708277
0.00833915
0.00976979
0.0113332
0.0130253
0.0147616
0.0165363
0.0182528
0.019937
0.0214696
0.0226987
0.0233433
0.0229058
0.0210678
0.0180695
0.0150352
0.0128845
0.0123483
0.0126695
0.0140634
0.0168337
0.0198393
0.0229495
0.0260164
0.0258619
0.0204996
0.00763317
-0.0255114
-0.0270983
-0.0276873
-0.0274941
-0.0269702
-0.0263941
-0.0258221
-0.0251942
-0.0244395
-0.0235223
-0.0224418
-0.0212149
-0.0198609
-0.0183955
-0.0168341
-0.0151952
-0.0135019
-0.0117748
-0.0100442
-0.00833294
-0.00666832
-0.00508123
-0.00358954
-0.00221312
-0.000968272
0.000146354
0.00114204
0.00203595
0.00286342
0.00365482
0.00446205
0.00531569
0.00626403
0.00732145
0.0085082
0.00982097
0.0112367
0.0127489
0.0142943
0.0158667
0.0173776
0.0188304
0.0201054
0.0210965
0.0215662
0.0212567
0.0199206
0.0178024
0.0155739
0.0139405
0.0134341
0.0136094
0.014684
0.0167904
0.0192931
0.0215543
0.0237699
0.0234742
0.0182917
0.00687345
-0.0209423
-0.0223079
-0.0228579
-0.0227612
-0.0223877
-0.0219697
-0.0215571
-0.0211022
-0.0205458
-0.0198564
-0.0190314
-0.0180826
-0.0170243
-0.0158684
-0.0146264
-0.0133104
-0.011936
-0.0105199
-0.00908242
-0.00764257
-0.00622278
-0.00483702
-0.00351611
-0.00226346
-0.00109113
-4.3093e-06
0.00100213
0.00193747
0.00282497
0.00368319
0.00454887
0.0054407
0.00639605
0.00742315
0.00854201
0.0097485
0.0110304
0.0123803
0.0137505
0.0151343
0.0164519
0.0176986
0.0187591
0.0195718
0.0199325
0.0197388
0.0187898
0.0173217
0.0157158
0.0145018
0.0140594
0.0141326
0.0149499
0.0164542
0.0184247
0.0199508
0.021262
0.0206898
0.0158138
0.00597943
-0.016851
-0.0180233
-0.0185331
-0.0185115
-0.0182593
-0.0179692
-0.0176852
-0.0173692
-0.0169723
-0.0164671
-0.0158496
-0.015128
-0.0143129
-0.013413
-0.0124359
-0.0113897
-0.010285
-0.00913382
-0.00795068
-0.00675001
-0.00554798
-0.00435964
-0.00319763
-0.0020725
-0.000994299
3.26008e-05
0.00100989
0.00194141
0.0028414
0.00372035
0.00460339
0.00550112
0.00644118
0.00742721
0.00847648
0.00958406
0.0107436
0.011947
0.013158
0.0143695
0.0155129
0.0165822
0.0174698
0.0181496
0.0184488
0.0183547
0.017702
0.0167067
0.0155699
0.0146835
0.0143125
0.0143043
0.0149004
0.01589
0.0173259
0.0182508
0.0187462
0.0178493
0.0133797
0.00507179
-0.013193
-0.0141974
-0.0146669
-0.0147023
-0.0145469
-0.0143594
-0.0141778
-0.0139722
-0.0137023
-0.0133444
-0.0128941
-0.0123567
-0.0117399
-0.0110498
-0.0102914
-0.00946959
-0.00859153
-0.00766544
-0.00670162
-0.00571072
-0.00470472
-0.00369276
-0.00268511
-0.00169089
-0.000718451
0.000227927
0.00114782
0.00204208
0.0029187
0.00378269
0.00465055
0.00552738
0.00643263
0.00736688
0.00834337
0.0093567
0.0104032
0.0114743
0.0125424
0.0136
0.0145902
0.0155088
0.0162596
0.0168408
0.0171082
0.0170946
0.0166667
0.0160093
0.0152184
0.0145748
0.0142685
0.0141898
0.0145872
0.0151605
0.0160877
0.0165199
0.0163793
0.0151796
0.0111651
0.00423011
-0.00992905
-0.0107873
-0.0112171
-0.0112948
-0.0112158
-0.0111096
-0.0110088
-0.01089
-0.0107201
-0.0104791
-0.0101622
-0.00977293
-0.00931669
-0.00879749
-0.00821844
-0.00758231
-0.00689349
-0.00615738
-0.0053811
-0.00457207
-0.00373902
-0.0028878
-0.00202649
-0.00116179
-0.000300708
0.000552526
0.00139629
0.00222983
0.00305712
0.00387965
0.00470746
0.00554226
0.00639674
0.00726961
0.00816994
0.00909191
0.0100331
0.0109849
0.0119249
0.0128473
0.0137051
0.0144969
0.0151397
0.0156459
0.0158979
0.0159458
0.0156847
0.0152628
0.0147207
0.0142491
0.0139905
0.0138456
0.0140693
0.0143215
0.0147808
0.0148364
0.0142389
0.012806
0.00924274
0.00349225
-0.00702251
-0.00775414
-0.00814555
-0.00825386
-0.00823448
-0.0081922
-0.00815435
-0.00810288
-0.00801099
-0.00786184
-0.00765072
-0.00737968
-0.00705241
-0.00667151
-0.00623867
-0.00575523
-0.00522356
-0.00464684
-0.00402976
-0.00337712
-0.00269453
-0.00198946
-0.00126457
-0.000524889
0.000223971
0.000977946
0.00173457
0.0024923
0.00325259
0.00401499
0.0047849
0.00556188
0.00635355
0.00715726
0.00797854
0.00881163
0.00965358
0.0104972
0.0113239
0.012128
0.0128716
0.013556
0.0141132
0.0145599
0.0148033
0.0148947