/*--------------------------------*- C++ -*----------------------------------*\
| =========                 |                                                 |
| \\      /  F ield         | OpenFOAM: The Open Source CFD Toolbox           |
|  \\    /   O peration     | Version:  2512                                  |
|   \\  /    A nd           | Website:  www.openfoam.com                      |
|    \\/     M anipulation  |                                                 |
\*---------------------------------------------------------------------------*/
FoamFile
{
    version     2.0;
    format      ascii;
    arch        "LSB;label=32;scalar=64";
    class       volScalarField;
    location    "13";
    object      p;
}
// * * * * * * * * * * * * * * * * * * * * * * * * * * * * * * * * * * * * * //

dimensions      [0 2 -2 0 0 0 0];

internalField   nonuniform List<scalar> 
13248
(
-0.342358
-0.340568
-0.338034
-0.334975
-0.331678
-0.328437
-0.325495
-0.323026
-0.321124
-0.319807
-0.319015
-0.318617
-0.318428
-0.318222
-0.317753
-0.316784
-0.315099
-0.31253
-0.308952
-0.304334
-0.298542
-0.291778
-0.283086
-0.273359
-0.349505
-0.347149
-0.344043
-0.340428
-0.336585
-0.33281
-0.329327
-0.326273
-0.323696
-0.321561
-0.319755
-0.318106
-0.316405
-0.314434
-0.311984
-0.308884
-0.305008
-0.300286
-0.294692
-0.288234
-0.280909
-0.272764
-0.263567
-0.254141
-0.358489
-0.355301
-0.351476
-0.347232
-0.342805
-0.338463
-0.334387
-0.330648
-0.327225
-0.324022
-0.320886
-0.317635
-0.314089
-0.31009
-0.305521
-0.300317
-0.29446
-0.287972
-0.280892
-0.273272
-0.265118
-0.256519
-0.24732
-0.238117
-0.36939
-0.365124
-0.360433
-0.355475
-0.350391
-0.345391
-0.340576
-0.335932
-0.331364
-0.326731
-0.321884
-0.316689
-0.31105
-0.304917
-0.298291
-0.291207
-0.283723
-0.2759
-0.267792
-0.259438
-0.250852
-0.242094
-0.233066
-0.224349
-0.382199
-0.376654
-0.370974
-0.365213
-0.359361
-0.353534
-0.34773
-0.341842
-0.335726
-0.329254
-0.322342
-0.314966
-0.307153
-0.298973
-0.290516
-0.281873
-0.273119
-0.264311
-0.255479
-0.246639
-0.237793
-0.228965
-0.220097
-0.21158
-0.396844
-0.389873
-0.383115
-0.376459
-0.36968
-0.362759
-0.355588
-0.347999
-0.339866
-0.331152
-0.321908
-0.312251
-0.302332
-0.292299
-0.282282
-0.27237
-0.262621
-0.253057
-0.243681
-0.234482
-0.225447
-0.216571
-0.207817
-0.199448
-0.41315
-0.404671
-0.39678
-0.389116
-0.381166
-0.372759
-0.363716
-0.353893
-0.343279
-0.332008
-0.320301
-0.308407
-0.296552
-0.284907
-0.273586
-0.262646
-0.252101
-0.24194
-0.232137
-0.222661
-0.213482
-0.204574
-0.195917
-0.187637
-0.430795
-0.420795
-0.411731
-0.402891
-0.393415
-0.383005
-0.371503
-0.358914
-0.345448
-0.331449
-0.317297
-0.303318
-0.289748
-0.276729
-0.264324
-0.252538
-0.241346
-0.230702
-0.220559
-0.210867
-0.201583
-0.192672
-0.184114
-0.175922
-0.449247
-0.437786
-0.427503
-0.417236
-0.405762
-0.392746
-0.378205
-0.362426
-0.345901
-0.329178
-0.312729
-0.296886
-0.281839
-0.267664
-0.25436
-0.241882
-0.230166
-0.21914
-0.208736
-0.198891
-0.18955
-0.18067
-0.172223
-0.164134
-0.467738
-0.454934
-0.443353
-0.431309
-0.417282
-0.401063
-0.383021
-0.363823
-0.344238
-0.324952
-0.306446
-0.288995
-0.272704
-0.257571
-0.243532
-0.230498
-0.21837
-0.207058
-0.196474
-0.186543
-0.177199
-0.168391
-0.160066
-0.152105
-0.485264
-0.47127
-0.458252
-0.443993
-0.426837
-0.406919
-0.385107
-0.362471
-0.339998
-0.318411
-0.298132
-0.279332
-0.26202
-0.246115
-0.231498
-0.218042
-0.205623
-0.194129
-0.18346
-0.173525
-0.16425
-0.155572
-0.147402
-0.139624
-0.500675
-0.485686
-0.471061
-0.454108
-0.433277
-0.409273
-0.383562
-0.357594
-0.332476
-0.308886
-0.287123
-0.267236
-0.24913
-0.232653
-0.217635
-0.203917
-0.19135
-0.179806
-0.16917
-0.159342
-0.150242
-0.141791
-0.133872
-0.126423
-0.289648
-0.293655
-0.296269
-0.298296
-0.300415
-0.302824
-0.305609
-0.308816
-0.312452
-0.316496
-0.320911
-0.325643
-0.330628
-0.335783
-0.341016
-0.346216
-0.35126
-0.356015
-0.360339
-0.364081
-0.367067
-0.369151
-0.370329
-0.37067
-0.292014
-0.295674
-0.298113
-0.300066
-0.302155
-0.304566
-0.307382
-0.310644
-0.314359
-0.318507
-0.323049
-0.327933
-0.333093
-0.338447
-0.343898
-0.349335
-0.354629
-0.359639
-0.364216
-0.368202
-0.371412
-0.37364
-0.374854
-0.375421
-0.296181
-0.299175
-0.301264
-0.303042
-0.305025
-0.307377
-0.310173
-0.313448
-0.317207
-0.321429
-0.326077
-0.331099
-0.336429
-0.341989
-0.34768
-0.353389
-0.358983
-0.364312
-0.369216
-0.373532
-0.377075
-0.379565
-0.380801
-0.381609
-0.301535
-0.303653
-0.305251
-0.30675
-0.308529
-0.310723
-0.313399
-0.316586
-0.320286
-0.324476
-0.329121
-0.334169
-0.339559
-0.345211
-0.351028
-0.356898
-0.362684
-0.368233
-0.37337
-0.377917
-0.381702
-0.384461
-0.385676
-0.385488
-0.307366
-0.308531
-0.309552
-0.310669
-0.312123
-0.314024
-0.316432
-0.319373
-0.322846
-0.32683
-0.331288
-0.336174
-0.341424
-0.346964
-0.3527
-0.358519
-0.364288
-0.369853
-0.375036
-0.379645
-0.383484
-0.386315
-0.387731
-0.387593
-0.313032
-0.313302
-0.31372
-0.314366
-0.315367
-0.316817
-0.318779
-0.32128
-0.324321
-0.327886
-0.331942
-0.336444
-0.341332
-0.346534
-0.351959
-0.357499
-0.363021
-0.368376
-0.373388
-0.377851
-0.381565
-0.384249
-0.385895
-0.384861
-0.318079
-0.317635
-0.317479
-0.317591
-0.318023
-0.318871
-0.320209
-0.322078
-0.32449
-0.327437
-0.330895
-0.334823
-0.339167
-0.343855
-0.348801
-0.353901
-0.359001
-0.363968
-0.368624
-0.37276
-0.376197
-0.378412
-0.380207
-0.377979
-0.322342
-0.321416
-0.320756
-0.320305
-0.320087
-0.320216
-0.320794
-0.321884
-0.323521
-0.325713
-0.328446
-0.331689
-0.335392
-0.339481
-0.343862
-0.348425
-0.353053
-0.357551
-0.361735
-0.365351
-0.368335
-0.369772
-0.371364
-0.367961
-0.325928
-0.324746
-0.32367
-0.322654
-0.32175
-0.321106
-0.320857
-0.321103
-0.321905
-0.323293
-0.32527
-0.327809
-0.330857
-0.334341
-0.338159
-0.342173
-0.346223
-0.350112
-0.353639
-0.35649
-0.358698
-0.359115
-0.359826
-0.355328
-0.329188
-0.327907
-0.326482
-0.324924
-0.323343
-0.321935
-0.320875
-0.320298
-0.320297
-0.320922
-0.322184
-0.324058
-0.32648
-0.329351
-0.332533
-0.335857
-0.339124
-0.34211
-0.344604
-0.346313
-0.347281
-0.346574
-0.345855
-0.340442
-0.332638
-0.331305
-0.329553
-0.327476
-0.32526
-0.323146
-0.321348
-0.320031
-0.31931
-0.319245
-0.319846
-0.321067
-0.322817
-0.324953
-0.327295
-0.329627
-0.331711
-0.333308
-0.334201
-0.334214
-0.333352
-0.331333
-0.329209
-0.323862
-0.336859
-0.33539
-0.333279
-0.330697
-0.327896
-0.325156
-0.322717
-0.320761
-0.319407
-0.318707
-0.318646
-0.319145
-0.320066
-0.321218
-0.322375
-0.323288
-0.323704
-0.323396
-0.322162
-0.319915
-0.316565
-0.312361
-0.307756
-0.30242
-0.36971
-0.364924
-0.356294
-0.343024
-0.324757
-0.301382
-0.272927
-0.239717
-0.20246
-0.162192
-0.121015
-0.0801348
-0.0416342
-0.00681249
0.0222942
0.0452344
0.0617982
0.0724054
0.0779132
0.0793924
0.0779113
0.0744831
0.0698799
0.0646992
0.0593543
0.0541133
0.0491503
0.0445259
0.0402648
0.0363747
0.0328417
0.0296449
0.0267427
0.0241157
0.0217461
0.019611
0.0176944
0.0159802
0.0144522
0.0130894
0.011876
0.0107892
0.00981964
0.0089433
0.00815963
0.00744116
0.00679638
0.00619491
0.00564866
0.00513256
0.00464828
0.00418985
0.00373623
0.00330392
0.00285416
0.00241368
0.00193244
0.00145229
0.000894237
0.000333364
-0.375393
-0.370677
-0.362077
-0.348726
-0.330327
-0.306676
-0.277823
-0.244132
-0.206364
-0.165748
-0.123973
-0.0825543
-0.0434523
-0.00846786
0.0209433
0.0440932
0.0608281
0.0715922
0.0772587
0.0788941
0.0775637
0.0742191
0.0696911
0.0645727
0.0592738
0.054062
0.0491155
0.0445122
0.0402867
0.0364252
0.0329096
0.029731
0.0268257
0.0241928
0.0218198
0.0196784
0.0177538
0.0160322
0.0144976
0.0131294
0.011911
0.0108206
0.009847
0.00896832
0.00818103
0.00746124
0.00681328
0.00621079
0.00566241
0.00514454
0.00465986
0.0041985
0.00374571
0.00331019
0.0028615
0.00241752
0.00193843
0.0014529
0.000898632
0.00032962
-0.384208
-0.379914
-0.371875
-0.359116
-0.34114
-0.317791
-0.289097
-0.255386
-0.217406
-0.176453
-0.133794
-0.0915127
-0.0516234
-0.0158105
0.0145027
0.0385068
0.0560379
0.0675361
0.0738754
0.0761285
0.0753475
0.0724871
0.0683653
0.0635812
0.0585561
0.0535685
0.0487616
0.0442309
0.040037
0.0362228
0.0327516
0.0296598
0.0268007
0.0241907
0.0218354
0.0197031
0.0177818
0.0160613
0.0145262
0.0131571
0.0119369
0.0108451
0.00986909
0.00898929
0.00819926
0.00747883
0.00682818
0.00622511
0.0056749
0.00515554
0.0046707
0.00420658
0.00375481
0.00331622
0.00286873
0.00242135
0.00194452
0.00145368
0.000903148
0.000326014
-0.39245
-0.387534
-0.380972
-0.369249
-0.352308
-0.329937
-0.302124
-0.269112
-0.231572
-0.190667
-0.147956
-0.105267
-0.0646003
-0.0278294
0.0035891
0.028781
0.0475296
0.0602305
0.0677244
0.0710606
0.0712814
0.0692741
0.0658504
0.0616311
0.0570525
0.0524058
0.0478641
0.0435748
0.0395957
0.0359159
0.0325333
0.0294268
0.0266511
0.0241086
0.0217983
0.0196887
0.0177814
0.01607
0.0145404
0.0131745
0.0119555
0.0108643
0.00988732
0.00900743
0.00821542
0.00749489
0.00684198
0.00623861
0.00568683
0.00516617
0.00468129
0.00421463
0.0037639
0.00332244
0.00287614
0.00242555
0.00195085
0.00145495
0.000907834
0.000322758
-0.393958
-0.392339
-0.386044
-0.375759
-0.360561
-0.339904
-0.313705
-0.282187
-0.245931
-0.20597
-0.163775
-0.121254
-0.0803687
-0.0429938
-0.0106445
0.0157355
0.0358596
0.0500431
0.0590429
0.0638421
0.065437
0.0646404
0.0622175
0.0588106
0.0548818
0.0507465
0.0466157
0.0426313
0.0388672
0.0353547
0.0321226
0.0291253
0.0264068
0.0239246
0.0217047
0.0196342
0.0177515
0.0160576
0.0145394
0.013181
0.0119662
0.0108779
0.0099015
0.0090226
0.00822943
0.00750934
0.00685464
0.00625126
0.00569817
0.00517647
0.00469162
0.0042227
0.00377295
0.00332892
0.0028837
0.0024302
0.00195737
0.00145682
0.000912607
0.000319995
-0.391433
-0.391144
-0.386
-0.377252
-0.363931
-0.345294
-0.321237
-0.291912
-0.257763
-0.219682
-0.17902
-0.137536
-0.0971565
-0.0597555
-0.0268821
0.000461948
0.021912
0.0376743
0.048372
0.0548721
0.0580865
0.0587878
0.0576246
0.0552386
0.0521277
0.0486391
0.0450116
0.0414087
0.037936
0.0346553
0.0315919
0.0287205
0.0260883
0.0236111
0.0215414
0.0195375
0.0176924
0.016024
0.014523
0.0131764
0.0119689
0.0108856
0.00991133
0.00903451
0.00824108
0.00752198
0.006866
0.00626293
0.00570879
0.00518631
0.00470153
0.00423071
0.00378182
0.00333562
0.00289127
0.00243528
0.00196395
0.00145936
0.000917348
0.000317879
-0.383739
-0.384044
-0.380308
-0.373402
-0.362048
-0.345522
-0.323796
-0.296985
-0.265478
-0.230082
-0.191904
-0.152444
-0.113451
-0.076732
-0.0438605
-0.0159048
0.00667893
0.0239638
0.036403
0.044698
0.0496454
0.0519883
0.052268
0.0510603
0.0488922
0.0461513
0.0431093
0.0399593
0.0368338
0.0338158
0.0309513
0.0282597
0.0257509
0.0235614
0.0213575
0.0194018
0.0176054
0.0159697
0.0144914
0.0131606
0.0119633
0.0108871
0.00991669
0.00904303
0.00825026
0.00753268
0.00687597
0.00627349
0.0057186
0.00519565
0.00471094
0.00423866
0.00379042
0.00334252
0.00289875
0.00244082
0.00197046
0.00146263
0.000921942
0.000316601
-0.372104
-0.371893
-0.369382
-0.364297
-0.354772
-0.340358
-0.321192
-0.29722
-0.268651
-0.236252
-0.2012
-0.164692
-0.128035
-0.0927919
-0.0605194
-0.0323779
-0.0089452
0.00969072
0.02379
0.0338604
0.0405533
0.0445315
0.0463365
0.0464118
0.0452729
0.0433499
0.0409547
0.0383108
0.0355756
0.0328567
0.0302228
0.0277145
0.0253524
0.0231326
0.0211195
0.0192194
0.0174867
0.0158951
0.014445
0.0131337
0.0119495
0.0108824
0.00991746
0.00904802
0.00825688
0.0075413
0.0068845
0.00628287
0.00572753
0.00520443
0.00471975
0.00424652
0.00379864
0.00334964
0.00290606
0.00244686
0.00197679
0.00146672
0.000926281
0.000316396
-0.356792
-0.355288
-0.353878
-0.350408
-0.34246
-0.330158
-0.313712
-0.292802
-0.267516
-0.238517
-0.206806
-0.173609
-0.139993
-0.106983
-0.0759397
-0.0480927
-0.0241693
-0.00444788
0.0111178
0.0228347
0.0311857
0.0367333
0.0400178
0.041425
0.0413766
0.0403151
0.038599
0.0364915
0.0341774
0.0317865
0.0294068
0.0270958
0.0248845
0.0227863
0.0208147
0.0190194
0.0173394
0.0158013
0.0143841
0.0130957
0.0119274
0.0108715
0.00991362
0.00904942
0.00826096
0.00754784
0.00689161
0.00629107
0.00573559
0.00521269
0.00472793
0.00425434
0.00380644
0.003357
0.00291313
0.00245345
0.00198286
0.00147175
0.000930283
0.000317561
-0.338187
-0.335345
-0.335138
-0.332805
-0.326114
-0.315984
-0.302374
-0.28464
-0.262825
-0.237488
-0.209404
-0.179582
-0.149141
-0.118807
-0.0895457
-0.0625036
-0.0385143
-0.0180508
-0.00129486
0.0118556
0.021713
0.0287193
0.0333633
0.036093
0.0372079
0.0370871
0.0361002
0.0345575
0.0326834
0.0306356
0.0285231
0.0264198
0.0243708
0.0223999
0.0204642
0.0187963
0.01715
0.0156842
0.0143094
0.013048
0.0118983
0.0108554
0.00990618
0.00904807
0.00826318
0.0075528
0.00689767
0.00629831
0.00574289
0.00522048
0.00473544
0.00426207
0.00381369
0.00336454
0.00291977
0.00246055
0.00198849
0.00147775
0.000933847
0.000320478
-0.319274
-0.315352
-0.315944
-0.313876
-0.30822
-0.300349
-0.289565
-0.275023
-0.256767
-0.235187
-0.210819
-0.184433
-0.157
-0.129388
-0.102218
-0.0763978
-0.0527332
-0.0318272
-0.0140832
0.000384074
0.0117068
0.0201785
0.0261872
0.0301442
0.0324402
0.0333876
0.0332718
0.0324064
0.0310492
0.0293949
0.0275823
0.0257075
0.0238333
0.0219958
0.0202042
0.0185397
0.0169478
0.0155511
0.0142247
0.0129927
0.011863
0.0108343
0.00989469
0.00904319
0.00826253
0.00755509
0.00690156
0.00630352
0.0057484
0.00522682
0.00474131
0.00426891
0.00381948
0.0033716
0.00292524
0.00246766
0.00199306
0.00148442
0.000936584
0.000325585
-0.299094
-0.296957
-0.296982
-0.293523
-0.28842
-0.282391
-0.274026
-0.262514
-0.247806
-0.230059
-0.209581
-0.186861
-0.162565
-0.137454
-0.112302
-0.0879416
-0.0650905
-0.0442776
-0.0260211
-0.0106112
0.00190923
0.0116812
0.0189751
0.0241214
0.0274474
0.0292875
0.0299912
0.0298294
0.0290475
0.0278524
0.0264012
0.0248079
0.0231515
0.0214844
0.019837
0.0182183
0.0168067
0.0153714
0.0140956
0.0129028
0.0117994
0.0107893
0.00986358
0.00902168
0.00824876
0.0075461
0.00689704
0.0063015
0.00574854
0.0052291
0.00474361
0.00427387
0.00382299
0.00337789
0.0029293
0.00247479
0.00199632
0.00149183
0.000938026
0.000333383
-0.279957
-0.289061
-0.285693
-0.279182
-0.273383
-0.267421
-0.259619
-0.249084
-0.235623
-0.219374
-0.200638
-0.179846
-0.157571
-0.134488
-0.111277
-0.0886279
-0.0672032
-0.0475484
-0.0301184
-0.0151927
-0.00285107
0.00698885
0.0145287
0.0200411
0.0238305
0.0261863
0.0273813
0.0276634
0.0272703
0.0264064
0.0252324
0.0238702
0.0224081
0.0209051
0.0193963
0.017918
0.0165387
0.0152092
0.0139503
0.0127917
0.0117178
0.0107292
0.00982288
0.00899219
0.00823225
0.00753431
0.0068941
0.00630085
0.00575244
0.00523614
0.00475072
0.00428509
0.00383233
0.00339008
0.00293906
0.00248717
0.00200331
0.00150287
0.000940389
0.000343559
-0.257703
-0.26902
-0.267346
-0.260676
-0.254152
-0.248031
-0.240736
-0.231114
-0.218862
-0.204155
-0.187319
-0.168733
-0.148848
-0.128195
-0.107343
-0.0868758
-0.0673713
-0.0493162
-0.0331032
-0.0190014
-0.00712564
0.00254944
0.0101576
0.0159069
0.0200373
0.0227838
0.0243826
0.0250658
0.0250526
0.0245337
0.0236642
0.0225648
0.0213257
0.02001
0.0186584
0.0173138
0.0160195
0.0147855
0.0136303
0.0125398
0.0115196
0.0105731
0.00970028
0.00889549
0.00815676
0.00747461
0.00684808
0.00626467
0.00572479
0.00521537
0.00473452
0.00427428
0.00382381
0.00338518
0.0029356
0.00248612
0.00200191
0.00150443
0.000939026
0.000348586
-0.236728
-0.249112
-0.248752
-0.242334
-0.235497
-0.229332
-0.222555
-0.213898
-0.202939
-0.189828
-0.17488
-0.158417
-0.140782
-0.12239
-0.103711
-0.0852489
-0.0675003
-0.050903
-0.0358169
-0.0225056
-0.0111089
-0.00164581
0.00596373
0.0118694
0.0162576
0.0193271
0.021287
0.0223448
0.0226967
0.0225175
0.0219539
0.0211234
0.0201168
0.0190007
0.0178218
0.0166249
0.0154583
0.0143316
0.0132534
0.0122294
0.0112665
0.0103672
0.00953315
0.00875979
0.00804676
0.00738531
0.00677574
0.00620603
0.0056772
0.00517717
0.00470333
0.0042498
0.00380384
0.00336981
0.00292345
0.00247718
0.0019947
0.00150063
0.000935006
0.000350856
-0.21762
-0.229433
-0.229868
-0.224199
-0.217643
-0.211699
-0.205464
-0.197743
-0.188033
-0.176415
-0.163177
-0.148603
-0.132973
-0.116618
-0.0999246
-0.0833176
-0.0672227
-0.0520287
-0.0380628
-0.0255739
-0.0147138
-0.00553348
0.00200197
0.00799246
0.01258
0.0159289
0.0182163
0.0196217
0.0203185
0.0204655
0.0202
0.0196356
0.0188626
0.0179497
0.0169489
0.015908
0.0148691
0.0138417
0.0128467
0.0118949
0.0109926
0.0101432
0.00935037
0.00861051
0.00792524
0.00728608
0.00669504
0.00614033
0.00562363
0.00513409
0.00466796
0.00422196
0.00378102
0.00335223
0.00290938
0.00246697
0.00198634
0.00149621
0.000930771
0.000352322
-0.199033
-0.210179
-0.211273
-0.206515
-0.200545
-0.194993
-0.1893
-0.182441
-0.173886
-0.163647
-0.151966
-0.139104
-0.125299
-0.110813
-0.0959593
-0.081089
-0.0665635
-0.0527233
-0.0398623
-0.0282129
-0.0179313
-0.00909271
-0.0016978
0.00431288
0.00904232
0.01262
0.0151911
0.0169083
0.0179231
0.0183781
0.0184
0.0180965
0.017556
0.0168481
0.0160278
0.0151419
0.0142287
0.0133093
0.0124069
0.0115325
0.0106949
0.00989898
0.00915053
0.00844688
0.00779174
0.00717687
0.0066061
0.00606785
0.00556452
0.00508656
0.00462895
0.00419137
0.00375595
0.0033331
0.00289404
0.00245606
0.00197742
0.00149162
0.000926622
0.000353117
-0.181263
-0.191852
-0.193413
-0.189474
-0.184173
-0.179122
-0.173995
-0.167941
-0.160455
-0.151492
-0.141248
-0.129951
-0.117809
-0.105033
-0.0918719
-0.0786133
-0.0655617
-0.0530121
-0.0412268
-0.0304203
-0.0207483
-0.0123014
-0.00510708
0.00086135
0.00567238
0.00942308
0.0122295
0.0142189
0.0155213
0.0162625
0.0165574
0.0165066
0.0161948
0.0156911
0.0150508
0.0143208
0.0135403
0.0127358
0.0119303
0.0111373
0.0103684
0.00962971
0.00892911
0.00826481
0.00764252
0.00705441
0.00650594
0.00598601
0.00549755
0.00503253
0.00458455
0.00415639
0.00372728
0.00331114
0.00287642
0.00244346
0.00196727
0.00148609
0.000922169
0.000353033
-0.164797
-0.17457
-0.176368
-0.173149
-0.168543
-0.164062
-0.159526
-0.154239
-0.147738
-0.139948
-0.131019
-0.121149
-0.110515
-0.0992919
-0.0876776
-0.0759058
-0.0642308
-0.0529055
-0.0421615
-0.0321945
-0.0231551
-0.0151424
-0.00820303
-0.0023365
0.0024965
0.00636449
0.00935696
0.011577
0.0131337
0.014136
0.0146861
0.0148764
0.0147866
0.0144836
0.0140227
0.0134509
0.0128073
0.0121207
0.0114155
0.0107078
0.0100114
0.00933372
0.00868439
0.00806262
0.00747595
0.00691715
0.00639314
0.00589351
0.00542153
0.00497094
0.0045338
0.00411614
0.00369426
0.00328565
0.00285596
0.00242861
0.00195553
0.00147921
0.000917244
0.00035211
-0.149384
-0.158258
-0.160213
-0.157649
-0.15372
-0.149824
-0.145881
-0.141315
-0.135715
-0.128992
-0.121258
-0.112681
-0.103412
-0.0935958
-0.0833912
-0.0729868
-0.0625928
-0.0524237
-0.0426818
-0.0335434
-0.0251507
-0.0176059
-0.0109687
-0.00525861
-0.000460003
0.00347102
0.00659996
0.00900739
0.0107826
0.0120177
0.0128021
0.0132186
0.0133414
0.0132338
0.0129501
0.0125361
0.0120307
0.0114642
0.0108627
0.0102438
0.00962353
0.00901031
0.00841553
0.0078394
0.00729114
0.00676424
0.00626688
0.0057896
0.00533579
0.00490118
0.00447618
0.00407018
0.00365651
0.0032563
0.00283242
0.00241128
0.00194208
0.00147087
0.000911836
0.000350496
-0.134888
-0.142993
-0.145059
-0.14306
-0.13975
-0.136414
-0.133039
-0.129142
-0.124361
-0.118601
-0.111947
-0.104537
-0.0965011
-0.0879571
-0.0790336
-0.0698822
-0.0606749
-0.0515918
-0.0428076
-0.0344793
-0.0267387
-0.019687
-0.0133915
-0.00788628
-0.00317434
0.000767499
0.00398362
0.00653422
0.00849004
0.00992704
0.0109216
0.0115469
0.0118699
0.0119499
0.0118384
0.0115799
0.0112127
0.0107681
0.0102728
0.00974562
0.00920445
0.00865885
0.00812173
0.00759425
0.00708715
0.00659475
0.00612629
0.00567346
0.00523959
0.0048226
0.00441112
0.004018
0.00361363
0.00322272
0.00280554
0.00239124
0.00192679
0.00146095
0.000905905
0.000348317
-0.121485
-0.128837
-0.130924
-0.129394
-0.126642
-0.123826
-0.120977
-0.117693
-0.113652
-0.108758
-0.103074
-0.0967136
-0.0897865
-0.0823899
-0.074627
-0.0666189
-0.0585054
-0.0504367
-0.0425618
-0.0350188
-0.0279278
-0.0213859
-0.0154639
-0.0102053
-0.00562754
-0.00172414
0.0015312
0.0041807
0.00627808
0.00788413
0.00906245
0.00987593
0.0103841
0.0106409
0.0106947
0.0105877
0.0103575
0.0100349
0.0096471
0.00921375
0.0087542
0.00827901
0.00780238
0.0073264
0.00686312
0.00640777
0.00597048
0.00554425
0.00513214
0.00473447
0.00433796
0.00395902
0.00356513
0.00318448
0.00277501
0.00236819
0.00190946
0.00144931
0.000899341
0.000345664
-0.109164
-0.115735
-0.117777
-0.116647
-0.114389
-0.112049
-0.109681
-0.106949
-0.103569
-0.099448
-0.0946301
-0.0892092
-0.0832759
-0.0769101
-0.0701943
-0.0632249
-0.056115
-0.0489885
-0.0419712
-0.0351831
-0.0287319
-0.0227084
-0.0171835
-0.0122065
-0.00780478
-0.00398513
-0.000736119
0.0019689
0.00416847
0.00590935
0.00724285
0.00822161
0.0088972
0.00931783
0.00952772
0.00956643
0.00946978
0.00926796
0.00898807
0.00864959
0.00827343
0.00787091
0.00745722
0.00703533
0.00661835
0.00620254
0.00579864
0.00540115
0.00501267
0.00463606
0.00425607
0.00389263
0.00351051
0.00314111
0.00274047
0.00234179
0.00188988
0.00143581
0.000892002
0.000342606
-0.0977807
-0.103632
-0.105609
-0.104806
-0.102981
-0.101066
-0.0991321
-0.0968931
-0.0940997
-0.0906625
-0.0866127
-0.0820265
-0.0769789
-0.0715348
-0.0657596
-0.0597298
-0.0535361
-0.0472796
-0.0410658
-0.0349974
-0.0291695
-0.0236654
-0.0185536
-0.0138856
-0.00969565
-0.00600027
-0.00279989
-8.09178e-05
0.00218194
0.00402282
0.00548149
0.00660067
0.00742381
0.00799293
0.00834757
0.00852396
0.00855563
0.0084718
0.00829906
0.0080553
0.00776344
0.00743521
0.00708646
0.00672088
0.00635247
0.00597849
0.00561012
0.00524346
0.00488049
0.00452669
0.00416481
0.00381826
0.00344928
0.00309215
0.00270154
0.00231174
0.00186778
0.00142032
0.000883732
0.000339193
-0.0873118
-0.0925175
-0.0944041
-0.0938681
-0.0924156
-0.0908724
-0.0893162
-0.0875088
-0.0852292
-0.0823921
-0.0790183
-0.0751693
-0.0709066
-0.0662824
-0.0613483
-0.0561642
-0.0508023
-0.0453445
-0.039878
-0.0344901
-0.0292633
-0.0242725
-0.019582
-0.0152434
-0.0112944
-0.00775849
-0.00464501
-0.00195101
0.000337576
0.00224378
0.00379691
0.00503021
0.00597915
0.0066793
0.00716523
0.0074693
0.00762236
0.007652
0.00758439
0.00743366
0.00722621
0.00697319
0.00669076
0.00638329
0.00606536
0.00573529
0.00540445
0.00507063
0.004735
0.00440574
0.00406361
0.00373535
0.00338094
0.00303714
0.00265787
0.00227773
0.00184291
0.00140272
0.000874374
0.000335453
-0.0777614
-0.0823582
-0.0841256
-0.0837964
-0.0826458
-0.0814434
-0.0802175
-0.0787809
-0.0769449
-0.0746292
-0.0718454
-0.0686427
-0.065071
-0.0611721
-0.056986
-0.052559
-0.047948
-0.0432187
-0.0384426
-0.0336926
-0.0290396
-0.0245499
-0.0202821
-0.0162859
-0.0126004
-0.00925317
-0.0062602
-0.00362669
-0.0013478
0.000590059
0.00220688
0.00352719
0.0045788
0.00539086
0.00599271
0.00641258
0.00667818
0.00681482
0.00684954
0.00678823
0.00666447
0.00648675
0.00627137
0.00602323
0.00575731
0.0054729
0.00518138
0.00488224
0.00457573
0.0042727
0.00395195
0.00364336
0.00330503
0.00297566
0.00260907
0.00223948
0.001815
0.00138288
0.000863777
0.000331388
-0.069058
-0.0730935
-0.0747432
-0.0746043
-0.0737639
-0.0727837
-0.0718181
-0.0706929
-0.0692339
-0.0673654
-0.0650919
-0.0624515
-0.0594842
-0.0562229
-0.0526979
-0.0489447
-0.0450075
-0.0409384
-0.0367953
-0.0326386
-0.0285281
-0.0245214
-0.0206712
-0.0170237
-0.0136175
-0.0104824
-0.00763836
-0.00509681
-0.00286014
-0.000922586
0.000727861
0.00210791
0.00323825
0.00414185
0.00484275
0.00536481
0.00573216
0.00596651
0.00608635
0.00612285
0.00608185
0.00597856
0.00583014
0.00564192
0.00542901
0.00519163
0.00494094
0.00467811
0.00440236
0.00412715
0.00382938
0.00354186
0.00322109
0.00290732
0.00255477
0.00219671
0.00178376
0.00136069
0.000851806
0.000326981
-0.0611213
-0.0646515
-0.0661697
-0.0661557
-0.0655204
-0.0647919
-0.0640659
-0.0632084
-0.0620726
-0.0605879
-0.0587534
-0.056599
-0.0541568
-0.0514522
-0.048508
-0.0453508
-0.0420143
-0.0385395
-0.0349727
-0.031363
-0.0277605
-0.0242144
-0.0207709
-0.0174721
-0.0143548
-0.0114488
-0.00877676
-0.00635411
-0.00418871
-0.00228097
-0.000625515
0.000787535
0.00197243
0.0029464
0.00372834
0.00433768
0.00479489
0.00511903
0.00532917
0.00544618
0.00548315
0.00545207
0.00536958
0.00524111
0.00508165
0.00489219
0.00468348
0.00445832
0.00421478
0.00396884
0.00369558
0.00343048
0.00312877
0.00283176
0.00249462
0.00214918
0.00174893
0.00133601
0.000838344
0.000322202
-0.0539129
-0.0569899
-0.0583763
-0.05846
-0.0580082
-0.057478
-0.0569472
-0.0563122
-0.0554461
-0.0542852
-0.0528248
-0.0510873
-0.0490978
-0.0468761
-0.0444388
-0.0418054
-0.039001
-0.0360574
-0.0330111
-0.0299017
-0.0267705
-0.0236587
-0.0206061
-0.0176503
-0.0148252
-0.0121597
-0.00967711
-0.00739543
-0.00532635
-0.00347491
-0.00184103
-0.000420519
0.0007952
0.00181812
0.00266238
0.00334307
0.00387698
0.00428039
0.00457071
0.00476343
0.00487352
0.00491141
0.00489288
0.00482318
0.00471693
0.00457571
0.00440971
0.00422325
0.00401312
0.00379774
0.00355038
0.00330898
0.00302774
0.00274871
0.00242832
0.00209667
0.0017103
0.00130872
0.000823297
0.000317016
-0.0473854
-0.0500541
-0.0513109
-0.0514677
-0.0511666
-0.0507948
-0.0504243
-0.0499717
-0.049331
-0.0484433
-0.0472997
-0.0459168
-0.0443149
-0.0425089
-0.0405109
-0.0383345
-0.0359982
-0.033526
-0.0309463
-0.0282907
-0.0255925
-0.0228858
-0.0202045
-0.0175811
-0.0150461
-0.0126266
-0.0103454
-0.00822178
-0.00626972
-0.00449753
-0.00290916
-0.00150503
-0.000281282
0.000769524
0.00165715
0.0023926
0.00298906
0.00345976
0.00381968
0.00408124
0.00425877
0.00436139
0.00440388
0.00439112
0.00433709
0.00424383
0.00412078
0.00397362
0.0037978
0.00361402
0.00339378
0.00317727
0.00291783
0.00265798
0.00235563
0.00203899
0.00166767
0.00127872
0.000806597
0.00031139
-0.0414806
-0.043787
-0.0449204
-0.04513
-0.04495
-0.0447092
-0.0444731
-0.0441683
-0.0437107
-0.0430477
-0.0421688
-0.0410855
-0.0398129
-0.0383622
-0.0367421
-0.0349618
-0.0330342
-0.0309773
-0.0288127
-0.0265651
-0.0242611
-0.0219285
-0.0195954
-0.0172896
-0.0150379
-0.0128648
-0.0107919
-0.0088383
-0.00701943
-0.00534555
-0.00382342
-0.00245711
-0.00124661
-0.000188328
0.000723758
0.00149708
0.00214141
0.00266675
0.00308505
0.00340718
0.00364536
0.00380745
0.00390707
0.00394852
0.00394496
0.00389872
0.00381826
0.00371057
0.00356956
0.00341817
0.003226
0.00303545
0.00279899
0.00255948
0.00227639
0.00197602
0.0016209
0.00124589
0.000788195
0.000305296
-0.0361487
-0.0381365
-0.0391543
-0.0394006
-0.0393178
-0.0391825
-0.0390517
-0.0388658
-0.0385572
-0.0380793
-0.0374212
-0.0365894
-0.0355945
-0.0344454
-0.033148
-0.0317082
-0.030135
-0.028441
-0.0266427
-0.0247589
-0.0228106
-0.0208198
-0.0188097
-0.0168033
-0.0148239
-0.012893
-0.0110302
-0.00925407
-0.00758011
-0.00601961
-0.00458106
-0.00327109
-0.00209271
-0.0010456
-0.000127126
0.000666979
0.0013437
0.00191043
0.00237637
0.00274931
0.00304026
0.00325559
0.00340751
0.00349957
0.00354393
0.00354304
0.00350423
0.00343566
0.00332953
0.00321096
0.00304755
0.00288381
0.00267134
0.00245326
0.00219058
0.0019077
0.00156994
0.00121018
0.000768071
0.000298718
-0.0313453
-0.0330533
-0.0339639
-0.034234
-0.0342284
-0.0341787
-0.034135
-0.034049
-0.0338547
-0.0335244
-0.0330463
-0.0324226
-0.0316602
-0.030765
-0.029741
-0.0285919
-0.0273234
-0.0259444
-0.0244666
-0.0229045
-0.0212739
-0.0195924
-0.0178784
-0.0161509
-0.0144294
-0.0127324
-0.0110774
-0.00948149
-0.00795981
-0.00652382
-0.00518289
-0.00394528
-0.00281601
-0.00179682
-0.000887679
-8.76855e-05
0.000606851
0.00120079
0.00170148
0.00211523
0.0024505
0.00271206
0.00291064
0.00304891
0.00313786
0.00317998
0.00318121
0.00315086
0.0030792
0.00299352
0.00285919
0.00272291
0.00253523
0.00233952
0.00209829
0.00183406
0.00151479
0.00117158
0.000746226
0.000291652
-0.0270254
-0.0284885
-0.0293002
-0.0295838
-0.0296379
-0.0296544
-0.0296767
-0.0296657
-0.0295702
-0.0293595
-0.0290274
-0.0285752
-0.0280063
-0.0273239
-0.0265301
-0.0256271
-0.0246189
-0.023511
-0.0223118
-0.0210315
-0.0196824
-0.0182778
-0.0168324
-0.0153614
-0.0138808
-0.0124063
-0.0109528
-0.00953571
-0.0081693
-0.0068646
-0.00563121
-0.00447849
-0.00341325
-0.00243879
-0.00155613
-0.000765664
-6.58877e-05
0.000545036
0.00107037
0.00151375
0.00188402
0.00218397
0.00242265
0.00260183
0.00273122
0.00281323
0.00285223
0.00285864
0.00282048
0.00276736
0.00266205
0.00255358
0.00239122
0.00221864
0.00199977
0.00175523
0.00145554
0.00113013
0.000722693
0.000284102
-0.0231492
-0.0243997
-0.025122
-0.0254119
-0.0255121
-0.0255809
-0.0256551
-0.0257036
-0.0256839
-0.0255697
-0.0253539
-0.0250398
-0.02463
-0.0241246
-0.0235234
-0.0228273
-0.0220391
-0.0211627
-0.0202034
-0.0191682
-0.018066
-0.0169071
-0.0157026
-0.0144647
-0.0132063
-0.01194
-0.0106785
-0.00943534
-0.00822331
-0.0070525
-0.0059321
-0.00487177
-0.00387916
-0.00295946
-0.00211664
-0.00135374
-0.000669295
-6.02514e-05
0.000479261
0.000947033
0.00134478
0.00167579
0.00194821
0.00216292
0.00232827
0.00244662
0.00252059
0.00256178
0.00255567
0.00253433
0.00245758
0.00237695
0.00224017
0.00209123
0.00189548
0.00167149
0.00139238
0.00108594
0.000697531
0.000276084
-0.0196705
-0.0207362
-0.0213775
-0.021668
-0.0218032
-0.0219122
-0.0220261
-0.02212
-0.0221589
-0.022121
-0.0219998
-0.0217984
-0.0215185
-0.0211584
-0.0207173
-0.0201952
-0.019593
-0.0189129
-0.0181584
-0.0173344
-0.0164472
-0.0155044
-0.0145143
-0.0134864
-0.0124307
-0.0113574
-0.0102768
-0.00920046
-0.00813981
-0.00710363
-0.00610013
-0.00513864
-0.00422676
-0.0033693
-0.00256974
-0.00183275
-0.00116567
-0.000573835
-3.6176e-05
0.000436191
0.000850109
0.00120147
0.00149815
0.00174067
0.00193573
0.00208557
0.00219064
0.00226387
0.00228763
0.00229678
0.00224761
0.00219448
0.00208322
0.00195812
0.00178605
0.00158325
0.00132563
0.00103922
0.000670829
0.000267604
-0.0165858
-0.0174931
-0.0180614
-0.0183473
-0.0185071
-0.0186456
-0.0187893
-0.0189196
-0.0190088
-0.0190384
-0.0189995
-0.0188884
-0.0187053
-0.0184555
-0.0181421
-0.0177633
-0.0173162
-0.0168002
-0.0162179
-0.0155732
-0.0148707
-0.0141155
-0.0133136
-0.0124718
-0.0115982
-0.0107006
-0.0097872
-0.00886783
-0.00795251
-0.00704887
-0.00616445
-0.00530846
-0.00448884
-0.00371131