/*--------------------------------*- C++ -*----------------------------------*\
| =========                 |                                                 |
| \\      /  F ield         | OpenFOAM: The Open Source CFD Toolbox           |
|  \\    /   O peration     | Version:  2512                                  |
|   \\  /    A nd           | Website:  www.openfoam.com                      |
|    \\/     M anipulation  |                                                 |
\*---------------------------------------------------------------------------*/
FoamFile
{
    version     2.0;
    format      ascii;
    arch        "LSB;label=32;scalar=64";
    class       surfaceScalarField;
    location    "13";
    object      phi;
}
// * * * * * * * * * * * * * * * * * * * * * * * * * * * * * * * * * * * * * //

dimensions      [0 3 -1 0 0 0 0];

oriented        oriented;

internalField   nonuniform List<scalar> 
26232
(
3.76617e-05
0.00100786
-0.00104552
0.00036677
0.00199787
-0.00232698
0.00116203
0.00209415
-0.00288941
0.00258082
0.00133161
-0.0027504
0.00477767
-0.000275601
-0.00192125
0.00790759
-0.00272647
-0.000403452
0.0121217
-0.0060237
0.00180958
0.0175561
-0.0101629
0.00472847
0.0243151
-0.0151201
0.00836117
0.0324517
-0.0208418
0.0127052
0.0419498
-0.0272383
0.0177402
0.0527116
-0.034184
0.0234222
0.0645541
-0.0415222
0.0296798
0.077215
-0.0490757
0.0364148
0.0903697
-0.0566597
0.043505
0.103655
-0.0640962
0.050811
0.116699
-0.0712279
0.0581841
0.129152
-0.0779311
0.0654779
0.140721
-0.0841198
0.0725503
0.151184
-0.089769
0.0793063
0.160421
-0.0948476
0.085611
0.168345
-0.0995255
0.0916012
0.174846
-0.103449
0.0969482
-0.107725
0.102896
0.179675
7.3818e-05
0.000934042
0.000543741
0.00152795
0.00162108
0.00101681
0.00349955
-0.000546853
0.00636504
-0.00314109
0.0103907
-0.00675217
0.0157228
-0.0113558
0.0224588
-0.0168989
0.0306241
-0.0232855
0.0401528
-0.0303704
0.050878
-0.0379635
0.0625368
-0.0458428
0.0747887
-0.0537741
0.0872462
-0.0615333
0.0995125
-0.0689259
0.111221
-0.0758043
0.12207
-0.0820774
0.131853
-0.0877145
0.140475
-0.0927417
0.147939
-0.0972325
0.154373
-0.101281
0.159885
-0.105038
0.164895
-0.108459
-0.112177
0.169347
0.000140604
0.000793438
0.000827346
0.000841209
0.00230001
-0.000455855
0.0047788
-0.00302564
0.00846326
-0.00682555
0.0135147
-0.0118036
0.0200295
-0.0178706
0.0280104
-0.0248797
0.0373452
-0.0326204
0.0478026
-0.0408278
0.0590466
-0.0492075
0.0706708
-0.0574669
0.0822445
-0.0653479
0.0933633
-0.0726521
0.103695
-0.0792571
0.113011
-0.0851211
0.12121
-0.0902757
0.128307
-0.0948116
0.13442
-0.0988547
0.139734
-0.102546
0.144461
-0.106008
0.148798
-0.109375
0.152945
-0.112606
-0.11615
0.156918
0.000233942
0.000559496
0.00120412
-0.00012897
0.00316704
-0.00241877
0.00635115
-0.00620975
0.0109396
-0.011414
0.0170375
-0.0179015
0.0246362
-0.0254693
0.0335889
-0.0338324
0.0436094
-0.0426408
0.0542992
-0.0515177
0.0651989
-0.0601071
0.0758504
-0.0681185
0.0858589
-0.0753564
0.0949397
-0.0817329
0.102944
-0.0872613
0.109859
-0.0920357
0.115785
-0.0962018
0.120898
-0.0999249
0.125406
-0.103363
0.129507
-0.106647
0.133368
-0.10987
0.137097
-0.113104
0.140817
-0.116326
-0.119818
0.144486
0.000348833
0.000210664
0.00165461
-0.00143475
0.00417418
-0.00493834
0.00811689
-0.0101525
0.013608
-0.0169051
0.0206434
-0.0249369
0.0290577
-0.0338836
0.0385237
-0.0432984
0.0485908
-0.052708
0.0587541
-0.061681
0.0685346
-0.0698876
0.0775503
-0.0771342
0.0855619
-0.0833679
0.0924856
-0.0886566
0.0983757
-0.0931515
0.103384
-0.0970444
0.107712
-0.100529
0.111562
-0.103774
0.115107
-0.106908
0.118478
-0.110018
0.121763
-0.113155
0.125013
-0.116354
0.128283
-0.119597
-0.123049
0.131515
0.000481138
-0.000270474
0.00215882
-0.00311243
0.00526696
-0.00804648
0.00995905
-0.0148446
0.0162531
-0.0231991
0.0239859
-0.0326697
0.0328066
-0.0427043
0.0422225
-0.0527143
0.0516858
-0.0621713
0.0606933
-0.0706885
0.0688678
-0.078062
0.0760011
-0.0842675
0.0820556
-0.0894224
0.0871292
-0.0937302
0.0914026
-0.0974248
0.0950834
-0.100725
0.0983644
-0.10381
0.101399
-0.106809
0.104295
-0.109805
0.107124
-0.112847
0.109929
-0.11596
0.112734
-0.119158
0.115568
-0.122431
-0.125867
0.118386
0.000627107
-0.000897581
0.00269495
-0.00518028
0.00638318
-0.0117347
0.0117453
-0.0202067
0.0186439
-0.0300977
0.0267268
-0.0407527
0.0354715
-0.051449
0.0442867
-0.0615295
0.052634
-0.0705186
0.0601232
-0.0781776
0.0665567
-0.0844956
0.0719211
-0.089632
0.0763392
-0.0938405
0.0800064
-0.0973974
0.0831323
-0.100551
0.0859011
-0.103494
0.0884534
-0.106363
0.0908851
-0.109241
0.0932562
-0.112176
0.0956024
-0.115193
0.0979444
-0.118302
0.100293
-0.121506
0.102663
-0.124801
-0.128221
0.105017
0.00078183
-0.00167941
0.00323616
-0.00763461
0.0074501
-0.0159487
0.0133319
-0.0260885
0.0205556
-0.0373214
0.028587
-0.0487841
0.0367921
-0.0596541
0.0445816
-0.069319
0.051528
-0.0774651
0.057419
-0.0840685
0.062243
-0.0893197
0.0661324
-0.0935214
0.0692902
-0.0969982
0.0719279
-0.100035
0.0742264
-0.102849
0.07632
-0.105588
0.078298
-0.108341
0.0802149
-0.111157
0.082102
-0.114063
0.0839769
-0.117068
0.0858499
-0.120175
0.0877268
-0.123383
0.0896151
-0.126689
-0.130098
0.0914921
0.000938055
-0.00261747
0.00374914
-0.0104457
0.00838686
-0.0205864
0.014578
-0.0322796
0.021804
-0.0445473
0.0293961
-0.0563761
0.0366997
-0.0669577
0.0432223
-0.0758416
0.048706
-0.0829488
0.0531179
-0.0884804
0.056585
-0.0927868
0.0593133
-0.0962497
0.0615182
-0.0992031
0.0633824
-0.101899
0.0650396
-0.104506
0.0665774
-0.107126
0.0680481
-0.109811
0.0694807
-0.11259
0.0708916
-0.115474
0.0722898
-0.118466
0.0736812
-0.121567
0.0750696
-0.124772
0.076458
-0.128078
-0.131474
0.0778338
0.00108614
-0.0037036
0.00419619
-0.0135557
0.00911369
-0.0255039
0.0153677
-0.0385336
0.0222769
-0.0514566
0.0291158
-0.063215
0.0352986
-0.0731405
0.0404876
-0.0810306
0.0445997
-0.0870609
0.0477402
-0.0916209
0.0501115
-0.0951581
0.0519342
-0.0980724
0.0533976
-0.100667
0.0546407
-0.103142
0.0557535
-0.105619
0.056789
-0.108161
0.0577762
-0.110798
0.0587307
-0.113545
0.0596615
-0.116405
0.0605741
-0.119379
0.0614719
-0.122464
0.0623576
-0.125657
0.0632319
-0.128952
-0.132333
0.0640904
0.00121558
-0.00491918
0.00454127
-0.0168814
0.00956541
-0.030528
0.0156293
-0.0445975
0.0219487
-0.057776
0.0278247
-0.069091
0.0328028
-0.0781186
0.0367144
-0.0849423
0.039619
-0.0899655
0.041705
-0.0937068
0.0431969
-0.0966501
0.0442949
-0.0991704
0.0451481
-0.10152
0.0458535
-0.103848
0.046468
-0.106234
0.0470223
-0.108715
0.0475325
-0.111309
0.0480074
-0.11402
0.0484527
-0.11685
0.048872
-0.119798
0.0492678
-0.12286
0.0496414
-0.126031
0.0499918
-0.129302
-0.132659
0.0503184
0.00131925
-0.00623843
0.00475845
-0.0203206
0.00970309
-0.0354726
0.0153449
-0.0502393
0.0208717
-0.0633028
0.0256797
-0.073899
0.0294722
-0.0819111
0.0322289
-0.0876989
0.0341046
-0.0918413
0.0353222
-0.0949244
0.036094
-0.0974219
0.0365844
-0.0996607
0.0369024
-0.101838
0.0371122
-0.104058
0.0372482
-0.10637
0.037328
-0.108795
0.0373607
-0.111341
0.0373519
-0.114011
0.0373056
-0.116804
0.0372249
-0.119717
0.0371123
-0.122748
0.0369687
-0.125888
0.0367925
-0.129126
0.0365858
-0.132453
-0.000463206
0.000502764
-3.95581e-05
-0.00157561
0.00119997
-8.75623e-05
-0.00318396
0.00171596
-0.000107615
-0.00518599
0.00210572
-0.000103683
-0.00751088
0.00240589
-8.09932e-05
-0.010111
0.00264435
-4.42483e-05
-0.0129558
0.00284165
3.1421e-06
-0.0160266
0.00301158
5.92624e-05
-0.0193124
0.00316227
0.000123509
-0.0228059
0.00329732
0.00019615
-0.0265008
0.0034171
0.00027786
-0.03039
0.00351983
0.000369364
-0.0344637
0.00360241
0.000471223
-0.0387085
0.00366108
0.000583737
-0.0431072
0.0036918
0.000706917
-0.0476382
0.00369055
0.000840483
-0.0522757
0.00365354
0.000983885
-0.0569896
0.00357755
0.00113636
-0.061747
0.00346045
0.00129703
-0.0665135
0.00330141
0.00146501
-0.0712521
0.00309947
0.00163917
-0.0759246
0.00285414
0.00181837
-0.080506
0.00257773
0.00200363
0.00230238
-0.0850078
0.00219942
-0.000416088
0.000918852
-0.00142749
0.00221137
-0.00289985
0.00318833
-0.00473968
0.00394555
-0.00687903
0.00454523
-0.00926922
0.00503455
-0.0118762
0.00544858
-0.0146761
0.00581149
-0.0176519
0.00613809
-0.02079
0.00643546
-0.0240777
0.00670481
-0.027501
0.00694311
-0.0310432
0.00714457
-0.0346837
0.0073016
-0.0383975
0.00740566
-0.0421548
0.0074478
-0.0459204
0.00741917
-0.0496545
0.00731166
-0.0533131
0.007119
-0.05685
0.00683832
-0.0602204
0.00646986
-0.0633798
0.00601357
-0.0662858
0.00548371
0.0049769
-0.0689603
-0.000326228
0.00124508
-0.00114142
0.00302656
-0.00234564
0.00439254
-0.00386176
0.00546167
-0.00562769
0.00631116
-0.00759341
0.00700027
-0.00971871
0.00757387
-0.0119707
0.0080635
-0.0143215
0.00848892
-0.016746
0.00885995
-0.0192196
0.00917839
-0.0217166
0.00944007
-0.0242086
0.00963656
-0.0266636
0.00975661
-0.029045
0.00978709
-0.031311
0.00971381
-0.033414
0.0095221
-0.0352998
0.00919751
-0.0369076
0.00872677
-0.0381693
0.00810004
-0.0390149
0.00731545
-0.0393815
0.00638018
-0.0391952
0.00529742
0.00409518
-0.0383135
-0.000211318
0.0014564
-0.00076945
0.00358469
-0.00161594
0.00523903
-0.00269431
0.00654003
-0.00395079
0.00756764
-0.00533525
0.00838474
-0.00680148
0.0090401
-0.00830685
0.00956887
-0.00981161
0.00999368
-0.0112778
0.0103261
-0.012668
0.0105686
-0.0139441
0.0107162
-0.0150666
0.010759
-0.015993
0.010683
-0.0166777
0.0104718
-0.0170709
0.0101071
-0.0171181
0.00956928
-0.0167589
0.00883828
-0.0159256
0.0078935
-0.0145405
0.00671494
-0.0125112
0.00528609
-0.00973446
0.00360349
-0.00613208
0.00169504
-0.000376938
-0.00165996
-9.28261e-05
0.00154922
-0.000376411
0.00386828
-0.00083117
0.00569379
-0.00142097
0.00712983
-0.00210164
0.00824831
-0.00282496
0.00910806
-0.00354113
0.00975627
-0.00420027
0.010228
-0.00475317
0.0105466
-0.00515144
0.0107244
-0.00534722
0.0107644
-0.00529272
0.0106617
-0.00493959
0.0104059
-0.00423828
0.0099817
-0.00313743
0.00937095
-0.00158322
0.00855284
0.00048133
0.00750473
0.00311686
0.00620275
0.00638904
0.00462131
0.0103707
0.00273329
0.0151428
0.000513992
0.020812
-0.00206569
0.0274569
-0.00494992
-0.00836994
0.0354499
9.51227e-06
0.00153971
-2.53177e-05
0.00390311
-0.000112037
0.00578051
-0.000230175
0.00724797
-0.000344341
0.00836248
-0.000409917
0.00917364
-0.000376736
0.00972309
-0.000191689
0.010043
0.000199561
0.0101553
0.00085157
0.0100724
0.00181866
0.00979726
0.00315494
0.00932547
0.00491461
0.00864621
0.00715255
0.00774375
0.00992482
0.00659868
0.0132889
0.00518874
0.0173081
0.00348559
0.0220452
0.00146558
0.0275686
-0.000902103
0.0339538
-0.00365187
0.0412703
-0.0068025
0.049635
-0.0104304
0.059025
-0.0143399
-0.0193545
0.0700095
8.04869e-05
0.00145922
0.00023532
0.00374827
0.000445571
0.00557026
0.000724077
0.00696946
0.00110063
0.00798593
0.00161618
0.00865808
0.00231917
0.00902009
0.00326277
0.00909937
0.00450293
0.00891517
0.00609723
0.00847808
0.00810417
0.00779032
0.0105832
0.00684645
0.013595
0.00563444
0.0172022
0.00413651
0.021471
0.00232993
0.0264621
0.000197622
0.0322616
-0.00231395
0.0389391
-0.00521191
0.0465727
-0.00853566
0.0552403
-0.0123195
0.0649986
-0.0165609
0.075974
-0.0214057
0.087993
-0.026359
-0.0331155
0.101754
0.000114484
0.00134474
0.000382592
0.00348017
0.000791934
0.00516092
0.00135736
0.00640404
0.00210833
0.00723496
0.00308464
0.00768177
0.00433393
0.00777081
0.00590972
0.00752358
0.00787022
0.00695466
0.0102776
0.00607074
0.0131975
0.00487038
0.0166997
0.0033443
0.0208574
0.0014767
0.0257481
-0.000754204
0.0314553
-0.00337725
0.0380708
-0.00641784
0.0456667
-0.00990991
0.0543329
-0.0138781
0.0641404
-0.0183432
0.0751484
-0.0233274
0.0873711
-0.0287836
0.100869
-0.0349037
0.115388
-0.0408777
-0.0491062
0.131378
0.000113915
0.00123083
0.000422054
0.00317203
0.000934116
0.00464886
0.00167674
0.00566142
0.0026862
0.00622549
0.00400704
0.00636093
0.00569158
0.00608628
0.0077997
0.00541545
0.0103988
0.0043556
0.0135635
0.00290601
0.0173756
0.00105829
0.0219237
-0.0012038
0.0273019
-0.00390151
0.0336067
-0.00705902
0.0409312
-0.0107017
0.0493642
-0.0148509
0.0589756
-0.0195213
0.0698143
-0.0247168
0.081895
-0.0304239
0.0951888
-0.0366212
0.109615
-0.0432096
0.125039
-0.0503277
0.141264
-0.0571031
-0.0659281
0.158086
8.96161e-05
0.00114121
0.000387067
0.00287457
0.000935787
0.00410014
0.00178342
0.00481378
0.00298204
0.00502688
0.00459031
0.00475265
0.0066755
0.00400109
0.0093147
0.00277625
0.0125953
0.00107503
0.016614
-0.00111275
0.0214751
-0.00380274
0.0272846
-0.00701337
0.0341455
-0.0107623
0.0421485
-0.015062
0.0513622
-0.0199155
0.0618232
-0.0253119
0.0735254
-0.0312234
0.086412
-0.0376035
0.10037
-0.0443823
0.115229
-0.0514796
0.13077
-0.0587505
0.146653
-0.0662113
0.162747
-0.073197
-0.0813558
0.178175
5.8113e-05
0.0010831
0.000330772
0.00260192
0.000902122
0.00352879
0.00184912
0.00386679
0.00324958
0.00362642
0.0051875
0.00281473
0.00775639
0.00143221
0.0110601
-0.000527505
0.0152117
-0.00307655
0.0203273
-0.00622834
0.0265188
-0.0099942
0.0338826
-0.0143772
0.0424873
-0.019367
0.0523605
-0.0249352
0.0634776
-0.0310325
0.0757532
-0.0375876
0.0890379
-0.0445081
0.10312
-0.0516859
0.117733
-0.0589953
0.132579
-0.0663248
0.147337
-0.0735092
0.161679
-0.0805532
0.175466
-0.086984
-0.0936202
0.187731
3.75739e-05
0.000312508
0.000951887
0.00206827
0.00377344
0.00618471
0.0094265
0.0136275
0.0189121
0.0253889
0.0331349
0.0421798
0.0524926
0.0639721
0.0764446
0.0896681
0.103344
0.117136
0.130691
0.143673
0.155774
0.166822
0.176787
0.186063
-0.0866621
-0.00161224
0.00326651
-0.0872388
-0.00294427
0.00352102
-0.0867208
-0.00418143
0.00366345
-0.0849208
-0.0055045
0.00370443
-0.0817118
-0.00679341
0.00358445
-0.0770219
-0.00804371
0.00335379
-0.0707516
-0.00918079
0.00291053
-0.0628276
-0.0101394
0.00221542
-0.0532395
-0.0108562
0.00126803
-0.0420081
-0.0112605
2.9097e-05
-0.0293011
-0.0113563
-0.00135065
-0.0153341
-0.0110041
-0.00296287
-0.000352439
-0.0103314
-0.00465028
0.0152074
-0.00926867
-0.00629113
0.0309678
-0.00795262
-0.00780782
0.0465194
-0.00646204
-0.00908957
0.0614873
-0.00489671
-0.0100712
0.075576
-0.00335877
-0.0107299
0.0885938
-0.0019355
-0.0110823
0.100428
-0.000646861
-0.0111871
0.111053
0.000479893
-0.0111054
0.120509
0.00144711
-0.0109028
0.128872
0.0022777
-0.0106411
0.13625
0.00298907
-0.0103665
0.142756
0.00360733
-0.0101139
0.148504
0.00415962
-0.00990704
0.153597
0.00467176
-0.00976515
0.158141
0.00514006
-0.00968379
0.162203
0.00561273
-0.00967503
0.165842
0.00610338
-0.00974201
0.169092
0.00662511
-0.00987544
0.171969
0.00719746
-0.0100744
0.174475
0.00782822
-0.010334
0.176608
0.00851098
-0.0106442
0.178377
0.00922667
-0.0109951
0.179802
0.00996282
-0.0113881
0.180919
0.0107154
-0.0118326
0.181771
0.0115055
-0.0123572
0.1824
0.0123431
-0.0129728
0.182846
0.0132812
-0.0137272
0.183142
0.0142751
-0.0145705
0.183311
0.0154519
-0.0156214
0.183379
0.0165903
-0.0166575
0.183356
0.0181019
-0.0180796
0.183265
0.0192851
-0.0191936
0.183106
0.0213264
-0.0211674
0.1829
0.0223897
-0.0221835
0.182639
0.0252597
-0.0249992
0.182342
0.0260691
-0.0257724
0.182003
0.029983
-0.029644
0.181629
0.0306647
-0.0302904
0.181224
0.0355633
-0.0351578
0.180784
0.0364749
-0.0360356
0.180315
0.0424016
-0.041932
0.17982
0.0435185
-0.0430242
0.179294
0.0510983
-0.0505715
0.178743
0.0522141
-0.0516631
0.178167
0.0617579
-0.061182
0.177566
0.0633622
-0.0627613
0.0750239
-0.0743954
-0.0705075
-6.49937e-05
-0.0710981
-0.0023537
-0.0706728
-0.0046067
-0.069086
-0.0070913
-0.0662369
-0.00964257
-0.0620186
-0.012262
-0.0563361
-0.0148632
-0.0491211
-0.0173544
-0.0403495
-0.0196278
-0.0300599
-0.02155
-0.0183074
-0.0231088
-0.0053519
-0.0239597
0.00844538
-0.0241287
0.0228704
-0.0236937
0.037532
-0.0226143
0.0520364
-0.0209664
0.0660341
-0.0188944
0.0792506
-0.0165753
0.091502
-0.0141869
0.102696
-0.0118409
0.112786
-0.00961048
0.121795
-0.00756166
0.129792
-0.00571935
0.136871
-0.00408945
0.143137
-0.00265861
0.148694
-0.00139771
0.153625
-0.000259366
0.158052
0.000713445
0.162025
0.00163992
0.165601
0.00252701
0.168815
0.00341059
0.171678
0.00433467
0.174187
0.00531924
0.176335
0.00636301
0.178125
0.00743636
0.179575
0.00851336
0.180716
0.00957433
0.18159
0.0106311
0.182242
0.0116918
0.182709
0.0128142
0.183025
0.0139589
0.183215
0.0152618
0.183303
0.0165026
0.183301
0.018104
0.183229
0.0193565
0.18309
0.021466
0.182903
0.0225762
0.182661
0.0255016
0.182384
0.0263462
0.182063
0.0303045
0.181708
0.0310197
0.181318
0.0359527
0.180897
0.0368963
0.180441
0.0428572
0.179962
0.0439975
0.179446
0.0516144
0.178907
0.0527534
0.178336
0.062329
0.177741
0.0639574
0.0756556
-0.0393654
0.0009869
-0.0396626
-0.00205649
-0.0391271
-0.00514224
-0.0375968
-0.00862158
-0.0350101
-0.0122293
-0.0312587
-0.0160133
-0.0262474
-0.0198746
-0.0199058
-0.023696
-0.0121956
-0.0273381
-0.0031125
-0.0306331
0.00696949
-0.0331908
0.0181218
-0.035112
0.0301337
-0.0361406
0.0426651
-0.036225
0.0553765
-0.0353256
0.0679303
-0.0335203
0.0800236
-0.0309877
0.0914194
-0.027971
0.101965
-0.0247321
0.11159
-0.0214667
0.120268
-0.0182876
0.12802
-0.0153142
0.134909
-0.0126087
0.141016
-0.0101965
0.146432
-0.00807394
0.151249
-0.00621475
0.155573
-0.00458338
0.15944
-0.00315353
0.162936
-0.0018562
0.166095
-0.000632362
0.168971
0.000534815
0.171566
0.00174002
0.173873
0.00301165
0.175876
0.00436083
0.17757
0.00574161
0.178964
0.00712016
0.180078
0.00845993
0.180947
0.00976185
0.181609
0.0110304
0.182096
0.0123263
0.182441
0.0136144
0.182664
0.0150386
0.182788
0.0163785
0.182824
0.0180679
0.182793
0.0193881
0.182693
0.0215652
0.182548
0.0227212
0.182348
0.0257021
0.182114
0.0265804
0.181834
0.0305842
0.181523
0.0313306
0.181175
0.0363004
0.180798
0.0372733
0.180384
0.0432713
0.179949
0.0444329
0.179472
0.0520908
0.178975
0.0532508
0.17844
0.0628642
0.177882
0.0645149
0.0762573
-0.00131509
0.000642023
-0.00116538
-0.00220619
-0.000304639
-0.00600298
0.00117263
-0.0100989
0.00344277
-0.0144994
0.00659706
-0.0191676
0.010741
-0.0240185
0.0159423
-0.0288973
0.0222263
-0.0336221
0.0295615
-0.0379684
0.0379623
-0.0415916
0.0472205
-0.0443702
0.057134
-0.0460541
0.0674257
-0.0465167
0.0778151
-0.045715
0.0880273
-0.0437326
0.0978214
-0.0407818
0.107012
-0.0371619
0.115481
-0.0332005
0.123185
-0.029171
0.130123
-0.0252257
0.136316
-0.0215075
0.141819
-0.0181111
0.146698
-0.0150754
0.151028
-0.0124046
0.154889
-0.0100751
0.158347
-0.00804136
0.161458
-0.00626496
0.164284
-0.0046819
0.166881
-0.00322991
0.169259
-0.00184237
0.171419
-0.000420016
0.173396
0.00103435
0.175146
0.00261111
0.176664
0.00422359
0.177943
0.00584062
0.178994
0.00740886
0.179838
0.00891788
0.180502
0.0103664
0.181012
0.0118162
0.181393
0.0132338
0.181662
0.01477
0.181837
0.0162026
0.181929
0.017976
0.181957
0.0193608
0.181918
0.0216037
0.181836
0.0228033
0.181699
0.0258389
0.181531
0.0267485
0.181317
0.0307983
0.181075
0.0315726
0.180795
0.0365808
0.180489
0.0375794
0.180143
0.0436166
0.179779
0.0447968
0.179372
0.0524984
0.178946
0.0536765
0.178478
0.0633324
0.17799
0.0650028
0.0767956
0.0359382
0.000153744
0.0367559
-0.00302391
0.0378288
-0.00707584
0.0393092
-0.0115793
0.0412893
-0.0164795
0.0438918
-0.0217701
0.0472128
-0.0273395
0.0513205
-0.0330051
0.0562443
-0.0385458
0.0619698
-0.0436939
0.0684888
-0.0481105
0.075641
-0.0515224
0.0832533
-0.0536664
0.0911181
-0.0543815
0.0990245
-0.0536214
0.106773
-0.0514808
0.114194
-0.0482029
0.12116
-0.0441285
0.127589
-0.0396288
0.133448
-0.0350303
0.138755
-0.030533
0.143518
-0.0262696
0.147768
-0.0223617
0.151552
-0.0188589
0.154919
-0.0157716
0.157922
-0.0130784
0.160614
-0.0107331
0.163039
-0.00869053
0.165246
-0.00688877
0.167272
-0.00525548
0.169149
-0.00371962
0.170914
-0.00218558
0.172518
-0.000568889
0.173994
0.00113466
0.175314
0.00290399
0.176462
0.00469259
0.177438
0.00643227
0.178252
0.0081038
0.17892
0.0096987
0.179458
0.0112778
0.179885
0.0128072
0.180212
0.014443
0.180455
0.0159594
0.18062
0.0178108
0.180726
0.0192557
0.180768
0.0215613
0.18077
0.0228012
0.180719
0.02589
0.18064
0.0268277
0.180515
0.0309231
0.180366
0.0317213
0.180179
0.0367686
0.179969
0.0377887
0.17972
0.043866
0.179455
0.0450613
0.179146
0.0528081
0.178822
0.0540006
0.178451
0.0637026
0.178065
0.0653891
0.0772373
0.0709083
-0.000744988
0.0720054
-0.00412104
0.0732512
-0.00832159
0.0746343
-0.0129624
0.0762395
-0.0180848
0.0781889
-0.0237195
0.0805783
-0.0297289
0.0834725
-0.0358993
0.0869092
-0.0419825
0.0908882
-0.0476729
0.0953812
-0.0526035
0.100282
-0.0564237
0.105463
-0.0588468
0.11079
-0.0597087
0.116142
-0.0589738
0.121412
-0.0567503
0.126512
-0.0533027
0.131377
-0.0489936
0.135955
-0.0442074
0.140215
-0.0392902
0.144165
-0.034483
0.147798
-0.0299027
0.151106
-0.0256693
0.154098
-0.0218512
0.156793
-0.0184659
0.159213
-0.015499
0.161389
-0.0129093
0.163349
-0.01065
0.165123
-0.00866339
0.166749
-0.00688151
0.16826
-0.00522994
0.169679
-0.00360512
0.171036
-0.00192551
0.172266
-9.51952e-05
0.173425
0.00174493
0.174463
0.00365462
0.17538
0.00551506
0.176177
0.00730729
0.176859
0.00901594
0.177438
0.0106995
0.177923
0.0123218
0.178322
0.0140435
0.178649
0.0156333
0.178904
0.0175554
0.179106
0.0190541
0.179248
0.0214184
0.179355
0.0226945
0.179411
0.0258339
0.179443
0.0267956
0.179431
0.0309353
0.1794
0.0317527
0.17933
0.0368388
0.179243
0.0378756
0.179116
0.0439928
0.178978
0.045199
0.178795
0.0529912
0.178602
0.0541939
0.17836
0.0639439
0.178107
0.0656424
0.0775494
0.102677
-0.00166841
0.103765
-0.00520869
0.10489
-0.00944669
0.105989
-0.0140615
0.107131
-0.0192267
0.108386
-0.0249746
0.109773
-0.0311159
0.11132
-0.037446
0.11309
-0.0437525
0.115133
-0.0497163
0.117442
-0.0549118
0.119965
-0.0589475
0.12264
-0.0615217
0.125417
-0.0624855
0.12827
-0.061827
0.131185
-0.0596655
0.134152
-0.0562694
0.137157
-0.051998
0.140168
-0.0472186
0.143141
-0.0422637
0.146045
-0.0373871
0.148864
-0.0327209
0.151539
-0.0283445
0.154038
-0.0243499
0.156342
-0.0207706
0.158447
-0.017604
0.160357
-0.014819
0.162081
-0.0123741
0.163638
-0.01022
0.165054
-0.00829782
0.166361
-0.00653701
0.167591
-0.0048351
0.168759
-0.00309382
0.169889
-0.00122507
0.170929
0.00070501
0.171906
0.00267802
0.172797
0.00462357
0.173601
0.00650318
0.174319
0.00829832
0.174954
0.0100646
0.175514
0.0117622
0.176001
0.0135561
0.176426
0.0152081
0.176789
0.0171927
0.177105
0.0187382
0.177367
0.0211562
0.177599
0.022463
0.177783
0.0256499
0.177948
0.0266304
0.178071
0.0308122
0.17818
0.0316435
0.178252
0.0367669
0.178312
0.0378151
0.178334
0.0439708
0.17835
0.045183
0.178322
0.0530197
0.178288
0.0542276
0.178206
0.064026
0.178116
0.065732
0.0776991
0.131839
-0.00212872
0.132457
-0.00582664
0.132993
-0.00998344
0.133376
-0.0144437
0.133685
-0.0195364
0.133941
-0.0252298
0.134107
-0.0312826
0.134184
-0.0375223
0.134185
-0.0437539
0.134139
-0.0496705
0.134133
-0.0549051
0.134224
-0.0590391
0.134436
-0.061733
0.134807
-0.0628567
0.135399
-0.0624192
0.13627
-0.0605367
0.137459
-0.0574585
0.138975
-0.0535134
0.140785
-0.0490285
0.14282
-0.0442993
0.145003
-0.0395696
0.147278
-0.0349963
0.14957
-0.0306361
0.151797
-0.0265772
0.153911
-0.0228851
0.155884
-0.0195763
0.157699
-0.0166342
0.159352
-0.014027
0.160847
-0.0117155
0.162203
-0.00965351
0.163445
-0.00777927
0.164608
-0.00599763
0.165714
-0.00419985
0.166799
-0.00230976
0.167801
-0.000297644
0.168774
0.00170549
0.169682
0.00371527
0.170526
0.00565973
0.171303
0.00752105
0.172015
0.00935268
0.172666
0.0111106
0.173258
0.0129641
0.173799
0.0146673
0.174286
0.0167059
0.174734
0.0182901
0.175134
0.0207564
0.175509
0.0220874
0.175841
0.0253178
0.176161
0.0263113
0.176441
0.0305321
0.176713
0.0313712
0.176951
0.0365293
0.177183
0.0375828
0.177379
0.0437743
0.177575
0.0449872
0.177729
0.0528661
0.177883
0.0540736
0.17799
0.0639193
0.178094
0.0656277
0.0776543
0.157691
-0.00173373
0.157355
-0.00549007
0.156793
-0.00942156
0.15601
-0.0136606
0.155097
-0.0186235
0.154
-0.0241335
0.152661
-0.0299429
0.15108
-0.0359412
0.14927
-0.041944
0.147254
-0.0476551
0.145091
-0.0527417
0.142937
-0.0568849
0.140959
-0.0597556
0.139293
-0.0611902
0.138063
-0.0611889
0.137364
-0.0598384
0.137249
-0.0573433
0.137716
-0.0539802
0.13871
-0.0500231
0.140135
-0.0457239
0.141871
-0.041306
0.143815
-0.03694
0.145887
-0.0327082
0.147984
-0.0286743
0.150027
-0.0249274
0.151967
-0.0215164
0.153778
-0.0184454
0.155446
-0.0156952
0.156968
-0.0132369
0.158351
-0.0110372
0.159618
-0.00904573
0.160798
-0.00717756
0.161923
-0.00532512
0.163009
-0.00339615
0.164072
-0.00136082
0.165073
0.00070457
0.166041
0.00274795
0.166956
0.00474472
0.167819
0.0066578
0.16863
0.00854184
0.169393
0.0103478
0.170107
0.0122501
0.17078
0.013994
0.171407
0.0160783
0.172005
0.0176927
0.17256
0.0202011
0.173099
0.0215491
0.173598
0.0248183
0.174091
0.025818
0.17455
0.0300737
0.175007
0.030914
0.175433
0.0361029
0.175861
0.0371554
0.176256
0.0433787
0.176657
0.0445864
0.17702
0.0525034
0.177388
0.0537048
0.177713
0.0635946
0.178041
0.0653001
0.0773835
0.177034
-0.000592984
0.175624
-0.00408026
0.173801
-0.00759834
0.171752
-0.0116116
0.169529
-0.0164008
0.16702
-0.0216245
0.164185
-0.0271076
0.161038
-0.0327942
0.157599
-0.0385045
0.153915
-0.0439712
0.150084
-0.0489109
0.146247
-0.0530482
0.142656
-0.0561644
0.139537
-0.0580715
0.137063
-0.058715
0.13534
-0.058115
0.134405
-0.0564084
0.134232
-0.0538073
0.134738
-0.0505291
0.135802
-0.0467875
0.137281
-0.0427857
0.13904
-0.0386984
0.140978
-0.0346465
0.143016
-0.0307124
0.145055
-0.0269661
0.147025
-0.0234867
0.148885
-0.0203055
0.150616
-0.0174257
0.152209
-0.0148298
0.153668
-0.012496
0.155008
-0.0103864
0.156258
-0.00842763
0.157451
-0.00651716
0.158607
-0.00455257
0.159747
-0.00250074
0.160823
-0.000371264
0.161886
0.00168504
0.162904
0.00372632
0.163879
0.00568257
0.164811
0.0076098
0.165705
0.00945397
0.166559
0.0113961
0.167382
0.013171
0.168167
0.0152931
0.168931
0.0169287
0.169659
0.0194731
0.170378
0.02083
0.171064
0.0241329
0.17175
0.0251313
0.172407
0.0294169
0.17307
0.0302513
0.173707
0.0354658
0.174352
0.0365105
0.174971
0.0427603
0.175601
0.0439562
0.176198
0.0519061
0.176808
0.0530951
0.177378
0.0630239
0.177957
0.0647212
0.0768559
0.186222
0.000915132
0.184199
-0.00205641
0.181572
-0.00497167
0.178703
-0.00874234
0.175546
-0.0132442
0.172015
-0.0180936
0.168122
-0.0232144
0.163887
-0.028559
0.159344
-0.0339621
0.154573
-0.0392
0.149702
-0.0440398
0.144898
-0.0482439
0.140386
-0.051653
0.13646
-0.0541454
0.133307
-0.0555615
0.131024
-0.055832
0.129637
-0.0550216
0.129107
-0.053277
0.129335
-0.0507573
0.13019
-0.0476423
0.131524
-0.0441195
0.133193
-0.0403681
0.135079
-0.0365327
0.137088
-0.0327211
0.139146
-0.029024
0.14118
-0.0255205
0.143129
-0.0222545
0.144963
-0.0192596
0.146667
-0.0165342
0.148241
-0.0140695
0.149695
-0.0118404
0.151054
-0.00978696
0.152351
-0.00781405
0.153615
-0.00581637
0.154849
-0.00373465
0.156065
-0.00158802
0.157234
0.000516002
0.158384
0.00257624
0.159496
0.00457131
0.160571
0.00653473
0.161616
0.00840918
0.162628
0.0103834
0.163619
0.0121804
0.164579
0.0143332
0.165526
0.0159811
0.166444
0.0185555
0.167361
0.0199126
0.168251
0.0232437
0.169149
0.0242325
0.170024
0.0285421
0.170912
0.0293632
0.171781
0.0345968
0.172665
0.0356265
0.173529
0.0418961
0.174412
0.0430733
0.175269
0.0510492
0.176145
0.0522194
0.176988
0.0621802
0.177846
0.0638639
0.0760418
0.184451
0.00252668
0.182454
-5.92293e-05
0.179919
-0.00243718
0.177041
-0.00586428
0.173683
-0.0098857
0.169898
-0.0143084
0.165734
-0.0190503
0.16121
-0.0240353
0.15639
-0.029142
0.15139
-0.0342
0.146364
-0.0390138
0.141492
-0.0433717
0.13693
-0.0470916
0.132824
-0.0500388
0.129341
-0.0520794
0.126659
-0.0531499
0.124877
-0.0532391
0.123968
-0.0523686
0.123849
-0.0506381
0.124401
-0.0481942
0.125488
-0.0452064
0.126971
-0.0418514
0.12873
-0.0382917
0.130668
-0.0346585
0.132693
-0.0310489
0.134728
-0.0275559
0.136723
-0.0242492
0.138638
-0.0211748
0.14045
-0.0183466
0.142148
-0.0157675
0.143735
-0.0134272
0.145229
-0.011281
0.14666
-0.00924503
0.148057
-0.00721358
0.149434
-0.00511152
0.150797
-0.00295063
0.15211
-0.000797795
0.153409
0.00127806
0.154678
0.00330154
0.155918
0.00529544
0.157134
0.00719325
0.158324
0.00919289
0.159501
0.0110038
0.160653
0.0131809
0.161802
0.0148322
0.162926
0.0174311
0.16406
0.0187791
0.16517
0.022133
0.1663
0.0231035
0.167411
0.0274306
0.168544
0.0282306
0.169665
0.0334756
0.170808
0.0344832
0.17194
0.0407644
0.173098
0.0419158
0.174238
0.0499091
0.175403
0.0510541
0.176546
0.0610376
0.177707
0.0627028
0.0749127
0.206635
0.00353042
-0.207639
0.205752
0.000823658
0.205284
-0.00196888
0.204588
-0.00516825
0.203609
-0.00890663
0.202338
-0.0130378
0.200729
-0.0174416
0.198726
-0.0220318
0.196292
-0.0267088
0.193433
-0.0313405
0.190186
-0.0357671
0.186629
-0.0398147
0.182859
-0.0433209
0.178977
-0.0461576
0.175106
-0.0482081
0.171358
-0.0494021
0.167841
-0.0497223
0.164655
-0.049182
0.161868
-0.0478512
0.15952
-0.0458466
0.157622
-0.0433078
0.156154
-0.0403834
0.155079
-0.0372165
0.154346
-0.0339258
0.153905
-0.0306078
0.153702
-0.0273533
0.153686
-0.0242329
0.153804
-0.0212926
0.15401
-0.0185525
0.154265
-0.0160233
0.154543
-0.0137046
0.154826
-0.011564
0.155109
-0.00952845
0.155396
-0.00750039
0.155693
-0.00540869
0.156
-0.00325756
0.156331
-0.00112889
0.156645
0.000964021
0.156967
0.00298019
0.157286
0.00497599
0.157599
0.00687982
0.157904
0.00888833
0.158196
0.0107119
0.158476
0.0129011
0.15874
0.0145681
0.158991
0.0171797
0.159228
0.0185424
0.159451
0.0219101
0.159666
0.0228884
0.159863
0.027233
0.160063
0.0280305
0.160244
0.0332948
0.160433
0.0342942
0.160607
0.0405901
0.160792
0.0417313
0.160964
0.0497372
0.161154
0.050864
0.16133
0.0608612
0.16153
0.0625035
0.074723
0.216855
0.00423771
-0.217562
0.216289
0.00138916
0.215827
-0.00150629
0.215217
-0.00455873
0.214283
-0.00797209
0.212996
-0.0117505
0.211342
-0.0157879
0.209294
-0.0199843
0.206836
-0.0242506
0.203977
-0.0284813
0.200757
-0.0325467
0.197244
-0.0363023
0.193528
-0.0396043
0.189702
-0.0423324
0.185878
-0.0443841
0.182165
-0.0456886
0.178661
-0.0462182
0.175456
-0.0459768
0.172616
-0.0450118
0.170182
-0.0434124
0.168166
-0.0412921
0.166558
-0.0387754
0.165328
-0.0359865
0.164437
-0.0330347
0.163843
-0.0300132
0.163496
-0.0270071
0.16335
-0.0240861
0.163354
-0.0212971
0.163466
-0.0186641
0.163646
-0.0162033
0.163864