/*--------------------------------*- C++ -*----------------------------------*\
| =========                 |                                                 |
| \\      /  F ield         | OpenFOAM: The Open Source CFD Toolbox           |
|  \\    /   O peration     | Version:  2512                                  |
|   \\  /    A nd           | Website:  www.openfoam.com                      |
|    \\/     M anipulation  |                                                 |
\*---------------------------------------------------------------------------*/
FoamFile
{
    version     2.0;
    format      ascii;
    arch        "LSB;label=32;scalar=64";
    class       volVectorField;
    location    "13";
    object      U;
}
// * * * * * * * * * * * * * * * * * * * * * * * * * * * * * * * * * * * * * //

dimensions      [0 1 -1 0 0 0 0];

internalField   nonuniform List<vector> 
13248
(
(-0.0132405 0.0120725 7.26211e-20)
(-0.0257227 0.0263997 0)
(-0.0243411 0.034817 -1.37272e-19)
(-0.00959501 0.0391654 1.29311e-19)
(0.0181382 0.040916 1.20876e-19)
(0.0585679 0.0412319 0)
(0.111398 0.0410125 0)
(0.176204 0.0409486 2.91763e-19)
(0.252272 0.0415467 -9.15061e-22)
(0.338443 0.0431306 -2.55828e-19)
(0.433002 0.0458353 2.39202e-19)
(0.533656 0.0496053 -1.49703e-19)
(0.637609 0.054207 0)
(0.741724 0.0592565 -2.63358e-19)
(0.842746 0.0642652 4.9399e-19)
(0.93755 0.0686951 -1.17437e-19)
(1.02338 0.0720254 -2.15098e-19)
(1.09806 0.0737827 2.01925e-19)
(1.16016 0.0737024 0)
(1.20901 0.0712982 0)
(1.24492 0.0674323 0)
(1.26839 0.0591616 0)
(1.28167 0.0544979 6.40999e-20)
(1.28516 0.0324105 2.36194e-19)
(-0.0132578 0.0107103 -2.19212e-19)
(-0.0216989 0.0214116 1.49435e-19)
(-0.0126964 0.026587 -1.36688e-21)
(0.0127921 0.0284785 -1.97372e-19)
(0.0541473 0.0288074 -1.20747e-19)
(0.110812 0.0288918 -1.14136e-19)
(0.182021 0.0296845 -2.09725e-19)
(0.266568 0.031832 1.98343e-19)
(0.362595 0.0356966 0)
(0.467488 0.041356 5.62473e-22)
(0.577915 0.0486095 1.09682e-21)
(0.690016 0.0570071 1.49532e-19)
(0.799717 0.0659087 0)
(0.903088 0.0745675 0)
(0.996703 0.082226 1.81125e-19)
(1.07792 0.0882108 -3.40355e-19)
(1.1451 0.0920104 2.07173e-19)
(1.19763 0.0933249 -1.94502e-19)
(1.23596 0.0920808 -8.68056e-20)
(1.26143 0.0884106 -1.61207e-19)
(1.2759 0.0826716 -6.84691e-20)
(1.28188 0.0749774 -1.29573e-19)
(1.28106 0.0674983 1.87355e-19)
(1.27699 0.0553687 5.42774e-20)
(-0.0123301 0.00901991 0)
(-0.0142278 0.0160186 0)
(0.00555877 0.0185468 6.98024e-20)
(0.0453749 0.0190106 6.4272e-20)
(0.104064 0.0192658 -1.58345e-21)
(0.180374 0.0207075 -1.17877e-19)
(0.272479 0.0242342 0)
(0.377687 0.0302883 -9.86745e-20)
(0.492326 0.0388813 9.29789e-20)
(0.61186 0.0496193 6.85862e-22)
(0.731247 0.0617677 -1.59944e-19)
(0.84544 0.0743629 -1.47915e-19)
(0.949922 0.086356 1.65696e-21)
(1.04117 0.0967647 -1.25365e-19)
(1.11693 0.104804 2.98622e-19)
(1.17637 0.109975 0)
(1.21999 0.112102 -1.9917e-19)
(1.24937 0.1113 9.65023e-20)
(1.26687 0.107959 8.67334e-20)
(1.27514 0.102503 0)
(1.27688 0.0957885 7.25217e-20)
(1.27426 0.0875479 -2.51384e-19)
(1.26893 0.0807124 2.35987e-19)
(1.26323 0.0692195 1.51234e-19)
(-0.00998445 0.00688953 -7.74177e-20)
(-0.00220885 0.0101143 -8.00732e-20)
(0.03185 0.0107643 7.2425e-20)
(0.0895749 0.0111082 0)
(0.168833 0.0129468 0)
(0.267048 0.0175795 -2.55789e-21)
(0.380576 0.0256246 0)
(0.504537 0.0370457 -3.02021e-19)
(0.633024 0.0512226 2.8104e-19)
(0.759659 0.0670741 -3.47633e-19)
(0.878348 0.0832496 8.00259e-20)
(0.984027 0.0983603 0)
(1.0732 0.111201 1.35346e-19)
(1.14422 0.120917 -2.51591e-19)
(1.19721 0.127085 5.98591e-20)
(1.23378 0.129707 1.57132e-19)
(1.25656 0.129134 -5.22789e-21)
(1.26866 0.125942 -1.758e-19)
(1.27313 0.120786 0)
(1.27258 0.114307 0)
(1.26902 0.107086 -6.48691e-20)
(1.26374 0.0992808 5.87059e-20)
(1.25754 0.0924364 2.14141e-19)
(1.2513 0.0824202 -2.01022e-19)
(-0.00577228 0.00436392 -8.16142e-20)
(0.0153624 0.00394066 -8.13344e-20)
(0.0673339 0.00375049 2.28763e-19)
(0.146218 0.00558237 -1.38813e-19)
(0.248296 0.010907 1.3066e-19)
(0.368876 0.0206308 2.37523e-19)
(0.501748 0.0347404 -1.67978e-19)
(0.639433 0.0523708 -2.05068e-19)
(0.773995 0.0720256 3.54633e-21)
(0.898113 0.0918873 2.63044e-19)
(1.00609 0.110169 0)
(1.09447 0.125426 7.33092e-20)
(1.16224 0.136753 0)
(1.21051 0.143841 -1.21609e-19)
(1.24194 0.146906 1.71232e-19)
(1.26003 0.146534 1.71319e-21)
(1.26841 0.143487 -4.57524e-20)
(1.27027 0.138536 8.66381e-20)
(1.26813 0.132352 7.51642e-20)
(1.26373 0.125441 -6.80185e-20)
(1.25812 0.118198 6.48553e-20)
(1.25189 0.110697 -5.86927e-20)
(1.24532 0.103881 0)
(1.23902 0.0948068 -4.50987e-20)
(0.00070822 0.00163605 8.16025e-20)
(0.0393078 -0.001898 8.57178e-20)
(0.112747 -0.00150446 -7.66632e-20)
(0.21532 0.00372651 1.42902e-19)
(0.340958 0.0145418 -1.34502e-19)
(0.482055 0.03102 1.21823e-19)
(0.629391 0.0520835 -5.84924e-20)
(0.773166 0.0757461 1.53931e-19)
(0.904501 0.0996064 -9.69324e-20)
(1.01679 0.121377 1.72966e-19)
(1.10649 0.139311 -4.00209e-19)
(1.17311 0.152438 1.47495e-19)
(1.21868 0.160575 -1.30597e-19)
(1.24683 0.164165 1.2267e-19)
(1.2618 0.164029 1.07469e-19)
(1.26763 0.161112 9.54882e-20)
(1.26765 0.156288 -2.65861e-19)
(1.2643 0.150261 1.65484e-19)
(1.25917 0.143531 -7.51686e-20)
(1.25318 0.136437 1.98129e-19)
(1.24684 0.129189 -6.38859e-20)
(1.24037 0.121885 -1.5828e-19)
(1.23388 0.115005 1.46544e-19)
(1.22761 0.106638 4.50848e-20)
(0.00979543 -0.000980108 0)
(0.0701674 -0.00650221 7.65697e-22)
(0.16821 -0.0036582 1.60517e-19)
(0.295833 0.00709122 -1.50501e-19)
(0.443808 0.0252375 -1.35889e-19)
(0.601097 0.0495057 2.52716e-19)
(0.755719 0.0773894 -1.17436e-19)
(0.896743 0.105748 1.57115e-19)
(1.01618 0.131611 -3.08091e-21)
(1.10998 0.152797 -8.94295e-20)
(1.178 0.168194 1.9671e-19)
(1.22304 0.17772 -2.91051e-19)
(1.24962 0.182047 0)
(1.2627 0.182246 -5.79243e-20)
(1.26678 0.179456 -1.56043e-19)
(1.26538 0.174678 4.89387e-20)
(1.26096 0.168671 1.67759e-21)
(1.25508 0.161957 -1.10805e-19)
(1.2486 0.154871 5.81081e-21)
(1.24195 0.147616 1.28698e-19)
(1.23534 0.140319 -5.82762e-20)
(1.22882 0.133068 -2.2633e-20)
(1.22237 0.126042 6.87526e-20)
(1.2161 0.118192 0)
(0.0217314 -0.00307734 0)
(0.108081 -0.00878039 4.35306e-20)
(0.233046 -0.00122244 -2.09522e-19)
(0.385486 0.0171595 7.62563e-20)
(0.552423 0.0439678 -7.17685e-20)
(0.719497 0.0761014 -6.57542e-20)
(0.87315 0.109541 -1.16493e-19)
(1.00326 0.140365 5.79629e-20)
(1.10467 0.165698 5.05811e-20)
(1.17711 0.184125 0)
(1.22402 0.195589 1.1694e-19)
(1.25075 0.200983 -1.74925e-19)
(1.26307 0.201655 1.30363e-19)
(1.26604 0.198988 5.79552e-20)
(1.26352 0.19415 -4.81066e-20)
(1.25814 0.188004 -4.08194e-20)
(1.25148 0.181124 -3.84444e-20)
(1.24441 0.173863 1.13751e-19)
(1.23734 0.16643 0)
(1.23044 0.158949 5.8392e-20)
(1.22376 0.151501 4.99813e-20)
(1.21727 0.144148 -1.23148e-19)
(1.21093 0.136915 -8.5721e-20)
(1.20472 0.129407 7.91049e-20)
(0.0366125 -0.0041827 -4.70757e-20)
(0.152675 -0.00756676 -1.8424e-21)
(0.305667 0.00720942 4.26739e-20)
(0.480868 0.0350364 1.19467e-19)
(0.661477 0.0710153 3.48849e-20)
(0.830833 0.110013 -6.73514e-20)
(0.975766 0.146851 6.15034e-20)
(1.08904 0.177565 -5.4084e-20)
(1.16964 0.200126 9.73737e-20)
(1.22126 0.214347 4.17668e-20)
(1.2501 0.221311 -1.1853e-19)
(1.26285 0.222685 3.51148e-20)
(1.26536 0.220168 6.04437e-20)
(1.26201 0.215174 -2.966e-20)
(1.25573 0.208727 0)
(1.24824 0.20149 4.50413e-20)
(1.24047 0.193859 7.69168e-20)
(1.23284 0.186061 1.36726e-20)
(1.22552 0.178224 -6.45765e-20)
(1.21854 0.170424 2.72919e-20)
(1.21187 0.162717 0)
(1.20545 0.155135 -2.17819e-20)
(1.19921 0.147649 -2.08731e-20)
(1.19308 0.140304 0)
(0.0543332 -0.00379022 0)
(0.202976 -0.001746 2.46886e-20)
(0.383604 0.0227567 4.57133e-20)
(0.577751 0.0612407 -1.21984e-19)
(0.765531 0.105915 3.94414e-20)
(0.929841 0.149858 0)
(1.06012 0.187514 5.96277e-20)
(1.15353 0.215741 -8.33176e-20)
(1.2135 0.23392 -4.86836e-20)
(1.24694 0.243226 2.20444e-20)
(1.26165 0.245689 -3.56784e-20)
(1.2645 0.243426 8.6428e-20)
(1.26066 0.2382 4.36803e-20)
(1.25357 0.231279 -3.01668e-20)
(1.24522 0.223471 -2.63116e-21)
(1.23666 0.215249 -8.42142e-20)
(1.22837 0.206871 3.84634e-20)
(1.2205 0.198475 -1.00566e-21)
(1.21311 0.190142 0)
(1.20615 0.181922 -2.73206e-20)
(1.19956 0.173852 0)
(1.19326 0.165932 6.28635e-20)
(1.18716 0.158162 -7.51727e-20)
(1.18115 0.150805 3.43967e-20)
(0.0745409 -0.00140063 -1.29264e-20)
(0.257405 0.00962899 -6.2334e-20)
(0.46368 0.0461013 7.09916e-20)
(0.671605 0.0956328 4.17655e-20)
(0.859802 0.147586 -1.9906e-20)
(1.01302 0.194 3.36453e-20)
(1.12511 0.229943 -1.63004e-20)
(1.19825 0.253832 2.72745e-20)
(1.23971 0.266695 0)
(1.25849 0.270925 6.23142e-20)
(1.26282 0.269173 -2.44055e-21)
(1.25903 0.263702 -5.0545e-20)
(1.2513 0.256143 2.17687e-20)
(1.2421 0.247535 -2.47349e-20)
(1.23268 0.238473 -9.5504e-21)
(1.22362 0.229271 1.09054e-20)
(1.21512 0.22009 -8.50976e-21)
(1.20721 0.211017 -4.6572e-20)
(1.19986 0.2021 2.85628e-20)
(1.19302 0.193374 5.9062e-21)
(1.18658 0.184854 5.2386e-21)
(1.18045 0.176525 4.64985e-21)
(1.17454 0.168454 0)
(1.16868 0.160902 0)
(0.0966915 0.00344468 1.29354e-20)
(0.313978 0.0272483 -1.29377e-20)
(0.542462 0.0774016 -2.3677e-20)
(0.758278 0.137458 0)
(0.940763 0.194564 -9.90432e-21)
(1.07867 0.240838 -8.95833e-21)
(1.1713 0.272934 -1.53663e-20)
(1.22554 0.291253 0)
(1.2515 0.298418 0)
(1.2591 0.297729 0)
(1.25622 0.292135 0)
(1.24821 0.283815 0)
(1.23822 0.274165 -1.37011e-20)
(1.22792 0.26398 6.24787e-21)
(1.21804 0.253672 1.09334e-20)
(1.20882 0.24344 5.12549e-21)
(1.20033 0.23338 1.27695e-20)
(1.19254 0.223541 0)
(1.18537 0.213955 -3.11134e-21)
(1.17875 0.204642 -2.99453e-21)
(1.17256 0.195596 -5.24697e-21)
(1.16671 0.18681 -4.6573e-21)
(1.16107 0.178422 0)
(1.15548 0.170513 3.40654e-21)
(-0.0027969 0.00468141 7.63194e-21)
(-0.0130022 0.0105693 -7.97067e-21)
(-0.0309517 0.0140834 -1.51569e-20)
(-0.0527404 0.0160038 0)
(-0.0763324 0.0168511 -2.04594e-20)
(-0.100801 0.0169893 6.42439e-21)
(-0.12555 0.016671 -1.22877e-20)
(-0.150195 0.0160579 0)
(-0.174508 0.0152424 0)
(-0.198355 0.0142688 0)
(-0.221641 0.0131532 0)
(-0.244285 0.0118969 0)
(-0.266207 0.0104958 3.56496e-23)
(-0.287315 0.0089462 -8.66177e-21)
(-0.307505 0.00724679 1.67264e-20)
(-0.326664 0.00540043 2.395e-20)
(-0.34467 0.00341449 7.69336e-21)
(-0.361398 0.00130124 0)
(-0.376733 -0.000921714 6.8764e-21)
(-0.390559 -0.00323266 -1.95082e-20)
(-0.402738 -0.00561003 -1.23567e-20)
(-0.413161 -0.00802923 -1.16667e-20)
(-0.421957 -0.0104375 0)
(-0.429527 -0.0127705 0)
(-0.00356286 0.0122446 -2.30356e-20)
(-0.0141791 0.0279317 3.98585e-20)
(-0.0314699 0.0377701 -1.51092e-20)
(-0.0520581 0.0437528 -2.89082e-20)
(-0.0741484 0.0471416 4.08452e-20)
(-0.0969024 0.0487995 -2.60408e-20)
(-0.11976 0.0493316 3.67787e-20)
(-0.142341 0.0491378 2.35108e-20)
(-0.164408 0.0484595 0)
(-0.185804 0.0474244 -2.14153e-20)
(-0.206416 0.0460854 -5.8974e-22)
(-0.226143 0.0444505 1.89081e-20)
(-0.244886 0.0425057 2.76791e-20)
(-0.262538 0.0402281 3.54289e-20)
(-0.278983 0.037596 -1.61729e-20)
(-0.294094 0.0345933 -4.76811e-20)
(-0.307734 0.031214 1.55376e-20)
(-0.319767 0.0274655 -5.8082e-20)
(-0.330063 0.0233735 0)
(-0.338509 0.0189835 1.30332e-20)
(-0.344969 0.0143526 1.23378e-20)
(-0.349254 0.00954956 1.16486e-20)
(-0.351422 0.00472946 0)
(-0.352412 0.000156078 0)
(-0.0048741 0.018512 0)
(-0.0161367 0.0427128 8.10502e-20)
(-0.0320933 0.0583699 -3.05675e-20)
(-0.0503104 0.0682873 2.90803e-20)
(-0.0694282 0.0742572 -8.26454e-20)
(-0.0887716 0.0775294 0)
(-0.107851 0.0790007 -4.98961e-20)
(-0.126306 0.0792826 2.34467e-20)
(-0.143881 0.0787608 -4.51229e-20)
(-0.160392 0.077653 2.16888e-20)
(-0.175693 0.0760604 1.23167e-19)
(-0.189654 0.0740102 -5.78665e-20)
(-0.202152 0.0714877 -9.33899e-20)
(-0.213064 0.0684586 -3.68103e-20)
(-0.222262 0.0648841 -1.11076e-21)
(-0.229613 0.0607298 1.29301e-19)
(-0.234976 0.0559739 -6.11912e-20)
(-0.238205 0.0506144 -3.46634e-22)
(-0.239158 0.0446792 0)
(-0.237714 0.0382395 -5.34175e-20)
(-0.233753 0.0314194 0)
(-0.226959 0.0243977 -4.73893e-20)
(-0.216848 0.0174591 1.79021e-19)
(-0.204765 0.0111334 3.34355e-22)
(-0.0064652 0.0228736 0)
(-0.0185342 0.0535949 5.05057e-22)
(-0.0327576 0.0741851 3.12825e-20)
(-0.0478343 0.0877178 -2.97534e-20)
(-0.0629449 0.0962243 2.73381e-20)
(-0.0776329 0.101179 1.5874e-19)
(-0.0915204 0.103675 -4.98983e-20)
(-0.104293 0.104491 -4.78294e-20)
(-0.115703 0.10414 9.05656e-20)
(-0.125549 0.102936 -1.29831e-19)
(-0.133664 0.101042 4.07252e-20)
(-0.139901 0.0985233 3.93568e-20)
(-0.144129 0.0953822 0)
(-0.146226 0.0915879 3.56038e-20)
(-0.146074 0.0870944 0)
(-0.143562 0.0818535 6.53786e-20)
(-0.138578 0.0758223 -1.25412e-19)
(-0.131009 0.0689716 2.7783e-20)
(-0.120735 0.0612934 1.12149e-19)
(-0.107647 0.0528178 5.33437e-20)
(-0.0916876 0.0436431 0)
(-0.0726846 0.0340036 -1.44104e-19)
(-0.0495217 0.0244735 4.50078e-20)
(-0.0206443 0.0162014 0)
(-0.00803938 0.0250925 0)
(-0.0209793 0.059917 -9.9733e-20)
(-0.0333984 0.0841934 -3.17996e-20)
(-0.0450618 0.100743 -5.96781e-20)
(-0.0556877 0.111546 5.61943e-20)
(-0.0650623 0.118125 -5.30605e-20)
(-0.0729563 0.121662 1.01603e-19)
(-0.0791431 0.123035 4.87608e-20)
(-0.0834177 0.122858 -1.36212e-19)
(-0.0855993 0.121532 8.74272e-20)
(-0.0855294 0.119293 -1.24087e-19)
(-0.0830705 0.116259 2.76859e-19)
(-0.0781047 0.112469 -1.49341e-19)
(-0.070531 0.107914 7.1794e-20)
(-0.0602631 0.102561 2.06777e-19)
(-0.0472262 0.0963629 -6.31962e-20)
(-0.0313529 0.0892693 -6.03972e-20)
(-0.0125825 0.0812363 -5.87271e-20)
(0.0091489 0.072223 0)
(0.0339084 0.0621962 -1.08207e-19)
(0.0617155 0.0511517 -1.03344e-19)
(0.0926233 0.0392038 1.44185e-19)
(0.127232 0.0270475 1.81787e-19)
(0.170345 0.0161601 -1.71042e-19)
(-0.00935516 0.0253133 0)
(-0.0231359 0.0617417 -1.35729e-19)
(-0.0339709 0.0881734 -5.95652e-22)
(-0.0424199 0.106816 1.20342e-19)
(-0.0486395 0.119381 0)
(-0.0526468 0.127295 0)
(-0.0543822 0.131724 0)
(-0.0537438 0.133576 -4.866e-20)
(-0.0506135 0.133522 -9.31717e-22)
(-0.0448708 0.132031 8.65996e-20)
(-0.0364024 0.129404 -1.25464e-19)
(-0.0251078 0.125816 -8.57882e-22)
(-0.0109016 0.121356 0)
(0.00628648 0.116051 -7.1745e-20)
(0.0265123 0.109891 6.93679e-20)
(0.0498192 0.102846 -1.94312e-19)
(0.0762589 0.0948649 2.49394e-19)
(0.105867 0.0859136 6.15748e-20)
(0.138675 0.0759499 2.8642e-21)
(0.174734 0.0649316 -2.12849e-19)
(0.214003 0.0528157 -1.00767e-19)
(0.25694 0.0395911 3.35495e-19)
(0.301054 0.0254036 -2.24827e-19)
(0.361699 0.0123424 0)
(-0.0102909 0.0239905 6.70836e-20)
(-0.0248101 0.0597739 6.80751e-20)
(-0.0344643 0.0866912 -6.49049e-20)
(-0.0402244 0.106211 -1.21778e-19)
(-0.0425315 0.119683 1.14661e-19)
(-0.0415911 0.128352 -1.08499e-19)
(-0.0375105 0.13329 1.5327e-19)
(-0.030331 0.135376 -4.87071e-20)
(-0.0200482 0.135293 9.13144e-20)
(-0.00662905 0.133544 0)
(0.00997438 0.130479 8.33917e-20)
(0.0298164 0.126323 -1.55487e-19)
(0.0529532 0.12121 1.50388e-19)
(0.0794424 0.115206 -1.41244e-19)
(0.109341 0.108331 0)
(0.142684 0.100573 1.28906e-19)
(0.17955 0.091923 2.46667e-19)
(0.220009 0.0823503 -2.32359e-19)
(0.264094 0.0718106 -1.10185e-19)
(0.311898 0.0602839 -1.07568e-19)
(0.362872 0.0476619 2.99759e-19)
(0.419322 0.0342675 9.41059e-20)
(0.471717 0.0191272 -8.79126e-20)
(0.552191 0.00533679 8.18765e-20)
(-0.0108785 0.0217422 -6.70927e-20)
(-0.0259972 0.0551379 2.08332e-19)
(-0.0348865 0.0809328 -6.57196e-20)
(-0.0385643 0.099964 1.22715e-19)
(-0.0375932 0.113249 -1.15541e-19)
(-0.0323065 0.121838 5.52102e-23)
(-0.022949 0.12668 5.11974e-20)
(-0.00969011 0.128586 1.93765e-19)
(0.00736988 0.128216 1.07795e-21)
(0.028187 0.126077 -8.62099e-20)
(0.0527621 0.122545 0)
(0.0811315 0.11788 -7.82351e-20)
(0.113357 0.112253 1.4687e-19)
(0.14952 0.105767 1.41297e-19)
(0.189719 0.0984786 -6.64604e-20)
(0.234058 0.0904175 -1.06926e-21)
(0.282609 0.0815838 -6.09429e-20)
(0.335376 0.0719462 1.13711e-19)
(0.392267 0.0614717 1.10157e-19)
(0.453445 0.0502569 -1.04487e-19)
(0.517081 0.0379063 9.65915e-20)
(0.588369 0.0256925 -9.08801e-20)
(0.648365 0.0107937 0)
(0.747456 -0.00129524 -8.17915e-20)
(-0.0112655 0.0191895 6.83094e-20)
(-0.0268247 0.0490902 -6.97548e-20)
(-0.0351866 0.0724129 6.61515e-20)
(-0.0371655 0.0896439 0)
(-0.033317 0.101599 0)
(-0.0240359 0.109181 1.09336e-19)
(-0.00964711 0.113232 -1.02584e-19)
(0.00960712 0.114488 9.66286e-20)
(0.0335769 0.113568 -4.54734e-19)
(0.0621982 0.110968 -3.83465e-22)
(0.0954798 0.107072 8.07933e-20)
(0.133487 0.102163 0)
(0.176323 0.0964411 -1.46484e-19)
(0.224095 0.0900411 2.76647e-19)
(0.276874 0.0830427 -1.96825e-19)
(0.334666 0.0754848 -3.13985e-19)
(0.397363 0.0673685 -2.71932e-21)
(0.464692 0.0587049 2.21275e-19)
(0.536048 0.0494383 0)
(0.611282 0.0398297 0)
(0.687049 0.029036 -9.65846e-20)
(0.770082 0.0194594 9.08727e-20)
(0.835445 0.00595137 -3.34737e-19)
(0.942574 -0.00200063 3.1371e-19)
(-0.0116438 0.0168173 0)
(-0.0274218 0.0427213 0)
(-0.0351117 0.0626264 -1.98827e-19)
(-0.0352372 0.0770218 6.31669e-20)
(-0.0282736 0.0866967 5.40522e-22)
(-0.0146112 0.0924974 1.1002e-19)
(0.00542304 0.0952018 0)
(0.0315985 0.0954946 -9.62802e-20)
(0.0637946 0.0939602 9.07815e-20)
(0.101987 0.0910805 -1.70343e-19)
(0.146219 0.0872388 -4.15571e-22)
(0.196552 0.0827264 1.52583e-19)
(0.253009 0.0777515 1.16401e-21)
(0.315517 0.0724503 1.38184e-19)
(0.383833 0.0668969 -1.93056e-19)
(0.457487 0.0611165 0)
(0.535742 0.0550918 2.33263e-19)
(0.617585 0.0487896 -3.30207e-19)
(0.701596 0.042096 1.02397e-19)
(0.786696 0.0352148 0)
(0.869157 0.0272171 9.04368e-20)
(0.953567 0.0206297 3.45391e-19)
(1.01848 0.00932478 -3.24144e-19)
(1.11346 0.00554702 -3.71029e-19)
(-0.0121451 0.0148771 2.08631e-19)
(-0.0277421 0.0367345 -2.86409e-19)
(-0.0340507 0.0527442 7.78787e-22)
(-0.031377 0.0637146 6.35098e-20)
(-0.0200996 0.0705762 -1.1804e-19)
(-0.00055014 0.0742156 -1.09716e-19)
(0.0270126 0.0754089 2.05255e-19)
(0.0624295 0.0748252 -6.8711e-22)
(0.10563 0.0730323 -1.80886e-19)
(0.15658 0.0704971 3.39858e-19)
(0.215207 0.0675851 8.9358e-22)
(0.281308 0.0645633 -1.5042e-19)
(0.35446 0.0616029 0)
(0.433946 0.058784 0)
(0.518701 0.0561014 -6.41246e-20)
(0.607304 0.0534744 -1.19141e-19)
(0.69801 0.0507659 -2.27817e-19)
(0.788814 0.0477773 2.13841e-19)
(0.877551 0.0443419 -1.02442e-19)
(0.962146 0.0402174 1.89121e-19)
(1.03994 0.0351632 -9.12435e-20)
(1.11165 0.0299026 1.63814e-19)
(1.1666 0.020993 -3.84031e-19)
(1.23165 0.0180071 7.31216e-20)
(-0.0127458 0.0133614 7.02738e-20)
(-0.0274153 0.0313544 0)
(-0.0309465 0.0434312 1.35429e-19)
(-0.0236181 0.0509091 -1.27577e-19)
(-0.00575146 0.0549723 1.18151e-19)
(0.0223918 0.0566251 0)
(0.0606192 0.0566931 0)
(0.108783 0.0558567 -9.63275e-20)
(0.166701 0.0546684 5.85776e-22)
(0.234046 0.0535558 8.49337e-20)
(0.310218 0.0528193 -7.9647e-20)
(0.394244 0.0526279 1.49803e-19)
(0.484706 0.0530184 0)
(0.579746 0.0539011 2.66632e-19)
(0.677112 0.0550744 -5.01499e-19)
(0.774277 0.0562462 3.5501e-19)
(0.868592 0.0570769 2.21848e-19)
(0.957447 0.0571617 -2.08249e-19)
(1.03851 0.0562701 0)
(1.10971 0.0537342 0)
(1.16986 0.0502454 0)
(1.21817 0.0437575 0)
(1.25357 0.0371568 7.4682e-20)
(1.28464 0.028891 -2.65843e-19)
(-0.436756 -0.0155555 -7.19012e-21)
(-0.44375 -0.0199873 7.20823e-21)
(-0.443693 -0.023519 -2.1422e-22)
(-0.438181 -0.0268384 0)
(-0.425541 -0.0294549 -5.65345e-21)
(-0.405617 -0.0314615 1.05398e-20)
(-0.377788 -0.0324663 -5.25426e-22)
(-0.341652 -0.0323068 -4.25549e-21)
(-0.296996 -0.0309061 0)
(-0.243848 -0.0282014 0)
(-0.182626 -0.0242253 -1.16617e-22)
(-0.114375 -0.0190634 -7.5266e-23)
(-0.0401699 -0.0133623 -3.90533e-22)
(0.0383026 -0.00717028 3.42348e-22)
(0.118907 -0.00106956 0)
(0.199672 0.00455368 0)
(0.278609 0.00940968 -8.59948e-22)
(0.353955 0.0133172 -1.0094e-22)
(0.424418 0.0162245 8.5136e-22)
(0.489195 0.0182049 5.82356e-23)
(0.547885 0.0194634 0)
(0.600493 0.0202018 0)
(0.647328 0.0205432 0)
(0.688863 0.0206238 0)
(0.725675 0.0205585 0)
(0.758372 0.0204357 0)
(0.7875 0.0203545 -1.66611e-22)
(0.813595 0.020279 2.71508e-22)
(0.837143 0.0202597 0)
(0.858457 0.0203404 0)
(0.877764 0.0205087 1.34342e-22)
(0.8952 0.0207918 -1.30565e-22)
(0.91079 0.0211878 -5.43524e-23)
(0.924512 0.0216604 0)
(0.936371 0.0221654 0)
(0.946429 0.022688 -6.9569e-23)
(0.954843 0.0232318 6.76249e-23)
(0.961814 0.0238443 0)
(0.967586 0.0245375 -4.71791e-23)
(0.972357 0.0253977 6.76828e-23)
(0.976344 0.0263196 -1.92429e-23)
(0.979657 0.0275145 0)
(0.982476 0.0285685 2.87193e-23)
(0.984831 0.0301755 -2.79265e-23)
(0.986887 0.03114 0)
(0.988621 0.0333837 0)
(0.990167 0.0339744 8.89266e-24)
(0.991505 0.0371941 -2.51575e-23)
(0.992699 0.0372168 0)
(0.993769 0.0415657 0)
(0.99473 0.0412171 5.41763e-24)
(0.995585 0.0464341 -5.29909e-28)
(0.996396 0.0461829 5.13935e-25)
(0.997115 0.0521515 -3.48851e-24)
(0.997746 0.051915 0)
(0.998485 0.0592144 0)
(0.998891 0.0586871 0)
(0.999703 0.0674316 0)
(0.99994 0.0671067 0)
(1.00088 0.0771762 0)
(-0.353264 -0.00533686 -7.16492e-22)
(-0.360671 -0.0170318 -2.88423e-20)
(-0.359757 -0.0274858 1.05228e-21)
(-0.354089 -0.0382764 2.60545e-20)
(-0.342031 -0.0485376 3.79785e-22)
(-0.32336 -0.058229 0)
(-0.297463 -0.0669245 -1.75736e-20)
(-0.263976 -0.0742488 3.23824e-20)
(-0.222692 -0.0798381 -1.47988e-20)
(-0.173737 -0.0833593 9.12528e-21)
(-0.117144 -0.085095 -8.75229e-21)
(-0.0541085 -0.0836312 3.67229e-21)
(0.0144692 -0.0798327 -3.61416e-21)
(0.0871816 -0.073963 -2.12962e-23)
(0.161705 -0.0664325 1.76258e-21)
(0.236467 -0.0577437 -1.71278e-21)
(0.309693 -0.0485269 3.40287e-21)
(0.379788 -0.0393973 -3.19794e-21)
(0.445549 -0.0308589 3.85188e-21)
(0.506241 -0.0232666 -7.43796e-21)
(0.561524 -0.0167018 3.58939e-21)
(0.611299 -0.0111134 2.04369e-22)
(0.655769 -0.00646133 2.90969e-21)
(0.695367 -0.00264015 -5.4356e-21)
(0.730606 0.000482205 2.53446e-21)
(0.762043 0.00303873 -1.33684e-22)
(0.790157 0.00512836 -1.86875e-21)
(0.815434 0.00703657 1.13576e-22)
(0.838347 0.00874512 2.94765e-21)
(0.859181 0.0102989 -2.59026e-21)
(0.878143 0.0117475 1.19506e-21)
(0.895367 0.0131737 -1.2426e-22)
(0.91085 0.0146293 5.44628e-23)
(0.924538 0.0161206 -9.56174e-23)
(0.93641 0.0175783 0)
(0.946509 0.0189563 0)
(0.954969 0.0202335 2.45421e-22)
(0.961984 0.0214494 -1.81949e-22)
(0.967794 0.0226245 -1.39855e-22)
(0.9726 0.0238643 -4.59087e-24)
(0.976617 0.0250819 1.81696e-22)
(0.979962 0.026511 -3.41328e-23)
(0.982809 0.0277447 0)
(0.985193 0.0294996 0)
(0.987277 0.0305704 0)
(0.989036 0.0329119 0)
(0.990614 0.0335632 -3.7366e-23)
(0.991974 0.0368507 1.65245e-23)
(0.993205 0.0369106 0)
(0.994298 0.0413036 0)
(0.995293 0.0409856 0)
(0.996187 0.0462271 8.96089e-24)
(0.997019 0.0460007 -1.04512e-24)
(0.997796 0.0519891 7.46811e-24)
(0.998444 0.0517631 0)
(0.999248 0.0590816 0)
(0.999673 0.058562 -3.53717e-24)
(1.00057 0.0673144 -8.33624e-24)
(1.00081 0.0669959 0)
(1.00186 0.0770736 0)
(-0.195673 0.00471486 3.84378e-22)
(-0.200537 -0.0138306 -6.05512e-20)
(-0.196957 -0.0303368 5.72537e-20)
(-0.189063 -0.0478173 -5.35283e-20)
(-0.175918 -0.0647302 -3.8229e-22)
(-0.157223 -0.0812858 0)
(-0.132435 -0.0969299 -3.78437e-20)
(-0.101243 -0.111118 3.70404e-20)
(-0.0635274 -0.123252 2.155e-22)
(-0.0199227 -0.132706 3.62963e-22)
(0.0305161 -0.138646 2.70751e-22)
(0.0870644 -0.140846 1.62546e-22)
(0.147265 -0.139033 -3.94706e-21)
(0.210414 -0.13374 3.85705e-21)
(0.274821 -0.125089 0)
(0.338955 -0.113741 -1.11947e-22)
(0.401358 -0.100651 6.38893e-21)
(0.460797 -0.0868344 -6.31728e-21)
(0.516354 -0.0732081 0)
(0.567515 -0.0604887 0)
(0.61411 -0.0491251 7.03574e-21)
(0.656127 -0.0392304 -1.33535e-20)
(0.693753 -0.0307601 1.18911e-20)
(0.727357 -0.0236173 -5.8072e-22)
(0.757378 -0.0176564 -9.49321e-21)
(0.784254 -0.012699 8.71112e-21)
(0.808485 -0.0085879 -7.35587e-21)
(0.830456 -0.00503126 5.3646e-22)
(0.850428 -0.00195632 3.09189e-21)
(0.868691 0.000707549 0)
(0.885459 0.00325964 0)
(0.900854 0.00583707 -7.01276e-22)
(0.914874 0.00830719 9.23521e-22)
(0.92743 0.0107422 1.67865e-25)
(0.938454 0.0130884 -6.41653e-22)
(0.947944 0.0152796 6.23578e-22)
(0.955986 0.0172624 0)
(0.962724 0.0190641 -5.68408e-23)
(0.968358 0.0207093 -4.31472e-22)
(0.973061 0.0223209 7.95061e-22)
(0.977021 0.0238292 -3.26723e-22)
(0.980343 0.0254897 -3.43891e-23)
(0.983186 0.0269014 2.92731e-22)
(0.985579 0.0288038 -2.25547e-22)
(0.98768 0.0299808 -4.7683e-23)
(0.989458 0.0324201 -4.22905e-23)
(0.991065 0.033132 3.7461e-23)
(0.992443 0.0364878 0)
(0.993711 0.0365844 0)
(0.994827 0.0410226 1.01793e-22)
(0.995855 0.0407338 -4.83013e-23)
(0.996788 0.0460021 4.02333e-23)
(0.99764 0.0457984 -5.23699e-23)
(0.998476 0.051809 -5.80034e-23)
(0.99914 0.0515925 1.36124e-23)
(1.00001 0.0589323 -2.06895e-23)
(1.00045 0.0584196 1.61944e-23)
(1.00143 0.0671834 -6.90797e-24)
(1.00168 0.0668705 0)
(1.00283 0.0769603 0)
(-0.00393437 0.00639404 -1.28091e-19)
(-0.004667 -0.0132171 2.81036e-21)
(0.00360942 -0.0347052 1.1881e-19)
(0.0145471 -0.0570704 -8.62013e-22)
(0.0299149 -0.0792471 0)
(0.0492537 -0.101283 0)
(0.0733904 -0.122596 -8.02538e-20)
(0.102576 -0.142448 8.98247e-21)
(0.136888 -0.160046 9.42181e-20)
(0.175985 -0.174483 -5.70882e-21)
(0.219606 -0.183986 -2.13454e-20)
(0.2674 -0.189265 -9.8623e-21)
(0.317926 -0.189403 9.999e-21)
(0.370016 -0.184381 0)
(0.422307 -0.174566 1.77155e-21)
(0.473564 -0.160801 -1.53357e-21)
(0.522733 -0.144308 0)
(0.569018 -0.126455 0)
(0.611881 -0.108499 -6.8464e-21)
(0.651065 -0.0914253 -1.72788e-22)
(0.686634 -0.0759827 6.41679e-21)
(0.718749 -0.0624184 6.31774e-21)
(0.747578 -0.0507173 -6.29491e-21)
(0.773408 -0.0407798 5.2394e-21)
(0.796582 -0.0324412 -5.32678e-22)
(0.817448 -0.0254854 -4.41552e-21)
(0.836356 -0.0196556 -4.67765e-22)
(0.853599 -0.0148364 -3.81146e-24)
(0.869391 -0.0107609 0)
(0.88402 -0.00720722 -2.46008e-21)
(0.897685 -0.00390564 2.53105e-21)
(0.910323 -0.000727913 -1.25183e-22)
(0.921954 0.00261018 0)
(0.932597 0.0058723 9.65949e-23)
(0.942143 0.00895843 -1.29083e-21)
(0.950534 0.0118428 2.23848e-21)
(0.957788 0.0144423 2.40687e-23)
(0.963986 0.0167665 -9.25123e-23)
(0.969261 0.0188388 -7.48212e-22)
(0.973737 0.0207941 -8.8639e-23)
(0.977559 0.022575 5.97613e-22)
(0.980805 0.0244563 -5.11748e-22)
(0.98361 0.0260401 1.00155e-25)
(0.985992 0.0280871 -2.06994e-22)
(0.988098 0.0293688 2.49085e-22)
(0.989886 0.0319059 2.90366e-22)
(0.991519 0.0326781 -8.26935e-23)
(0.992913 0.0361028 -1.27932e-22)
(0.994217 0.0362356 2.37549e-22)
(0.995354 0.0407206 -1.62321e-22)
(0.996415 0.0404596 4.15312e-23)
(0.997387 0.0457571 -4.91136e-23)
(0.998259 0.0455747 -3.93522e-23)
(0.999154 0.0516098 8.8269e-23)
(0.999835 0.0514021 -2.02675e-24)
(1.00077 0.0587655 2.0794e-23)
(1.00123 0.058259 0)
(1.00229 0.0670378 6.98161e-24)
(1.00255 0.0667299 -9.67771e-24)
(1.0038 0.076836 0)
(0.191191 0.00233505 1.30794e-19)
(0.199604 -0.0171335 -2.54377e-19)
(0.210321 -0.0413485 1.22114e-19)
(0.22485 -0.0663813 1.13218e-19)
(0.242319 -0.0921269 -2.15649e-19)
(0.262594 -0.118139 7.57307e-21)
(0.286241 -0.143708 9.30388e-20)
(0.3135 -0.167866 7.25653e-20)
(0.344307 -0.189577 -7.10227e-20)
(0.378303 -0.207731 0)
(0.415068 -0.220982 -3.59883e-20)
(0.453997 -0.228582 5.97878e-20)
(0.493952 -0.229907 -2.40544e-20)
(0.533898 -0.224885 0)
(0.572886 -0.213949 0)
(0.61014 -0.198089 -7.56978e-23)
(0.645112 -0.178768 9.0802e-21)
(0.677513 -0.15764 -8.82106e-21)
(0.707238 -0.136242 0)
(0.734277 -0.115731 -1.29164e-20)
(0.758839 -0.0969904 2.44728e-20)
(0.781216 -0.0804948 -2.35558e-20)
(0.801545 -0.0662585 2.2435e-20)
(0.819961 -0.054151 -6.3375e-22)
(0.836659 -0.0439799 -1.8715e-20)
(0.851841 -0.0354996 8.87718e-21)
(0.865714 -0.0284387 2.33975e-22)
(0.878469 -0.0225597 2.93166e-21)
(0.890254 -0.0175872 -2.72177e-22)
(0.901238 -0.0132581 -2.69706e-21)
(0.911549 -0.00942187 -1.42519e-22)
(0.921342 -0.00585739 1.90379e-21)
(0.930544 -0.00219496 -3.52518e-21)
(0.939009 0.00168382 1.81997e-21)
(0.946802 0.00534957 0)
(0.953865 0.00877536 1.29078e-21)
(0.960139 0.0118682 -1.23977e-21)
(0.965641 0.0146243 7.6562e-22)
(0.970441 0.0170598 -9.57389e-22)
(0.974603 0.0193153 8.94504e-23)
(0.978224 0.0213404 0)
(0.98135 0.0234247 6.97017e-23)
(0.984087 0.0251696 -1.84859e-22)
(0.986437 0.0273552 0)
(0.988534 0.0287383 -4.66745e-22)
(0.990325 0.0313716 1.88095e-22)
(0.991979 0.0322033 -7.59384e-23)
(0.993385 0.035697 -6.74151e-23)
(0.994722 0.0358654 0)
(0.99588 0.0403985 0)
(0.996972 0.0401639 1.34521e-22)
(0.997984 0.0454929 -2.0319e-22)
(0.998876 0.0453301 1.09982e-22)
(0.999829 0.0513919 -3.42189e-23)
(1.00053 0.0511924 -5.48518e-23)
(1.00153 0.0585814 -2.08138e-23)
(1.00201 0.0580806 3.26778e-23)
(1.00315 0.0668777 0)
(1.00342 0.0665745 1.55595e-23)
(1.00478 0.0767006 3.65288e-24)
(0.38148 -0.00177396 1.32473e-19)
(0.395084 -0.0238948 -1.31697e-19)
(0.409226 -0.0492302 9.71854e-22)
(0.426468 -0.075654 -9.18637e-22)
(0.445687 -0.103184 8.62018e-22)
(0.466657 -0.131613 -7.9249e-22)
(0.489765 -0.160034 1.45015e-21)
(0.51505 -0.187271 0)
(0.542254 -0.212032 -1.11109e-21)
(0.570887 -0.232922 9.28117e-22)
(0.600309 -0.248468 7.4381e-22)
(0.629744 -0.257592 -5.04291e-22)
(0.658268 -0.259603 0)
(0.68515 -0.25442 0)
(0.709962 -0.242564 1.26674e-22)
(0.732546 -0.225162 0)
(0.752987 -0.203859 4.78511e-23)
(0.771557 -0.18049 0)
(0.7886 -0.156755 1.02212e-20)
(0.804345 -0.133941 -2.09749e-20)
(0.819 -0.1129 2.17194e-20)
(0.832857 -0.0942817 -1.08873e-20)
(0.846012 -0.0781943 -1.02143e-20)
(0.858394 -0.0644851 9.91915e-21)
(0.86997 -0.0529346 8.88691e-21)
(0.880751 -0.0432829 -8.60998e-21)
(0.890783 -0.0352355 0)
(0.900118 -0.0285209 -1.98598e-22)
(0.9088 -0.0228718 0)
(0.916925 -0.0180341 0)
(0.924598 -0.0137472 -4.03692e-21)
(0.931906 -0.00971772 4.1912e-21)
(0.938961 -0.00588925 -2.18444e-22)
(0.94559 -0.00191356 -1.94498e-22)
(0.951728 0.00226498 1.70433e-22)
(0.957481 0.00610629 1.14984e-21)
(0.962759 0.00957138 -1.11646e-21)
(0.967532 0.0126653 1.00614e-21)
(0.971813 0.0153955 -8.63648e-22)
(0.975618 0.0179034 -1.80691e-22)
(0.979 0.0201396 6.092e-22)
(0.981974 0.0224054 1.71622e-23)
(0.984618 0.0242975 -3.98279e-22)
(0.986918 0.0266137 0)
(0.988994 0.028093 1.95145e-22)
(0.990778 0.0308202 -2.44676e-22)
(0.992446 0.0317097 3.21516e-22)
(0.993861 0.0352721 6.78443e-23)
(0.995229 0.0354751 0)
(0.996406 0.0400574 -4.81031e-23)
(0.997528 0.0398477 9.82673e-23)
(0.998579 0.0452104 -7.69967e-26)