/*--------------------------------*- C++ -*----------------------------------*\
| =========                 |                                                 |
| \\      /  F ield         | OpenFOAM: The Open Source CFD Toolbox           |
|  \\    /   O peration     | Version:  2512                                  |
|   \\  /    A nd           | Website:  www.openfoam.com                      |
|    \\/     M anipulation  |                                                 |
\*---------------------------------------------------------------------------*/
FoamFile
{
    version     2.0;
    format      ascii;
    arch        "LSB;label=32;scalar=64";
    class       volScalarField;
    location    "121";
    object      p;
}
// * * * * * * * * * * * * * * * * * * * * * * * * * * * * * * * * * * * * * //

dimensions      [0 2 -2 0 0 0 0];

internalField   nonuniform List<scalar> 
13248
(
-0.358928
-0.357349
-0.354491
-0.350671
-0.346254
-0.341605
-0.337074
-0.33298
-0.329569
-0.326994
-0.325293
-0.324386
-0.324077
-0.324077
-0.324038
-0.323592
-0.322391
-0.320152
-0.316661
-0.311828
-0.305464
-0.297734
-0.287448
-0.27548
-0.367349
-0.364986
-0.361541
-0.357289
-0.352548
-0.347656
-0.342906
-0.338532
-0.334682
-0.331408
-0.328655
-0.326272
-0.324033
-0.321671
-0.318915
-0.315525
-0.311317
-0.306173
-0.300037
-0.292885
-0.284681
-0.275426
-0.264826
-0.253731
-0.378034
-0.374616
-0.370391
-0.365582
-0.360421
-0.355185
-0.350078
-0.345217
-0.340632
-0.336271
-0.332018
-0.32771
-0.323171
-0.318239
-0.312786
-0.306734
-0.300049
-0.292734
-0.284802
-0.276272
-0.267111
-0.257379
-0.246867
-0.236208
-0.390868
-0.38617
-0.381006
-0.375518
-0.369803
-0.364046
-0.358328
-0.352627
-0.346861
-0.340918
-0.334689
-0.328087
-0.321059
-0.313593
-0.30571
-0.297455
-0.288876
-0.280011
-0.270885
-0.261502
-0.251854
-0.241978
-0.231763
-0.221807
-0.405736
-0.399597
-0.393378
-0.387095
-0.380659
-0.374117
-0.367405
-0.360377
-0.35289
-0.344859
-0.336273
-0.327188
-0.317707
-0.307952
-0.298037
-0.288057
-0.27807
-0.268105
-0.258165
-0.248239
-0.238311
-0.228385
-0.2184
-0.208728
-0.422507
-0.414829
-0.407484
-0.400295
-0.392909
-0.385203
-0.376977
-0.368024
-0.358246
-0.347688
-0.336509
-0.324932
-0.313182
-0.301455
-0.289888
-0.278563
-0.267512
-0.256732
-0.246202
-0.23589
-0.225768
-0.21582
-0.206009
-0.19657
-0.44097
-0.431715
-0.423204
-0.414963
-0.406301
-0.396913
-0.386535
-0.375023
-0.362449
-0.349071
-0.335242
-0.321308
-0.307555
-0.294175
-0.281275
-0.268893
-0.257019
-0.245618
-0.234644
-0.224051
-0.213798
-0.203849
-0.194183
-0.18489
-0.46074
-0.449937
-0.440222
-0.430712
-0.420321
-0.408614
-0.395402
-0.380762
-0.365041
-0.348739
-0.332357
-0.316295
-0.300817
-0.286065
-0.272083
-0.258855
-0.24633
-0.234447
-0.223138
-0.212344
-0.202011
-0.192095
-0.182576
-0.17343
-0.481205
-0.468943
-0.457966
-0.44687
-0.43418
-0.419468
-0.402808
-0.384639
-0.365632
-0.346487
-0.327769
-0.309849
-0.292917
-0.277034
-0.262175
-0.248271
-0.235239
-0.22299
-0.211443
-0.200524
-0.190169
-0.180328
-0.170965
-0.161978
-0.501491
-0.487915
-0.475568
-0.462464
-0.446845
-0.4285
-0.407958
-0.386101
-0.363892
-0.342136
-0.321371
-0.301877
-0.283742
-0.266938
-0.251376
-0.236946
-0.223532
-0.211028
-0.199335
-0.188367
-0.178049
-0.168326
-0.159134
-0.150336
-0.52049
-0.505765
-0.491872
-0.476259
-0.457101
-0.434649
-0.410024
-0.384552
-0.359388
-0.335338
-0.31284
-0.292048
-0.272942
-0.255413
-0.239317
-0.224506
-0.210842
-0.198197
-0.18646
-0.175531
-0.165328
-0.15578
-0.14679
-0.138234
-0.536959
-0.521284
-0.505635
-0.48699
-0.463744
-0.43685
-0.408103
-0.379203
-0.351392
-0.325383
-0.301466
-0.279652
-0.259816
-0.241773
-0.225332
-0.210312
-0.196551
-0.183905
-0.17225
-0.161477
-0.151495
-0.14222
-0.133528
-0.125352
-0.341842
-0.343383
-0.34426
-0.344801
-0.345353
-0.346078
-0.347076
-0.348411
-0.350122
-0.352239
-0.354798
-0.357843
-0.361426
-0.3656
-0.370418
-0.375918
-0.382115
-0.388987
-0.396466
-0.404428
-0.412667
-0.420883
-0.428698
-0.435831
-0.343654
-0.344328
-0.344662
-0.344839
-0.345099
-0.345609
-0.346486
-0.347815
-0.34966
-0.35208
-0.355138
-0.35891
-0.36348
-0.368934
-0.37535
-0.382787
-0.391265
-0.400749
-0.41113
-0.422248
-0.433778
-0.445326
-0.456315
-0.466251
-0.345533
-0.34536
-0.345143
-0.344922
-0.34484
-0.34506
-0.345719
-0.346922
-0.348756
-0.351302
-0.354644
-0.358875
-0.364098
-0.370415
-0.377915
-0.386658
-0.396658
-0.407861
-0.420128
-0.433218
-0.446774
-0.460307
-0.473135
-0.484471
-0.347049
-0.346143
-0.345403
-0.344761
-0.344271
-0.344096
-0.344397
-0.345303
-0.346922
-0.349354
-0.352699
-0.35706
-0.362544
-0.369254
-0.377274
-0.386655
-0.397392
-0.409408
-0.422533
-0.436486
-0.450865
-0.465112
-0.478669
-0.490085
-0.347948
-0.346501
-0.34531
-0.344234
-0.343267
-0.342583
-0.342365
-0.342774
-0.343947
-0.346003
-0.349054
-0.35321
-0.358573
-0.365239
-0.373277
-0.382718
-0.393535
-0.405623
-0.418783
-0.432698
-0.446947
-0.460781
-0.474016
-0.484029
-0.348161
-0.346413
-0.344875
-0.343369
-0.341873
-0.340573
-0.339688
-0.339415
-0.339924
-0.341362
-0.343859
-0.347528
-0.352469
-0.358762
-0.366459
-0.375567
-0.386031
-0.397721
-0.410396
-0.423682
-0.437198
-0.449955
-0.462284
-0.470251
-0.347814
-0.346013
-0.344237
-0.342325
-0.340273
-0.338293
-0.33664
-0.335554
-0.335248
-0.335904
-0.337673
-0.340678
-0.345019
-0.350762
-0.357938
-0.366526
-0.376425
-0.387466
-0.399379
-0.411692
-0.424051
-0.435089
-0.445758
-0.450928
-0.347217
-0.345566
-0.34365
-0.341364
-0.338763
-0.336093
-0.333649
-0.331715
-0.330552
-0.330379
-0.331374
-0.333676
-0.337381
-0.342543
-0.349154
-0.357158
-0.36641
-0.376638
-0.387487
-0.398373
-0.408952
-0.417631
-0.425629
-0.427374
-0.346836
-0.345452
-0.343453
-0.340828
-0.337719
-0.334412
-0.331241
-0.328535
-0.326596
-0.32568
-0.325989
-0.32767
-0.330808
-0.335426
-0.341474
-0.348801
-0.357164
-0.366198
-0.375458
-0.384284
-0.392286
-0.397988
-0.402413
-0.400606
-0.34726
-0.346128
-0.34405
-0.341117
-0.337569
-0.333735
-0.329981
-0.326671
-0.324136
-0.322655
-0.322438
-0.323618
-0.326247
-0.33028
-0.335575
-0.34188
-0.348841
-0.356009
-0.362876
-0.368851
-0.373558
-0.37599
-0.37678
-0.372002
-0.349092
-0.348088
-0.345867
-0.342644
-0.338738
-0.334511
-0.33035
-0.326634
-0.323701
-0.321822
-0.321186
-0.321882
-0.323889
-0.327072
-0.331183
-0.335869
-0.34069
-0.345166
-0.348808
-0.351212
-0.352129
-0.351276
-0.34919
-0.343015
-0.352876
-0.35174
-0.349267
-0.345747
-0.341548
-0.337047
-0.332634
-0.328669
-0.325468
-0.323262
-0.322181
-0.322237
-0.323318
-0.325195
-0.327535
-0.329929
-0.331933
-0.333118
-0.333096
-0.331645
-0.328558
-0.324106
-0.318631
-0.311973
-0.443513
-0.448358
-0.448266
-0.440672
-0.425099
-0.4011
-0.369349
-0.331766
-0.291419
-0.252055
-0.217292
-0.189907
-0.171818
-0.164302
-0.167701
-0.180239
-0.196924
-0.210107
-0.212102
-0.199099
-0.173735
-0.143535
-0.11613
-0.0960466
-0.084565
-0.0808594
-0.0837118
-0.0936723
-0.112428
-0.137428
-0.158684
-0.165288
-0.150128
-0.124813
-0.09886
-0.0793229
-0.0676639
-0.0622868
-0.0638402
-0.0736947
-0.0871829
-0.0941878
-0.0885172
-0.0755682
-0.0630865
-0.0541388
-0.0500421
-0.0518205
-0.0570988
-0.0599295
-0.0557836
-0.0499148
-0.0429969
-0.0358245
-0.0320727
-0.0290472
-0.0266378
-0.0258786
-0.0192801
-0.0044929
-0.477391
-0.48426
-0.4845
-0.476735
-0.459584
-0.432499
-0.396245
-0.353039
-0.306415
-0.260543
-0.219311
-0.185662
-0.161379
-0.147437
-0.144269
-0.150887
-0.163527
-0.175504
-0.179339
-0.170562
-0.151081
-0.126927
-0.10481
-0.0891083
-0.0813231
-0.0807912
-0.086586
-0.0997712
-0.122105
-0.150339
-0.173318
-0.17838
-0.16153
-0.132894
-0.103703
-0.0812654
-0.0670916
-0.0594498
-0.058537
-0.0656235
-0.0769057
-0.0830507
-0.0786462
-0.0682698
-0.0588296
-0.0525397
-0.0508788
-0.0553318
-0.0627001
-0.0667086
-0.06141
-0.0537657
-0.0449667
-0.0357995
-0.0305443
-0.0256703
-0.0229868
-0.0221436
-0.0165231
-0.00389333
-0.49814
-0.506346
-0.506943
-0.499006
-0.480908
-0.451844
-0.412562
-0.365424
-0.314185
-0.263282
-0.216904
-0.178116
-0.148598
-0.12907
-0.119795
-0.120382
-0.128368
-0.138395
-0.14363
-0.138984
-0.125514
-0.107588
-0.0909965
-0.0799355
-0.0760362
-0.0787468
-0.0874539
-0.103639
-0.129061
-0.159964
-0.184455
-0.189026
-0.170599
-0.13929
-0.107374
-0.0824297
-0.0660115
-0.056318
-0.0531186
-0.0575314
-0.0666487
-0.0719353
-0.0687058
-0.0607596
-0.0542297
-0.0505531
-0.051409
-0.058658
-0.068201
-0.0733933
-0.0668867
-0.0573518
-0.0467006
-0.0356658
-0.0290389
-0.0223784
-0.0193823
-0.0183969
-0.0137582
-0.00329494
-0.505081
-0.513763
-0.514799
-0.507078
-0.48876
-0.458875
-0.418175
-0.369064
-0.315353
-0.261596
-0.212029
-0.169669
-0.136098
-0.111899
-0.0972309
-0.0919259
-0.0946735
-0.101731
-0.107361
-0.106185
-0.0982726
-0.0863217
-0.0751765
-0.0687443
-0.0686382
-0.0744062
-0.0857178
-0.104412
-0.132325
-0.165499
-0.191598
-0.196457
-0.177067
-0.14383
-0.109797
-0.0828448
-0.0645377
-0.0530564
-0.0478221
-0.0497522
-0.0567861
-0.0611842
-0.0589635
-0.0532014
-0.0493677
-0.0481861
-0.0515524
-0.0616456
-0.0734268
-0.0798305
-0.0721228
-0.0606262
-0.0481703
-0.0354147
-0.0275648
-0.0191989
-0.0158574
-0.0146767
-0.0110094
-0.00270371
-0.497458
-0.506757
-0.508535
-0.501717
-0.483914
-0.454284
-0.413829
-0.364911
-0.311173
-0.256995
-0.206404
-0.162237
-0.125962
-0.0980814
-0.078733
-0.0679479
-0.0651957
-0.0682795
-0.0730294
-0.0748298
-0.070564
-0.0639891
-0.0578953
-0.0557485
-0.0590741
-0.0675288
-0.0810102
-0.101647
-0.131464
-0.166552
-0.194301
-0.20017
-0.180765
-0.146484
-0.111021
-0.0825949
-0.0627903
-0.0498169
-0.0428377
-0.0425233
-0.0475996
-0.0510926
-0.0496627
-0.0457524
-0.0443167
-0.0454329
-0.0512215
-0.0641412
-0.0781862
-0.085833
-0.0770097
-0.0635436
-0.0493577
-0.03504
-0.0261266
-0.0161556
-0.0124419
-0.0110189
-0.00829894
-0.00212541
-0.481544
-0.488653
-0.490647
-0.484913
-0.468072
-0.439672
-0.401042
-0.354341
-0.302849
-0.250543
-0.201027
-0.156828
-0.119292
-0.088887
-0.0657509
-0.0500591
-0.041849
-0.0402017
-0.0424737
-0.044718
-0.0433166
-0.0416154
-0.0398573
-0.0413312
-0.0475434
-0.0582195
-0.0733994
-0.0953925
-0.126462
-0.163029
-0.192437
-0.19997
-0.181601
-0.147249
-0.111112
-0.0817605
-0.0608604
-0.0466978
-0.0382741
-0.0360038
-0.0392897
-0.0418958
-0.0410194
-0.0385573
-0.0391457
-0.0423003
-0.0503479
-0.0659964
-0.0822804
-0.0912112
-0.0814423
-0.0660684
-0.0502494
-0.0345342
-0.0247196
-0.0132675
-0.0091607
-0.00745557
-0.00564557
-0.0015653
-0.458647
-0.462175
-0.463878
-0.459101
-0.44351
-0.417261
-0.381891
-0.33914
-0.291751
-0.243143
-0.196387
-0.153646
-0.116148
-0.0843995
-0.0585664
-0.0388705
-0.0256652
-0.018962
-0.0175635
-0.0186767
-0.0175982
-0.0203285
-0.0218497
-0.0261106
-0.0345286
-0.0468646
-0.0632186
-0.0859789
-0.117654
-0.155186
-0.186267
-0.195927
-0.179575
-0.146169
-0.110148
-0.0804134
-0.0588114
-0.0437571
-0.0341809
-0.0302509
-0.0319473
-0.0337354
-0.0332974
-0.03175
-0.0339406
-0.0388225
-0.0488821
-0.0670816
-0.085528
-0.0957933
-0.0853165
-0.0681691
-0.0508374
-0.033894
-0.0233337
-0.0105444
-0.00603187
-0.00401505
-0.0030634
-0.00102892
-0.430032
-0.429504
-0.430804
-0.42687
-0.412821
-0.389617
-0.358698
-0.321165
-0.279156
-0.235457
-0.192581
-0.152358
-0.115922
-0.0838587
-0.0564294
-0.0338698
-0.0165961
-0.00511353
0.000568875
0.00143637
-0.00193769
-0.00141346
-0.00457742
-0.0107118
-0.0205783
-0.033958
-0.0509789
-0.0740091
-0.105718
-0.143711
-0.176331
-0.188355
-0.174851
-0.143331
-0.108195
-0.0786034
-0.0566795
-0.0410257
-0.0305772
-0.0252784
-0.0255894
-0.0266355
-0.0262744
-0.0254422
-0.0287992
-0.0350561
-0.0468102
-0.0672988
-0.087774
-0.0994342
-0.0885389
-0.0698227
-0.0511245
-0.0331256
-0.0219745
-0.00799337
-0.00306487
-0.000721391
-0.000562385
-0.000522214
-0.397552
-0.393346
-0.394608
-0.391367
-0.379122
-0.359678
-0.33392
-0.302223
-0.26616
-0.227892
-0.189407
-0.152272
-0.117572
-0.0859836
-0.0579086
-0.0336332
-0.0135182
0.00186916
0.0119029
0.016513
0.0166269
0.0159384
0.0116124
0.00443781
-0.00615615
-0.0199856
-0.0372179
-0.0601614
-0.0915975
-0.1297
-0.163477
-0.177728
-0.167779
-0.138963
-0.105449
-0.0765048
-0.0546053
-0.038613
-0.0275302
-0.021114
-0.0202198
-0.0205988
-0.0201913
-0.0197183
-0.0238283
-0.0310726
-0.0441186
-0.0665907
-0.0889249
-0.102029
-0.0910397
-0.0710327
-0.0511433
-0.03225
-0.02067
-0.00565035
-0.000266137
0.00240684
0.00185197
-5.1555e-05
-0.363871
-0.357831
-0.359408
-0.356396
-0.34607
-0.330673
-0.31012
-0.28419
-0.253988
-0.22109
-0.18702
-0.153131
-0.120495
-0.089887
-0.0618539
-0.0367568
-0.0149097
0.00324215
0.0169792
0.0256695
0.029555
0.0306036
0.0261512
0.0189529
0.00828912
-0.00551971
-0.0226539
-0.045347
-0.0762008
-0.113956
-0.148531
-0.164521
-0.158937
-0.133534
-0.102369
-0.0745403
-0.0529178
-0.036757
-0.0251865
-0.0178015
-0.0158176
-0.015628
-0.0151143
-0.0146343
-0.0190949
-0.0269623
-0.0409045
-0.0649312
-0.0889183
-0.103497
-0.0927677
-0.0718265
-0.0509442
-0.0312913
-0.0194114
-0.00357071
0.00234018
0.00534775
0.00417786
0.000375747
-0.332886
-0.327615
-0.329019
-0.325462
-0.316997
-0.305414
-0.28962
-0.269057
-0.244389
-0.216636
-0.186906
-0.156323
-0.125919
-0.0965576
-0.0688858
-0.0433609
-0.0204034
-0.000397941
0.0161791
0.0285674
0.036391
0.0419766
0.0379353
0.0321275
0.0222779
0.0090783
-0.00760088
-0.0299085
-0.0604321
-0.098107
-0.132853
-0.150361
-0.148446
-0.126825
-0.0987413
-0.0725311
-0.0514081
-0.0352351
-0.023344
-0.0151254
-0.0121161
-0.0114753
-0.0110163
-0.0104328
-0.0147985
-0.0227633
-0.0370417
-0.0623736
-0.0878803
-0.103766
-0.0935286
-0.0721115
-0.0504444
-0.0301927
-0.0180704
-0.00167499
0.00474027
0.00805971
0.00641743
0.000753064
-0.305962
-0.304375
-0.303704
-0.298123
-0.2905
-0.281338
-0.269002
-0.252781
-0.232866
-0.209799
-0.184311
-0.157253
-0.129513
-0.101943
-0.075286
-0.0501462
-0.027026
-0.00633481
0.0115315
0.0260215
0.0362377
0.0378651
0.0453764
0.0423043
0.0341491
0.0221689
0.00633122
-0.0152152
-0.0447293
-0.0812465
-0.115565
-0.128477
-0.133939
-0.116603
-0.0920742
-0.0680767
-0.0480401
-0.0324081
-0.0207431
-0.0122043
-0.00848319
-0.00744659
-0.00720806
-0.00778964
-0.0110201
-0.0188909
-0.0329958
-0.0589392
-0.0855209
-0.102875
-0.093025
-0.0715505
-0.0492859
-0.0287181
-0.0164693
0.000360162
0.00707593
0.0105991
0.0085545
0.00106614
-0.281279
-0.291063
-0.287598
-0.279321
-0.270579
-0.261139
-0.249339
-0.234207
-0.21571
-0.194349
-0.170808
-0.145823
-0.120141
-0.0944875
-0.0695069
-0.0457319
-0.0236153
-0.00353851
0.0141799
0.0291599
0.0409645
0.0505467
0.0534285
0.0522977
0.0462449
0.0359568
0.0213335
6.72971e-05
-0.0310273
-0.0709479
-0.108974
-0.137674
-0.125843
-0.107148
-0.0836696
-0.0612928
-0.0427139
-0.0281353
-0.0171485
-0.00885412
-0.00496929
-0.00357271
-0.0031369
-0.00312657
-0.00582444
-0.0133353
-0.0273923
-0.0545821
-0.0832538
-0.102781
-0.0930743
-0.0705198
-0.0475929
-0.02692
-0.0148048
0.00252281
0.00936777
0.0131665
0.010581
0.00130351
-0.255079
-0.268281
-0.265528
-0.256121
-0.246417
-0.236953
-0.226006
-0.212284
-0.195594
-0.176404
-0.155343
-0.133007
-0.109964
-0.0867831
-0.0640089
-0.0421286
-0.0215656
-0.00266921
0.0142844
0.0290638
0.0414504
0.050561
0.0554525
0.056041
0.0518689
0.0433936
0.0302389
0.00956627
-0.0220978
-0.0625374
-0.0992432
-0.11959
-0.11192
-0.094576
-0.0737702
-0.0540544
-0.0374413
-0.0241725
-0.0140327
-0.00610436
-0.00213422
-0.000565739
-0.000242512
-0.000249814
-0.00236835
-0.0092332
-0.0228951
-0.0505689
-0.0804271
-0.100825
-0.0912743
-0.0683277
-0.0453586
-0.0248424
-0.0129533
0.0044331
0.0111921
0.0153853
0.0122493
0.00151559
-0.230932
-0.244403
-0.242775
-0.23377
-0.224055
-0.21495
-0.204997
-0.192791
-0.177973
-0.160907
-0.142142
-0.122172
-0.101449
-0.0804361
-0.0596123
-0.0394273
-0.0202804
-0.00250877
0.01361
0.0278767
0.0403332
0.0492188
0.0548623
0.0564052
0.0534302
0.046137
0.033871
0.0136021
-0.0171558
-0.0544963
-0.0864141
-0.102271
-0.096792
-0.0819351
-0.064184
-0.0471124
-0.0323786
-0.0203331
-0.0110156
-0.00351558
0.000454838
0.00217234
0.00241061
0.00261914
0.000540757
-0.00613212
-0.0195945
-0.0470597
-0.0766322
-0.0971078
-0.0882367
-0.0654364
-0.0427399
-0.0225615
-0.01097
0.00625446
0.0129172
0.0174296
0.0137303
0.00174256
-0.209148
-0.221424
-0.2207
-0.21276
-0.203597
-0.194953
-0.185831
-0.174922
-0.161753
-0.146564
-0.129831
-0.111985
-0.0934009
-0.0744532
-0.0555415
-0.0370615
-0.0193809
-0.0028223
0.0123255
0.0257835
0.0369572
0.046425
0.0524625
0.0546849
0.0526307
0.0462822
0.0348693
0.0156999
-0.0124421
-0.0451169
-0.0721544
-0.0849688
-0.081282
-0.0692967
-0.0546247
-0.0401908
-0.0273604
-0.0165543
-0.00808703
-0.00108392
0.00282023
0.00469556
0.00497799
0.00538197
0.00337599
-0.00321637
-0.0163891
-0.0429632
-0.0715999
-0.0921071
-0.0841127
-0.0618607
-0.0397154
-0.0200792
-0.00883131
0.00797737
0.0145562
0.0192986
0.0150945
0.00198456
-0.188459
-0.199731
-0.199696
-0.19287
-0.184488
-0.176428
-0.168093
-0.158364
-0.14672
-0.133283
-0.118442
-0.102575
-0.0859926
-0.068997
-0.0519178
-0.035101
-0.0188861
-0.00358279
0.0105207
0.0231364
0.0338736
0.0427424
0.0487955
0.0514233
0.0501042
0.0446706
0.0344158
0.0172809
-0.00715037
-0.0347593
-0.0571731
-0.0678819
-0.066007
-0.0570577
-0.0454235
-0.0335138
-0.0225206
-0.0129149
-0.00527647
0.00119019
0.0049723
0.00699338
0.00739934
0.00794098
0.00617511
-0.000170257
-0.0126421
-0.037874
-0.065445
-0.0857563
-0.0787764
-0.0575401
-0.0362945
-0.0174144
-0.00656032
0.00959014
0.0160668
0.0209581
0.0163369
0.0022344
-0.169177
-0.179584
-0.17996
-0.174105
-0.166597
-0.159253
-0.151733
-0.143111
-0.132873
-0.121052
-0.107955
-0.0939052
-0.07917
-0.0639974
-0.0486609
-0.0334595
-0.0187007
-0.00467671
0.00833666
0.0200604
0.0301674
0.0384473
0.0443091
0.0471447
0.0464419
0.0419415
0.0330821
0.018485
-0.00178551
-0.0242676
-0.0425469
-0.0519465
-0.0518324
-0.0457117
-0.0368217
-0.0271891
-0.0179112
-0.00945422
-0.00260526
0.00330655
0.00692108
0.00905479
0.00965764
0.0103332
0.00892546
0.00303267
-0.00838377
-0.0319902
-0.0582162
-0.0779995
-0.072226
-0.0524839
-0.0325105
-0.0145987
-0.00418412
0.0110826
0.0174215
0.022366
0.0174105
0.00249056
-0.151607
-0.160924
-0.161513
-0.15653
-0.149924
-0.143367
-0.136673
-0.129083
-0.120123
-0.109776
-0.0982749
-0.0858947
-0.0728656
-0.0593952
-0.0457102
-0.0320658
-0.0187349
-0.00598744
0.00591457
0.0167026
0.0260792
0.0337705
0.0393425
0.0422735
0.0421032
0.0385324
0.0311709
0.0192469
0.00307228
-0.0147393
-0.0295273
-0.0380314
-0.0393406
-0.0355495
-0.0289768
-0.0213158
-0.0135914
-0.00621511
-0.000100836
0.00526376
0.00868287
0.0108918
0.0117567
0.0125927
0.011612
0.00631019
-0.00385188
-0.0254783
-0.0499821
-0.0689793
-0.0645651
-0.0467478
-0.0284125
-0.0116733
-0.00173911
0.0124515
0.0186037
0.0234834
0.0182697
0.00276015
-0.135347
-0.143623
-0.144391
-0.140205
-0.134465
-0.128694
-0.122805
-0.116173
-0.108377
-0.099369
-0.0893275
-0.078481
-0.0670265
-0.0551392
-0.0430075
-0.0308476
-0.0188991
-0.00740693
0.0033832
0.0132161
0.0218189
0.0289134
0.0341509
0.0371043
0.0373856
0.0347116
0.0288511
0.0194385
0.00683214
-0.00706291
-0.0187885
-0.0265367
-0.0287623
-0.0267057
-0.0219828
-0.0159652
-0.00960404
-0.0032273
0.00221191
0.00706073
0.010275
0.0125244
0.0136947
0.0147497
0.0142245
0.0096193
0.000870093
-0.0184242
-0.0409579
-0.0589638
-0.0559871
-0.0404424
-0.0240675
-0.00868691
0.000729936
0.0137052
0.0196089
0.0242842
0.0188911
0.00305781
-0.120278
-0.127707
-0.12862
-0.12513
-0.120184
-0.115159
-0.110034
-0.10429
-0.0975534
-0.0897605
-0.0810484
-0.0716052
-0.0615981
-0.051175
-0.0404932
-0.0297358
-0.0191107
-0.00883715
0.000860173
0.00974403
0.017565
0.0240616
0.0289446
0.0318707
0.032529
0.0306796
0.0261956
0.0189255
0.00922004
-0.00149891
-0.0102942
-0.0174667
-0.0200826
-0.0191884
-0.0158688
-0.0111793
-0.00598029
-0.00051148
0.0043106
0.00869219
0.0117091
0.0139723
0.0154598
0.0168262
0.0167909
0.0130151
0.00578919
-0.0110174
-0.0314893
-0.0483208
-0.0467779
-0.0337377
-0.0195589
-0.00569115
0.0031712
0.0148661
0.0204513
0.0247652
0.019279
0.00340537
-0.106548
-0.113161
-0.114139
-0.111247
-0.107021
-0.102693
-0.0982811
-0.0933524
-0.0875769
-0.0808835
-0.0733763
-0.0652105
-0.0565271
-0.0474508
-0.0381132
-0.0286686
-0.0192953
-0.0101879
-0.0015476
0.00641289
0.0134671
0.019378
0.0239027
0.0267674
0.0277294
0.0265942
0.0232914
0.017788
0.0104063
0.00205861
-0.00600989
-0.0107215
-0.0131437
-0.0129244
-0.0106194
-0.00697567
-0.00274118
0.00192047
0.00617902
0.0101461
0.0129901
0.0152528
0.0170344
0.0188072
0.0193649
0.016581
0.010849
-0.00359017
-0.0220353
-0.0375226
-0.0372994
-0.0268539
-0.0149846
-0.00273698
0.00552982
0.0159692
0.0211686
0.0249534
0.0194707
0.00383279
-0.0940574
-0.0998617
-0.100863
-0.0984985
-0.094928
-0.0912387
-0.0874799
-0.0832912
-0.0783819
-0.0726773
-0.0662563
-0.0592465
-0.0517664
-0.0439209
-0.0358198
-0.0275918
-0.0193888
-0.0113808
-0.00374565
0.00333036
0.00964635
0.0149934
0.0191658
0.0219441
0.0231404
0.0226036
0.0202995
0.0162582
0.0107681
0.00448126
-0.00156018
-0.00551933
-0.00766534
-0.00779207
-0.00618974
-0.00335041
0.000102217
0.004063
0.00781098
0.0114061
0.0141116
0.0163762
0.0184064
0.0206189
0.0219257
0.020286
0.0158618
0.00341718
-0.0131144
-0.0270821
-0.0279631
-0.0200487
-0.0104548
0.00012662
0.00775416
0.0170523
0.0218196
0.0249106
0.0195426
0.00437562
-0.0826145
-0.087725
-0.0887466
-0.0868429
-0.0838547
-0.0807405
-0.0775701
-0.0740446
-0.0699089
-0.0650877
-0.0596394
-0.0536685
-0.0472745
-0.040545
-0.0335711
-0.0264597
-0.0193392
-0.0123538
-0.00565838
0.00058326
0.00619808
0.0110085
0.0148389
0.017513
0.0188863
0.0188458
0.0173783
0.0145384
0.0105818
0.00600141
0.00157623
-0.00160699
-0.00340372
-0.00365883
-0.00251774
-0.000282282
0.00254939
0.00591393
0.00920848
0.0124608
0.015055
0.0173352
0.0195626
0.0221537
0.0242386
0.0237849
0.0203947
0.00951965
-0.00516315
-0.0174488
-0.0191672
-0.0135853
-0.00609106
0.00284808
0.00979877
0.0181355
0.0224628
0.0247305
0.019603
0.00506107
-0.0722471
-0.076727
-0.0777353
-0.076218
-0.0737386
-0.0711364
-0.0684908
-0.065554
-0.0621034
-0.0580652
-0.0534815
-0.0484376
-0.0430163
-0.0372904
-0.0313349
-0.0252379
-0.0191064
-0.0130613
-0.00723507
-0.00176806
0.00319217
0.00749652
0.0109977
0.0135543
0.0150549
0.0154153
0.0146346
0.0127746
0.0100513
0.00683401
0.00367302
0.0012593
-0.000147268
-0.000391143
0.000468645
0.00226253
0.00461021
0.0074756
0.0103748
0.013309
0.015801
0.018097
0.020467
0.023321
0.0259681
0.0264527
0.0238241
0.0143296
0.00156998
-0.00895855
-0.0112518
-0.00769831
-0.00201876
0.00537126
0.0116214
0.0191967
0.0231342
0.0245196
0.0197504
0.00587928
-0.0628584
-0.0667654
-0.0677389
-0.0665495
-0.0645164
-0.062367
-0.0601851
-0.0577659
-0.0549166
-0.0515667
-0.0477455
-0.0435217
-0.0389641
-0.0341326
-0.0290884
-0.0239037
-0.0186654
-0.0134745
-0.00844308
-0.00368759
0.000667821
0.00450052
0.0076869
0.0101138
0.0116953
0.0123687
0.0121381
0.011064
0.00931935
0.00718051
0.00501525
0.0032977
0.00228793
0.00213915
0.00284626
0.00432637
0.00630322
0.00875601
0.0113142
0.0139547
0.016334
0.0186214
0.0210575
0.0240404
0.0268182
0.0278015
0.0257311
0.0176863
0.00696118
-0.00185897
-0.00447504
-0.00255732
0.00164714
0.00764337
0.0131827
0.0201472
0.0238109
0.024371
0.0200133
0.00674733
-0.0543778
-0.0577703
-0.0586892
-0.057775
-0.0561314
-0.0543786
-0.0526009
-0.0506315
-0.0483045
-0.0455539
-0.042399
-0.0388945
-0.0350969
-0.0310552
-0.0268187
-0.022445
-0.0180053
-0.0135826
-0.00926913
-0.00516149
-0.00136018
0.0020356
0.00492264
0.00720952
0.00882819
0.00973322
0.00993087
0.00947075
0.00848966
0.00720039
0.00581288
0.00469363
0.00406035
0.00405106
0.00469333
0.00595699
0.00765324
0.00976831
0.012032
0.0144049
0.0166493
0.0188762
0.0212671
0.0242772
0.0267289
0.0278256
0.0261855
0.0196636
0.0109587
0.00371813
0.0010281
0.00175809
0.00481932
0.00962313
0.014453
0.0208308
0.0243699
0.0243372
0.020313
0.00750027
-0.0467071
-0.0496529
-0.0505276
-0.049839
-0.0485219
-0.0471111
-0.0456838
-0.0441024
-0.0422255
-0.0399923
-0.0374144
-0.0345349
-0.0313999
-0.0280491
-0.0245218
-0.020863
-0.0171299
-0.0133897
-0.009718
-0.00619415
-0.00289766
9.66795e-05
0.00269844
0.00483482
0.00645208
0.00751713
0.00803359
0.00803799
0.00763401
0.00694178
0.00621252
0.00559996
0.00530687
0.00545322
0.00608611
0.00720465
0.0086899
0.0105299
0.0125371
0.0146668
0.0167513
0.0188567
0.0210406
0.0232642
0.0258515
0.0268989
0.0255913
0.0205069
0.0136542
0.00783006
0.00527643
0.00525307
0.00745045
0.0112766
0.0154209
0.0210956
0.0246045
0.0243306
0.020449
0.00794998
-0.0398083
-0.0423586
-0.0431808
-0.0426781
-0.0416352
-0.0405122
-0.0393835
-0.0381338
-0.0366415
-0.034851
-0.0327683
-0.0304271
-0.0278643
-0.0251118
-0.0222006
-0.0191662
-0.0160532
-0.012914
-0.00981015
-0.00680509
-0.00396309
-0.0013379
0.000990414
0.00296671
0.00454879
0.00570932
0.00644991
0.00679989
0.0068346
0.0066305
0.00636052
0.00614969
0.00614578
0.00644305
0.00709701
0.00812003
0.00944572
0.011062
0.0128436
0.0147505
0.0166561
0.0186024
0.020578
0.0225752
0.0245925
0.0254531
0.0243964
0.0205488
0.0152825
0.0106921
0.00841428
0.00798777
0.00953671
0.0125687
0.0160774
0.0208956
0.0243136
0.024063
0.0201198
0.00798299
-0.0336124
-0.0358095
-0.036575
-0.0362306
-0.0354182
-0.0345319
-0.0336546
-0.0326852
-0.031518
-0.0301027
-0.0284411
-0.0265591
-0.024486
-0.0222471
-0.0198665
-0.0173716
-0.0147966
-0.0121818
-0.00957472
-0.00702375
-0.00457295
-0.00230491
-0.000240195
0.00156825
0.0030854
0.00428831
0.00517426
0.00576341
0.0061009
0.00626214
0.00634476
0.00644551
0.00667564
0.00710595
0.00779303
0.00875281
0.00995498
0.0113886
0.0129709
0.0146713
0.016388
0.0181483
0.0198972
0.0216028
0.0231389
0.0237975
0.0229397
0.020093
0.0161217
0.0125745
0.0106363
0.010042
0.0111059
0.0134766
0.0163967
0.0202535
0.023404
0.023212
0.0190935
0.00760795
-0.0280475
-0.0299375
-0.0306473
-0.0304321
-0.0298239
-0.0291507
-0.028471
-0.0277257
-0.0268252
-0.0257226
-0.0244151
-0.0229215
-0.021264
-0.0194624
-0.0175349
-0.0155021
-0.0133898
-0.0112291
-0.00905676
-0.00691226
-0.00483643
-0.00287161
-0.00104807
0.000591068
0.00202175
0.00322252
0.00418793
0.00493203
0.00548595
0.00589639
0.00623531
0.00656769
0.00697764
0.00751586
0.00823526
0.00915036
0.0102535
0.0115355
0.0129415
0.0144505
0.0159759
0.0175351
0.0190523
0.0204696
0.0216273
0.0221171
0.0214283
0.0193581
0.0164157
0.0137194
0.0121237
0.0114977
0.0122048
0.0139998
0.016367
0.0192501
0.0218164
0.0216343
0.0173964
0.00692523
-0.0230599
-0.024683
-0.025337
-0.0252228
-0.0247784
-0.0242781
-0.0237789
-0.023221
-0.0225358
-0.0216893
-0.0206768
-0.019508
-0.0181999
-0.0167671
-0.0152233
-0.0135832
-0.0118664
-0.0100959
-0.0082998
-0.00650854
-0.00475411
-0.00306286
-0.00147829
-2.19051e-05
0.00131054
0.00247711
0.00347316
0.00430316
0.00499199
0.00556823
0.00608286
0.00657832
0.00711773
0.0077357
0.00847854
0.00935729
0.0103768
0.01153
0.0127799
0.0141117
0.0154527
0.0168097
0.0180831
0.0192644
0.0201416
0.0205082
0.0199686
0.0184862
0.0163393
0.014316
0.0130308
0.0124403
0.0128865
0.014168
0.0160172
0.0180285
0.019827
0.0194986
0.0152885
0.00606973
-0.0185994
-0.0199892
-0.0205879
-0.0205528
-0.020242
-0.0198839
-0.0195292
-0.0191319
-0.0186325
-0.0179966
-0.0172199
-0.0163154
-0.0152974
-0.014173
-0.0129514
-0.0116429
-0.0102614
-0.00882377
-0.00735111
-0.00586525
-0.00438964
-0.00294704
-0.00156144
-0.000249185
0.000943452
0.00202994
0.00300473
0.00386567
0.00462487
0.00529927
0.00592373
0.00652476
0.00714871
0.00781798
0.00857096
0.00941481
0.0103597
0.0114002
0.0125113
0.0136823
0.014852
0.0160216
0.017094
0.0180587
0.0187302
0.0190134
0.0186064
0.0175598
0.0160117
0.0145088
0.0134903
0.0129552
0.0132056
0.0140404
0.0154018
0.0166876
0.0176941
0.0171155
0.0130832
0.0051678
-0.0146145
-0.0158019
-0.0163477
-0.0163741
-0.0161717
-0.0159293
-0.0156914
-0.0154214
-0.0150701
-0.0146088
-0.0140326
-0.013349
-0.0125662
-0.0116941
-0.0107391
-0.00970744
-0.00860869
-0.00745403
-0.00625764
-0.00503646
-0.00380901
-0.0025929
-0.00140627
-0.000265291
0.000811952
0.00181812
0.00274815
0.0036003
0.00438181
0.00510172
0.0057834
0.00644249
0.00711223
0.00780602
0.00855396
0.00936002
0.0102354
0.0111751
0.0121618
0.0131887
0.0142027
0.0152031
0.0161004
0.0168922
0.0174164
0.017646
0.0173537
0.0166245
0.0155176
0.0144067
0.0136017
0.0131228
0.0132198
0.0136827
0.0145891
0.0152955
0.0156115
0.0147516
0.0110064
0.00431284
-0.0110603
-0.0120732
-0.0125694
-0.0126425
-0.012527
-0.0123779
-0.0122333
-0.0120648
-0.0118319
-0.0115105
-0.011095
-0.01059
-0.0100028
-0.00933908
-0.00860363
-0.00780185
-0.00694025
-0.00602683
-0.00506292
-0.00406916
-0.00305839
-0.00204283
-0.00103601
-5.04068e-05
0.000901413
0.00181141
0.00267452
0.00348806
0.00425542
0.00498051
0.00567831
0.00635728
0.00704033
0.00773474
0.00846282
0.00922596
0.0100339
0.0108821
0.0117573
0.0126548
0.0135302
0.0143834
0.0151345
0.0157883
0.0162083
0.0164037
0.016206
0.0157039
0.0149171
0.0140906
0.0134397
0.01296
0.0129846
0.0131578
0.0136516
0.0139058
0.0136783
0.0125674
0.0091701
0.00355676
-0.00789733
-0.0087599
-0.00920957
-0.00931722
-0.00927061
-0.00919579
-0.00912525
-0.00903679
-0.00889767
-0.00868743
-0.00840061
-0.00804021
-0.00761127
-0.00711762
-0.00656206
-0.00594711
-0.00527657
-0.00455549
-0.00379879
-0.00300404
-0.00218311
-0.00134554
-0.000502132
0.000337839
0.00116485
0.00197188
0.002754
0.003508
0.00423479
0.00493509
0.00561785
0.00628682
0.00695711
0.00763186
0.00832669
0.00904105
0.009782
0.0105456
0.0113206
0.0121031
0.0128572
0.0135844
0.0142151
0.0147584
0.0151043
0.0152774
0.0151539
0.0148097
0.0142506
0.0136278
0.0131043
0.0126791
0.0125752
0.0125191
0.0126531
0.0125592
0.0119447
0.010645
0.0076074
0.00291769
-0.00508887
-0.00582217
-0.00622861
-0.00636111
-0.00636849
-0.0063523
-0.00633978
-0.00631383
-0.0062481
-0.00612555
-0.00594106
-0.00569634
-0.00539486
-0.00503913
-0.0046307
-0.00417088
-0.00366201
-0.00310785
-0.00251395
-0.00188568
-0.00122767
-0.000546786
0.000149972
0.000855549
0.00156236
0.00226456
0.00295773
0.00363861
0.00430667
0.00496081
0.00560576
0.00624233
0.00687982
0.0075187
0.00816895
0.00882903
0.00950281
0.0101868
0.0108713
0.0115529
0.0122017
0.0128208
0.0133526
0.0138073
0.0140992