/*--------------------------------*- C++ -*----------------------------------*\
| =========                 |                                                 |
| \\      /  F ield         | OpenFOAM: The Open Source CFD Toolbox           |
|  \\    /   O peration     | Version:  2512                                  |
|   \\  /    A nd           | Website:  www.openfoam.com                      |
|    \\/     M anipulation  |                                                 |
\*---------------------------------------------------------------------------*/
FoamFile
{
    version     2.0;
    format      ascii;
    arch        "LSB;label=32;scalar=64";
    class       volVectorField;
    location    "121";
    object      U;
}
// * * * * * * * * * * * * * * * * * * * * * * * * * * * * * * * * * * * * * //

dimensions      [0 1 -1 0 0 0 0];

internalField   nonuniform List<vector> 
13248
(
(-0.0141969 0.0123447 7.62335e-20)
(-0.0272405 0.0257267 0)
(-0.0254571 0.0324591 -1.43835e-19)
(-0.00881517 0.035192 1.35493e-19)
(0.0227448 0.0356838 1.264e-19)
(0.0692292 0.0351276 0)
(0.130474 0.0343527 0)
(0.205954 0.0339366 3.0063e-19)
(0.294578 0.0342489 -1.69985e-21)
(0.394527 0.0354635 -2.62208e-19)
(0.503183 0.0375536 2.44052e-19)
(0.617189 0.040295 -1.5249e-19)
(0.732646 0.0432891 0)
(0.845401 0.046011 -2.68291e-19)
(0.951394 0.0478775 5.03625e-19)
(1.04702 0.0483256 -1.1972e-19)
(1.12941 0.0468925 -2.20145e-19)
(1.19671 0.043258 2.06675e-19)
(1.24821 0.037369 0)
(1.28426 0.0290408 0)
(1.30641 0.0193962 0)
(1.3164 0.0055396 0)
(1.317 -0.00325915 6.47642e-20)
(1.30987 -0.0324525 2.36437e-19)
(-0.0146846 0.0115679 -2.30308e-19)
(-0.0232882 0.0218954 1.57075e-19)
(-0.0123552 0.0256484 -1.56466e-21)
(0.0172754 0.0258618 -2.07346e-19)
(0.0651451 0.024624 -1.26261e-19)
(0.130728 0.0233837 -1.19496e-19)
(0.21306 0.0231026 -2.17979e-19)
(0.310422 0.0243577 2.06789e-19)
(0.420118 0.0273886 0)
(0.538434 0.0321122 7.73654e-22)
(0.660812 0.038145 2.12255e-21)
(0.782229 0.0448563 1.53494e-19)
(0.897684 0.0514576 0)
(1.0027 0.0571161 0)
(1.09378 0.0610755 1.84975e-19)
(1.16866 0.0627589 -3.47688e-19)
(1.22652 0.0618382 2.1132e-19)
(1.26787 0.0582594 -1.98407e-19)
(1.29438 0.0522079 -8.81991e-20)
(1.30853 0.044078 -1.63601e-19)
(1.31306 0.0343481 -6.87124e-20)
(1.31079 0.0234199 -1.29946e-19)
(1.30354 0.0132981 1.88571e-19)
(1.29453 -0.00101647 5.40297e-20)
(-0.013839 0.0100399 0)
(-0.0150781 0.0168865 0)
(0.00842088 0.0182225 7.33714e-20)
(0.0547657 0.0171091 6.73977e-20)
(0.122626 0.0157591 -1.87679e-21)
(0.210398 0.0157338 -1.2435e-19)
(0.315585 0.0179632 0)
(0.434471 0.02282 -1.02687e-19)
(0.562085 0.0301713 9.70397e-20)
(0.692516 0.0394366 1.26131e-21)
(0.819522 0.0496939 -1.65384e-19)
(0.937258 0.0598368 -1.52369e-19)
(1.04096 0.0687588 2.08008e-21)
(1.12742 0.075526 -1.28154e-19)
(1.19526 0.0795048 3.05944e-19)
(1.24479 0.0804228 0)
(1.27781 0.0783599 -2.02709e-19)
(1.29708 0.0736676 9.8408e-20)
(1.30579 0.0669039 8.81328e-20)
(1.30698 0.0585753 0)
(1.30327 0.0495574 7.32949e-20)
(1.29638 0.0394609 -2.51631e-19)
(1.28763 0.031408 2.36222e-19)
(1.2782 0.0181863 1.48971e-19)
(-0.0112103 0.00776527 -8.19191e-20)
(-0.00154801 0.0107464 -8.48209e-20)
(0.0381583 0.0103375 7.64406e-20)
(0.104738 0.00926981 0)
(0.195487 0.00963143 0)
(0.306982 0.0128601 -3.21304e-21)
(0.434356 0.0195683 0)
(0.571218 0.0295983 -3.16922e-19)
(0.710109 0.0421418 2.94375e-19)
(0.843397 0.055927 -3.62886e-19)
(0.964304 0.0694759 8.299e-20)
(1.06779 0.0813842 0)
(1.15106 0.0905573 1.39439e-19)
(1.21361 0.0963528 -2.58757e-19)
(1.25698 0.0986118 6.15331e-20)
(1.28405 0.0975897 1.60159e-19)
(1.2984 0.0938197 -5.95872e-21)
(1.30363 0.0879644 -1.78636e-19)
(1.3028 0.0806679 0)
(1.29823 0.0725099 0)
(1.29142 0.0639376 -6.50783e-20)
(1.28328 0.0551078 5.86263e-20)
(1.27431 0.0474303 2.12381e-19)
(1.26517 0.0363854 -1.994e-19)
(-0.00640508 0.00492655 -8.67682e-20)
(0.018206 0.0039826 -8.63758e-20)
(0.0778426 0.00280168 2.42737e-19)
(0.167701 0.00343433 -1.47078e-19)
(0.283012 0.00752378 1.38435e-19)
(0.417666 0.016024 2.50981e-19)
(0.563707 0.0288189 -1.77652e-19)
(0.711883 0.0448435 -2.16247e-19)
(0.852878 0.0623971 4.37032e-21)
(0.978731 0.0795462 2.75635e-19)
(1.08397 0.0945337 0)
(1.1661 0.106092 7.62127e-20)
(1.22551 0.11359 0)
(1.26478 0.117016 -1.25017e-19)
(1.28776 0.116826 1.75885e-19)
(1.29868 0.113736 1.71836e-21)
(1.3014 0.108527 -4.65965e-20)
(1.29896 0.1019 8.79142e-20)
(1.29351 0.0944135 7.59563e-20)
(1.28639 0.0864643 -6.84514e-20)
(1.27836 0.0783707 6.50647e-20)
(1.2698 0.0701859 -5.86132e-20)
(1.26095 0.0627934 0)
(1.25212 0.0530684 -4.44843e-20)
(0.000921432 0.001836 8.67557e-20)
(0.0448817 -0.00252997 9.13264e-20)
(0.128002 -0.00304529 -8.14154e-20)
(0.243312 0.0012605 1.51908e-19)
(0.383136 0.0111463 -1.42973e-19)
(0.537894 0.0265877 1.29244e-19)
(0.696313 0.0462787 -6.22029e-20)
(0.846988 0.0679898 1.62366e-19)
(0.980325 0.0891927 -1.02335e-19)
(1.09004 0.107662 1.81203e-19)
(1.17372 0.121893 -4.1841e-19)
(1.23242 0.13125 1.53956e-19)
(1.26968 0.135879 -1.34999e-19)
(1.29023 0.136453 1.26808e-19)
(1.29891 0.133891 1.10155e-19)
(1.29985 0.129107 9.72587e-20)
(1.29616 0.122873 -2.70717e-19)
(1.28994 0.115765 1.68258e-19)
(1.28245 0.108179 -7.59612e-20)
(1.27436 0.100381 1.99073e-19)
(1.26601 0.0925451 -6.42741e-20)
(1.25752 0.0847817 -1.57483e-19)
(1.24897 0.0775056 1.45554e-19)
(1.24044 0.0687525 4.44719e-20)
(0.0110602 -0.00110743 0)
(0.0788763 -0.00767835 9.25663e-22)
(0.188495 -0.00557601 1.71286e-19)
(0.330088 0.00458302 -1.605e-19)
(0.492253 0.0220928 -1.44761e-19)
(0.661593 0.0453952 2.69013e-19)
(0.82418 0.0716695 -1.24915e-19)
(0.968136 0.0975965 1.66228e-19)
(1.08573 0.120272 -3.65301e-21)
(1.17414 0.137801 -9.42277e-20)
(1.23486 0.14947 2.05454e-19)
(1.27222 0.155564 -3.0359e-19)
(1.29185 0.156994 0)
(1.29922 0.154909 -5.98471e-20)
(1.29887 0.150401 -1.60259e-19)
(1.29412 0.144349 5.03532e-20)
(1.2871 0.137384 1.88844e-21)
(1.27906 0.129919 -1.12022e-19)
(1.27066 0.122219 6.5009e-21)
(1.26218 0.114449 1.29823e-19)
(1.25374 0.106724 -5.83675e-20)
(1.24535 0.0991349 -2.22931e-20)
(1.23698 0.0918136 6.84134e-20)
(1.22867 0.0837367 0)
(0.0242084 -0.00344099 0)
(0.12016 -0.0102301 4.64968e-20)
(0.258314 -0.00312918 -2.23955e-19)
(0.425276 0.0150196 8.14925e-20)
(0.605426 0.0413798 -7.66951e-20)
(0.782022 0.0724209 -7.01836e-20)
(0.940138 0.103839 -1.23783e-19)
(1.06968 0.131729 6.19056e-20)
(1.16666 0.153524 5.36549e-20)
(1.23254 0.16826 0)
(1.27236 0.176303 1.22304e-19)
(1.2926 0.178816 -1.82342e-19)
(1.29957 0.177234 1.35665e-19)
(1.2984 0.172887 5.98799e-20)
(1.29274 0.166821 -4.93487e-20)
(1.28492 0.159764 -4.14744e-20)
(1.27624 0.152177 -3.88548e-20)
(1.26737 0.14434 1.15765e-19)
(1.25859 0.136422 0)
(1.25002 0.12853 5.86713e-20)
(1.24164 0.120743 4.9697e-20)
(1.23342 0.113127 -1.2305e-19)
(1.22531 0.105684 -8.47637e-20)
(1.21726 0.0980611 7.82535e-20)
(0.04041 -0.00465584 -5.04242e-20)
(0.168161 -0.00894316 -2.04953e-21)
(0.335522 0.0057653 4.567e-20)
(0.525035 0.0336729 1.27933e-19)
(0.717059 0.0692168 3.72337e-20)
(0.892969 0.106798 -7.19439e-20)
(1.03915 0.141129 6.55965e-20)
(1.14935 0.168524 -5.73858e-20)
(1.22429 0.187452 1.02921e-19)
(1.26938 0.198219 4.37759e-20)
(1.29208 0.202237 -1.24437e-19)
(1.29971 0.201295 3.66349e-20)
(1.29822 0.197057 6.27011e-20)
(1.29184 0.190812 -3.08111e-20)
(1.2832 0.183444 0)
(1.27377 0.175499 4.62035e-20)
(1.26428 0.167295 7.84563e-20)
(1.25504 0.159014 1.36078e-20)
(1.24614 0.150761 -6.55765e-20)
(1.23758 0.142611 2.75396e-20)
(1.22931 0.134619 0)
(1.22127 0.126818 -2.17589e-20)
(1.21339 0.119174 -2.07115e-20)
(1.20558 0.111762 0)
(0.0594933 -0.00422429 0)
(0.221695 -0.00267833 2.64517e-20)
(0.417328 0.0222041 4.90292e-20)
(0.624866 0.060972 -1.3071e-19)
(0.821761 0.105031 4.23035e-20)
(0.989738 0.147112 0)
(1.11878 0.181823 6.33984e-20)
(1.20771 0.20654 -8.85291e-20)
(1.2618 0.221217 -5.14632e-20)
(1.2894 0.227451 2.32019e-20)
(1.2991 0.227462 -3.72852e-20)
(1.298 0.223362 9.04472e-20)
(1.29116 0.216802 4.53298e-20)
(1.28174 0.208902 -3.14688e-20)
(1.27149 0.200348 -2.91512e-21)
(1.26127 0.191523 -8.65905e-20)
(1.25143 0.182637 3.94641e-20)
(1.24206 0.173802 -9.97009e-22)
(1.23319 0.16509 0)
(1.22474 0.156552 -2.75685e-20)
(1.21666 0.148223 0)
(1.20885 0.140109 6.27224e-20)
(1.20125 0.132214 -7.47512e-20)
(1.1937 0.124815 3.4114e-20)
(0.0810293 -0.00163863 -1.38639e-20)
(0.278975 0.00949127 -6.68903e-20)
(0.500316 0.0467874 7.61938e-20)
(0.72017 0.0966535 4.47637e-20)
(0.915056 0.147657 -2.13587e-20)
(1.06951 0.191744 3.58823e-20)
(1.17875 0.22444 -1.74178e-20)
(1.24687 0.244817 2.89411e-20)
(1.28284 0.254449 0)
(1.29668 0.256023 6.55541e-20)
(1.29704 0.252251 -2.70383e-21)
(1.2902 0.245303 -5.29106e-20)
(1.28013 0.236664 2.26732e-20)
(1.26904 0.227237 -2.56249e-20)
(1.25799 0.217518 -9.7906e-21)
(1.24743 0.207763 1.12664e-20)
(1.23749 0.198103 -8.73399e-21)
(1.22817 0.18861 -4.74714e-20)
(1.21943 0.179331 2.91018e-20)
(1.21118 0.170299 5.98027e-21)
(1.20334 0.161531 5.27795e-21)
(1.19582 0.153017 4.66027e-21)
(1.1885 0.144828 0)
(1.18124 0.137229 0)
(0.104399 0.00355456 1.38735e-20)
(0.337855 0.0281998 -1.38851e-20)
(0.580936 0.0795603 -2.54139e-20)
(0.806911 0.139847 0)
(0.993839 0.195591 -1.06195e-20)
(1.13118 0.239144 -9.5758e-21)
(1.22009 0.267846 -1.63554e-20)
(1.26937 0.282791 0)
(1.2905 0.28705 0)
(1.29405 0.284087 0)
(1.28803 0.276809 0)
(1.27761 0.267257 0)
(1.26572 0.25668 -1.42742e-20)
(1.2538 0.245758 6.5056e-21)
(1.24245 0.234833 1.13122e-20)
(1.23186 0.224065 5.28716e-21)
(1.22202 0.213533 1.31193e-20)
(1.2129 0.20328 0)
(1.20441 0.193334 -3.1612e-21)
(1.19647 0.183716 -3.02188e-21)
(1.18898 0.174421 -5.28636e-21)
(1.18182 0.165446 -4.66772e-21)
(1.17488 0.156931 0)
(1.16802 0.148964 3.36879e-21)
(-0.00185231 0.0279176 8.99421e-21)
(-0.00727363 0.0752484 -9.30071e-21)
(-0.0160591 0.115098 -1.75655e-20)
(-0.0268741 0.147525 0)
(-0.0388688 0.173138 -2.34396e-20)
(-0.0514752 0.193122 7.36148e-21)
(-0.0641724 0.208931 -1.38968e-20)
(-0.076496 0.221971 0)
(-0.0880639 0.233362 0)
(-0.0985745 0.243836 0)
(-0.107794 0.253723 0)
(-0.115538 0.263016 0)
(-0.121647 0.271456 2.80322e-23)
(-0.125975 0.278605 -9.44125e-21)
(-0.128372 0.283908 1.81942e-20)
(-0.128683 0.286733 2.60644e-20)
(-0.126749 0.2864 8.48523e-21)
(-0.122412 0.282207 0)
(-0.115533 0.273475 7.59159e-21)
(-0.10602 0.259588 -2.18412e-20)
(-0.0937971 0.240001 -1.41425e-20)
(-0.0787966 0.214407 -1.35843e-20)
(-0.0609745 0.182726 0)
(-0.0406181 0.145494 0)
(-0.00329448 0.0299343 -2.70285e-20)
(-0.00995617 0.0805671 4.64823e-20)
(-0.0178168 0.123241 -1.75513e-20)
(-0.0264428 0.158012 -3.31128e-20)
(-0.0354755 0.185413 4.67831e-20)
(-0.0446043 0.206554 -2.94406e-20)
(-0.0534798 0.222855 4.15813e-20)
(-0.061733 0.235737 2.61559e-20)
(-0.0690093 0.246391 0)
(-0.0749865 0.255632 -2.36595e-20)
(-0.0793829 0.26388 -4.26302e-22)
(-0.0819524 0.271195 2.08718e-20)
(-0.0824848 0.277371 3.0098e-20)
(-0.0807928 0.281989 3.86008e-20)
(-0.0767038 0.284507 -1.74922e-20)
(-0.0700633 0.284303 -5.20309e-20)
(-0.060739 0.280714 1.74019e-20)
(-0.0486142 0.273069 -6.45423e-20)
(-0.0335935 0.260723 0)
(-0.015733 0.243088 1.46891e-20)
(0.00490707 0.219688 1.41175e-20)
(0.028324 0.190256 1.35599e-20)
(0.054622 0.154856 0)
(0.0841574 0.114408 0)
(-0.00476832 0.0301098 0)
(-0.0128451 0.081732 9.3261e-20)
(-0.0199628 0.125881 -3.51499e-20)
(-0.0264442 0.162286 3.30814e-20)
(-0.0323506 0.191199 -9.34086e-20)
(-0.0376116 0.213488 0)
(-0.0420679 0.230404 -5.53911e-20)
(-0.0454779 0.243286 2.59693e-20)
(-0.0475546 0.253318 -4.92039e-20)
(-0.0479943 0.261371 2.32015e-20)
(-0.0465043 0.267952 1.33354e-19)
(-0.0427963 0.273218 -6.27006e-20)
(-0.036627 0.277038 -1.01073e-19)
(-0.0278 0.279069 -3.9748e-20)
(-0.0161345 0.278827 -1.57783e-21)
(-0.00149628 0.275748 1.41394e-19)
(0.0162017 0.269228 -6.71806e-20)
(0.036998 0.258667 -3.48816e-22)
(0.0608808 0.24349 0)
(0.087749 0.223157 -6.17212e-20)
(0.117434 0.19728 0)
(0.149748 0.165566 -5.88252e-20)
(0.184632 0.128044 2.21859e-19)
(0.22428 0.0853345 2.54314e-21)
(-0.00604798 0.0286721 0)
(-0.0155473 0.0790531 6.15811e-23)
(-0.0222254 0.12316 3.51396e-20)
(-0.0268765 0.160207 -3.29914e-20)
(-0.0298488 0.190049 3.11562e-20)
(-0.0312557 0.213218 1.75275e-19)
(-0.0311077 0.230695 -5.50189e-20)
(-0.0293144 0.243642 -5.17152e-20)
(-0.0256983 0.25316 9.79834e-20)
(-0.0200234 0.260126 -1.39802e-19)
(-0.0120277 0.265111 4.34861e-20)
(-0.00144727 0.268371 4.16595e-20)
(0.0119577 0.269873 0)
(0.0283837 0.269386 3.82781e-20)
(0.0479853 0.266526 0)
(0.070861 0.260822 7.02179e-20)
(0.0970489 0.251763 -1.3822e-19)
(0.126525 0.23884 2.88303e-20)
(0.159205 0.221568 1.25598e-19)
(0.194942 0.199509 6.16429e-20)
(0.233518 0.172304 0)
(0.274877 0.139639 -1.75598e-19)
(0.317624 0.101566 5.47479e-20)
(0.369208 0.0581248 0)
(-0.00699616 0.0260527 0)
(-0.0177943 0.0732946 -1.12031e-19)
(-0.02441 0.115802 -3.49574e-20)
(-0.0277605 0.15225 -6.58704e-20)
(-0.0282969 0.182104 6.20192e-20)
(-0.0262334 0.205548 -5.82968e-20)
(-0.0217151 0.223252 1.09442e-19)
(-0.0148005 0.236137 5.19201e-20)
(-0.00544978 0.245159 -1.45784e-19)
(0.00645866 0.25114 9.22697e-20)
(0.0210988 0.25467 -1.31089e-19)
(0.0386665 0.256077 2.8966e-19)
(0.0593503 0.255441 -1.56724e-19)
(0.0833094 0.252646 7.48741e-20)
(0.110659 0.247426 2.18638e-19)
(0.141465 0.239425 -6.64678e-20)
(0.175737 0.228238 -6.28221e-20)
(0.213436 0.21345 -6.38471e-20)
(0.254482 0.194654 0)
(0.298786 0.17148 -1.24531e-19)
(0.345992 0.143623 -1.24349e-19)
(0.397163 0.110852 1.69595e-19)
(0.447441 0.0731125 2.25238e-19)
(0.51367 0.0298721 -2.10133e-19)
(-0.00760093 0.0227968 0)
(-0.0195204 0.0655263 -1.49296e-19)
(-0.0264598 0.104984 5.03501e-22)
(-0.0291269 0.139455 1.31857e-19)
(-0.027901 0.168126 0)
(-0.0230098 0.190899 0)
(-0.014682 0.208159 0)
(-0.00310193 0.220575 -5.13381e-20)
(0.011629 0.22892 -2.71992e-22)
(0.0294946 0.233911 9.04104e-20)
(0.0505469 0.236111 -1.30637e-19)
(0.0748813 0.235883 -7.42426e-22)
(0.102611 0.233389 0)
(0.133847 0.228615 -7.48355e-20)
(0.168678 0.221409 7.22062e-20)
(0.207172 0.211524 -2.02844e-19)
(0.249387 0.198638 2.66008e-19)
(0.295344 0.182432 6.91561e-20)
(0.345043 0.162566 7.82543e-21)
(0.398685 0.138761 -2.36006e-19)
(0.45544 0.110622 -1.14399e-19)
(0.518498 0.0782401 3.94474e-19)
(0.5768 0.0410746 -2.64851e-19)
(0.660796 -0.00131024 0)
(-0.0079802 0.0194747 7.28036e-20)
(-0.0208738 0.0569492 7.47078e-20)
(-0.0284554 0.09217 -6.99502e-20)
(-0.0309798 0.123311 -1.30777e-19)
(-0.0286318 0.149468 1.23127e-19)
(-0.0215874 0.170388 -1.14571e-19)
(-0.0101063 0.186249 1.61298e-19)
(0.00554257 0.197508 -5.12116e-20)
(0.0251446 0.204754 9.47056e-20)
(0.0485637 0.208575 0)
(0.0757433 0.209474 8.4171e-20)
(0.106696 0.207806 -1.57293e-19)
(0.141488 0.203773 1.53093e-19)
(0.180226 0.19743 -1.43779e-19)
(0.223043 0.188705 0)
(0.270061 0.177425 1.33549e-19)
(0.321451 0.16338 2.59597e-19)
(0.37741 0.146315 -2.45263e-19)
(0.437957 0.125906 -1.18606e-19)
(0.50352 0.102025 -1.21792e-19)
(0.572178 0.0739825 3.36216e-19)
(0.649587 0.0428554 1.09181e-19)
(0.717005 0.0067414 -9.97717e-20)
(0.819059 -0.0325259 9.60911e-20)
(-0.00834988 0.0165863 -7.28138e-20)
(-0.0221487 0.0486873 2.23331e-19)
(-0.0305199 0.0788657 -7.02438e-20)
(-0.033165 0.105537 1.30333e-19)
(-0.0300262 0.127929 -1.22709e-19)
(-0.0211959 0.14579 1.19929e-22)
(-0.00691746 0.159201 5.34491e-20)
(0.0125154 0.168476 1.97895e-19)
(0.0368417 0.174059 -3.83884e-22)
(0.0658772 0.176419 -8.83635e-20)
(0.0995339 0.175976 0)
(0.137822 0.173053 -7.82139e-20)
(0.180841 0.167854 1.47675e-19)
(0.228756 0.16046 1.42939e-19)
(0.281786 0.150851 -6.7199e-20)
(0.340167 0.138926 -1.61501e-21)
(0.404052 0.124514 -6.3536e-20)
(0.473483 0.107398 1.1928e-19)
(0.548172 0.087293 1.18593e-19)
(0.628273 0.0643931 -1.14586e-19)
(0.710509 0.0376191 1.06367e-19)
(0.801091 0.00961931 -1.01613e-19)
(0.876354 -0.0242244 0)
(0.987768 -0.0565982 -9.60765e-20)
(-0.0089533 0.0144713 7.26916e-20)
(-0.0236333 0.0415847 -7.45977e-20)
(-0.0326255 0.0663564 6.99522e-20)
(-0.0351427 0.0878024 0)
(-0.0309106 0.105502 0)
(-0.0199296 0.119347 1.12672e-19)
(-0.00237772 0.129441 -1.06371e-19)
(0.0215088 0.136045 9.76839e-20)
(0.0515254 0.139512 -4.61315e-19)
(0.0875511 0.140221 2.69164e-23)
(0.12957 0.138521 8.08928e-20)
(0.177664 0.134687 0)
(0.231989 0.128902 -1.46653e-19)
(0.292711 0.121249 2.77641e-19)
(0.359934 0.11172 -1.98414e-19)
(0.433613 0.100233 -3.21594e-19)
(0.513453 0.0866379 -5.94788e-21)
(0.598815 0.0708299 2.28953e-19)
(0.688474 0.0525978 0)
(0.781359 0.0323617 0)
(0.873412 0.00884204 -1.06371e-19)
(0.96818 -0.0141853 1.01617e-19)
(1.04462 -0.0440314 -3.75587e-19)
(1.14612 -0.0669005 3.51689e-19)
(-0.00995869 0.0132368 0)
(-0.0254066 0.0360496 0)
(-0.0343568 0.0554844 -2.09515e-19)
(-0.03575 0.07145 6.68143e-20)
(-0.0291726 0.0840404 1.33206e-21)
(-0.0145319 0.0934161 1.14122e-19)
(0.00811312 0.0998009 0)
(0.0386667 0.103483 -9.82244e-20)
(0.0770667 0.104789 9.19774e-20)
(0.123311 0.10405 -1.70879e-19)
(0.177444 0.101558 -2.31413e-22)
(0.239501 0.0975392 1.52386e-19)
(0.309425 0.092136 1.46042e-21)
(0.386968 0.0853995 1.39619e-19)
(0.471575 0.0772984 -1.93827e-19)
(0.562293 0.0677407 0)
(0.657706 0.0565985 2.41195e-19)
(0.755913 0.0437498 -3.42401e-19)
(0.854511 0.0290662 1.07296e-19)
(0.950946 0.0127789 0)
(1.04144 -0.00591115 9.637e-20)
(1.12572 -0.0239063 3.75282e-19)
(1.19154 -0.0484538 -3.52217e-19)
(1.26318 -0.0631119 -4.01622e-19)
(-0.0113566 0.0127346 2.19101e-19)
(-0.0271571 0.0319787 -3.00755e-19)
(-0.0347607 0.0465057 1.10453e-21)
(-0.0331367 0.0572614 6.65504e-20)
(-0.0218426 0.0649373 -1.22946e-19)
(-0.000702483 0.0700364 -1.13658e-19)
(0.0303614 0.0729746 2.10265e-19)
(0.0713965 0.0741281 -2.30754e-21)
(0.122425 0.0738461 -1.83994e-19)
(0.183396 0.072437 3.42382e-19)
(0.254105 0.0701451 3.93195e-23)
(0.334076 0.0671293 -1.50891e-19)
(0.422453 0.0634507 0)
(0.51791 0.0590704 0)
(0.618606 0.0538604 -6.47716e-20)
(0.722201 0.0476237 -1.21437e-19)
(0.825937 0.0401413 -2.34823e-19)
(0.926756 0.0311556 2.20417e-19)
(1.02155 0.0205943 -1.07354e-19)
(1.10728 0.00817588 1.99159e-19)
(1.18136 -0.00578959 -9.64099e-20)
(1.24225 -0.0208178 1.74031e-19)
(1.28632 -0.0398236 -4.06255e-19)
(1.32192 -0.0511915 7.8689e-20)
(-0.0129118 0.012591 7.36825e-20)
(-0.0281319 0.0288081 0)
(-0.0323805 0.0390889 1.41768e-19)
(-0.0249819 0.0453552 -1.33549e-19)
(-0.0055943 0.0488838 1.23062e-19)
(0.025975 0.0505413 0)
(0.0698402 0.050958 0)
(0.125996 0.0506219 -9.83564e-20)
(0.194218 0.0499138 1.5376e-21)
(0.273926 0.0491085 8.6805e-20)
(0.364047 0.0483629 -8.06793e-20)
(0.462919 0.0477024 1.51321e-19)
(0.568261 0.0470171 0)
(0.677222 0.0460727 2.7031e-19)
(0.786518 0.0445383 -5.09425e-19)
(0.89264 0.0420264 3.61517e-19)
(0.992103 0.0381617 2.27903e-19)
(1.0817 0.032568 -2.13938e-19)
(1.15883 0.0251652 0)
(1.22157 0.0154083 0)
(1.26929 0.00451906 0)
(1.30201 -0.00993259 0)
(1.32129 -0.0233881 7.82973e-20)
(1.33065 -0.0387436 -2.73131e-19)
(-0.0156993 0.0975686 -8.67506e-21)
(0.0134886 0.0299987 8.74094e-21)
(0.0451235 -0.0489848 -2.77885e-22)
(0.0794086 -0.135903 0)
(0.115301 -0.227384 -7.45091e-21)
(0.151739 -0.318943 1.40016e-20)
(0.187437 -0.405024 -5.9008e-22)
(0.220426 -0.479839 -5.81304e-21)
(0.248133 -0.538681 0)
(0.26764 -0.579902 0)
(0.276022 -0.605587 -2.07663e-22)
(0.271894 -0.619737 -1.73633e-22)
(0.258374 -0.623473 -2.56728e-21)
(0.245222 -0.609866 2.34976e-21)
(0.246122 -0.56449 0)
(0.27131 -0.474184 0)
(0.321171 -0.336965 2.60976e-21)
(0.387967 -0.163802 9.5662e-23)
(0.462369 0.02647 -2.40921e-21)
(0.536644 0.209667 -1.35982e-22)
(0.604052 0.359379 0)
(0.658726 0.459575 0)
(0.696883 0.511287 0)
(0.719028 0.526033 0)
(0.72931 0.518857 0)
(0.727484 0.509507 0)
(0.70775 0.516164 3.24355e-22)
(0.671247 0.530715 -5.28104e-22)
(0.635608 0.510663 0)
(0.624335 0.409179 0)
(0.645864 0.22314 -6.95927e-22)
(0.690552 -0.00019061 6.76335e-22)
(0.743018 -0.200417 3.16273e-22)
(0.787495 -0.337739 0)
(0.81869 -0.409816 0)
(0.836422 -0.429576 2.74239e-22)
(0.83996 -0.435406 -2.66576e-22)
(0.818036 -0.446411 0)
(0.772646 -0.457981 2.35201e-22)
(0.724635 -0.414978 -3.44599e-22)
(0.700649 -0.291504 1.32756e-22)
(0.709434 -0.10688 0)
(0.74382 0.0865251 -2.51313e-22)
(0.78625 0.222339 2.44371e-22)
(0.825029 0.319481 0)
(0.830563 0.36121 0)
(0.803072 0.410181 -6.96688e-23)
(0.760485 0.385395 2.10371e-22)
(0.737582 0.298375 0)
(0.74934 0.139146 0)
(0.790653 -0.0510472 -6.48012e-23)
(0.817324 -0.153898 -5.10593e-24)
(0.825988 -0.30583 -8.16944e-24)
(0.796354 -0.320046 3.6301e-23)
(0.78652 -0.357064 0)
(0.786617 -0.255146 0)
(0.802123 -0.0587061 0)
(0.795653 0.0213763 0)
(0.802082 0.311993 0)
(0.782861 0.252142 0)
(0.117411 0.0647091 -9.03341e-22)
(0.150665 -0.00437338 -3.80836e-20)
(0.184782 -0.0847063 5.61701e-22)
(0.220484 -0.172915 3.51761e-20)
(0.256305 -0.26506 5.3132e-22)
(0.291051 -0.356345 0)
(0.323402 -0.440708 -2.51971e-20)
(0.351431 -0.511632 4.68488e-20)
(0.372789 -0.563837 -2.16348e-20)
(0.385054 -0.595156 1.5085e-20)
(0.385666 -0.607925 -1.44553e-20)
(0.372 -0.608793 1.01427e-20)
(0.343615 -0.604347 -9.86721e-21)
(0.306771 -0.593375 -2.42113e-22)
(0.275562 -0.562692 -8.03724e-21)
(0.265912 -0.493519 7.81119e-21)
(0.286046 -0.375287 -8.71783e-21)
(0.33279 -0.214036 8.22667e-21)
(0.397258 -0.0288647 -8.65274e-21)
(0.469722 0.154855 1.60005e-20)
(0.541278 0.311243 -7.38546e-21)
(0.604372 0.422797 -3.26648e-22)
(0.653412 0.487276 -4.20567e-21)
(0.68754 0.512912 7.67663e-21)
(0.708668 0.514812 -3.48842e-21)
(0.714448 0.51498 1.98184e-22)
(0.700129 0.530699 3.69864e-21)
(0.670972 0.548696 7.77648e-22)
(0.646872 0.522813 -9.00361e-21)
(0.648591 0.409169 1.05537e-20)
(0.680041 0.210563 -5.56962e-21)
(0.729686 -0.020882 7.68873e-22)
(0.782011 -0.221844 -3.16895e-22)
(0.821681 -0.354381 5.37943e-22)
(0.844931 -0.419924 0)
(0.853383 -0.433304 0)
(0.85051 -0.431193 -9.19325e-22)
(0.824836 -0.433238 6.89446e-22)
(0.776556 -0.440062 6.59445e-22)
(0.722492 -0.400952 2.3818e-22)
(0.691785 -0.288288 -1.05583e-21)
(0.696184 -0.114938 2.44169e-22)
(0.730417 0.0718872 0)
(0.77649 0.207669 0)
(0.817575 0.311686 0)
(0.826007 0.363665 0)
(0.799406 0.419709 2.80228e-22)
(0.761141 0.394746 -1.42754e-22)
(0.740707 0.300448 0)
(0.754571 0.133304 0)
(0.7972 -0.0597922 0)
(0.823974 -0.15805 -1.12166e-22)
(0.834761 -0.303353 1.66936e-23)
(0.802078 -0.315751 -8.08765e-23)
(0.792514 -0.355814 0)
(0.789156 -0.256595 0)
(0.801322 -0.059856 4.69894e-23)
(0.793356 0.0216437 1.18566e-22)
(0.797292 0.31336 0)
(0.780449 0.253211 0)
(0.260802 0.0345886 2.55487e-21)
(0.297072 -0.0349197 -7.94969e-20)
(0.332978 -0.114892 7.86725e-20)
(0.369577 -0.202309 -7.35603e-20)
(0.405128 -0.293301 -5.34824e-22)
(0.437967 -0.383023 0)
(0.466495 -0.465 -5.40054e-20)
(0.488546 -0.532191 5.28454e-20)
(0.501874 -0.578986 3.1522e-22)
(0.504995 -0.602798 5.18264e-22)
(0.496936 -0.605289 4.11659e-22)
(0.47608 -0.593197 3.39346e-22)
(0.439984 -0.576537 -1.61309e-20)
(0.389423 -0.561236 1.59219e-20)
(0.334176 -0.540084 0)
(0.292032 -0.492975 3.53206e-22)
(0.279046 -0.40039 -1.3804e-20)
(0.299899 -0.259125 1.36609e-20)
(0.348269 -0.0850613 0)
(0.413965 0.0954081 0)
(0.486221 0.256291 -1.10952e-20)
(0.555084 0.378263 1.99856e-20)
(0.613449 0.455554 -1.61217e-20)
(0.658719 0.493145 8.34696e-22)
(0.690033 0.505886 1.26002e-20)
(0.70333 0.516801 -1.30246e-20)
(0.695411 0.541433 1.34444e-20)
(0.675032 0.562276 1.07446e-21)
(0.663092 0.531336 -8.52093e-21)
(0.677346 0.408002 0)
(0.718224 0.200027 0)
(0.772179 -0.0368575 4.4708e-21)
(0.823391 -0.237962 -5.88236e-21)
(0.857627 -0.365923 2.17156e-23)
(0.872841 -0.425708 2.93514e-21)
(0.872029 -0.434069 -2.85248e-21)
(0.862707 -0.425485 0)
(0.833803 -0.419341 2.05013e-22)
(0.783695 -0.421483 1.71503e-21)
(0.724501 -0.386416 -3.49957e-21)
(0.687305 -0.285257 1.61403e-21)
(0.686951 -0.124233 1.75826e-22)
(0.720439 0.0553576 -1.98576e-21)
(0.769354 0.191177 1.54902e-21)
(0.812125 0.30263 3.00953e-22)
(0.823403 0.365163 2.78903e-22)
(0.798147 0.428426 -2.80953e-22)
(0.764639 0.403793 0)
(0.746935 0.302822 0)
(0.762582 0.128293 -1.48308e-21)
(0.805891 -0.0680154 6.89574e-22)
(0.832328 -0.161902 -5.63704e-22)
(0.845059 -0.300447 6.53921e-22)
(0.808984 -0.311094 6.14325e-22)
(0.799251 -0.354246 -1.49359e-22)
(0.792587 -0.257864 1.99685e-22)
(0.801771 -0.0606893 -1.65737e-22)
(0.792292 0.0220509 4.63181e-23)
(0.793544 0.314626 0)
(0.778982 0.254196 0)
(0.406436 0.00789592 -1.66446e-19)
(0.44517 -0.0613853 -2.97788e-22)
(0.48312 -0.140474 1.58808e-19)
(0.521107 -0.225882 -1.18934e-21)
(0.556821 -0.31443 0)
(0.588043 -0.401422 0)
(0.61274 -0.479921 -1.10461e-19)
(0.628399 -0.542578 1.31117e-20)
(0.632836 -0.583845 1.28615e-19)
(0.625269 -0.601454 -7.1246e-21)
(0.606368 -0.596897 -2.98542e-20)
(0.577095 -0.575406 -1.78475e-20)
(0.536421 -0.546448 1.79539e-20)
(0.481472 -0.520739 0)
(0.414169 -0.50019 -1.04775e-20)
(0.347734 -0.470125 9.55674e-21)
(0.302431 -0.406134 0)
(0.292678 -0.293051 0)
(0.319013 -0.138065 1.05427e-20)
(0.372613 0.0342807 -4.31052e-22)
(0.440978 0.196438 -9.20782e-21)
(0.512213 0.327006 -7.59362e-21)
(0.577721 0.416534 7.47644e-21)
(0.632605 0.466745 -6.06916e-21)
(0.673004 0.491603 -4.37463e-23)
(0.693614 0.513856 5.76572e-21)
(0.692878 0.546885 8.3231e-22)
(0.682223 0.570361 4.79319e-24)
(0.682581 0.535965 0)
(0.708855 0.406282 1.28155e-20)
(0.758654 0.192436 -1.32906e-20)
(0.816528 -0.0481201 8.16829e-22)
(0.866297 -0.249118 0)
(0.894852 -0.373053 -5.6617e-22)
(0.90216 -0.427725 6.00071e-21)
(0.892269 -0.43218 -9.66554e-21)
(0.876365 -0.418695 4.10146e-22)
(0.844504 -0.405304 4.79341e-22)
(0.793631 -0.402484 2.48369e-21)
(0.730613 -0.371025 3.61043e-22)
(0.687388 -0.281786 -3.08568e-21)
(0.681904 -0.134314 2.57576e-21)
(0.71385 0.0373069 5.88717e-23)
(0.764715 0.173069 1.23281e-21)
(0.808587 0.292282 -1.50057e-21)
(0.8227 0.36548 -1.94258e-21)
(0.799275 0.4361 5.32827e-22)
(0.770899 0.412437 1.44649e-21)
(0.756245 0.30565 -3.00259e-21)
(0.773352 0.124367 2.3283e-21)
(0.816665 -0.0755334 -5.7475e-22)
(0.842268 -0.165482 7.94249e-22)
(0.856754 -0.297163 5.73117e-22)
(0.817011 -0.306005 -9.2652e-22)
(0.806626 -0.352285 2.85914e-23)
(0.796775 -0.258972 -1.51391e-22)
(0.803389 -0.0612481 0)
(0.792406 0.0226046 -8.18555e-23)
(0.790809 0.315811 1.01479e-22)
(0.77847 0.255111 0)
(0.550657 -0.018025 1.66328e-19)
(0.590849 -0.0858399 -3.28012e-19)
(0.631478 -0.162506 1.59113e-19)
(0.671457 -0.24418 1.51392e-19)
(0.707158 -0.328543 -2.88419e-19)
(0.736156 -0.410937 1.11606e-20)
(0.756184 -0.48415 1.23465e-19)
(0.764486 -0.540991 9.28131e-20)
(0.759232 -0.576384 -9.08622e-20)
(0.740549 -0.588661 0)
(0.710246 -0.579762 -4.64903e-20)
(0.671084 -0.554022 8.04818e-20)
(0.624969 -0.517976 -3.4329e-20)
(0.569969 -0.481613 0)
(0.502167 -0.453697 0)
(0.425047 -0.430155 2.72178e-22)
(0.355156 -0.390104 -1.4142e-20)
(0.313883 -0.309558 1.37402e-20)
(0.312434 -0.182061 0)
(0.347714 -0.0247168 1.45001e-20)
(0.407267 0.133789 -2.6448e-20)
(0.477124 0.270128 2.35377e-20)
(0.54684 0.370596 -2.13648e-20)
(0.609 0.43354 -9.48806e-23)
(0.656935 0.471274 2.05575e-20)
(0.684475 0.505056 -1.06464e-20)
(0.69149 0.546037 -4.13103e-22)
(0.691104 0.57242 -8.46468e-21)
(0.703572 0.536861 -2.42492e-21)
(0.741077 0.404575 1.08072e-20)
(0.799247 0.187961 8.50898e-22)
(0.861244 -0.0545378 -1.30601e-20)
(0.909789 -0.255052 2.35877e-20)
(0.932632 -0.375515 -1.17772e-20)
(0.932286 -0.425856 0)
(0.913761 -0.427537 -5.0717e-21)
(0.891318 -0.410804 4.78549e-21)
(0.856719 -0.391462 -2.32144e-21)
(0.805972 -0.383654 2.90879e-21)
(0.740585 -0.355105 -2.66344e-22)
(0.692007 -0.277669 0)
(0.681037 -0.144711 -2.9767e-22)
(0.710515 0.0181211 9.01988e-22)
(0.762374 0.153499 0)
(0.806799 0.280511 2.5988e-21)
(0.823763 0.364334 -1.01374e-21)
(0.802662 0.442473 5.69971e-22)
(0.779737 0.42059 7.01298e-22)
(0.768457 0.308997 0)
(0.786746 0.121684 0)
(0.829432 -0.0821743 -2.12873e-21)
(0.853652 -0.16875 3.06151e-21)
(0.869694 -0.293458 -1.52104e-21)
(0.826108 -0.300383 3.94734e-22)
(0.814553 -0.349874 5.4064e-22)
(0.801582 -0.259961 1.51534e-22)
(0.806079 -0.0615835 -1.80005e-22)
(0.793627 0.0233123 0)
(0.789047 0.316935 -1.6243e-22)
(0.778917 0.255962 -1.80339e-23)
(0.696461 -0.0461631 1.63673e-19)
(0.736513 -0.110608 -1.63136e-19)
(0.778867 -0.182254 1.25641e-21)
(0.819368 -0.257904 -1.15382e-21)
(0.853081 -0.335958 1.1313e-21)
(0.877678 -0.411567 -1.03261e-21)
(0.890914 -0.47762 1.75772e-21)
(0.890163 -0.527667 0)
(0.874339 -0.557367 -1.26095e-21)
(0.844728 -0.565425 1.01747e-21)
(0.804195 -0.553954 7.95959e-22)
(0.756149 -0.527217 -6.20946e-22)
(0.703886 -0.489824 0)
(0.648393 -0.447879 0)
(0.585644 -0.410567 2.2179e-22)
(0.511052 -0.383175 0)
(0.430522 -0.355708 -1.13428e-22)
(0.363677 -0.304504 0)
(0.331541 -0.210565 -8.67867e-21)
(0.341654 -0.0771427 1.6949e-20)
(0.386287 0.0711664 -1.64267e-20)
(0.450561 0.20921 7.92069e-21)
(0.520962 0.318468 7.34883e-21)
(0.587509 0.393688 -7.13639e-21)
(0.641133 0.444556 -9.30035e-21)
(0.675033 0.48977 9.08081e-21)
(0.690082 0.53838 0)
(0.700171 0.568325 4.42855e-22)
(0.724247 0.534171 0)
(0.771924 0.402966 0)
(0.838054 0.186683 2.63696e-20)
(0.904853 -0.0561072 -2.72408e-20)
(0.952901 -0.255826 1.52161e-21)
(0.970299 -0.373492 1.20152e-21)
(0.962691 -0.420388 -8.78716e-22)
(0.936164 -0.420294 -4.40973e-21)
(0.90732 -0.401882 4.28193e-21)
(0.870103 -0.378046 -2.82631e-21)
(0.82017 -0.365384 2.40374e-21)
(0.753891 -0.338836 4.96112e-22)
(0.700899 -0.27268 -2.16138e-21)
(0.684208 -0.154873 -2.34313e-22)
(0.710183 -0.00174874 1.51389e-21)
(0.762051 0.132582 0)
(0.80654 0.267151 -9.26721e-22)
(0.826376 0.361424 1.62394e-21)
(0.808083 0.447295 -2.06692e-21)
(0.79083 0.428128 -7.05791e-22)
(0.783251 0.312906 0)
(0.802535 0.120381 8.10885e-22)
(0.844057 -0.0877422 -1.7161e-21)
(0.866319 -0.171645 2.23056e-23)
(0.883685 -0.289328 -4.80363e-22)
(0.83622 -0.294148 5.29976e-22)
(0.822971 -0.34692 -5.24893e-22)
(0.806868 -0.260864 0)
(0.809728 -0.061759 1.80088e-22)
(0.795875 0.0241773 0)
(0.788218 0.318004 0)
(0.780323 0.256747 2.79564e-23)
(0.850225 -0.0742219 -1.58981e-19)
(0.8863 -0.133608 1.57367e-19)
(0.926207 -0.197849 -1.15138e-21)
(0.962867 -0.265257 1.18121e-21)
(0.990468 -0.334988 0)