/*--------------------------------*- C++ -*----------------------------------*\
| =========                 |                                                 |
| \\      /  F ield         | OpenFOAM: The Open Source CFD Toolbox           |
|  \\    /   O peration     | Version:  2512                                  |
|   \\  /    A nd           | Website:  www.openfoam.com                      |
|    \\/     M anipulation  |                                                 |
\*---------------------------------------------------------------------------*/
FoamFile
{
    version     2.0;
    format      ascii;
    arch        "LSB;label=32;scalar=64";
    class       volVectorField;
    location    "167.25";
    object      U;
}
// * * * * * * * * * * * * * * * * * * * * * * * * * * * * * * * * * * * * * //

dimensions      [0 1 -1 0 0 0 0];

internalField   nonuniform List<vector> 
13248
(
(-0.0142516 0.0128385 9.0332e-20)
(-0.0255828 0.0269442 0)
(-0.0195344 0.0344585 -1.7038e-19)
(0.00354237 0.0374854 1.60494e-19)
(0.0433937 0.0375361 1.49927e-19)
(0.0997137 0.0357245 0)
(0.171947 0.0328719 0)
(0.259073 0.0295857 3.61895e-19)
(0.359369 0.0262856 -6.44349e-22)
(0.470237 0.023199 -3.18111e-19)
(0.58817 0.0203574 2.9868e-19)
(0.708893 0.017611 -1.87004e-19)
(0.827674 0.0146686 0)
(0.939753 0.0111617 -3.29375e-19)
(1.04081 0.00672108 6.1664e-19)
(1.12739 0.00105293 -1.47611e-19)
(1.19727 -0.00600005 -2.63666e-19)
(1.24958 -0.0144388 2.47549e-19)
(1.28489 -0.024056 0)
(1.30485 -0.0347637 0)
(1.31218 -0.0455067 0)
(1.309 -0.0587857 0)
(1.29928 -0.0661287 7.09674e-20)
(1.28122 -0.0928943 2.48993e-19)
(-0.0139962 0.011313 -2.72696e-19)
(-0.0195211 0.0209433 1.8577e-19)
(-0.00320021 0.0242346 -1.78792e-21)
(0.0338394 0.0238189 -2.45267e-19)
(0.0908478 0.0215721 -1.49764e-19)
(0.166923 0.0188514 -1.41887e-19)
(0.26055 0.0165727 -2.60571e-19)
(0.369262 0.0152924 2.46768e-19)
(0.489444 0.0152395 0)
(0.616374 0.0163265 5.2521e-22)
(0.74454 0.0181821 1.15456e-21)
(0.868167 0.0202248 1.8654e-19)
(0.981854 0.0217722 0)
(1.08117 0.0221673 0)
(1.16309 0.0208948 2.23107e-19)
(1.22627 0.0176636 -4.1951e-19)
(1.271 0.0124394 2.50378e-19)
(1.299 0.00542768 -2.35089e-19)
(1.31295 -0.00299612 -1.02516e-19)
(1.31602 -0.0123396 -1.86874e-19)
(1.31119 -0.0220999 -7.55429e-20)
(1.30115 -0.0319426 -1.41842e-19)
(1.28761 -0.0397934 2.10112e-19)
(1.27207 -0.0518439 5.88143e-20)
(-0.0124423 0.00928484 0)
(-0.00913056 0.0144167 0)
(0.0210965 0.0143867 8.68017e-20)
(0.0760394 0.0119734 7.99195e-20)
(0.153989 0.00922047 -1.91851e-21)
(0.252774 0.00759421 -1.47044e-19)
(0.369073 0.0079428 0)
(0.498128 0.0105572 -1.22807e-19)
(0.633846 0.0152253 1.15926e-19)
(0.769327 0.0213076 7.93331e-22)
(0.897662 0.0278717 -1.99115e-19)
(1.01282 0.0338773 -1.83493e-19)
(1.11036 0.0383728 2.79724e-21)
(1.18787 0.0406577 -1.53013e-19)
(1.24502 0.0403781 3.66862e-19)
(1.2833 0.0375403 0)
(1.30552 0.0324538 -2.38308e-19)
(1.31512 0.0256198 1.16393e-19)
(1.3156 0.0176436 1.02441e-19)
(1.30991 0.00903299 0)
(1.30043 0.000522739 8.31753e-20)
(1.28849 -0.00823522 -2.80849e-19)
(1.27537 -0.0145234 2.63651e-19)
(1.26108 -0.0258698 1.615e-19)
(-0.0090693 0.00667416 -9.63799e-20)
(0.00673121 0.0072798 -9.96809e-20)
(0.0546648 0.00495027 9.01407e-20)
(0.13112 0.00220509 0)
(0.232794 0.00098418 0)
(0.355394 0.0026098 -3.43036e-21)
(0.492908 0.00755808 0)
(0.637708 0.0155204 -3.76787e-19)
(0.78129 0.0255578 3.50359e-19)
(0.915422 0.0363323 -4.3288e-19)
(1.03333 0.0464011 9.95132e-20)
(1.13054 0.0545066 0)
(1.20527 0.05979 1.66055e-19)
(1.25821 0.0618855 -3.07694e-19)
(1.29196 0.0608923 7.34171e-20)
(1.31021 0.0572563 1.8841e-19)
(1.31697 0.0516094 -8.38946e-21)
(1.31583 0.0446244 -2.08527e-19)
(1.30966 0.0368979 0)
(1.30048 0.0289306 0)
(1.28955 0.0210942 -7.41529e-20)
(1.27761 0.0134947 6.62605e-20)
(1.26518 0.00743339 2.36117e-19)
(1.25228 -0.00201855 -2.21722e-19)
(-0.0034353 0.00360768 -1.01522e-19)
(0.029009 -8.24926e-05 -1.01329e-19)
(0.0984175 -0.00342369 2.84912e-19)
(0.199311 -0.00457294 -1.73178e-19)
(0.325995 -0.00205893 1.62998e-19)
(0.471134 0.00490324 2.96549e-19)
(0.625407 0.0159911 -2.09744e-19)
(0.778412 0.0299415 -2.55485e-19)
(0.92024 0.0449341 4.99931e-21)
(1.04306 0.0590455 3.2707e-19)
(1.14217 0.0706659 0)
(1.21626 0.0787724 8.99939e-20)
(1.26694 0.0830104 0)
(1.29781 0.0836033 -1.47391e-19)
(1.31336 0.0811575 2.075e-19)
(1.31804 0.0764429 2.30222e-21)
(1.31559 0.0702158 -5.43612e-20)
(1.30881 0.0631118 1.02323e-19)
(1.29958 0.0556174 8.77948e-20)
(1.28902 0.0480716 -7.86865e-20)
(1.2778 0.0407372 7.41361e-20)
(1.26624 0.033667 -6.62443e-20)
(1.25457 0.0276056 0)
(1.24277 0.0192317 -4.98131e-20)
(0.00483723 0.000359457 1.01507e-19)
(0.0583807 -0.00688279 1.06582e-19)
(0.152718 -0.0095296 -9.55001e-20)
(0.279887 -0.00689563 1.78316e-19)
(0.430908 0.00153199 -1.67825e-19)
(0.594698 0.0154785 1.52073e-19)
(0.758667 0.0333783 -7.30122e-20)
(0.910719 0.0528249 1.91752e-19)
(1.04143 0.0712737 -1.20554e-19)
(1.14542 0.0866512 2.13449e-19)
(1.22157 0.0977132 -4.92492e-19)
(1.27226 0.104106 1.80745e-19)
(1.30199 0.106195 -1.58614e-19)
(1.31604 0.104774 1.48994e-19)
(1.31934 0.100777 1.28912e-19)
(1.3159 0.0950709 1.13385e-19)
(1.30856 0.0883517 -3.15119e-19)
(1.29915 0.0811242 1.95693e-19)
(1.28875 0.0737325 -8.77993e-20)
(1.27791 0.0664105 2.28582e-19)
(1.26693 0.0593104 -7.38243e-20)
(1.25593 0.0525332 -1.79037e-19)
(1.24496 0.0464187 1.65188e-19)
(1.23397 0.038886 4.97991e-20)
(0.0160357 -0.00265119 0)
(0.0951678 -0.0120067 9.64994e-22)
(0.217195 -0.0118137 1.9989e-19)
(0.370957 -0.00309246 -1.87421e-19)
(0.543416 0.013087 -1.69457e-19)
(0.719626 0.0348365 3.15e-19)
(0.88475 0.0590887 -1.46315e-19)
(1.02698 0.082466 1.94935e-19)
(1.13953 0.102216 -4.29409e-21)
(1.22101 0.116728 -1.10395e-19)
(1.27427 0.12559 2.40992e-19)
(1.30468 0.129306 -3.55557e-19)
(1.31836 0.12889 0)
(1.3209 0.125487 -6.98888e-20)
(1.31666 0.120122 -1.87021e-19)
(1.30869 0.113589 5.87476e-20)
(1.29887 0.10644 2.35081e-21)
(1.28829 0.0990416 -1.29643e-19)
(1.27747 0.0916249 8.05788e-21)
(1.26666 0.08434 1.49961e-19)
(1.25596 0.0772904 -6.69138e-20)
(1.24539 0.0705609 -2.53271e-20)
(1.23494 0.0642296 7.83881e-20)
(1.22456 0.0572138 0)
(0.0303028 -0.00494597 0)
(0.139194 -0.0142271 5.41644e-20)
(0.29058 -0.00867435 -2.60188e-19)
(0.469421 0.00830819 9.48713e-20)
(0.65831 0.0333922 -8.92857e-20)
(0.839243 0.0626933 -8.15685e-20)
(0.997099 0.091775 -1.44266e-19)
(1.12266 0.116863 7.19812e-20)
(1.21342 0.135701 6.2678e-20)
(1.27235 0.147663 0)
(1.30559 0.153359 1.42716e-19)
(1.32021 0.154061 -2.12398e-19)
(1.32265 0.151191 1.58217e-19)
(1.31787 0.146001 6.99272e-20)
(1.30926 0.139439 -5.74203e-20)
(1.29891 0.132147 -4.82025e-20)
(1.28793 0.124532 -4.5073e-20)
(1.2769 0.116842 1.34524e-19)
(1.26603 0.109229 0)
(1.25542 0.101793 6.77612e-20)
(1.24506 0.0946117 5.70463e-20)
(1.23494 0.0877439 -1.41578e-19)
(1.22499 0.081162 -9.67945e-20)
(1.21515 0.0744873 8.95304e-20)
(0.0476339 -0.00600178 -5.80574e-20)
(0.189733 -0.0123008 -2.07667e-21)
(0.3707 0.00130015 5.29342e-20)
(0.571227 0.0282727 1.48037e-19)
(0.770013 0.0624761 4.30719e-20)
(0.947778 0.0980339 -8.31732e-20)
(1.09153 0.129727 7.60443e-20)
(1.19649 0.154193 -6.67115e-20)
(1.26503 0.170292 1.19409e-19)
(1.30384 0.178632 5.0941e-20)
(1.32109 0.180765 -1.44452e-19)
(1.32431 0.17848 4.26593e-20)
(1.31934 0.173352 7.29815e-20)
(1.31015 0.166565 -3.58613e-20)
(1.29914 0.158904 0)
(1.28759 0.150852 5.38174e-20)
(1.27611 0.142688 9.1327e-20)
(1.26494 0.134575 1.57927e-20)
(1.25418 0.126614 -7.62699e-20)
(1.2438 0.118875 3.20438e-20)
(1.23377 0.111413 0)
(1.22403 0.104253 -2.52504e-20)
(1.21452 0.0973467 -2.38144e-20)
(1.20513 0.0907575 0)
(0.067795 -0.00528162 0)
(0.245448 -0.00510582 3.0385e-20)
(0.45459 0.0191303 5.63503e-20)
(0.671831 0.0571007 -1.50718e-19)
(0.873396 0.0996414 4.86044e-20)
(1.04114 0.13939 0)
(1.16636 0.171252 7.31461e-20)
(1.24964 0.193057 -1.02087e-19)
(1.29776 0.205145 -5.95764e-20)
(1.32001 0.209323 2.69631e-20)
(1.32531 0.207845 -4.31987e-20)
(1.32075 0.202743 1.04871e-19)
(1.31115 0.19555 5.27259e-20)
(1.29944 0.187278 -3.65488e-20)
(1.28717 0.178532 -3.33912e-21)
(1.27508 0.16965 -1.00953e-19)
(1.26345 0.160817 4.60267e-20)
(1.25235 0.152139 -1.09645e-21)
(1.24179 0.143683 0)
(1.23171 0.1355 -3.20771e-20)
(1.22204 0.127624 0)
(1.21271 0.120053 7.29291e-20)
(1.20364 0.112792 -8.69515e-20)
(1.1947 0.106106 3.96636e-20)
(0.0902951 -0.00228129 -1.57542e-20)
(0.304426 0.00824064 -7.65853e-20)
(0.538748 0.0453197 8.70671e-20)
(0.766745 0.0944129 5.13001e-20)
(0.964374 0.14365 -2.45309e-20)
(1.11707 0.18514 4.11764e-20)
(1.22181 0.214897 -2.00177e-20)
(1.28445 0.232493 3.33355e-20)
(1.31516 0.239823 0)
(1.32456 0.239679 7.57261e-20)
(1.32139 0.234721 -3.02332e-21)
(1.31177 0.227 -6.1292e-20)
(1.29943 0.217877 2.63479e-20)
(1.28637 0.20816 -2.98618e-20)
(1.27352 0.198284 -1.14883e-20)
(1.26127 0.188477 1.31224e-20)
(1.24969 0.178856 -1.02435e-20)
(1.23879 0.169489 -5.55937e-20)
(1.22851 0.160419 3.41106e-20)
(1.21877 0.151682 7.0435e-21)
(1.20949 0.143287 6.22192e-21)
(1.20058 0.135222 5.49743e-21)
(1.19194 0.12757 0)
(1.18343 0.120567 0)
(0.114464 0.00343705 1.57651e-20)
(0.364443 0.0283062 -1.58204e-20)
(0.619638 0.0798091 -2.90083e-20)
(0.852143 0.139251 0)
(1.04022 0.19297 -1.21673e-20)
(1.17485 0.233748 -1.09274e-20)
(1.25911 0.259535 -1.87394e-20)
(1.30338 0.2719 0)
(1.32002 0.27414 0)
(1.31993 0.269733 0)
(1.31104 0.261482 0)
(1.29831 0.251294 0)
(1.28447 0.240303 -1.66064e-20)
(1.2708 0.229117 7.57586e-21)
(1.25782 0.218033 1.32132e-20)
(1.24566 0.207193 6.17254e-21)
(1.23432 0.196668 1.53922e-20)
(1.22374 0.186497 0)
(1.21384 0.176707 -3.7348e-21)
(1.20453 0.167317 -3.54824e-21)
(1.19572 0.158318 -6.2318e-21)
(1.1873 0.149706 -5.50618e-21)
(1.17916 0.141642 0)
(1.17116 0.134166 4.00407e-21)
(-0.00215353 0.0498398 9.68927e-21)
(-0.0071798 0.12065 -1.00051e-20)
(-0.0149258 0.169861 -1.88863e-20)
(-0.0247025 0.201935 0)
(-0.0358283 0.221013 -2.51627e-20)
(-0.0477386 0.23085 7.84614e-21)
(-0.0599072 0.234533 -1.5065e-20)
(-0.0718854 0.234311 0)
(-0.0833241 0.23159 0)
(-0.0939615 0.227046 0)
(-0.103601 0.22081 0)
(-0.112086 0.212648 0)
(-0.119287 0.202128 -1.4727e-22)
(-0.12508 0.188734 -1.04047e-20)
(-0.129347 0.171945 2.05369e-20)
(-0.131972 0.151287 2.92693e-20)
(-0.13284 0.126369 9.755e-21)
(-0.131842 0.0969128 0)
(-0.128895 0.0627919 8.27179e-21)
(-0.123947 0.0240514 -2.40024e-20)
(-0.116917 -0.0190269 -1.53599e-20)
(-0.107639 -0.0658504 -1.44534e-20)
(-0.0961834 -0.115477 0)
(-0.0827051 -0.166536 0)
(-0.00484024 0.0506737 -2.93154e-20)
(-0.0123602 0.124089 5.02521e-20)
(-0.0195513 0.176284 -1.92949e-20)
(-0.0270092 0.21116 -3.60565e-20)
(-0.0347942 0.232501 5.07617e-20)
(-0.042734 0.243899 -3.22567e-20)
(-0.0505326 0.248422 4.5398e-20)
(-0.0578521 0.248392 2.92091e-20)
(-0.0643662 0.245328 0)
(-0.0697868 0.240027 -2.62734e-20)
(-0.0738722 0.232714 -8.13994e-22)
(-0.0764257 0.223231 2.31371e-20)
(-0.077288 0.211187 3.44434e-20)
(-0.0763312 0.196092 4.43031e-20)
(-0.0734511 0.177436 -1.9618e-20)
(-0.0685655 0.154753 -5.95257e-20)
(-0.0616145 0.127654 2.0294e-20)
(-0.0525598 0.0958626 -7.46001e-20)
(-0.0413966 0.0592484 0)
(-0.0281376 0.0178724 1.62099e-20)
(-0.0127861 -0.0279636 1.53336e-20)
(0.00472692 -0.0776265 1.44284e-20)
(0.0243442 -0.130053 0)
(0.0467942 -0.183231 0)
(-0.00737576 0.0494044 0)
(-0.0174154 0.122897 1.035e-19)
(-0.0241491 0.176753 -3.89529e-20)
(-0.0292481 0.213889 3.64851e-20)
(-0.033423 0.23743 -1.04096e-19)
(-0.0368804 0.250571 0)
(-0.0395795 0.256198 -6.23731e-20)
(-0.0413342 0.256605 2.94867e-20)
(-0.041884 0.25338 -5.65618e-20)
(-0.04095 0.247437 2.75225e-20)
(-0.0382713 0.239129 1.55133e-19)
(-0.03363 0.228406 -7.30112e-20)
(-0.0268529 0.21497 -1.18554e-19)
(-0.0178151 0.198398 -4.79372e-20)
(-0.00643401 0.178232 -2.13148e-21)
(0.00733876 0.154041 1.67809e-19)
(0.0235061 0.125465 -7.97446e-20)
(0.0420403 0.0922455 -1.43922e-21)
(0.0628771 0.054258 0)
(0.0858785 0.0115533 -7.20485e-20)
(0.110972 -0.0355854 0)
(0.13806 -0.0866136 -6.26511e-20)
(0.167037 -0.140483 2.38265e-19)
(0.200492 -0.195004 -1.42267e-21)
(-0.00949055 0.0462673 0)
(-0.0218559 0.117325 6.92515e-22)
(-0.0283238 0.171274 3.98478e-20)
(-0.0312805 0.209797 -3.76259e-20)
(-0.0319177 0.235163 3.46853e-20)
(-0.0307638 0.250001 1.99707e-19)
(-0.0280355 0.256861 -6.27107e-20)
(-0.0237324 0.257898 -6.00228e-20)
(-0.0177096 0.254707 1.13665e-19)
(-0.00974986 0.24829 -1.63675e-19)
(0.000379395 0.239131 5.15038e-20)
(0.0128887 0.227317 5.01219e-20)
(0.0279457 0.212672 0)
(0.0456656 0.194871 4.57396e-20)
(0.0661126 0.173536 0)
(0.0893071 0.148293 8.62632e-20)
(0.115221 0.118817 -1.67515e-19)
(0.143799 0.0848611 3.55763e-20)
(0.174952 0.0463293 1.51098e-19)
(0.208558 0.00327213 7.19554e-20)
(0.244403 -0.0440245 0)
(0.282434 -0.0950725 -1.95535e-19)
(0.321082 -0.148892 6.14062e-20)
(0.368412 -0.202981 0)
(-0.0110116 0.0417168 0)
(-0.0253281 0.108103 -1.27615e-19)
(-0.0317827 0.16044 -4.00848e-20)
(-0.0330329 0.199151 -7.54357e-20)
(-0.0305251 0.2256 7.10245e-20)
(-0.0250149 0.241764 -6.67249e-20)
(-0.0169488 0.249758 1.27489e-19)
(-0.00653007 0.251495 6.12786e-20)
(0.00622812 0.248493 -1.71061e-19)
(0.0214314 0.241795 1.10456e-19)
(0.0392399 0.231991 -1.57312e-19)
(0.0598211 0.2193 3.53213e-19)
(0.0833205 0.20368 -1.91065e-19)
(0.109846 0.184923 9.29552e-20)
(0.139467 0.162738 2.7149e-19)
(0.172217 0.136815 -8.16143e-20)
(0.208077 0.106868 -7.89799e-20)
(0.247034 0.0727144 -7.85226e-20)
(0.289035 0.0342578 0)
(0.333954 -0.00843673 -1.47943e-19)
(0.381306 -0.0550967 -1.41115e-19)
(0.43178 -0.104948 1.9742e-19)
(0.479904 -0.157677 2.44496e-19)
(0.543506 -0.20915 -2.28818e-19)
(-0.011899 0.0363435 0)
(-0.0276879 0.0963236 -1.72735e-19)
(-0.0343819 0.145362 1.78126e-23)
(-0.0344726 0.182814 1.52316e-19)
(-0.0294244 0.209246 0)
(-0.0201046 0.226002 0)
(-0.00713372 0.23472 0)
(0.00909405 0.237006 -6.10655e-20)
(0.0283916 0.234228 -1.44907e-21)
(0.0507249 0.2274 1.08578e-19)
(0.0761551 0.21717 -1.59435e-19)
(0.104793 0.203859 -1.69323e-21)
(0.136765 0.187537 0)
(0.172196 0.168105 -9.29026e-20)
(0.211197 0.145356 9.15029e-20)
(0.253867 0.119059 -2.55495e-19)
(0.300296 0.088998 3.33222e-19)
(0.350498 0.055015 8.4555e-20)
(0.404325 0.0170352 5.50133e-21)
(0.461684 -0.0247348 -2.88888e-19)
(0.521305 -0.0700947 -1.36127e-19)
(0.585241 -0.117412 4.51261e-19)
(0.642028 -0.168004 -3.00184e-19)
(0.72111 -0.214526 0)
(-0.0122563 0.0307854 8.52605e-20)
(-0.029028 0.0832812 8.66311e-20)
(-0.0361387 0.127529 -8.17342e-20)
(-0.0355676 0.162184 -1.52737e-19)
(-0.0286003 0.187239 1.43798e-19)
(-0.0161046 0.203521 -1.35172e-19)
(0.00120123 0.212225 1.9072e-19)
(0.0227806 0.214632 -6.11024e-20)
(0.0482997 0.211905 1.13652e-19)
(0.0776021 0.204972 0)
(0.110668 0.194477 1.05245e-19)
(0.147574 0.18079 -1.95565e-19)
(0.188475 0.164051 1.92824e-19)
(0.233542 0.14425 -1.81093e-19)
(0.282975 0.121281 0)
(0.336954 0.0949794 1.69463e-19)
(0.395536 0.065184 3.28241e-19)
(0.458639 0.031812 -3.09624e-19)
(0.525823 -0.00507415 -1.47358e-19)
(0.596689 -0.0449645 -1.45409e-19)
(0.668654 -0.0879155 4.03687e-19)
(0.744733 -0.130856 1.22089e-19)
(0.808043 -0.177713 -1.15678e-19)
(0.896332 -0.216278 1.02829e-19)
(-0.0123059 0.0256266 -8.52724e-20)
(-0.0296346 0.0702591 2.62149e-19)
(-0.0371684 0.108577 -8.26695e-20)
(-0.0361823 0.139006 1.53209e-19)
(-0.0276614 0.161259 -1.44242e-19)
(-0.012386 0.175823 -2.84505e-23)
(0.00891529 0.183544 6.34194e-20)
(0.0356483 0.185409 2.39576e-19)
(0.0674116 0.182365 1.8816e-21)
(0.104001 0.175209 -1.07042e-19)
(0.145387 0.164527 0)
(0.19166 0.150686 -9.91677e-20)
(0.243023 0.133886 1.85788e-19)
(0.299731 0.114181 1.82148e-19)
(0.361941 0.0915179 -8.54401e-20)
(0.429665 0.0658065 -1.88316e-21)
(0.502667 0.0370233 -8.06381e-20)
(0.580332 0.00528086 1.49971e-19)
(0.661416 -0.0292166 1.47328e-19)
(0.744639 -0.0655837 -1.39713e-19)
(0.826166 -0.104193 1.25726e-19)
(0.908343 -0.140601 -1.16487e-19)
(0.973069 -0.181666 0)
(1.05774 -0.209617 -1.02817e-19)
(-0.012327 0.0213032 8.58967e-20)
(-0.0298581 0.0583148 -8.7727e-20)
(-0.0375217 0.0900245 8.25615e-20)
(-0.0358811 0.115114 0)
(-0.0255849 0.133323 0)
(-0.00726517 0.144996 1.34758e-19)
(0.018433 0.150762 -1.26789e-19)
(0.0509701 0.151379 1.19198e-19)
(0.0899911 0.147604 -5.6203e-19)
(0.135339 0.140092 -9.60653e-22)
(0.187031 0.129353 1.00649e-19)
(0.245204 0.115743 0)
(0.309986 0.0994646 -1.86332e-19)
(0.381386 0.080591 3.53505e-19)
(0.459191 0.0591587 -2.53231e-19)
(0.542779 0.0352251 -4.0932e-19)
(0.631005 0.00891308 -4.91984e-21)
(0.72215 -0.0195028 2.8769e-19)
(0.813804 -0.0496781 0)
(0.903426 -0.0805846 0)
(0.986738 -0.112679 -1.25733e-19)
(1.06409 -0.141216 1.16497e-19)
(1.12155 -0.17476 -4.06036e-19)
(1.18699 -0.191816 3.80349e-19)
(-0.0125586 0.0180277 0)
(-0.0299143 0.0481002 0)
(-0.0369498 0.0730205 -2.47621e-19)
(-0.0336838 0.0921419 7.88679e-20)
(-0.0204656 0.105494 1.09724e-21)
(0.00225873 0.113461 1.35853e-19)
(0.0340129 0.116589 0)
(0.0744127 0.115501 -1.18644e-19)
(0.123226 0.110813 1.12098e-19)
(0.180355 0.10307 -2.11448e-19)
(0.24576 0.0927025 -1.15052e-21)
(0.319328 0.0800213 1.91996e-19)
(0.40072 0.0652148 2.90675e-21)
(0.489192 0.0484175 1.77875e-19)
(0.583479 0.0297352 -2.46653e-19)
(0.681701 0.00929103 0)
(0.78137 -0.0127227 3.01305e-19)
(0.879472 -0.036013 -4.27584e-19)
(0.972666 -0.0601728 1.29949e-19)
(1.05765 -0.0844797 0)
(1.13091 -0.109004 1.11361e-19)
(1.1915 -0.13035 4.16829e-19)
(1.23229 -0.156029 -3.91248e-19)
(1.26882 -0.165246 -4.18558e-19)
(-0.0130899 0.0157478 2.60067e-19)
(-0.0296801 0.0397584 -3.56599e-19)
(-0.0347028 0.0581715 1.31604e-21)
(-0.0279278 0.0712751 7.88785e-20)
(-0.00949743 0.0795646 -1.46018e-19)
(0.0203306 0.0836082 -1.35434e-19)
(0.0612724 0.0839848 2.52984e-19)
(0.113087 0.08127 -7.69049e-22)
(0.17556 0.076 -2.23127e-19)
(0.2484 0.0686332 4.21658e-19)
(0.331087 0.0595257 2.15727e-21)
(0.422692 0.0489291 -1.87839e-19)
(0.521727 0.0369998 0)
(0.626052 0.0238302 0)
(0.732884 0.00947899 -8.19473e-20)
(0.838907 -0.00599277 -1.51046e-19)
(0.940492 -0.0224704 -2.89427e-19)
(1.03397 -0.0398071 2.71687e-19)
(1.11606 -0.0576466 -1.30032e-19)
(1.18404 -0.0758161 2.3167e-19)
(1.2364 -0.0936448 -1.16881e-19)
(1.27292 -0.110371 1.86689e-19)
(1.29261 -0.129178 -4.47107e-19)
(1.30293 -0.135852 8.31575e-20)
(-0.0137774 0.0141643 8.75223e-20)
(-0.0285713 0.0329375 0)
(-0.0294767 0.0454898 1.68026e-19)
(-0.0163741 0.0530988 -1.5828e-19)
(0.0106563 0.0567911 1.46156e-19)
(0.0514618 0.0573987 0)
(0.10582 0.0556089 0)
(0.173382 0.0520065 -1.19321e-19)
(0.253536 0.0470777 1.4668e-22)
(0.345216 0.0411962 1.05181e-19)
(0.446731 0.034608 -9.97864e-20)
(0.555648 0.0274308 1.87142e-19)
(0.668804 0.0196678 0)
(0.782444 0.0112377 3.3642e-19)
(0.892472 0.00201772 -6.32598e-19)
(0.994799 -0.00811011 4.48529e-19)
(1.08572 -0.0192005 2.76787e-19)
(1.16229 -0.031258 -2.59846e-19)
(1.22266 -0.0440404 0)
(1.2661 -0.0576786 0)
(1.2936 -0.0709424 0)
(1.30647 -0.0857676 0)
(1.30816 -0.0983576 8.5143e-20)
(1.30258 -0.109681 -2.86165e-19)
(-0.0664457 -0.225197 -8.09358e-21)
(-0.0523604 -0.297444 8.16033e-21)
(-0.0370696 -0.369559 -2.4052e-22)
(-0.0222202 -0.437319 0)
(-0.00903865 -0.497496 -5.67579e-21)
(0.00176915 -0.547374 1.05191e-20)
(0.0105581 -0.584231 -4.48717e-22)
(0.0197232 -0.604855 -4.2903e-21)
(0.0333598 -0.604784 0)
(0.0564772 -0.577964 0)
(0.0935588 -0.518661 -1.98079e-22)
(0.146164 -0.4249 -1.96719e-22)
(0.211691 -0.299452 -3.73907e-21)
(0.284692 -0.14953 3.44031e-21)
(0.360229 0.0152649 0)
(0.434929 0.182276 0)
(0.505515 0.333453 2.53292e-21)
(0.567472 0.450178 -4.05856e-22)
(0.61622 0.522931 -1.89195e-21)
(0.649308 0.554927 -8.4778e-23)
(0.668212 0.556808 0)
(0.675183 0.543902 0)
(0.667587 0.535753 0)
(0.642207 0.542964 0)
(0.60676 0.547325 0)
(0.582411 0.504048 0)
(0.588111 0.378097 6.16996e-22)
(0.624928 0.177904 -1.01567e-21)
(0.679597 -0.0462926 0)
(0.737263 -0.23926 0)
(0.784479 -0.368805 -5.23579e-22)
(0.815099 -0.435894 5.0885e-22)
(0.830857 -0.454722 1.76034e-22)
(0.835189 -0.451188 0)
(0.821991 -0.454064 0)
(0.784978 -0.46896 2.60316e-22)
(0.735588 -0.461489 -2.5305e-22)
(0.699377 -0.376265 0)
(0.6932 -0.21379 3.54613e-22)
(0.716929 -0.00786551 -5.08822e-22)
(0.755154 0.164737 1.43652e-22)
(0.798928 0.288 0)
(0.831341 0.35128 -1.84546e-22)
(0.834332 0.393996 1.79452e-22)
(0.804289 0.424197 0)
(0.759731 0.399251 0)
(0.733603 0.316019 -9.16185e-23)
(0.743972 0.126247 2.83096e-22)
(0.776784 -0.0294167 0)
(0.818725 -0.189127 0)
(0.831502 -0.274582 -5.3933e-23)
(0.809963 -0.337387 3.8705e-25)
(0.786095 -0.378686 -4.4358e-24)
(0.77572 -0.256369 3.23724e-23)
(0.792477 -0.189444 0)
(0.80804 0.0484861 0)
(0.808331 0.170889 0)
(0.796807 0.272239 0)
(0.798272 0.392206 0)
(0.7852 0.135807 0)
(0.0697016 -0.242629 -8.85447e-22)
(0.0852571 -0.314316 -3.41603e-20)
(0.100694 -0.385685 2.4578e-21)
(0.113895 -0.451309 2.96917e-20)
(0.122618 -0.507839 4.06166e-22)
(0.125246 -0.553305 0)
(0.120931 -0.586526 -1.7602e-20)
(0.11061 -0.606441 3.2836e-20)
(0.0979723 -0.610871 -1.52179e-20)
(0.0896757 -0.594414 1.24057e-20)
(0.0935342 -0.549638 -1.18602e-20)
(0.115322 -0.470283 1.16088e-20)
(0.156671 -0.355526 -1.12068e-20)
(0.213673 -0.211323 -3.23702e-22)
(0.281001 -0.0485635 -1.11876e-20)
(0.353881 0.119263 1.0872e-20)
(0.42765 0.275195 -8.7368e-21)
(0.497107 0.40113 8.2667e-21)
(0.556664 0.486544 -5.94562e-21)
(0.602622 0.531642 1.06071e-20)
(0.634678 0.544972 -4.71045e-21)
(0.652334 0.542761 -2.44575e-22)
(0.651948 0.545335 -4.2016e-21)
(0.633306 0.560035 8.71477e-21)
(0.608602 0.563383 -4.50103e-21)
(0.599683 0.509702 3.69903e-22)
(0.620582 0.36959 7.35774e-21)
(0.668093 0.157633 6.27895e-22)
(0.727451 -0.0728029 -1.39426e-20)
(0.783616 -0.264847 1.22748e-20)
(0.824673 -0.387698 -5.51598e-21)
(0.846551 -0.446425 4.77845e-22)
(0.852301 -0.458505 -1.76377e-22)
(0.848233 -0.448407 2.82308e-22)
(0.830205 -0.442907 0)
(0.790135 -0.450688 0)
(0.735957 -0.443351 -1.04791e-21)
(0.691901 -0.366912 7.60849e-22)
(0.678987 -0.216923 9.66973e-22)
(0.698949 -0.0206448 1.21292e-22)
(0.739107 0.147748 -1.28902e-21)
(0.786835 0.273192 2.12523e-22)
(0.82394 0.34431 0)
(0.829442 0.397477 0)
(0.802271 0.435027 0)
(0.762452 0.409796 0)
(0.739927 0.319407 4.08128e-22)
(0.753592 0.121401 -1.94178e-22)
(0.78489 -0.0392664 0)
(0.827628 -0.195904 0)
(0.839508 -0.273965 0)
(0.817648 -0.331602 -8.19892e-23)
(0.79267 -0.374735 2.06038e-23)
(0.779114 -0.257111 -7.12944e-23)
(0.794732 -0.192927 0)
(0.804692 0.0470632 0)
(0.805246 0.171546 4.25212e-23)
(0.792855 0.273222 9.46003e-23)
(0.795259 0.393093 0)
(0.785136 0.136931 0)
(0.226536 -0.255529 -1.86594e-21)
(0.244558 -0.326951 -7.66468e-20)
(0.259657 -0.39668 6.66584e-20)
(0.271728 -0.459214 -6.23453e-20)
(0.277738 -0.510975 -4.08829e-22)
(0.275657 -0.549979 0)
(0.263941 -0.575853 -3.58041e-20)
(0.241617 -0.589925 3.50036e-20)
(0.209911 -0.593478 2.14605e-22)
(0.174135 -0.584111 3.28015e-22)
(0.14409 -0.554778 2.81541e-22)
(0.129951 -0.495621 3.26676e-22)
(0.138868 -0.399956 -1.8497e-20)
(0.171397 -0.269347 1.83021e-20)
(0.2232 -0.113822 0)
(0.288681 0.0513649 4.61185e-22)
(0.361422 0.209761 -1.43279e-20)
(0.434825 0.343455 1.41471e-20)
(0.502553 0.440863 0)
(0.559664 0.49946 0)
(0.603518 0.525906 -8.12898e-21)
(0.630912 0.536425 1.60163e-20)
(0.638051 0.550472 -1.60562e-20)
(0.627866 0.571763 -1.1113e-21)
(0.615698 0.573305 2.02985e-20)
(0.62257 0.510656 -2.4869e-20)
(0.658017 0.359724 2.74219e-20)
(0.715383 0.139915 -1.44643e-22)
(0.778467 -0.0937736 -1.52025e-20)
(0.832209 -0.283794 0)
(0.866289 -0.40039 0)
(0.879217 -0.451804 2.48129e-21)
(0.875229 -0.458526 -3.35555e-21)
(0.862868 -0.443506 -5.03423e-24)
(0.840349 -0.430777 1.79053e-21)
(0.798226 -0.431644 -1.74015e-21)
(0.740461 -0.424382 0)
(0.689098 -0.357157 2.58841e-22)
(0.669248 -0.220753 2.47513e-21)
(0.684875 -0.0351739 -4.68967e-21)
(0.726389 0.128353 2.00875e-21)
(0.777265 0.256152 1.66437e-22)
(0.818488 0.335745 -1.68317e-21)
(0.826544 0.399676 1.31248e-21)
(0.802777 0.444806 3.23246e-22)
(0.768236 0.419731 3.72756e-22)
(0.74959 0.323156 -4.09177e-22)
(0.766311 0.117732 0)
(0.795593 -0.0479697 0)
(0.838378 -0.201939 -1.27405e-21)
(0.849172 -0.272964 5.75061e-22)
(0.826808 -0.325326 -3.96247e-22)
(0.800328 -0.370572 4.48457e-22)
(0.78345 -0.257699 4.614e-22)
(0.798218 -0.196166 -1.31865e-22)
(0.802749 0.0457231 1.89209e-22)
(0.803471 0.172204 -1.59934e-22)
(0.789878 0.273992 5.10444e-23)
(0.793188 0.393689 0)
(0.786122 0.137927 0)
(0.393834 -0.263374 -1.62371e-19)
(0.413295 -0.335544 9.73692e-21)
(0.428339 -0.403902 1.45162e-19)
(0.438705 -0.463137 -9.71872e-22)
(0.441715 -0.510207 0)
(0.435833 -0.542749 0)
(0.419831 -0.559981 -6.99907e-20)
(0.392098 -0.564115 1.11107e-20)
(0.351539 -0.55953 7.70987e-20)
(0.299512 -0.549053 -3.85007e-21)
(0.243012 -0.529685 -1.80422e-20)
(0.194019 -0.491396 -1.36214e-20)
(0.165524 -0.421855 1.36121e-20)
(0.165221 -0.314695 0)
(0.192928 -0.174937 -1.30378e-20)
(0.24398 -0.017117 1.18797e-20)
(0.310369 0.139844 0)
(0.383326 0.278967 0)
(0.45574 0.386991 8.08246e-21)
(0.521207 0.458977 -6.12725e-22)
(0.574494 0.499624 -6.80103e-21)
(0.610237 0.524031 -7.55108e-21)
(0.62512 0.549469 7.55839e-21)
(0.624782 0.576322 -9.80609e-21)
(0.626299 0.576075 -1.97162e-21)
(0.648811 0.507055 1.12255e-20)
(0.697755 0.34961 1.8481e-21)
(0.764249 0.125565 -1.81802e-23)
(0.830957 -0.109145 0)
(0.882054 -0.296728 1.23858e-20)
(0.908816 -0.4078 -1.27075e-20)
(0.912777 -0.452827 4.95381e-22)
(0.89949 -0.455219 0)
(0.878978 -0.436844 -2.80577e-22)
(0.85204 -0.418315 3.34383e-21)
(0.808697 -0.41237 -5.93677e-21)
(0.748896 -0.404403 -5.42929e-22)
(0.691204 -0.346298 -4.41978e-22)
(0.664342 -0.224523 2.99876e-21)
(0.674979 -0.0509733 5.02242e-22)
(0.717011 0.106942 -3.13833e-21)
(0.770112 0.23708 2.66811e-21)
(0.81487 0.325509 2.97018e-23)
(0.825575 0.400304 1.28466e-21)
(0.805662 0.453221 -1.57337e-21)
(0.776846 0.428907 -2.86198e-21)
(0.762326 0.32744 7.15921e-22)
(0.781887 0.1155 1.86774e-21)
(0.808794 -0.0552955 -3.40997e-21)
(0.850845 -0.207222 2.23478e-21)
(0.860333 -0.271672 -4.04059e-22)
(0.837315 -0.31858 6.07835e-22)
(0.808924 -0.366059 3.8045e-22)
(0.788535 -0.25808 -6.35216e-22)
(0.802787 -0.199206 -1.08218e-24)
(0.802145 0.0444273 -1.35005e-22)
(0.802971 0.172902 0)
(0.787858 0.274582 -6.98249e-23)
(0.792084 0.393987 1.02985e-22)
(0.788193 0.138791 0)
(0.565923 -0.267827 1.6396e-19)
(0.584619 -0.338775 -3.12601e-19)
(0.599409 -0.40431 1.46606e-19)
(0.607403 -0.459519 1.19474e-19)
(0.605803 -0.502279 -2.18693e-19)
(0.594294 -0.530115 1.54558e-20)
(0.572887 -0.541517 8.23602e-20)
(0.541056 -0.537647 5.302e-20)
(0.497806 -0.522815 -5.19093e-20)
(0.441741 -0.503254 0)
(0.373923 -0.482817 -2.41302e-20)
(0.30168 -0.457043 4.313e-20)
(0.239133 -0.412956 -1.92279e-20)
(0.201324 -0.336528 0)
(0.196439 -0.223145 0)
(0.223615 -0.0816586 3.27816e-22)
(0.276249 0.0684445 -1.49221e-20)
(0.344072 0.209642 1.44968e-20)
(0.417093 0.32621 0)
(0.48721 0.41082 1.16176e-20)
(0.546884 0.465983 -2.27055e-20)
(0.589384 0.50461 2.43365e-20)
(0.612158 0.540941 -2.81676e-20)
(0.622742 0.572657 -3.65595e-21)
(0.638593 0.571547 4.12136e-20)
(0.676125 0.499485 -2.29049e-20)
(0.737366 0.339971 -9.40519e-22)
(0.812408 0.115316 -1.55771e-20)
(0.883027 -0.118777 8.19729e-22)
(0.931907 -0.30337 1.48672e-20)
(0.951378 -0.409541 6.82348e-22)
(0.946497 -0.44935 -7.10582e-21)
(0.92458 -0.448567 1.21049e-20)
(0.896372 -0.428372 -5.59025e-21)
(0.865139 -0.405748 0)
(0.821202 -0.393564 -3.07584e-21)
(0.760891 -0.384079 2.97941e-21)
(0.698253 -0.334401 -2.62809e-21)
(0.664512 -0.227736 3.27654e-21)
(0.669363 -0.0675688 -3.51408e-22)
(0.710858 0.0838865 0)
(0.765183 0.21609 -2.88178e-22)
(0.812887 0.313409 8.58328e-22)
(0.826366 0.399005 0)
(0.810671 0.459984 3.59936e-21)
(0.787924 0.43721 -1.27389e-21)
(0.777741 0.332267 9.48998e-22)
(0.799979 0.11493 1.07236e-21)
(0.824303 -0.0610496 0)
(0.864856 -0.211633 0)
(0.872808 -0.27006 -1.474e-21)
(0.849051 -0.311307 1.99477e-21)
(0.818348 -0.361079 -9.26759e-22)
(0.794189 -0.258248 2.23261e-22)
(0.808269 -0.20211 3.32689e-22)
(0.802792 0.0431415 1.35134e-22)
(0.803695 0.173673 -1.84427e-22)
(0.786776 0.275021 0)
(0.791966 0.393971 -1.60926e-22)
(0.791375 0.139513 -5.36459e-23)
(0.738409 -0.270032 1.62005e-19)
(0.753845 -0.336844 -1.61356e-19)
(0.766578 -0.396892 1.11901e-21)
(0.770594 -0.446659 -9.58235e-22)
(0.762943 -0.484795 8.57002e-22)
(0.74446 -0.508708 -7.17408e-22)
(0.716087 -0.516734 1.12795e-21)
(0.678427 -0.509321 0)
(0.632186 -0.488893 -6.67185e-22)
(0.57689 -0.46045 4.81412e-22)
(0.510577 -0.431053 3.30557e-22)
(0.433074 -0.404499 -2.88021e-22)
(0.351545 -0.374902 0)
(0.28147 -0.327197 0)
(0.239273 -0.247413 7.25622e-23)
(0.233285 -0.133521 0)
(0.262695 0.00210662 -7.22852e-23)
(0.317863 0.139049 0)
(0.38601 0.260533 -7.26205e-21)
(0.456483 0.356009 1.46706e-20)
(0.519503 0.425166 -1.62266e-20)
(0.567402 0.477643 8.62148e-21)
(0.598241 0.524145 1.33074e-20)
(0.620518 0.560409 -1.29228e-20)
(0.650878 0.559848 -2.23544e-20)
(0.702405 0.488225 2.18853e-20)
(0.774727 0.330951 0)
(0.858022 0.108622 1.00933e-21)
(0.933247 -0.123005 0)
(0.980686 -0.303958 0)
(0.993223 -0.405883 1.81604e-20)
(0.979799 -0.441776 -1.89663e-20)
(0.950054 -0.438907 7.27129e-22)
(0.914787 -0.418197 5.43325e-22)
(0.879357 -0.393219 -3.88031e-22)
(0.835216 -0.375666 -2.40238e-21)
(0.775817 -0.363887 2.33277e-21)
(0.709886 -0.321419 -2.72756e-21)
(0.669733 -0.229981 2.34313e-21)
(0.668026 -0.0842561 6.4028e-22)
(0.707751 0.0596265 -2.27716e-21)
(0.762225 0.193263 -1.29912e-22)
(0.812281 0.299228 1.52715e-21)
(0.828666 0.39543 0)
(0.817446 0.464816 -1.29651e-21)
(0.800991 0.444527 2.93189e-21)
(0.795302 0.337586 -3.63593e-21)
(0.820147 0.116062 -1.07918e-21)
(0.841883 -0.0650619 0)
(0.880212 -0.215051 5.53544e-22)
(0.886385 -0.268134 -1.30473e-21)
(0.861877 -0.303491 -4.00573e-24)
(0.82851 -0.355492 -2.37333e-22)
(0.800254 -0.258174 2.40692e-22)
(0.81448 -0.204946 -2.7862e-22)
(0.804576 0.0418159 0)
(0.805584 0.174536 1.84513e-22)
(0.786607 0.275334 0)
(0.792847 0.39362 0)
(0.795691 0.140076 6.61491e-23)
(0.905406 -0.267708 -1.5729e-19)
(0.91383 -0.328191 1.55639e-19)