/*--------------------------------*- C++ -*----------------------------------*\
| =========                 |                                                 |
| \\      /  F ield         | OpenFOAM: The Open Source CFD Toolbox           |
|  \\    /   O peration     | Version:  2512                                  |
|   \\  /    A nd           | Website:  www.openfoam.com                      |
|    \\/     M anipulation  |                                                 |
\*---------------------------------------------------------------------------*/
FoamFile
{
    version     2.0;
    format      ascii;
    arch        "LSB;label=32;scalar=64";
    class       surfaceScalarField;
    location    "184";
    object      phi;
}
// * * * * * * * * * * * * * * * * * * * * * * * * * * * * * * * * * * * * * //

dimensions      [0 3 -1 0 0 0 0];

oriented        oriented;

internalField   nonuniform List<scalar> 
26232
(
-3.41005e-05
0.000837492
-0.000803391
6.67211e-05
0.00142362
-0.00152445
0.000501301
0.00112962
-0.0015642
0.00146545
3.14832e-05
-0.000995635
0.00315055
-0.00184249
0.000157394
0.00574256
-0.0044857
0.00189369
0.00941088
-0.00789779
0.00422947
0.014299
-0.0120678
0.00717965
0.020509
-0.0169606
0.0107506
0.0280863
-0.0225081
0.0149308
0.0370078
-0.0286064
0.0196849
0.0471755
-0.03512
0.0249522
0.0584187
-0.0418916
0.0306484
0.0705034
-0.0487553
0.0366706
0.0831494
-0.0555509
0.0429049
0.0960512
-0.0621363
0.0492345
0.108902
-0.0683985
0.055548
0.121414
-0.07426
0.0617477
0.133344
-0.0796799
0.0677496
0.144502
-0.084665
0.0735077
0.154769
-0.0892235
0.0789562
0.16407
-0.0934967
0.0841954
0.172387
-0.0973271
0.0890105
-0.10138
0.0943147
0.179452
5.49007e-05
0.000782591
0.000419077
0.00105945
0.00130099
0.000247712
0.00290934
-0.00157687
0.00544694
-0.00438009
0.00909962
-0.00813838
0.0140186
-0.0128167
0.0203002
-0.0183494
0.0279661
-0.0246265
0.0369488
-0.0314908
0.0470881
-0.0387457
0.0581401
-0.0461719
0.0697974
-0.0535489
0.0817186
-0.0606765
0.0935612
-0.0673934
0.105014
-0.0735887
0.115823
-0.0792076
0.125813
-0.0842503
0.134897
-0.0887643
0.143068
-0.092836
0.150408
-0.0965636
0.157007
-0.100095
0.163088
-0.103408
-0.106999
0.168707
0.000148083
0.000634508
0.000798232
0.000409299
0.00217125
-0.0011253
0.00448481
-0.00389044
0.00793971
-0.00783499
0.0126974
-0.012896
0.0188523
-0.0189717
0.0264056
-0.0259028
0.0352485
-0.0334694
0.045161
-0.0414033
0.0558306
-0.0494153
0.0668861
-0.0572274
0.0779415
-0.0646043
0.0886406
-0.0713756
0.0986954
-0.0774482
0.107913
-0.0828059
0.116205
-0.0875001
0.123587
-0.0916324
0.130157
-0.0953338
0.136066
-0.0987455
0.141494
-0.101991
0.146598
-0.105199
0.15155
-0.10836
-0.11183
0.156382
0.000247981
0.000386527
0.00120791
-0.000550626
0.00311098
-0.00302838
0.00617287
-0.00695233
0.0105687
-0.0122308
0.0163981
-0.0187254
0.0236503
-0.0262239
0.0321831
-0.0344356
0.0417241
-0.0430103
0.0518998
-0.051579
0.0622853
-0.0598008
0.0724638
-0.067406
0.0820817
-0.0742221
0.0908891
-0.080183
0.0987599
-0.085319
0.105689
-0.0897351
0.111771
-0.0935818
0.117164
-0.0970258
0.122055
-0.100225
0.126619
-0.10331
0.131004
-0.106377
0.135305
-0.1095
0.139613
-0.112668
-0.116108
0.143891
0.000358736
2.77911e-05
0.00165473
-0.00184662
0.00411961
-0.00549326
0.00794597
-0.0107787
0.0132478
-0.0175326
0.0200157
-0.0254933
0.0280871
-0.0342953
0.037148
-0.0434964
0.0467717
-0.0526341
0.0564859
-0.0612933
0.0658485
-0.0691634
0.0745123
-0.0760697
0.0822648
-0.0819747
0.0890382
-0.0869564
0.0948901
-0.0911709
0.0999661
-0.0948111
0.104454
-0.0980699
0.108543
-0.101115
0.112395
-0.104076
0.116127
-0.107042
0.119819
-0.110068
0.123509
-0.11319
0.127238
-0.116397
-0.119828
0.130958
0.000483482
-0.00045569
0.0021404
-0.00350354
0.00518244
-0.00853529
0.00974658
-0.0153428
0.0158409
-0.023627
0.0233014
-0.0329538
0.0317876
-0.0427815
0.0408282
-0.0525371
0.0499055
-0.0617113
0.0585487
-0.0699365
0.0664102
-0.0770249
0.0733035
-0.082963
0.079202
-0.0878732
0.0842052
-0.0919596
0.0884883
-0.0954539
0.0922502
-0.098573
0.0956745
-0.101494
0.0989066
-0.104347
0.102048
-0.107217
0.105163
-0.110156
0.108286
-0.113192
0.111433
-0.116338
0.114624
-0.119588
-0.123016
0.117812
0.000622232
-0.00107792
0.00265524
-0.00553655
0.0062601
-0.0121402
0.0114767
-0.0205594
0.0181625
-0.0303127
0.0259718
-0.0407631
0.0344003
-0.05121
0.0428838
-0.0610206
0.0509132
-0.0697407
0.058124
-0.0771473
0.0643368
-0.0832377
0.0695464
-0.0881726
0.0738761
-0.0922029
0.0775168
-0.0956003
0.0806718
-0.0986089
0.083519
-0.10142
0.0861936
-0.104169
0.0887869
-0.10694
0.0913547
-0.109785
0.0939277
-0.112729
0.0965208
-0.115785
0.0991391
-0.118956
0.101789
-0.122238
-0.125662
0.104434
0.000770842
-0.00184876
0.00317641
-0.00794212
0.00728884
-0.0162526
0.0130076
-0.0262782
0.0200089
-0.0373141
0.0277732
-0.0485274
0.0356907
-0.0591275
0.0431995
-0.0685294
0.0498958
-0.076437
0.0555827
-0.0828343
0.0602561
-0.087911
0.0640479
-0.0919644
0.0671572
-0.0953122
0.0697904
-0.0982335
0.0721234
-0.100942
0.0742868
-0.103584
0.0763669
-0.106249
0.0784154
-0.108989
0.0804603
-0.11183
0.0825158
-0.114785
0.0845873
-0.117857
0.0866759
-0.121044
0.0887831
-0.124345
-0.127763
0.0908841
0.000921686
-0.00277045
0.0036709
-0.0106913
0.00819024
-0.0207719
0.0142044
-0.0322923
0.0212051
-0.0443148
0.0285455
-0.0558678
0.0355972
-0.0661793
0.0418907
-0.0748229
0.0471833
-0.0817296
0.0514486
-0.0870996
0.0548135
-0.0912759
0.0574799
-0.0946308
0.0596584
-0.0974908
0.0615276
-0.100103
0.0632183
-0.102633
0.0648157
-0.105181
0.0663703
-0.107803
0.0679092
-0.110528
0.0694462
-0.113367
0.0709876
-0.116326
0.0725353
-0.119404
0.0740895
-0.122599
0.0756487
-0.125904
-0.129312
0.0771984
0.00106465
-0.0038351
0.00410063
-0.0137273
0.00888551
-0.0255568
0.0149539
-0.0383607
0.021643
-0.0510039
0.0282529
-0.0624776
0.0342215
-0.0721479
0.0392279
-0.0798292
0.0431959
-0.0856976
0.0462308
-0.0901346
0.0485314
-0.0935765
0.0503133
-0.0964128
0.0517619
-0.0989393
0.0530131
-0.101354
0.0541552
-0.103775
0.0552398
-0.106266
0.0562948
-0.108858
0.0573342
-0.111567
0.0583649
-0.114398
0.0593901
-0.117351
0.0604102
-0.120424
0.0614246
-0.123613
0.0624311
-0.126911
-0.130304
0.0634225
0.00118903
-0.00502413
0.00442965
-0.0169679
0.00931052
-0.0304377
0.0151866
-0.0442368
0.0212979
-0.0571152
0.0269712
-0.0681508
0.0317711
-0.0769479
0.0355385
-0.0835965
0.0383339
-0.088493
0.0403422
-0.0921429
0.0417831
-0.0950174
0.0428523
-0.097482
0.0436958
-0.0997828
0.0444088
-0.102067
0.0450471
-0.104413
0.0456405
-0.106859
0.0462041
-0.109422
0.0467456
-0.112109
0.0472689
-0.114921
0.0477755
-0.117858
0.0482657
-0.120915
0.0487381
-0.124085
0.0491893
-0.127362
-0.130731
0.0496169
0.00128774
-0.00631187
0.00463249
-0.0203127
0.0094274
-0.0352326
0.0148851
-0.0496945
0.0202205
-0.0624506
0.0248528
-0.0727831
0.0284984
-0.0805935
0.0311406
-0.0862387
0.0329319
-0.0902843
0.0340901
-0.093301
0.0348228
-0.0957501
0.0352906
-0.0979498
0.0356005
-0.100093
0.0358155
-0.102282
0.0359692
-0.104567
0.0360786
-0.106968
0.036152
-0.109495
0.0361939
-0.112151
0.0362071
-0.114934
0.036193
-0.117844
0.0361518
-0.120873
0.0360823
-0.124016
0.0359809
-0.127261
0.0358478
-0.130598
-0.000268639
-0.00239331
0.00266195
-0.000954189
-0.00550947
0.00619502
-0.00198107
-0.00744065
0.00846753
-0.00328753
-0.00846684
0.0097733
-0.00482272
-0.00883513
0.0103703
-0.00654695
-0.00874973
0.010474
-0.00843028
-0.00836124
0.0102446
-0.0104499
-0.00776392
0.00978355
-0.0125871
-0.00700084
0.00913807
-0.0148246
-0.00607452
0.00831195
-0.0171438
-0.00495953
0.00727878
-0.0195242
-0.00361402
0.00599444
-0.0219397
-0.00199104
0.00440645
-0.0243553
-4.21187e-05
0.00245776
-0.0267283
0.00227227
0.000100775
-0.0290317
0.00498656
-0.00268323
-0.0312022
0.0081264
-0.0059559
-0.0331793
0.0117001
-0.00972296
-0.0348964
0.0156984
-0.0139813
-0.0362833
0.0200913
-0.0187044
-0.0372715
0.0248263
-0.0238382
-0.0377969
0.0298274
-0.029302
-0.0378144
0.035012
-0.0349944
0.0403156
-0.0373555
-0.0407745
-0.000322176
-0.00207113
-0.00111266
-0.00471898
-0.00226034
-0.00629298
-0.0036817
-0.00704547
-0.00531472
-0.00720211
-0.00711528
-0.00694918
-0.00905254
-0.00642398
-0.0111037
-0.00571273
-0.0132491
-0.00485542
-0.0154682
-0.00385547
-0.0177364
-0.00269127
-0.0200256
-0.00132487
-0.0222945
0.000277902
-0.0244987
0.00216207
-0.0265854
0.00435892
-0.0284917
0.00689294
-0.0301429
0.0097776
-0.0314546
0.0130118
-0.0323341
0.0165779
-0.0326832
0.0204404
-0.0324041
0.0245472
-0.0314072
0.0288305
-0.0296092
0.033214
0.0376562
-0.0269498
-0.000351239
-0.00171989
-0.00119173
-0.00387849
-0.00238363
-0.00510108
-0.00382532
-0.00560378
-0.00544353
-0.0055839
-0.00718732
-0.00520539
-0.00902126
-0.00459005
-0.0109184
-0.0038156
-0.012854
-0.00291982
-0.0148008
-0.0019087
-0.0167256
-0.000766439
-0.018585
0.000534513
-0.0203322
0.00202509
-0.0219053
0.00373519
-0.0232342
0.00568784
-0.0242382
0.00789692
-0.0248254
0.0103648
-0.0248936
0.01308
-0.0243314
0.0160157
-0.0230203
0.0191293
-0.0208385
0.0223653
-0.0176687
0.0256607
-0.0134133
0.0289587
0.0323115
-0.0080686
-0.000360116
-0.00135978
-0.00120658
-0.00303202
-0.00238286
-0.00392481
-0.00377249
-0.00421415
-0.005291
-0.00406539
-0.00687855
-0.00361784
-0.00849195
-0.00297665
-0.0100967
-0.00221082
-0.0116602
-0.00135631
-0.0131463
-0.000422636
-0.0145115
0.000598806
-0.0157035
0.00172643
-0.0166601
0.00298169
-0.0173085
0.00438366
-0.0175659
0.00594518
-0.0173391
0.00767012
-0.0165255
0.00955123
-0.0150137
0.0115682
-0.0126841
0.0136861
-0.00941108
0.0158563
-0.00506316
0.0180174
0.000493266
0.0201043
0.00739253
0.0220594
0.023889
0.015815
-0.000355517
-0.00100426
-0.0011786
-0.00220894
-0.00230035
-0.00280305
-0.00359258
-0.00292193
-0.00496021
-0.00269776
-0.00633348
-0.00224457
-0.00765961
-0.00165052
-0.00889471
-0.000975722
-0.00999681
-0.000254202
-0.0109205
0.000501038
-0.0116131
0.00129145
-0.0120131
0.00212645
-0.0120491
0.00301768
-0.01164
0.00397448
-0.0106953
0.00500055
-0.00911664
0.00609143
-0.00679788
0.00723247
-0.00362792
0.00839823
0.000507786
0.00955036
0.00572788
0.0106363
0.0121545
0.0115908
0.0199168
0.012342
0.0291377
0.0128385
0.0128612
0.0401656
-0.000343821
-0.000660439
-0.00112746
-0.0014253
-0.00217412
-0.0017564
-0.00334679
-0.00174925
-0.00454116
-0.00150339
-0.00567776
-0.00110797
-0.00669385
-0.000634435
-0.00753562
-0.000133944
-0.00815167
0.000361841
-0.00848763
0.000837003
-0.00848301
0.00128683
-0.00806922
0.00171266
-0.00716904
0.0021175
-0.00569689
0.00250233
-0.00355979
0.00286346
-0.000658764
0.0031904
0.00310933
0.00346437
0.00785126
0.0036563
0.0136747
0.00372694
0.0206854
0.00362553
0.0289861
0.00329013
0.0387035
0.0026246
0.0498507
0.00169122
-0.000350651
0.0630625
-0.000328648
-0.000331792
-0.00106383
-0.000690116
-0.0020238
-0.000796424
-0.00306531
-0.000707748
-0.00407638
-0.000492328
-0.00496859
-0.000215756
-0.00566943
6.6401e-05
-0.0061149
0.000311529
-0.00624348
0.000490423
-0.0059915
0.000585019
-0.00529006
0.000585387
-0.0040633
0.000485912
-0.00222806
0.000282253
0.0003057
-3.1429e-05
0.00363379
-0.000464634
0.00785626
-0.00103206
0.0130759
-0.00175522
0.0193954
-0.00266326
0.0269166
-0.00379423
0.0357383
-0.00519616
0.0459397
-0.00691133
0.0576679
-0.00910362
0.0707484
-0.0113892
-0.015666
0.0860638
-0.00030955
-2.22411e-05
-0.000985416
-1.42504e-05
-0.00184299
6.11458e-05
-0.00273437
0.000183641
-0.00354064
0.000313943
-0.00416423
0.00040783
-0.00452142
0.000423594
-0.00453577
0.000325878
-0.00413285
8.7499e-05
-0.00323542
-0.000312404
-0.00176195
-0.000888083
0.000375673
-0.00165172
0.00327154
-0.00261361
0.00702475
-0.00378464
0.0117377
-0.00517761
0.017514
-0.00680835
0.0244555
-0.00869667
0.0326592
-0.010867
0.0422133
-0.0133484
0.0531989
-0.0161817
0.0656512
-0.0193636
0.0797057
-0.0231581
0.0950413
-0.0267248
-0.0330658
0.112441
-0.000282498
0.000260257
-0.000878662
0.000581913
-0.00160228
0.000784759
-0.00230104
0.000882407
-0.00284773
0.000860629
-0.00313284
0.000692941
-0.00305765
0.000348406
-0.00252758
-0.00020419
-0.00145017
-0.000989912
0.000271613
-0.00203419
0.00273889
-0.00335536
0.00605602
-0.00496885
0.0103296
-0.00688716
0.0156652
-0.00912029
0.0221641
-0.0116765
0.0299183
-0.0145626
0.0390068
-0.0177851
0.0494902
-0.0213504
0.0614053
-0.0252634
0.0747648
-0.0295412
0.0895278
-0.0341266
0.105683
-0.0393131
0.122968
-0.0440098
-0.0516378
0.14154
-0.000242451
0.000502708
-0.000725829
0.00106529
-0.00126344
0.00132237
-0.00169687
0.00131583
-0.00188725
0.00105101
-0.00170858
0.000514272
-0.00104115
-0.000319027
0.00023004
-0.00147538
0.00222402
-0.00298389
0.00505794
-0.00486811
0.00884873
-0.00714614
0.0137086
-0.00982875
0.0197401
-0.0129186
0.0270297
-0.01641
0.0356425
-0.0202892
0.0456159
-0.024536
0.0569552
-0.0291244
0.06963
-0.0340253
0.0835719
-0.0392052
0.0986711
-0.0446404
0.114788
-0.0502433
0.131678
-0.0562029
0.149283
-0.0616149
-0.0692265
0.166871
-0.000186233
0.000688942
-0.000514877
0.00139393
-0.00079878
0.00160628
-0.000870906
0.00138796
-0.000577007
0.000757115
0.000229256
-0.000291991
0.00168931
-0.00177908
0.00394364
-0.00372971
0.00712716
-0.00616741
0.0113669
-0.00910784
0.0167749
-0.0125542
0.0234406
-0.0164944
0.0314221
-0.0209001
0.0407392
-0.0257271
0.051368
-0.0309181
0.0632386
-0.0364065
0.0762343
-0.0421201
0.0901957
-0.0479868
0.104925
-0.0539343
0.120194
-0.0599091
0.135772
-0.0658212
0.151321
-0.0717528
0.166901
-0.0771942
-0.0836222
0.181296
-0.00011445
-0.000244961
-0.000202888
0.000189436
0.00110394
0.00270564
0.00515603
0.00860597
0.0131892
0.0190122
0.0261429
0.0346007
0.0443491
0.0552926
0.0672794
0.0801074
0.0935353
0.107296
0.121112
0.13471
0.147845
0.160288
0.172104
0.182796
-0.0343685
0.0608226
-0.0638096
-0.0303512
0.0696911
-0.0737084
-0.0250746
0.0773765
-0.082653
-0.0183346
0.0831126
-0.0898527
-0.00994978
0.0860242
-0.094409
0.000157357
0.0852005
-0.0953076
0.0118821
0.0798233
-0.091548
0.0248146
0.0693022
-0.0822347
0.0384892
0.0534027
-0.0670774
0.0522369
0.0322467
-0.0459944
0.0656009
0.0061129
-0.0194769
0.0783564
-0.0240208
0.0112653
0.0904157
-0.0573375
0.0452781
0.101482
-0.0909248
0.0798584
0.110929
-0.120543
0.111096
0.117986
-0.142326
0.135269
0.122215
-0.154917
0.150687
0.123818
-0.159606
0.158003
0.123131
-0.158921
0.159608
0.119865
-0.156495
0.15976
0.113728
-0.156845
0.162981
0.106093
-0.161133
0.168768
0.1004
-0.16196
0.167653
0.100023
-0.145465
0.145842
0.105798
-0.102262
0.0964873
0.116087
-0.0367329
0.0264431
0.128078
0.0358959
-0.0478862
0.139131
0.0997292
-0.110783
0.147427
0.145675
-0.153971
0.152624
0.173143
-0.178341
0.155133
0.185555
-0.188064
0.154582
0.192315
-0.191763
0.150218
0.203645
-0.199281
0.14299
0.220804
-0.213576
0.136139
0.223697
-0.216846
0.133025
0.187997
-0.184884
0.134791
0.107082
-0.108848
0.140279
0.0018254
-0.00731309
0.147177
-0.0936556
0.0867572
0.153403
-0.163391
0.157165
0.156934
-0.198545
0.195013
0.15564
-0.221834
0.223128
0.14916
-0.234648
0.241129
0.14063
-0.245931
0.254461
0.134889
-0.218273
0.224013
0.135176
-0.142349
0.142063
0.140908
-0.037139
0.031407
0.147909
0.081805
-0.0888059
0.151324
0.152759
-0.156174
0.148923
0.239991
-0.23759
0.143385
0.264926
-0.259388
0.14004
0.276594
-0.273249
0.141339
0.204106
-0.205405
0.145077
0.0630098
-0.0667479
0.146911
-0.0205301
0.0186959
0.145299
-0.215649
0.217261
0.143343
-0.239658
0.241615
0.14207
-0.312441
0.313714
0.140687
-0.258925
0.260308
0.0137345
-0.0117907
-0.0217782
0.055651
-0.0154594
0.0633723
-0.00774121
0.0696582
0.00139481
0.0739766
0.0119074
0.0755116
0.0236431
0.0734648
0.0362999
0.0671665
0.0494329
0.0561691
0.0625051
0.0403306
0.0750281
0.0197237
0.086552
-0.00541108
0.0971724
-0.0346411
0.106742
-0.0669073
0.114993
-0.0991757
0.121371
-0.126921
0.125336
-0.146291
0.126695
-0.156276
0.125819
-0.15873
0.12331
-0.156412
0.119038
-0.152223
0.112237
-0.150044
0.103395
-0.15229
0.0956054
-0.154171
0.0930496
-0.142909
0.0977101
-0.106922
0.108289
-0.0473119
0.121689
0.0224962
0.134626
0.0867923
0.144977
0.135325
0.152173
0.165947
0.156333
0.181395
0.156997
0.191651
0.153696
0.206946
0.147623
0.226877
0.141726
0.229595
0.138845
0.190878
0.139923
0.106003
0.144086
-0.00233715
0.149304
-0.098874
0.153881
-0.167967
0.156218
-0.200882
0.154296
-0.219912
0.147458
-0.22781
0.138584
-0.237057
0.132775
-0.212464
0.133459
-0.143033
0.139983
-0.0436625
0.147627
0.0741611
0.151493
0.148893
0.149413
0.242071
0.143987
0.270353
0.140635
0.279946
0.1418
0.202941
0.145716
0.0590939
0.147618
-0.0224318
0.145842
-0.213873
0.143742
-0.237559
0.142298
-0.310997
0.140786
-0.257413
0.0157404
-0.00138151
0.0489639
0.00679368
0.0551972
0.0160906
0.0603613
0.0264874
0.0635798
0.0378585
0.0641405
0.0499426
0.0613807
0.0623623
0.0547469
0.0746611
0.0438703
0.0863799
0.0286119
0.0971286
0.00897499
0.10666
-0.014942
0.114998
-0.04298
0.122061
-0.0739702
0.127514
-0.104629
0.130859
-0.130266
0.131822
-0.147254
0.130532
-0.154986
0.12751
-0.155708
0.123464
-0.152366
0.118465
-0.147224
0.111512
-0.143091
0.102156
-0.142934
0.0927281
-0.144743
0.087846
-0.138027
0.0908054
-0.109882
0.101035
-0.0575416
0.115352
0.00817974
0.129872
0.0722719
0.142193
0.123004
0.151401
0.156738
0.157286
0.175511
0.159356
0.18958
0.157399
0.208903
0.152689
0.231587
0.147744
0.23454
0.144945
0.193677
0.145151
0.105797
0.147865
-0.00505031
0.151357
-0.102366
0.154268
-0.170878
0.155442
-0.202055
0.153023
-0.217494
0.146029
-0.220816
0.136946
-0.227974
0.131051
-0.206569
0.131993
-0.143975
0.139156
-0.0508256
0.147376
0.0659416
0.151741
0.144527
0.150062
0.24375
0.14478
0.275635
0.141397
0.283329
0.14239
0.201949
0.146472
0.055011
0.148466
-0.0244258
0.146505
-0.211912
0.144232
-0.235285
0.142632
-0.309397
0.141033
-0.255815
0.0177816
0.0236966
0.0410823
0.0324768
0.046417
0.0422789
0.0505591
0.0529671
0.0528916
0.0642789
0.0528287
0.0758703
0.0497892
0.0873521
0.0432651
0.0983131
0.0329093
0.108362
0.0185631
0.117318
1.85722e-05
0.124939
-0.0225627
0.131224
-0.0492645
0.135995
-0.0787414
0.138815
-0.107449
0.139266
-0.130717
0.137382
-0.14537
0.133687
-0.151291
0.12885
-0.15087
0.123536
-0.147052
0.117989
-0.141678
0.111276
-0.136378
0.102193
-0.13385
0.0918844
-0.134435
0.0847614
-0.130904
0.0853931
-0.110513
0.0944432
-0.0665918
0.109087
-0.0064637
0.124838
0.056521
0.138995
0.108846
0.150191
0.145543
0.157867
0.167835
0.161531
0.185916
0.16117
0.209264
0.157983
0.234774
0.15401
0.238513
0.151159
0.196527
0.150345
0.106611
0.151529
-0.00623388
0.153301
-0.104139
0.154569
-0.172146
0.154597
-0.202083
0.15177
-0.214667
0.1448
-0.213846
0.135652
-0.218826
0.129658
-0.200575
0.130713
-0.145031
0.138367
-0.0584796
0.147119
0.0571905
0.152049
0.139596
0.150868
0.244931
0.145788
0.280715
0.142357
0.286759
0.143128
0.201178
0.147337
0.0508021
0.149445
-0.0265344
0.147284
-0.209751
0.144807
-0.232808
0.143062
-0.307652
0.141415
-0.254168
0.0198293
0.0484637
0.0327841
0.0574681
0.0374126
0.0672097
0.0408175
0.0775761
0.0425252
0.0882765
0.0421283
0.0989549
0.0391108
0.109251
0.032969
0.118832
0.0233281
0.127344
0.0100516
0.134813
-0.00745091
0.140921
-0.0286703
0.145528
-0.0538715
0.148221
-0.0814347
0.148494
-0.107722
0.146165
-0.128388
0.14168
-0.140885
0.135923
-0.145534
0.129682
-0.14463
0.123468
-0.140838
0.117533
-0.135743
0.111235
-0.13008
0.103031
-0.125646
0.0927811
-0.124185
0.0839386
-0.122062
0.0818443
-0.108419
0.088936
-0.0736835
0.102892
-0.0204193
0.119519
0.0398941
0.135286
0.0930784
0.148373
0.132456
0.157873
0.158335
0.163296
0.180493
0.164755
0.207806
0.163252
0.236276
0.160267
0.241498
0.157308
0.199486
0.155374
0.108545
0.154988
-0.00584788
0.15508
-0.10423
0.154753
-0.17182
0.153657
-0.200987
0.150492
-0.211502
0.143701
-0.207055
0.134631
-0.209756
0.128528
-0.194472
0.129558
-0.146061
0.137551
-0.0664729
0.146807
0.0479351
0.152381
0.134022
0.151814
0.245498
0.147018
0.28551
0.143535
0.290243
0.144018
0.200694
0.148308
0.046513
0.15054
-0.0287665
0.148169
-0.20738
0.145463
-0.230102
0.143581
-0.305769
0.141917
-0.252504
0.0218544
0.0711617
0.024685
0.079799
0.0287753
0.0890306
0.0315859
0.0987245
0.0328313
0.108571
0.0322813
0.118241
0.029441
0.127418
0.0237926
0.135833
0.0149124
0.143216
0.00266908
0.149516
-0.0137512
0.154408
-0.0335619
0.157505
-0.0569692
0.158211
-0.0821402
0.156064
-0.105574
0.15122
-0.123544
0.144532
-0.134196
0.137136
-0.138138
0.129891
-0.137384
0.123139
-0.134086
0.116987
-0.129591
0.111105
-0.124198
0.10411
-0.118652
0.0948388
-0.114913
0.0852035
-0.112426
0.0804289
-0.103644
0.0846927
-0.0779473
0.0971792
-0.0329058
0.113983
0.02309
0.130978
0.0760836
0.145761
0.117673
0.157064
0.147032
0.164369
0.173188
0.167824
0.20435
0.168155
0.235946
0.166247
0.243406
0.163173
0.20256
0.160088
0.11163
0.158142
-0.00390128
0.156622
-0.10271
0.154783
-0.169981
0.15259
-0.198794
0.14913
-0.208042
0.142646
-0.20057
0.133787
-0.200898
0.127584
-0.188269
0.128451
-0.146928
0.13664
-0.0746626
0.14638
0.0381954
0.152688
0.127714
0.152867
0.24532
0.148463
0.289915
0.144938
0.293767
0.145067
0.200566
0.149368
0.0422121
0.151729
-0.0311282
0.149148
-0.204799
0.146196
-0.22715
0.14418
-0.303753
0.142526
-0.250851
0.0238263
0.092925
0.0178238
0.100434
0.0212664
0.10862
0.0234001
0.117267
0.0241838
0.12605
0.0234988
0.134667
0.0208237
0.142821
0.015639
0.150106
0.00762702
0.15687
-0.00409451
0.162008
-0.0188901
0.165624
-0.0371778
0.167066
-0.0584112
0.165683
-0.0807564
0.161217
-0.101108
0.1542
-0.116528
0.145797
-0.125793
0.137249
-0.12959
0.129378
-0.129514
0.122401
-0.127108
0.116224
-0.123414
0.110676
-0.118651
0.104863
-0.112838
0.0972191
-0.107269
0.0879793
-0.103187
0.0812064
-0.0968715
0.0821698
-0.0789107
0.0922223
-0.0429584
0.108361
0.00695093
0.126033
0.0584117
0.142213
0.101493
0.15522
0.134026
0.164458
0.16395
0.170038
0.19877
0.172341
0.233643
0.171647
0.2441
0.168562
0.205645
0.164328
0.115863
0.160888
-0.00046145
0.15785
-0.0996721
0.154611
-0.166742
0.151359
-0.195541
0.14763
-0.204314
0.141551
-0.194491
0.133022
-0.192369
0.126735
-0.181981
0.127317
-0.14751
0.135559
-0.0829043
0.14577
0.0279842
0.152906
0.120578
0.153977
0.244249
0.150094
0.293798
0.146563
0.297298
0.146276
0.200853
0.150496
0.0379916
0.152992
-0.033624
0.150207
-0.202013
0.146997
-0.22394
0.144849
-0.301605
0.143226
-0.249228
0.0257123
0.116983
0.0132819
0.122497
0.015752
0.128902
0.0169951
0.135869
0.0172175
0.143093
0.0162744
0.150301
0.0136163
0.157194
0.00874527
0.163356
0.00146583
0.168673
-0.009412
0.1725
-0.0227171
0.174449
-0.039127
0.173886
-0.0578481
0.170289
-0.0771591
0.163711
-0.0945304
0.154998
-0.107815
0.145455
-0.11625
0.136263
-0.120398
0.128112
-0.121363
0.121132
-0.120129
0.115101
-0.117383
0.109837
-0.113387
0.104938
-0.107939
0.0990936
-0.101425
0.091313
-0.095406
0.0837736
-0.089332
0.0816621
-0.0767993
0.0884187
-0.049715
0.102889
-0.00751936
0.120496
0.0408047
0.137646
0.0843432
0.152174
0.119498
0.163319
0.152805
0.171059
0.19103
0.175413
0.229289
0.176056
0.243457
0.173137
0.208563
0.167969
0.121031
0.163118
0.00438978
0.158682
-0.0952359
0.154184
-0.162244
0.14992
-0.191278
0.145929
-0.200322
0.140333
-0.188895
0.132237
-0.184274
0.12589
-0.175634
0.126085
-0.147705
0.134238
-0.0910576
0.144905
0.0173172
0.15296
0.112524
0.155078
0.242131
0.151866
0.297009
0.148384
0.30078
0.147624
0.201613
0.151686
0.03393
0.154303
-0.0362413
0.151329
-0.19904
0.147859
-0.22047
0.145577
-0.299323
0.144003
-0.247654
0.0274775
0.14354
0.011282
0.146722
0.0125694
0.150833
0.0128845
0.155532
0.012518
0.160623
0.011184
0.165832
0.00840675
0.170676
0.00390116
0.17537
-0.00322799
0.17858
-0.0126222
0.180401
-0.0245381
0.180182
-0.0389074
0.177367
-0.0550332
0.171665
-0.0714574
0.163419
-0.0862848
0.153632
-0.0980275
0.143553
-0.106171
0.134183
-0.111027
0.126035
-0.113216
0.119186
-0.113279
0.113402
-0.111599
0.108437
-0.108421
0.104154
-0.103656
0.099839
-0.0971099
0.0941028
-0.0896699
0.0872214
-0.0824506
0.0830371
-0.072615
0.0862741
-0.052952
0.0978331
-0.0190783
0.114515
0.0241232
0.132047
0.0668109
0.1478
0.103744
0.160741
0.139865
0.170677
0.181094
0.177204
0.222762
0.179281
0.241381
0.176651
0.211193
0.170853
0.126829
0.16463
0.0106121
0.159007
-0.0896123
0.153415
-0.156652
0.148211
-0.186074
0.143947
-0.196058
0.138901
-0.18385
0.131343
-0.176715
0.124961
-0.169252
0.124685
-0.147429
0.132613
-0.0989856
0.143714
0.00621688
0.152764
0.103474
0.156091
0.238804
0.153715
0.299385
0.150357
0.304138
0.149094
0.202876
0.152909
0.0301147
0.155635
-0.0389672
0.152496
-0.1959
0.148771
-0.216745
0.146351
-0.296903
0.14484
-0.246143
0.0290836
0.167155
0.0109979
0.16849
0.0112351
0.170476
0.0108983
0.172947
0.0100473
0.175807
0.00832419
0.178811
0.00540193
0.181561
0.00115168
0.183728
-0.00539489
0.184737
-0.0136313
0.184253
-0.0240548
0.181778
-0.0364319
0.17691
-0.0501656
0.169598
-0.0641446
0.160356
-0.0770427
0.150163
-0.0878349
0.140077
-0.096085
0.130872
-0.101823
0.122918
-0.105262
0.116266
-0.106627
0.110761
-0.106094
0.106146
-0.103807
0.102317
-0.0998273
0.0990777
-0.0938705
0.0953689
-0.0859611
0.0902479
-0.0773296
0.0855342
-0.0679013
0.0857457
-0.0531634
0.0937705
-0.0271031
0.108412
0.00948179
0.125512
0.0497107
0.142058
0.0871982
0.156576
0.125347
0.168568
0.169101
0.177217
0.214113
0.180903
0.237695
0.178869
0.213228
0.172693
0.133005
0.165492
0.0178134
0.158775
-0.0828957
0.152242
-0.150119
0.146193
-0.180025
0.141631
-0.191497
0.13718
-0.179398
0.130277
-0.169812
0.123895
-0.162871
0.123063
-0.146597
0.130626
-0.106549
0.14213
-0.00528654
0.152235
0.093369
0.156916
0.234123
0.155548
0.300753
0.15243
0.307256
0.150658
0.204649
0.154138
0.0266341
0.156959
-0.0417877
0.15369
-0.192632
0.149719
-0.212774
0.147155
-0.294339
0.145724
-0.244713
0.0304885
0.181032
0.0112621
0.181384
0.0108836
0.182022
0.0102604
0.182998
0.00907122
0.184227
0.00709478
0.185408
0.00422071
0.186186
0.000374162
0.186361
-0.00557015
0.185462
-0.0127319
0.183106
-0.0216994
0.178937
-0.0322621
0.172743
-0.0439725
0.164652
-0.0560532
0.155215
-0.0676057
0.145264
-0.077884
0.135611
-0.0864324
0.126829
-0.0930409
0.119197
-0.0976286
0.11277
-0.1002
0.107486
-0.100811
0.103173
-0.0994931
0.0996794
-0.0963339
0.0970404
-0.0912315
0.0948173
-0.0837379
0.0918013
-0.0743136
0.087995
-0.064095
0.0864555
-0.0516239
0.0910077
-0.0316554
0.102679
-0.00218924
0.118302
0.034087
0.135005
0.0704959
0.15088
0.109472
0.165005
0.154976
0.17598
0.203139
0.181314
0.23236
0.179854
0.214688
0.173734
0.139125
0.165736
0.0258109
0.158159
-0.0753182
0.150814
-0.142775
0.144026
-0.173236
0.139108
-0.186579
0.135204
-0.175494
0.129059
-0.163668
0.122714
-0.156526
0.121228
-0.14511
0.128253
-0.113574
0.140085
-0.0171186
0.151279
0.0821742
0.157489
0.227913
0.157293
0.30095
0.154524
0.310024
0.152291
0.206882
0.155359
0.0235666
0.158247
-0.0446759
0.154902
-0.189286
0.150686
-0.208559
0.147977
-0.29163
0.146645
-0.243381
0.0316486
0.182823
0.0112353
0.182796
0.0109108
0.182965
0.0100912
0.18323
0.00880686
0.183469
0.00685582
0.183575
0.00411448
0.183604
0.000345044
0.1825
-0.00446646
0.180473
-0.0107051
0.177141
-0.0183675
0.172278
-0.0273986
0.165813
-0.0375075
0.15795
-0.0481907
0.149175
-0.0588307
0.140116
-0.0688245
0.13135
-0.0776663
0.123289
-0.0849799
0.116162
-0.0905019
0.110046
-0.0940844
0.104946
-0.0957107
0.100806
-0.0953529
0.097488
-0.0930159
0.0950371
-0.0887806
0.0935066
-0.0822075
0.0921093
-0.0729163
0.0898727
-0.0618584
0.0880152
-0.0497664
0.0899706
-0.0336108
0.0977612
-0.00997987
0.111027
0.0208216
0.126724
0.0547988
0.142947
0.0932491
0.158562
0.139361
0.1718
0.189901
0.179158
0.225002
0.179031
0.214815
0.173527
0.14463
0.165646
0.0336916
0.157138
-0.0668102
0.149198
-0.134835
0.141868
-0.165906
0.136558
-0.181269
0.133065
-0.172001
0.127729
-0.158331
0.121458
-0.150256
0.119271
-0.142924
0.12567
-0.119973
0.137649
-0.0290976
0.149825
0.0699983
0.15762
0.220118
0.158789
0.299781
0.156567
0.312246
0.153943
0.209506
0.156564
0.0209459
0.159468
-0.0475802
0.156114
-0.185932
0.151645
-0.20409
0.148814
-0.288799
0.147595
-0.242162
0.0325179
0.199328
0.0112677
-0.19936
0.199896
0.010343
0.200652
0.00933443
0.20167
0.00778941
0.202924
0.00560116
0.204298
0.00274085
0.205672
-0.00102891
0.206956
-0.00575085
0.207863
-0.0116119
0.208119
-0.0186234
0.207432
-0.0267118
0.205575
-0.0356502
0.202451
-0.0450668
0.19812
-0.0544997
0.192759
-0.0634632
0.186596
-0.071503
0.179864
-0.0782479
0.172786
-0.0834249
0.165559
-0.0868567
0.158341
-0.0884927
0.15127
-0.0882821
0.144379
-0.0861249
0.137681
-0.0820827
0.131375
-0.0759017
0.125357
-0.0668982
0.118733
-0.0552345
0.111229
-0.0422625
0.104839
-0.0272204
0.102647
-0.00778736
0.105338
0.0181305
0.111604
0.0485326
0.119047
0.0858061
0.126447
0.13196
0.133873
0.182475
0.142097
0.216778
0.152943
0.203968
0.165348
0.132225
0.174083
0.0249563
0.17722
-0.0699466
0.174467
-0.132083
0.167731
-0.15917
0.160048
-0.173586
0.153071
-0.165023
0.144932
-0.150191
0.135892
-0.141216
0.129612
-0.136644
0.129008
-0.119368
0.132725
-0.0328143
0.136495
0.0662278
0.138626
0.217987
0.1394
0.299007
0.141121
0.310524
0.144682
0.205946
0.150337
0.01529
0.154452
-0.0516943
0.151054
-0.182535
0.145165
-0.1982
0.140197
-0.283831
0.135893
-0.237858
0.034743
0.211146
0.0108648
-0.210743
0.211804
0.00968473
0.212766
0.00837272
0.213873
0.00668192
0.215025
0.00444888
0.216199
0.00156715
0.217257
-0.00208702
0.218077
-0.00657036
0.218437
-0.0119723
0.218129
-0.0183151
0.216946
-0.0255294
0.214735
-0.0334387
0.211426
-0.0417573
0.207047
-0.0501213
0.201715
-0.0581316
0.19561
-0.0653976
0.188945
-0.0715826
0.181944
-0.0764246
0.174817
-0.0797295
0.167719
-0.0813945
0.160776
-0.0813393
0.154062
-0.0794111
0.147562
-0.0755818
0.141381
-0.0697215
0.135699
-0.0612161
0.130018
-0.0495534
0.123554
-0.0357978
0.11703
-0.0206965
0.112891
-0.003649
0.113473
0.0175491
0.118342
0.0436636
0.125755
0.0783928
0.134144
0.123571
0.142943
0.173677
0.153039
0.206682
0.166023
0.190984
0.179636
0.118612
0.188768
0.0158238
0.190919
-0.0720976
0.187036
-0.128199
0.179192
-0.151326
0.170545
-0.164939
0.163082
-0.15756
0.154882
-0.141992
0.145593
-0.131927
0.138604
-0.129655
0.137462
-0.118226
0.141049
-0.0364006
0.145343
0.0619333
0.148326
0.215005
0.150117
0.297215
0.152729
0.307913
0.156436
0.202239
0.161996
0.0097297
0.166008
-0.0557061
0.161992