/*--------------------------------*- C++ -*----------------------------------*\
| =========                 |                                                 |
| \\      /  F ield         | OpenFOAM: The Open Source CFD Toolbox           |
|  \\    /   O peration     | Version:  2512                                  |
|   \\  /    A nd           | Website:  www.openfoam.com                      |
|    \\/     M anipulation  |                                                 |
\*---------------------------------------------------------------------------*/
FoamFile
{
    version     2.0;
    format      ascii;
    arch        "LSB;label=32;scalar=64";
    class       volScalarField;
    location    "92.75";
    object      p;
}
// * * * * * * * * * * * * * * * * * * * * * * * * * * * * * * * * * * * * * //

dimensions      [0 2 -2 0 0 0 0];

internalField   nonuniform List<scalar> 
13248
(
-0.44218
-0.439208
-0.43614
-0.433171
-0.430514
-0.42839
-0.426862
-0.42581
-0.424961
-0.423917
-0.422201
-0.419307
-0.41477
-0.408218
-0.399425
-0.388331
-0.375037
-0.359782
-0.342887
-0.324729
-0.305563
-0.285778
-0.264689
-0.242984
-0.450797
-0.447222
-0.443445
-0.439684
-0.436146
-0.433044
-0.430407
-0.428064
-0.425684
-0.42283
-0.419022
-0.413814
-0.406857
-0.397947
-0.38704
-0.374247
-0.359797
-0.34399
-0.327149
-0.309579
-0.291522
-0.273215
-0.25454
-0.236206
-0.460906
-0.456527
-0.451959
-0.447388
-0.442957
-0.438827
-0.434959
-0.43111
-0.426899
-0.421887
-0.415664
-0.407916
-0.398473
-0.387321
-0.374587
-0.360499
-0.345338
-0.329393
-0.31293
-0.296176
-0.279296
-0.262478
-0.245642
-0.229157
-0.472752
-0.467351
-0.461893
-0.456466
-0.451074
-0.445779
-0.440445
-0.434758
-0.428328
-0.42079
-0.411882
-0.401483
-0.389628
-0.376472
-0.362252
-0.347238
-0.331687
-0.315827
-0.299844
-0.283883
-0.268061
-0.252505
-0.237168
-0.222417
-0.486389
-0.479766
-0.473313
-0.466946
-0.46045
-0.453748
-0.446602
-0.438667
-0.429623
-0.419266
-0.407545
-0.394562
-0.380522
-0.365689
-0.35033
-0.334684
-0.318944
-0.303258
-0.287733
-0.272451
-0.257479
-0.24288
-0.228629
-0.214958
-0.501698
-0.493702
-0.48616
-0.478727
-0.470895
-0.462426
-0.453019
-0.442383
-0.430366
-0.417002
-0.402484
-0.3871
-0.371163
-0.354961
-0.338727
-0.322631
-0.306788
-0.29127
-0.276125
-0.261385
-0.247075
-0.233221
-0.21981
-0.20699
-0.518391
-0.508942
-0.500227
-0.491547
-0.48204
-0.47133
-0.459145
-0.445367
-0.430113
-0.413696
-0.396525
-0.379001
-0.361464
-0.344161
-0.327249
-0.310819
-0.294911
-0.279538
-0.264701
-0.250395
-0.236615
-0.223355
-0.21061
-0.198429
-0.535997
-0.525092
-0.515122
-0.50494
-0.49331
-0.479802
-0.464315
-0.447039
-0.428428
-0.409055
-0.389467
-0.370097
-0.351235
-0.333044
-0.315597
-0.298906
-0.282951
-0.267701
-0.25312
-0.239177
-0.225841
-0.213089
-0.200913
-0.189274
-0.55384
-0.541548
-0.530227
-0.518204
-0.503919
-0.487039
-0.467812
-0.446845
-0.424928
-0.402823
-0.381121
-0.360202
-0.340261
-0.321365
-0.3035
-0.286614
-0.270641
-0.255513
-0.241168
-0.227551
-0.214614
-0.202322
-0.19065
-0.179493
-0.571019
-0.557467
-0.544662
-0.530382
-0.512884
-0.492143
-0.46892
-0.444277
-0.419278
-0.394766
-0.371285
-0.349105
-0.328308
-0.308865
-0.29069
-0.273679
-0.25773
-0.242746
-0.228642
-0.215344
-0.20279
-0.190933
-0.17972
-0.169019
-0.586434
-0.571771
-0.557299
-0.540298
-0.519075
-0.494146
-0.466882
-0.438765
-0.411023
-0.384475
-0.359545
-0.336373
-0.314926
-0.29509
-0.27672
-0.259672
-0.243811
-0.22902
-0.215193
-0.20224
-0.190087
-0.17867
-0.167902
-0.157663
-0.598886
-0.583294
-0.56695
-0.546762
-0.521373
-0.492051
-0.460823
-0.429509
-0.399385
-0.371159
-0.345098
-0.321197
-0.299315
-0.279262
-0.260844
-0.243881
-0.228213
-0.213702
-0.200227
-0.187686
-0.175995
-0.165076
-0.154811
-0.145137
-0.330596
-0.333196
-0.334816
-0.335929
-0.336936
-0.33793
-0.338941
-0.339972
-0.341001
-0.34199
-0.342886
-0.343628
-0.344152
-0.344392
-0.344286
-0.343782
-0.342844
-0.341459
-0.339654
-0.337499
-0.335093
-0.332533
-0.330007
-0.328034
-0.340175
-0.342734
-0.344452
-0.345805
-0.347187
-0.348685
-0.350315
-0.352061
-0.353886
-0.355734
-0.357517
-0.359138
-0.360485
-0.361428
-0.361831
-0.361551
-0.360449
-0.358404
-0.355328
-0.351189
-0.345983
-0.339686
-0.332454
-0.32525
-0.350798
-0.353109
-0.35481
-0.356338
-0.358049
-0.360017
-0.362242
-0.364696
-0.36732
-0.370023
-0.372704
-0.375223
-0.377416
-0.379092
-0.380033
-0.380003
-0.378756
-0.376051
-0.371679
-0.365491
-0.357378
-0.347207
-0.33505
-0.322324
-0.362096
-0.363968
-0.365526
-0.367136
-0.36909
-0.371443
-0.374181
-0.377256
-0.380591
-0.384075
-0.387564
-0.390887
-0.393834
-0.396148
-0.397535
-0.39767
-0.396207
-0.392795
-0.387111
-0.37889
-0.367947
-0.354138
-0.337356
-0.318865
-0.373596
-0.374877
-0.376167
-0.377739
-0.379805
-0.382405
-0.385509
-0.389047
-0.39292
-0.396995
-0.401101
-0.405021
-0.408498
-0.411215
-0.41281
-0.412879
-0.410994
-0.406721
-0.39965
-0.389437
-0.37586
-0.35884
-0.338153
-0.313944
-0.384804
-0.385405
-0.386314
-0.387706
-0.389717
-0.392374
-0.395633
-0.39941
-0.403579
-0.40798
-0.412411
-0.416618
-0.420289
-0.423065
-0.424509
-0.424165
-0.421545
-0.416169
-0.407597
-0.395482
-0.379622
-0.359926
-0.336473
-0.308773
-0.395292
-0.395195
-0.395634
-0.396697
-0.398459
-0.400945
-0.40411
-0.407852
-0.412024
-0.416438
-0.420858
-0.42499
-0.428478
-0.430909
-0.43181
-0.430676
-0.426993
-0.420275
-0.410114
-0.396219
-0.3785
-0.356879
-0.332283
-0.302778
-0.404782
-0.404036
-0.403942
-0.404533
-0.405848
-0.407926
-0.410729
-0.414149
-0.418021
-0.422129
-0.4262
-0.429903
-0.43284
-0.434556
-0.434546
-0.432287
-0.427273
-0.419061
-0.407326
-0.391884
-0.372854
-0.350133
-0.325428
-0.295803
-0.413204
-0.411902
-0.41124
-0.411233
-0.411921
-0.413372
-0.415568
-0.418402
-0.421696
-0.425207
-0.42863
-0.43159
-0.43365
-0.434319
-0.433078
-0.429416
-0.422874
-0.413102
-0.399912
-0.383269
-0.363503
-0.340571
-0.316414
-0.288072
-0.420716
-0.41896
-0.417714
-0.417016
-0.416937
-0.417589
-0.418981
-0.421016
-0.423505
-0.426181
-0.428697
-0.430636
-0.431523
-0.430843
-0.428084
-0.422783
-0.414575
-0.403249
-0.388785
-0.371344
-0.351387
-0.329078
-0.306061
-0.279876
-0.427688
-0.425548
-0.423707
-0.422256
-0.421319
-0.421058
-0.421508
-0.422588
-0.424095
-0.425727
-0.427095
-0.42774
-0.427155
-0.424827
-0.420287
-0.413162
-0.403221
-0.390415
-0.374884
-0.356963
-0.337163
-0.315947
-0.294527
-0.271065
-0.434649
-0.432127
-0.429673
-0.427439
-0.425605
-0.424376
-0.423824
-0.423852
-0.424235
-0.424631
-0.424604
-0.423656
-0.421277
-0.416994
-0.41043
-0.401346
-0.389676
-0.375526
-0.359149
-0.340945
-0.321318
-0.300892
-0.280342
-0.2596
-0.327022
-0.327669
-0.330537
-0.335251
-0.341139
-0.346878
-0.350717
-0.350344
-0.343612
-0.328996
-0.306056
-0.275653
-0.240951
-0.206305
-0.175964
-0.152925
-0.138591
-0.133565
-0.138636
-0.154001
-0.176611
-0.198546
-0.20932
-0.202354
-0.179051
-0.14747
-0.116983
-0.0933459
-0.0783699
-0.0713006
-0.070668
-0.0768911
-0.0914315
-0.110944
-0.125359
-0.124971
-0.110544
-0.0903375
-0.0734598
-0.0631831
-0.0583625
-0.0602348
-0.0700762
-0.0828613
-0.0879675
-0.0801732
-0.0669365
-0.0542446
-0.0451435
-0.0404153
-0.0393482
-0.039886
-0.0381177
-0.0346863
-0.031229
-0.0266221
-0.019732
-0.016694
-0.0133057
-0.00597897
-0.318258
-0.310772
-0.305438
-0.302138
-0.30084
-0.300754
-0.300555
-0.298179
-0.292022
-0.280136
-0.262247
-0.238328
-0.211352
-0.184611
-0.161586
-0.144886
-0.136067
-0.136343
-0.146954
-0.167713
-0.194512
-0.218503
-0.22868
-0.219562
-0.192473
-0.156818
-0.122718
-0.096016
-0.0782569
-0.0685636
-0.0653814
-0.0686515
-0.0797343
-0.0962788
-0.109515
-0.110355
-0.0989957
-0.0823796
-0.0689647
-0.061686
-0.059424
-0.0639659
-0.0765481
-0.0914363
-0.0972926
-0.0880031
-0.0722099
-0.0566414
-0.0453693
-0.0386132
-0.0355618
-0.0349219
-0.0326718
-0.0304469
-0.0280387
-0.0252289
-0.0201775
-0.0182185
-0.0156836
-0.00716941
-0.30981
-0.293862
-0.279904
-0.267921
-0.258484
-0.25141
-0.245969
-0.240772
-0.234109
-0.223997
-0.211849
-0.194516
-0.175481
-0.156652
-0.140978
-0.130802
-0.127879
-0.133918
-0.150258
-0.176061
-0.206375
-0.232057
-0.242683
-0.231541
-0.201795
-0.163243
-0.126467
-0.0974016
-0.0773618
-0.0653517
-0.0598013
-0.0602757
-0.0679466
-0.081439
-0.0933764
-0.0952636
-0.0868513
-0.0737473
-0.0637647
-0.0594983
-0.0598564
-0.0670907
-0.0823369
-0.0992289
-0.10587
-0.0952727
-0.0770673
-0.0587257
-0.0453936
-0.0368349
-0.0320211
-0.0302941
-0.0274479
-0.0262449
-0.0247561
-0.0237927
-0.0206401
-0.0197369
-0.0180502
-0.00836005
-0.302207
-0.278251
-0.256316
-0.235928
-0.218192
-0.203516
-0.191806
-0.182619
-0.17469
-0.165116
-0.155817
-0.145622
-0.134019
-0.122698
-0.114283
-0.110767
-0.114043
-0.126059
-0.147937
-0.178204
-0.211435
-0.23858
-0.249574
-0.237878
-0.206792
-0.166623
-0.12823
-0.0975941
-0.0758631
-0.0619464
-0.0543014
-0.0522194
-0.0566579
-0.0670729
-0.0775431
-0.0810974
-0.0744691
-0.0646685
-0.0579748
-0.0566214
-0.0595399
-0.0693596
-0.0871382
-0.10595
-0.113448
-0.10181
-0.0814254
-0.0604809
-0.0452249
-0.0350956
-0.0287536
-0.0260468
-0.0225027
-0.0221297
-0.0214154
-0.0223321
-0.021125
-0.0212384
-0.020385
-0.00953883
-0.29494
-0.264201
-0.236614
-0.209034
-0.183802
-0.161739
-0.143106
-0.129532
-0.118063
-0.109024
-0.0992762
-0.095177
-0.0894823
-0.0848344
-0.0832074
-0.0862081
-0.0957365
-0.113608
-0.140496
-0.174432
-0.209917
-0.238237
-0.249889
-0.238633
-0.207564
-0.167132
-0.128255
-0.0968251
-0.0739551
-0.0585665
-0.0491626
-0.0448567
-0.0463053
-0.0536717
-0.0624132
-0.0662784
-0.0620688
-0.0553508
-0.0516883
-0.0530336
-0.0583475
-0.0705697
-0.0907177
-0.111357
-0.119779
-0.107432
-0.0852116
-0.0619084
-0.044884
-0.0334048
-0.0257639
-0.0222049
-0.0178881
-0.0181508
-0.0180516
-0.0208643
-0.0216353
-0.0227107
-0.0226635
-0.0106937
-0.28746
-0.25434
-0.220686
-0.188005
-0.156961
-0.128715
-0.102772
-0.0874347
-0.0697199
-0.0610616
-0.0502571
-0.0484459
-0.0466657
-0.0471787
-0.0512064
-0.0600441
-0.0753033
-0.0983437
-0.129259
-0.165766
-0.202646
-0.231852
-0.244351
-0.234206
-0.204348
-0.16501
-0.126771
-0.0953123
-0.071817
-0.0553571
-0.0445347
-0.0383859
-0.0372195
-0.041651
-0.0484791
-0.0522793
-0.0500225
-0.0460143
-0.0450036
-0.0487469
-0.0562222
-0.0706088
-0.0929055
-0.115248
-0.124665
-0.112021
-0.088369
-0.063009
-0.0443878
-0.0317615
-0.0230393
-0.0187754
-0.0136437
-0.0143506
-0.0146994
-0.0194021
-0.0221708
-0.0241379
-0.0248618
-0.0118149
-0.27984
-0.246233
-0.210671
-0.175492
-0.141209
-0.109057
-0.0802153
-0.0570508
-0.0375421
-0.0245947
-0.0174047
-0.0115427
-0.0109449
-0.0144785
-0.0224237
-0.0356729
-0.0553593
-0.082225
-0.115778
-0.153592
-0.190945
-0.220605
-0.23391
-0.225347
-0.197689
-0.160629
-0.124038
-0.0932564
-0.0695998
-0.0524163
-0.0404884
-0.0328422
-0.0295019
-0.0312475
-0.0360953
-0.0395589
-0.038713
-0.0369096
-0.0380712
-0.0438471
-0.05317
-0.0694173
-0.0936047
-0.11749
-0.128
-0.115493
-0.0908435
-0.0637765
-0.0437483
-0.0301613
-0.0205537
-0.0157401
-0.00979334
-0.0107649
-0.0113916
-0.0179532
-0.0227272
-0.0255038
-0.02696
-0.0128921
-0.272108
-0.239596
-0.2053
-0.170501
-0.135595
-0.101888
-0.0708043
-0.0437198
-0.0209479
-0.00385874
0.00743876
0.0137869
0.0142912
0.00977853
-4.30497e-06
-0.0156763
-0.0378919
-0.0668022
-0.101423
-0.139286
-0.176216
-0.205803
-0.219606
-0.212889
-0.188201
-0.154364
-0.120247
-0.0907583
-0.067365
-0.0497731
-0.0370292
-0.0282085
-0.0231172
-0.0225217
-0.0254385
-0.028369
-0.0284416
-0.0282745
-0.0310843
-0.0384554
-0.049262
-0.0670146
-0.0927834
-0.118053
-0.12974
-0.117768
-0.0925929
-0.0642143
-0.0429786
-0.0286069
-0.0182897
-0.0130689
-0.00634043
-0.00741969
-0.00815932
-0.0165203
-0.0232976
-0.0267954
-0.0289375
-0.0139136
-0.264373
-0.234059
-0.203127
-0.170945
-0.137549
-0.104395
-0.0728264
-0.0439133
-0.0184518
0.00252692
0.0183155
0.0261347
0.0279305
0.0243279
0.014774
-0.00118913
-0.0238543
-0.0529472
-0.0871219
-0.123886
-0.159578
-0.188606
-0.202456
-0.19774
-0.176612
-0.146707
-0.11569
-0.0880026
-0.0652607
-0.0475492
-0.0342438
-0.0245293
-0.0180638
-0.0154984
-0.0165853
-0.018821
-0.01939
-0.0203017
-0.0242502
-0.0327399
-0.0445623
-0.0634045
-0.0905071
-0.117006
-0.129881
-0.118827
-0.0936365
-0.0643965
-0.0421401
-0.0271289
-0.0162522
-0.010764
-0.0032835
-0.00432687
-0.00503059
-0.0151008
-0.0238711
-0.0280028
-0.030771
-0.0148668
-0.256732
-0.229514
-0.202941
-0.17437
-0.143769
-0.112823
-0.082543
-0.053668
-0.0271492
-0.00380001
0.0169423
0.0258955
0.0305668
0.0294273
0.0219075
0.00756105
-0.0136576
-0.0412176
-0.0735288
-0.108153
-0.141707
-0.169574
-0.183347
-0.180979
-0.16395
-0.138519
-0.11107
-0.0855809
-0.0638071
-0.0461871
-0.0324714
-0.0220404
-0.0144595
-0.0102298
-0.00958799
-0.0109877
-0.0117054
-0.0131386
-0.0177268
-0.0268411
-0.0392872
-0.0588275
-0.0868191
-0.114395
-0.128457
-0.118702
-0.094026
-0.0644439
-0.0413557
-0.0257813
-0.0144302
-0.00883267
-0.000671876
-0.00149889
-0.0020276
-0.0136904
-0.0244329
-0.0291135
-0.032433
-0.0157408
-0.249533
-0.226427
-0.204147
-0.178809
-0.151231
-0.123201
-0.0950736
-0.0672096
-0.0406313
-0.0165626
0.00414747
0.0177618
0.0251745
0.0274798
0.0232232
0.0119103
-0.00640669
-0.0312101
-0.0608314
-0.092683
-0.123623
-0.151109
-0.162757
-0.162886
-0.150381
-0.129907
-0.106449
-0.0834899
-0.0629455
-0.045591
-0.0315607
-0.0205491
-0.01208
-0.00643575
-0.00415447
-0.00470223
-0.00535937
-0.00701122
-0.0117908
-0.020928
-0.0333373
-0.0530936
-0.0820477
-0.110639
-0.125453
-0.117216
-0.0935237
-0.0641204
-0.0405256
-0.0244722
-0.0127034
-0.00709848
0.00149621
0.000999705
0.000810556
-0.0122519
-0.0249706
-0.0301177
-0.0338965
-0.0165186
-0.242587
-0.225922
-0.207782
-0.185302
-0.161078
-0.136546
-0.111609
-0.0865166
-0.0620705
-0.0394306
-0.0206896
-0.000105339
0.0126409
0.0181389
0.0177171
0.010777
-0.00305503
-0.02317
-0.0481421
-0.0755175
-0.102296
-0.121802
-0.138938
-0.141583
-0.133525
-0.117937
-0.0985271
-0.0783595
-0.0595101
-0.0429887
-0.0291625
-0.0180559
-0.00925948
-0.00275568
0.000862672
0.00110374
0.000295477
-0.00161693
-0.00656282
-0.0154675
-0.0275836
-0.0469581
-0.076049
-0.105157
-0.120877
-0.11384
-0.0914516
-0.0624394
-0.038883
-0.0227217
-0.0108164
-0.00518619
0.00365659
0.00335348
0.00343391
-0.010825
-0.0254543
-0.0309794
-0.035156
-0.0171865
-0.22413
-0.219338
-0.201578
-0.179253
-0.156747
-0.134351
-0.11147
-0.0882398
-0.0654321
-0.0438875
-0.0251082
-0.00731011
0.00476578
0.0114866
0.0127749
0.0078148
-0.00377487
-0.0215918
-0.0441897
-0.0692129
-0.0935975
-0.113561
-0.12599
-0.127752
-0.120102
-0.105894
-0.0883842
-0.0701511
-0.0529626
-0.0376909
-0.0246592
-0.0139701
-0.00532094
0.00136948
0.00568635
0.00677876
0.0063764
0.00570621
0.000241086
-0.00782546
-0.0192312
-0.0386688
-0.0695992
-0.10133
-0.118986
-0.112149
-0.0890018
-0.0596728
-0.0362856
-0.0204733
-0.00886736
-0.00320856
0.00615787
0.00611285
0.00650789
-0.00912312
-0.0259657
-0.0317642
-0.0362741
-0.0177494
-0.206693
-0.204809
-0.188543
-0.167552
-0.147049
-0.12727
-0.107268
-0.0868954
-0.0667552
-0.0475704
-0.030506
-0.0154148
-0.00415306
0.00261079
0.00436416
0.00057159
-0.00901488
-0.0240228
-0.0431458
-0.0642653
-0.0845933
-0.100642
-0.110234
-0.111206
-0.104514
-0.0924614
-0.0775552
-0.0617907
-0.0466221
-0.03283
-0.0207506
-0.0106392
-0.00229988
0.0044198
0.00913916
0.0106785
0.0103001
0.00906025
0.00476962
-0.00225548
-0.0126788
-0.0317371
-0.0637255
-0.0967744
-0.114636
-0.107347
-0.0845612
-0.0561115
-0.0335069
-0.0181971
-0.00693172
-0.00134352
0.00807277
0.00801306
0.00893962
-0.00779466
-0.0265584
-0.0324348
-0.037011
-0.0181033
-0.190396
-0.189112
-0.175336
-0.156737
-0.138464
-0.121119
-0.10377
-0.0860711
-0.0684663
-0.051715
-0.0363607
-0.0231067
-0.0129544
-0.00666357
-0.00469716
-0.00742374
-0.0149712
-0.0269398
-0.0421786
-0.0588813
-0.0748172
-0.0874411
-0.0947945
-0.0955473
-0.0902641
-0.080457
-0.0679583
-0.0543554
-0.0409131
-0.028404
-0.0171855
-0.00758098
0.000467108
0.00708848
0.0120286
0.0139675
0.0137176
0.0111613
0.00869752
0.00227954
-0.00768043
-0.0265459
-0.0584529
-0.0908035
-0.108201
-0.101063
-0.0792504
-0.0521592
-0.0305242
-0.0158287
-0.00496884
0.000515342
0.00984467
0.00966994
0.0109345
-0.0068076
-0.027191
-0.0329537
-0.0373944
-0.0183084
-0.173865
-0.173808
-0.162725
-0.146711
-0.130607
-0.115409
-0.100389
-0.0850924
-0.0697804
-0.0550718
-0.0415966
-0.0299803
-0.0209358
-0.0150519
-0.0127343
-0.0142747
-0.0197273
-0.0287199
-0.0403377
-0.0531886
-0.0654946
-0.0753317
-0.0810895
-0.0817812
-0.0776033
-0.0695622
-0.0590482
-0.0473283
-0.0354653
-0.0241819
-0.0138322
-0.00476232
0.00296475
0.00940026
0.0144552
0.0168051
0.0169597
0.0151311
0.0127846
0.00687785
-0.00280816
-0.0212546
-0.0521668
-0.0834395
-0.100534
-0.0936569
-0.0730428
-0.0476614
-0.0272999
-0.0133698
-0.00297564
0.00237062
0.0115067
0.0112165
0.0127299
-0.00588447
-0.0276913
-0.0332654
-0.0374269
-0.0183471
-0.158198
-0.159423
-0.150593
-0.136928
-0.122895
-0.109677
-0.0967525
-0.0836348
-0.0704522
-0.0577103
-0.0459815
-0.0358035
-0.0277043
-0.0221408
-0.0194679
-0.0199158
-0.0235072
-0.029941
-0.0385236
-0.0481603
-0.0574683
-0.0649356
-0.0693239
-0.0698036
-0.0664067
-0.0597897
-0.0509573
-0.0408817
-0.0304309
-0.0202691
-0.0107541
-0.00222779
0.00517575
0.0113841
0.0164572
0.0191583
0.0198377
0.0187615
0.0169335
0.0117612
0.00263639
-0.0148594
-0.0445409
-0.0748973
-0.0915144
-0.0850442
-0.0659588
-0.0426747
-0.0238728
-0.0108464
-0.000965098
0.00421981
0.0130439
0.012624
0.0144004
-0.00485838
-0.0279503
-0.0333206
-0.0370335
-0.0181721
-0.144066
-0.145822
-0.138775
-0.127278
-0.115253
-0.103905
-0.092887
-0.0817345
-0.0704868
-0.0595355
-0.0493706
-0.0404501
-0.0331906
-0.0279564
-0.0250361
-0.0246075
-0.0266796
-0.0310127
-0.03707
-0.043997
-0.050778
-0.0562296
-0.0593853
-0.0595742
-0.0567212
-0.0512055
-0.0437279
-0.0350324
-0.0258193
-0.0166771
-0.00795772
1.19558e-05
0.00708382
0.0130546
0.0180651
0.0210322
0.022274
0.0220176
0.0210139
0.0168569
0.00864536
-0.00760488
-0.0359705
-0.0651889
-0.0811592
-0.0753539
-0.0581435
-0.0372716
-0.0202754
-0.00828266
0.00104743
0.00605576
0.0144576
0.0138746
0.0159207
-0.00369499
-0.0278534
-0.0330152
-0.0361139
-0.0177373
-0.130688
-0.132813
-0.127378
-0.117875
-0.107718
-0.0980867
-0.0887658
-0.0793621
-0.0698372
-0.0604886
-0.0517269
-0.0439376
-0.0374582
-0.0325751
-0.0295141
-0.0284106
-0.0292661
-0.0318922
-0.0358779
-0.0405764
-0.0452899
-0.0490555
-0.051135
-0.0509778
-0.0484454
-0.0437364
-0.0373306
-0.0297868
-0.0216549
-0.0134357
-0.00546188
0.00194866
0.00867251
0.0144143
0.019322
0.0224785
0.0242357
0.0248774
0.0248609
0.0219607
0.0148702
-1.71463e-05
-0.0267707
-0.0545148
-0.0697214
-0.0648152
-0.0497931
-0.0315631
-0.0165556
-0.00570512
0.00304537
0.00787387
0.0157622
0.01497
0.0172466
-0.00236875
-0.0272225
-0.0322102
-0.0345844
-0.0170026
-0.118006
-0.12057
-0.116541
-0.108782
-0.10029
-0.0921991
-0.0843917
-0.0765209
-0.0685166
-0.0605961
-0.0530912
-0.0463224
-0.0405624
-0.0360364
-0.0329198
-0.0313157
-0.031224
-0.0324997
-0.0348325
-0.0378641
-0.0408351
-0.043194
-0.0443307
-0.0437926
-0.0414192
-0.0372954
-0.031734
-0.0251429
-0.0179454
-0.0105566
-0.00327453
0.00358707
0.00994227
0.015459
0.0202551
0.0235464
0.0257234
0.0271143
0.0282222
0.026768
0.0209885
0.00756516
-0.0173408
-0.0433061
-0.0575572
-0.053756
-0.0411687
-0.0256961
-0.0127716
-0.00313877
0.00501294
0.00967114
0.0169827
0.0159348
0.0183642
-0.000792531
-0.0258358
-0.0307573
-0.0323866
-0.0159399
-0.106351
-0.109173
-0.106255
-0.0999843
-0.0929635
-0.0862419
-0.0797678
-0.073241
-0.0665706
-0.0599093
-0.0535205
-0.0476657
-0.0425661
-0.0383999
-0.0353048
-0.0333609
-0.032569
-0.0328095
-0.033774
-0.0355127
-0.0371689
-0.0383831
-0.0387147
-0.0378046
-0.0354913
-0.0317877
-0.0268869
-0.0210795
-0.0146848
-0.00804091
-0.00139821
0.00493657
0.0109067
0.0161874
0.0208679
0.0242622
0.026782
0.0287437
0.0308275
0.0308621
0.0265425
0.0146312
-0.00826572
-0.0320176
-0.0448989
-0.0425772
-0.0325754
-0.0198453
-0.00899225
-0.000606094
0.00693593
0.0114444
0.0181559
0.0168334
0.0193056
0.00116233
-0.0234697
-0.0285174
-0.0295021
-0.0145398
-0.0956721
-0.0985209
-0.0964855
-0.0914937
-0.0857624
-0.0802428
-0.0749307
-0.0695699
-0.0640578
-0.0584968
-0.0530917
-0.0480541
-0.043563
-0.0397602
-0.0367537
-0.0346087
-0.0333366
-0.0328771
-0.0331495
-0.0335402
-0.0341033
-0.0343976
-0.0340655
-0.0328203
-0.0305102
-0.0271083
-0.022726
-0.0175646
-0.0118582
-0.00587944
0.000172222
0.00600866
0.0115867
0.0166103
0.0211565
0.0246264
0.0274376
0.0297626
0.0325136
0.0337547
0.0307703
0.0204248
-5.57319e-05
-0.021043
-0.0325693
-0.0317489
-0.0243331
-0.0141976
-0.00529655
0.00187094
0.00880318
0.0131895
0.0193283
0.0177732
0.0201401
0.00362248
-0.0199476
-0.0253934
-0.0259764
-0.0128219
-0.0857202
-0.0885632
-0.0872606
-0.0833517
-0.0787261
-0.0742423
-0.0699294
-0.0655695
-0.0610543
-0.056447
-0.0519044
-0.0475956
-0.0436645
-0.0402236
-0.0373574
-0.0351179
-0.0335167
-0.0325065
-0.0319806
-0.0316773
-0.0314549
-0.0310452
-0.0301888
-0.0286618
-0.0263317
-0.023153
-0.0191832
-0.0145573
-0.00944236
-0.00405487
0.00145033
0.00681644
0.0120042
0.0167513
0.0211259
0.0246238
0.0276681
0.0301824
0.0332154
0.035126
0.0331152
0.0244482
0.00698313
-0.0108204
-0.0210781
-0.0217599
-0.0167387
-0.00892705
-0.00176847
0.00426497
0.0106024
0.0148994
0.0205449
0.0188873
0.0209687
0.00668463
-0.0152124
-0.0213728
-0.021931
-0.0108505
-0.0764999
-0.0793246
-0.0786022
-0.0755837
-0.0718881
-0.0682838
-0.0648202
-0.0613108
-0.0576458
-0.0538587
-0.0500672
-0.0464047
-0.0429862
-0.0399003
-0.037213
-0.0349644
-0.0331664
-0.0317878
-0.030747
-0.0299006
-0.0291045
-0.0281735
-0.0269203
-0.0251743
-0.0228253
-0.0198216
-0.0161874
-0.0120102
-0.00740621
-0.00254428
0.00245678
0.00737812
0.012182
0.0166378
0.0207984
0.024241
0.0271625
0.0299958
0.0330129
0.0350673
0.0336759
0.026713
0.0125723
-0.00198564
-0.0109396
-0.0130312
-0.0100117
-0.00416611
0.00151444
0.00654169
0.0123094
0.0165503
0.0218327
0.0202994
0.0219336
0.0103824
-0.00941053
-0.0165784
-0.0175692
-0.00873235
-0.0680615
-0.0707823
-0.0704873
-0.0681929
-0.0652745
-0.0624106
-0.0596611
-0.056867
-0.0539207
-0.0508334
-0.0476915
-0.0445991
-0.0416471
-0.0389052
-0.0364246
-0.0342359
-0.0323508
-0.0307521
-0.0293848
-0.0281567
-0.0269597
-0.0256608
-0.0241257
-0.0222262
-0.0198741
-0.0170194
-0.0136673
-0.0098722
-0.00571342
-0.00132011
0.00321725
0.00771789
0.0121451
0.0162997
0.0202182
0.0235672
0.026502
0.0292899
0.0320724
0.0339518
0.0329397
0.0274881
0.0164613
0.00486103
-0.00259009
-0.00581142
-0.00425713
1.03924e-05
0.00449043
0.00866614
0.0138872
0.0180828
0.0231596
0.0220666
0.0232146
0.0146467
-0.00294953
-0.0113097
-0.013148
-0.00659889
-0.0603107
-0.0628722
-0.0628942
-0.0611887
-0.0589148
-0.0566669
-0.0545111
-0.0523123
-0.0499679
-0.0474729
-0.044889
-0.0422964
-0.0397663
-0.0373531
-0.0350962
-0.0330234
-0.0311363
-0.0294325
-0.0278763
-0.0264081
-0.0249517
-0.0234127
-0.0216956
-0.0197056
-0.0173748
-0.0146586
-0.0115532
-0.00809031
-0.00432407
-0.000350533
0.00376041
0.0078635
0.0119229
0.0157691
0.0194248
0.0226326
0.0254914
0.0281302
0.0305754
0.0321542
0.0313688
0.0271339
0.0187132
0.00950412
0.00156777
-0.00019869
0.000526573
0.00358314
0.00711625
0.0106054
0.0152979
0.0194132
0.0243973
0.0240596
0.0249186
0.0192353
0.00353852
-0.00600489
-0.00892653
-0.00458134
-0.0531641
-0.0555614
-0.0558193
-0.0545849
-0.0528368
-0.0510945
-0.0494262
-0.0477178
-0.0458727
-0.0438751
-0.0417671
-0.0396098
-0.0374583
-0.035354
-0.0333277
-0.0313982
-0.0295811
-0.0278623
-0.026225
-0.0246314
-0.0230301
-0.0213557
-0.0195417
-0.0175192
-0.0152378
-0.01266
-0.00977905
-0.00661186
-0.00319611
0.000398587
0.00411684
0.00784533
0.0115481
0.0150814
0.0184574
0.0214811
0.0241917
0.0266163
0.0287053
0.0299715
0.0293362
0.0260694
0.0197448
0.0126799
0.00650903
0.00430456
0.00443187
0.0065754
0.00936924
0.0123248
0.0165039
0.0204755
0.0253658
0.025869
0.0268049
0.0235718
0.00937541
-0.00107552
-0.00511058
-0.00278899
-0.0466105
-0.0488316
-0.0492498
-0.0483841
-0.0470597
-0.0457279
-0.0444562
-0.0431476
-0.0417132
-0.0401298
-0.0384251
-0.0366447
-0.034831
-0.0330159
-0.0312224
-0.0294652
-0.0277534
-0.0260836
-0.0244458
-0.0228157
-0.0211601
-0.0194344
-0.0175942
-0.0155901
-0.0133864
-0.0109528
-0.00828341
-0.0053857
-0.00228736
0.00096245
0.00431881
0.00769424
0.011053
0.014278
0.0173672
0.020168
0.0226787
0.0248625
0.0266314
0.0276343
0.02713
0.0246503
0.0199691
0.014685
0.00994106
0.00776209
0.00754332
0.00902544
0.0112437
0.0137893
0.017466
0.0212295
0.0259063
0.0271364
0.0282683
0.0267833
0.0140463
0.00320674
-0.00183613
-0.00129365
-0.0406161
-0.0426445
-0.043162
-0.0425821
-0.041597
-0.0405961
-0.0396436
-0.038658
-0.0375585
-0.0363177
-0.0349524
-0.0334962
-0.0319811
-0.0304315
-0.0288645
-0.0272904
-0.0257154
-0.0241401
-0.0225599
-0.02096
-0.0193194
-0.0176087
-0.0157992
-0.0138563
-0.0117563
-0.00947556
-0.00701066
-0.00436369
-0.00155667
0.00137665
0.00439838
0.00744224
0.0104734
0.0133979
0.0161997
0.0187547
0.0210408
0.0229859
0.0244923
0.0253028
0.0249359
0.0231021
0.019695
0.0158176
0.012233
0.010318
0.00994873
0.0109752
0.0127432
0.0149679
0.0181469
0.0216356
0.0259114
0.027605
0.0287315
0.0282041
0.0172846
0.00666262
0.000813412
-0.000128401
-0.0351259
-0.0369618
-0.0375357
-0.0371753
-0.0364594
-0.0357224
-0.0350244
-0.0342971
-0.0334681
-0.0325086
-0.0314268
-0.0302474
-0.0289941
-0.027685
-0.0263334
-0.0249457
-0.0235255
-0.0220746
-0.0205925
-0.0190705
-0.0174963
-0.0158506
-0.014116
-0.0122688
-0.0102946
-0.00817565
-0.00591158
-0.00350172
-0.000964961
0.0016759
0.00438769
0.00712163
0.00984248
0.0124759
0.0149966
0.017304
0.0193645
0.0210875
0.0223898
0.0230771
0.0228547
0.0215466
0.0191259
0.0163355
0.0136884
0.0121273
0.011737
0.0124674
0.0138809
0.0158351
0.0185307
0.0216712
0.0253679
0.0272473
0.0280956
0.0278266
0.0190341
0.00915825
0.00281157
0.000711134
-0.0301056
-0.0317551
-0.0323526
-0.0321571
-0.0316521
-0.0311235
-0.0306264
-0.0301038
-0.0294917
-0.028761
-0.0279148
-0.0269701
-0.0259446
-0.0248512
-0.0236992
-0.0224937
-0.0212362
-0.019928
-0.0185703
-0.0171589
-0.0156871
-0.0141425
-0.0125153
-0.01079
-0.00895897
-0.00700943
-0.00494378
-0.00276039
-0.000476373
0.00189291
0.0043175
0.00676201
0.00919181
0.0115483
0.0138009
0.0158684
0.0177121
0.0192424
0.0203921
0.0210106
0.0209325
0.0200516
0.0183877
0.0164291
0.0145301
0.0133354
0.0129965
0.0135449
0.014679
0.0163815
0.0186241
0.0213571
0.0243819
0.0262184
0.026685
0.0262035
0.019438
0.010668
0.00420128
0.00126763
-0.0255257
-0.0269949
-0.0275904
-0.0275167
-0.0271757
-0.0268104
-0.0264705
-0.0261086
-0.0256688
-0.0251233
-0.0244712
-0.0237243
-0.0228953
-0.021993
-0.0210235
-0.019991
-0.0188965
-0.0177393
-0.0165209
-0.01524
-0.0138938
-0.0124746
-0.0109773
-0.00939227
-0.00771654
-0.00594156
-0.0040718
-0.00210567
-5.93335e-05
0.00205696
0.00421604
0.0063916
0.00855067
0.0106481
0.0126506
0.0144924
0.0161358
0.0175039
0.0185391
0.019127
0.0191862
0.0186496
0.0175594
0.0162314
0.0149231
0.0140659
0.0138117
0.0142528
0.0151658
0.016622
0.0184491
0.0207459
0.0231019
0.0247138
0.0248447
0.0239714
0.0188219
0.0113144
0.00507397
0.0016042
-0.0213522
-0.0226507
-0.0232272
-0.0232419
-0.0230274
-0.022789
-0.0225709
-0.0223342
-0.0220303
-0.0216334
-0.0211403
-0.0205587
-0.0198979
-0.0191635
-0.0183587
-0.0174868
-0.0165493
-0.015544
-0.0144711
-0.0133308
-0.0121232
-0.0108436
-0.00948987
-0.00805621
-0.00654286
-0.00494448
-0.00326696
-0.00150932
0.000313431
0.00219387
0.0041075
0.00603484
0.00794452
0.00980201
0.0115757
0.0132132
0.014687
0.0159064
0.0168528
0.0174332
0.0176135
0.0173483
0.0166914
0.0158414
0.0149867
0.0144184
0.0142602
0.0146377
0.0153736
0.0165909
0.0180434
0.0199035
0.0216468
0.0229218
0.0228059
0.0215779
0.0175758
0.0113073
0.00553421
0.00177986
-0.017556
-0.0186959
-0.0192419
-0.019319
-0.0192012
-0.0190607
-0.0189363
-0.0187962
-0.0185986
-0.0183203
-0.0179567
-0.0175127
-0.0169945
-0.0164059
-0.015748
-0.015022
-0.0142321
-0.0133737
-0.0124458
-0.011449
-0.0103847
-0.00925077
-0.00804687
-0.0067695
-0.00542078
-0.00399781
-0.00250709
-0.000948578
0.000664023
0.00232489
0.004012
0.0057107
0.00739329
0.00903188
0.0105971
0.0120476
0.0133595
0.0144612
0.01534
0.0159235
0.0162038
0.0161483
0.0158145
0.0153233
0.0148132
0.0144785
0.0144105
0.0147463
0.0153379
0.016331
0.0174529
0.0188996
0.0201082
0.0210043
0.0207159
0.0192628
0.0160283
0.010861
0.00567931
0.00183671
-0.0141111
-0.0151051
-0.0156136
-0.0157333
-0.0156887
-0.0156232
-0.0155703
-0.015504
-0.0153891
-0.0152048
-0.0149462
-0.014616
-0.0142184
-0.0137558
-0.0132285
-0.0126364
-0.0119782
-0.0112562
-0.0104677
-0.00961145
-0.00868936
-0.00770095
-0.006647
-0.00552551
-0.00433936
-0.00308736
-0.00177618
-0.000406454
0.00100937
0.00246622
0.00394537
0.00543475
0.0069104
0.00835082
0.00972919
0.0110103
0.0121751
0.013175
0.0139984
0.0145862
0.0149442
0.0150476
0.0149486
0.0147218
0.0144669
0.0143136
0.0143216
0.0146253
0.0150972
0.0158858
0.0167212
0.0177935
0.0185847
0.0190941
0.0186742
0.0171289
0.0144036
0.0101492
0.00559247
0.00182256
-0.0109931
-0.0118543
-0.0123217
-0.0124695
-0.0124799
-0.0124713
-0.0124724
-0.0124621
-0.0124109
-0.0123009
-0.0121268
-0.0118901
-0.0115933
-0.0112376
-0.0108228
-0.0103469
-0.00980969
-0.00921366
-0.00855587
-0.00783389
-0.00704876
-0.00620109
-0.00529252
-0.00432211
-0.00329284
-0.00220463
-0.00106372
0.000128469
0.00136119
0.00262987
0.00391841
0.00521712
0.00650522
0.00776561
0.00897638
0.0101074
0.011142
0.0120474
0.0128209
0.0134085
0.0138208
0.0140397
0.0141078
0.0140696
0.0139952
0.0139762
0.0140441
0.0143194
0.0146905
0.0152956
0.0158895
0.0166325
0.0170967
0.0172743
0.0167447
0.0152076
0.0128347
0.00930104
0.00534087
0.00175425
-0.00817965
-0.00892164
-0.00934694
-0.00951198
-0.00956333
-0.00959768
-0.0096392
-0.00967097
-0.00966864
-0.00961682
-0.00951047
-0.0093501
-0.00913727
-0.00887222
-0.00855432
-0.00818198
-0.00775401
-0.00726892
-0.00672887
-0.00613093
-0.00547434
-0.00475943
-0.00398827
-0.00316079
-0.00227984
-0.00134583
-0.00036436
0.000662795
0.00172648
0.00282241
0.00393714
0.00506247
0.00618141
0.00727982