/*--------------------------------*- C++ -*----------------------------------*\
| =========                 |                                                 |
| \\      /  F ield         | OpenFOAM: The Open Source CFD Toolbox           |
|  \\    /   O peration     | Version:  2512                                  |
|   \\  /    A nd           | Website:  www.openfoam.com                      |
|    \\/     M anipulation  |                                                 |
\*---------------------------------------------------------------------------*/
FoamFile
{
    version     2.0;
    format      ascii;
    arch        "LSB;label=32;scalar=64";
    class       surfaceScalarField;
    location    "37.25";
    object      phi;
}
// * * * * * * * * * * * * * * * * * * * * * * * * * * * * * * * * * * * * * //

dimensions      [0 3 -1 0 0 0 0];

oriented        oriented;

internalField   nonuniform List<scalar> 
26232
(
4.34592e-05
0.000951193
-0.000994653
0.000318243
0.0018738
-0.00214858
0.000959294
0.00197004
-0.00261109
0.00209811
0.00129875
-0.00243757
0.00386783
-0.000103578
-0.00166614
0.00640426
-0.00221674
-0.000319691
0.00984098
-0.00502813
0.00159141
0.014302
-0.00852611
0.00406512
0.0198899
-0.0126891
0.00710113
0.0266731
-0.0174772
0.010694
0.0346726
-0.0228265
0.0148269
0.043853
-0.0286475
0.0194671
0.0541175
-0.0348274
0.0245629
0.0653098
-0.0412363
0.0300439
0.0772227
-0.0477361
0.0358232
0.089611
-0.0541904
0.0418021
0.10221
-0.0604739
0.0478752
0.114753
-0.0664817
0.0539383
0.126994
-0.0721327
0.0598916
0.138726
-0.0773871
0.0656552
0.149776
-0.0822032
0.0711529
0.160059
-0.0866609
0.0763779
0.16947
-0.0906339
0.0812231
-0.0945283
0.0862809
0.177718
8.54639e-05
0.000865729
0.000514706
0.00144456
0.00145003
0.00103472
0.00304838
-0.000299595
0.00546555
-0.00252075
0.00885102
-0.0056022
0.0133384
-0.00951555
0.0190296
-0.0142173
0.0259774
-0.0196369
0.0341706
-0.0256703
0.0435237
-0.0321796
0.0538764
-0.0390002
0.0650021
-0.0459531
0.0766252
-0.0528594
0.0884445
-0.0595554
0.10016
-0.065906
0.111499
-0.0718131
0.122239
-0.0772218
0.132226
-0.0821195
0.141375
-0.0865364
0.149693
-0.090521
0.157229
-0.0941967
0.164116
-0.0975207
-0.100965
0.170553
0.000142635
0.000723095
0.000768389
0.000818804
0.00206596
-0.000262853
0.0042148
-0.00244844
0.00738386
-0.00568981
0.0117189
-0.00993728
0.0173232
-0.0151198
0.0242349
-0.021129
0.0324092
-0.0278112
0.0417091
-0.0349701
0.0519096
-0.0423802
0.0627167
-0.0498073
0.0737958
-0.0570322
0.0848073
-0.0638709
0.0954416
-0.0701898
0.10545
-0.075914
0.114664
-0.0810275
0.123009
-0.0855668
0.130499
-0.0896092
0.137221
-0.0932591
0.143326
-0.0966258
0.148966
-0.0998369
0.154357
-0.102912
-0.106192
0.159585
0.000218057
0.000505038
0.00108725
-5.03916e-05
0.00281694
-0.00199254
0.00559875
-0.00523024
0.00959555
-0.00968661
0.0149176
-0.0152593
0.0215947
-0.0217968
0.0295533
-0.0290877
0.0386089
-0.0368668
0.0484765
-0.0448378
0.0588016
-0.0527052
0.0692028
-0.0602085
0.0793192
-0.0671485
0.088852
-0.0734037
0.0975953
-0.0789331
0.10545
-0.0837687
0.112421
-0.0879984
0.1186
-0.0917455
0.124136
-0.0951458
0.129208
-0.0983304
0.133989
-0.101408
0.138627
-0.104474
0.143257
-0.107542
-0.110834
0.147898
0.000312959
0.000192079
0.00147165
-0.00120908
0.00369421
-0.0042151
0.00716508
-0.00870111
0.0120098
-0.0145314
0.0182603
-0.0215098
0.0258255
-0.029362
0.0344822
-0.0377444
0.043893
-0.0462776
0.0536502
-0.0545949
0.0633339
-0.0623889
0.0725716
-0.0694463
0.0810848
-0.0756617
0.0887148
-0.0810337
0.095426
-0.0856444
0.101288
-0.0896305
0.106443
-0.0931532
0.111068
-0.0963708
0.115343
-0.0994203
0.119421
-0.102408
0.123421
-0.105409
0.127421
-0.108474
0.131482
-0.111604
-0.114943
0.135592
0.000426643
-0.000234565
0.00191385
-0.00269628
0.00466925
-0.00697051
0.0088407
-0.0128726
0.0144753
-0.020166
0.0214805
-0.028515
0.0296086
-0.0374901
0.0384796
-0.0466154
0.0476381
-0.0554361
0.0566287
-0.0635855
0.0650679
-0.0708282
0.0726948
-0.0770732
0.0793907
-0.0823575
0.0851691
-0.0868122
0.0901438
-0.0906191
0.0944851
-0.0939718
0.0983778
-0.097046
0.10199
-0.0999829
0.105454
-0.102885
0.108866
-0.10582
0.112285
-0.108828
0.115745
-0.111933
0.119278
-0.115137
-0.118516
0.122851
0.000556408
-0.000790973
0.00239772
-0.0045376
0.0056938
-0.0102666
0.010518
-0.0176967
0.0167947
-0.0264427
0.0242713
-0.0359916
0.0325381
-0.045757
0.0410965
-0.0551737
0.0494522
-0.0637918
0.0572026
-0.0713359
0.0640921
-0.0777177
0.0700268
-0.0830078
0.0750524
-0.0873831
0.0793093
-0.0910691
0.0829816
-0.0942914
0.0862538
-0.097244
0.0892824
-0.100075
0.0921848
-0.102885
0.0950409
-0.105741
0.0979
-0.108679
0.100791
-0.111719
0.103729
-0.114871
0.106727
-0.118135
-0.121548
0.109758
0.000697483
-0.00148846
0.00289896
-0.00673907
0.00670252
-0.0140702
0.0120654
-0.0230597
0.0187532
-0.0331304
0.0263444
-0.0435829
0.0343029
-0.0537154
0.0420883
-0.0629592
0.0492634
-0.0709669
0.0555587
-0.0776312
0.0608857
-0.0830447
0.0653051
-0.0874272
0.0689718
-0.0910497
0.0720771
-0.0941744
0.0748042
-0.0970186
0.0773027
-0.0997424
0.0796808
-0.102453
0.0820095
-0.105214
0.084332
-0.108063
0.086673
-0.11102
0.0890458
-0.114092
0.0914561
-0.117282
0.0939093
-0.120588
-0.124021
0.0963829
0.000842872
-0.00233133
0.00338623
-0.00928243
0.0076189
-0.0183028
0.0133453
-0.0287861
0.0201567
-0.0399418
0.0274901
-0.0509163
0.0347528
-0.060978
0.0414525
-0.0696589
0.0472816
-0.076796
0.0521342
-0.0824838
0.0560694
-0.0869799
0.0592472
-0.090605
0.0618637
-0.0936662
0.0641033
-0.096414
0.0661136
-0.0990288
0.0679986
-0.101627
0.0698253
-0.104279
0.071633
-0.107022
0.0734441
-0.109874
0.0752704
-0.112846
0.0771177
-0.115939
0.0789885
-0.119152
0.0808833
-0.122483
-0.125925
0.082787
0.000983526
-0.00331485
0.00382365
-0.0121225
0.0083646
-0.0228438
0.0142356
-0.034657
0.0208677
-0.0465739
0.0276151
-0.0576637
0.033911
-0.067274
0.0393809
-0.0751288
0.0438748
-0.0812899
0.0474316
-0.0860407
0.0502072
-0.0897555
0.0524009
-0.0927987
0.0542017
-0.0954669
0.0557596
-0.0979719
0.0571795
-0.100449
0.0585277
-0.102976
0.0598422
-0.105594
0.0611441
-0.108324
0.062445
-0.111175
0.0637506
-0.114152
0.0650637
-0.117252
0.0663848
-0.120473
0.0677122
-0.12381
-0.127249
0.0690368
0.00110957
-0.00442442
0.00417605
-0.015189
0.00887193
-0.0275397
0.0146505
-0.0404356
0.020826
-0.0527494
0.026744
-0.0635817
0.0319328
-0.0724628
0.036167
-0.079363
0.0394416
-0.0845645
0.0418957
-0.0884947
0.0437286
-0.0915885
0.045136
-0.0942062
0.0462757
-0.0966066
0.0472577
-0.0989539
0.0481508
-0.101342
0.0489942
-0.103819
0.0498092
-0.106409
0.0506071
-0.109122
0.051394
-0.111962
0.0521732
-0.114931
0.0529459
-0.118025
0.0537116
-0.121239
0.0544666
-0.124565
-0.127989
0.0552059
0.00121404
-0.00563846
0.00441667
-0.0183917
0.00909532
-0.0322183
0.0145526
-0.0458928
0.0200497
-0.0582465
0.024993
-0.068525
0.0290454
-0.0765152
0.0321264
-0.082444
0.0343388
-0.0867768
0.0358741
-0.0900301
0.0369353
-0.0926496
0.0376914
-0.0949624
0.0382627
-0.0971779
0.0387245
-0.0994157
0.0391193
-0.101737
0.0394696
-0.104169
0.0397872
-0.106726
0.0400784
-0.109413
0.0403469
-0.112231
0.040595
-0.115179
0.0408233
-0.118253
0.0410309
-0.121447
0.0412142
-0.124749
0.0413719
-0.128147
-0.00020675
-7.75787e-05
0.000284328
-0.000721962
-0.000216233
0.000731445
-0.00147953
-0.000336284
0.00109386
-0.00242889
-0.000435042
0.0013844
-0.00353054
-0.000513878
0.00161553
-0.00475395
-0.000576862
0.00180027
-0.00607583
-0.000629417
0.0019513
-0.00747858
-0.000677077
0.00207983
-0.00894886
-0.000724499
0.00219478
-0.0104764
-0.000774831
0.00230234
-0.0120527
-0.000829458
0.00240582
-0.0136706
-0.000888038
0.00250585
-0.0153227
-0.0009487
0.0026008
-0.0170016
-0.00100825
0.00268719
-0.0186994
-0.0010623
0.0027601
-0.0204076
-0.00110525
0.00281348
-0.0221179
-0.00113004
0.00284035
-0.0238231
-0.00112781
0.00283295
-0.0255186
-0.00108735
0.00278289
-0.0272055
-0.000994444
0.00268134
-0.0288922
-0.000832641
0.00251929
-0.030599
-0.000580317
0.00228715
-0.0323618
-0.000210362
0.00197319
0.000304984
-0.0342325
0.00156566
-0.000207176
0.000129597
-0.00072259
0.000299182
-0.00147846
0.000419584
-0.00242245
0.000508946
-0.00351354
0.000577217
-0.00471996
0.000629552
-0.00601734
0.000667972
-0.00738715
0.000692724
-0.00881508
0.000703433
-0.0102898
0.00069988
-0.0118017
0.000682421
-0.0133418
0.000652128
-0.0149013
0.000610784
-0.0164704
0.000560878
-0.0180384
0.000505698
-0.0195933
0.000449622
-0.021122
0.000398661
-0.0226112
0.000361325
-0.0240484
0.000349867
-0.0254246
0.000381779
-0.0267378
0.000480608
-0.0279947
0.0006765
-0.0292175
0.00101249
0.00155152
-0.030464
-0.000196694
0.000326291
-0.000686566
0.000789054
-0.00140363
0.00113665
-0.00229567
0.00140099
-0.00332098
0.00160252
-0.00444658
0.00175516
-0.00564664
0.00186803
-0.00690083
0.00194691
-0.00819287
0.00199547
-0.00950918
0.00201619
-0.0108377
0.00201092
-0.0121667
0.00198118
-0.0134843
0.00192834
-0.0147772
0.00185377
-0.0160305
0.00175899
-0.017227
0.00164614
-0.0183469
0.00151859
-0.0193676
0.00138204
-0.020264
0.0012462
-0.0210097
0.00112755
-0.0215818
0.00105262
-0.0219648
0.00105952
-0.0221579
0.00120558
0.00160114
-0.0222075
-0.000177127
0.000503418
-0.000619537
0.00123146
-0.00126562
0.00178273
-0.00206461
0.00219998
-0.00297464
0.00251255
-0.00396149
0.00274201
-0.00499728
0.00290382
-0.00605906
0.0030087
-0.00712746
0.00306387
-0.00818536
0.0030741
-0.00921682
0.00304237
-0.010206
0.00297036
-0.0111364
0.00285875
-0.0119901
0.00270745
-0.012747
0.00251586
-0.0133841
0.00228325
-0.0138748
0.00200929
-0.0141877
0.001695
-0.0142857
0.00134413
-0.0141245
0.000966414
-0.0136558
0.00058387
-0.0128343
0.000238086
-0.0116233
-5.47421e-06
3.03658e-06
-0.0100252
-0.000151293
0.000654712
-0.000530045
0.00161022
-0.00108017
0.00233286
-0.00175288
0.00287269
-0.0025062
0.00326587
-0.0033043
0.00354011
-0.00411657
0.00371609
-0.00491639
0.00380851
-0.0056799
0.00382739
-0.00638489
0.00377908
-0.00700963
0.00366712
-0.00753206
0.00349279
-0.00792896
0.00325565
-0.00817534
0.00295383
-0.00824386
0.00258438
-0.00810422
0.00214361
-0.00772236
0.00162744
-0.0070596
0.00103223
-0.00607054
0.000355069
-0.00470002
-0.000404112
-0.00288129
-0.00123486
-0.000530298
-0.0021129
0.00242803
-0.0029638
-0.00356215
0.00599322
-0.000122443
0.000777155
-0.000427911
0.00191568
-0.000865279
0.00277023
-0.00138725
0.00339466
-0.00195114
0.00382976
-0.00251875
0.00410773
-0.00305564
0.00425298
-0.0035301
0.00428297
-0.00391206
0.00420934
-0.00417194
0.00403896
-0.0042797
0.00377488
-0.00420396
0.00341705
-0.00391136
0.00296305
-0.00336604
0.00240851
-0.00252934
0.00174768
-0.00135969
0.00097396
0.000188338
7.94123e-05
0.00216198
-0.000941407
0.00461377
-0.00209672
0.00760122
-0.00339156
0.0111939
-0.00482756
0.0154741
-0.00639313
0.0205357
-0.00802534
-0.00970174
0.0266753
-9.36689e-05
0.000870824
-0.000322381
0.0021444
-0.000637697
0.00308554
-0.000992216
0.00374917
-0.00134121
0.00417875
-0.00164266
0.00440918
-0.00185664
0.00446696
-0.00194434
0.00437067
-0.00186698
0.00413198
-0.00158473
0.00375671
-0.00105577
0.00324593
-0.000235593
0.00259687
0.000923564
0.00180389
0.00247284
0.00085923
0.00446694
-0.000246414
0.00696288
-0.00152198
0.0100198
-0.00297752
0.0136993
-0.00462091
0.0180615
-0.00645888
0.0231653
-0.00849543
0.0290674
-0.0107296
0.0358489
-0.0131747
0.0435048
-0.0156812
-0.0187529
0.0525559
-6.73066e-05
0.000938131
-0.000220238
0.00229733
-0.000409274
0.00327458
-0.000584277
0.00392418
-0.000696202
0.00429068
-0.000696923
0.0044099
-0.000538546
0.00430858
-0.00017225
0.00400438
0.000452768
0.00350696
0.00139027
0.00281921
0.0026977
0.0019385
0.00443655
0.000858028
0.00667229
-0.000431849
0.0094738
-0.00194228
0.0129121
-0.00368475
0.0170597
-0.00566953
0.0219869
-0.00790474
0.0277608
-0.0103949
0.0344417
-0.0131398
0.0420815
-0.0161352
0.0507081
-0.0193562
0.0603952
-0.0228618
0.0709745
-0.0262605
-0.0309034
0.0831251
-4.44123e-05
0.000982543
-0.000124112
0.00237703
-0.000183667
0.00333413
-0.000166589
0.0039071
-1.63021e-05
0.00414039
0.000324599
0.004069
0.000915633
0.00371755
0.00181938
0.00310063
0.00310255
0.0022238
0.00483649
0.00108527
0.00709718
-0.0003222
0.00996448
-0.00200927
0.0135206
-0.003988
0.0178481
-0.00626971
0.0230263
-0.00886303
0.0291289
-0.0117721
0.036219
-0.0149949
0.0443464
-0.0185222
0.053543
-0.0223364
0.063823
-0.0264152
0.0751633
-0.0306965
0.0875843
-0.0352828
0.100829
-0.0395048
-0.0455059
0.115431
-2.44173e-05
0.00100696
-3.12851e-05
0.00238389
4.59793e-05
0.00325687
0.0002744
0.00367868
0.00072244
0.00369235
0.00146112
0.00333031
0.00256557
0.0026131
0.00411612
0.00155008
0.00619848
0.000141434
0.008903
-0.00161925
0.0123227
-0.00374191
0.0165503
-0.00623689
0.0216741
-0.00911178
0.027773
-0.0123685
0.0349111
-0.0160012
0.0431332
-0.0199941
0.0524596
-0.0243212
0.0628833
-0.028946
0.0743686
-0.0338217
0.0868496
-0.0388962
0.100235
-0.0440822
0.114412
-0.0494593
0.12921
-0.0543029
-0.0609034
0.144607
-5.13482e-06
0.0010121
6.60947e-05
0.00231266
0.000296788
0.00302618
0.000769519
0.00320595
0.00156889
0.00289298
0.00278394
0.00211526
0.00450932
0.000887719
0.00684519
-0.000785795
0.00989557
-0.00290894
0.0137645
-0.0054882
0.018551
-0.00852844
0.0243424
-0.0120283
0.0312069
-0.0159762
0.0391863
-0.020348
0.0482905
-0.0251054
0.0584925
-0.0301961
0.069727
-0.0355557
0.0818917
-0.0411107
0.0948515
-0.0467815
0.108444
-0.0524883
0.122506
-0.0581443
0.136798
-0.0637518
0.151346
-0.0688506
-0.0749652
0.165408
1.74426e-05
0.000181524
0.000596612
0.00136499
0.00259183
0.0043874
0.00686653
0.0101459
0.014338
0.0195438
0.0258423
0.0332812
0.0418679
0.0515638
0.0622816
0.0738876
0.086207
0.0990347
0.112145
0.125312
0.13832
0.150946
0.163319
0.174635
-0.0352229
-0.00032045
0.00131093
-0.0361992
0.000898111
7.81256e-05
-0.0371705
0.00241358
-0.00144225
-0.0381232
0.0042783
-0.00332561
-0.0390559
0.00649856
-0.00556591
-0.0399634
0.00907458
-0.00816706
-0.0408378
0.01199
-0.0111156
-0.0416678
0.0152048
-0.0143748
-0.0424375
0.0186493
-0.0178796
-0.0431247
0.0222172
-0.0215299
-0.043699
0.0257601
-0.0251858
-0.0441198
0.0290803
-0.0286595
-0.044333
0.0319247
-0.0317116
-0.0442704
0.0339902
-0.0340527
-0.0438516
0.0349321
-0.0353509
-0.0429887
0.034382
-0.0352449
-0.0415962
0.0319747
-0.0333672
-0.0396023
0.0273846
-0.0293784
-0.0369417
0.0203607
-0.0230212
-0.0335556
0.0108101
-0.0141963
-0.0296333
-0.000881322
-0.00304095
-0.0251526
-0.0142713
0.0097907
-0.0203606
-0.028815
0.0240229
-0.015404
-0.0434953
0.0385387
-0.0105577
-0.0569377
0.0520914
-0.00602139
-0.0679612
0.0634248
-0.0017805
-0.0756362
0.0713953
0.00249115
-0.079195
0.0749233
0.00750168
-0.0780679
0.0730573
0.013918
-0.0718154
0.0653991
0.0222571
-0.0604684
0.0521293
0.0325191
-0.0447308
0.0344688
0.0441546
-0.0263247
0.0146891
0.0562085
-0.00741537
-0.00463854
0.0678064
0.0097415
-0.0213394
0.0782326
0.0236456
-0.0340717
0.0871403
0.0332689
-0.0421766
0.0945455
0.038696
-0.0461012
0.100757
0.0399459
-0.0461571
0.106225
0.0378156
-0.0432836
0.111393
0.0325323
-0.0377003
0.116538
0.0252698
-0.0304148
0.121729
0.0164223
-0.0216139
0.126841
0.00757743
-0.0126889
0.131675
-0.00101512
-0.00381931
0.136031
-0.00782077
0.00346547
0.139827
-0.0132546
0.00945833
0.143059
-0.0161172
0.0128846
0.145868
-0.0174913
0.0146829
0.148364
-0.016288
0.0137915
0.150757
-0.0140094
0.0116172
0.153039
-0.0096073
0.00732488
0.155336
-0.00493966
0.00264275
0.15745
0.000789439
-0.00290336
0.1595
0.00570218
-0.00775233
0.161231
0.0105312
-0.0122622
0.162821
0.0140445
-0.0156347
0.164082
0.0168657
-0.0181264
0.165219
0.0186472
-0.0197843
0.0197428
-0.0206986
-0.03118
0.000395474
-0.0318729
0.00159107
-0.0325205
0.00306115
-0.033121
0.00487876
-0.0336647
0.00704235
-0.0341395
0.00954932
-0.0345309
0.0123814
-0.0348218
0.0154957
-0.0349892
0.0188167
-0.0350034
0.0222314
-0.0348266
0.0255833
-0.034413
0.0286667
-0.0337081
0.0312199
-0.0326519
0.032934
-0.0311815
0.0334617
-0.0292377
0.0324382
-0.026773
0.0295099
-0.0237654
0.0243769
-0.0201858
0.0167811
-0.015998
0.00662231
-0.0114208
-0.0054585
-0.00644729
-0.0192448
-0.00126781
-0.0339945
0.00371054
-0.0484736
0.00829129
-0.0615185
0.0122656
-0.0719354
0.0154588
-0.0788294
0.0179614
-0.0816976
0.0202871
-0.0803936
0.0232971
-0.0748254
0.0278604
-0.0650316
0.0344574
-0.0513278
0.0429627
-0.03483
0.0527189
-0.0171715
0.0628769
-0.000416539
0.0726839
0.0138385
0.0816764
0.0242764
0.0897471
0.0306253
0.097072
0.032621
0.10394
0.0309475
0.110601
0.0258711
0.117135
0.0187359
0.123452
0.0101052
0.129341
0.00168909
0.134593
-0.00626792
0.139046
-0.0122737
0.142682
-0.01689
0.145557
-0.0189925
0.147871
-0.0198051
0.14979
-0.0182069
0.151586
-0.0158053
0.153308
-0.0113294
0.155141
-0.0067725
0.156905
-0.000975349
0.158746
0.00386159
0.160375
0.00890201
0.161965
0.0124546
0.163278
0.0155533
0.16451
0.0174152
0.0186762
-0.0225452
0.000733163
-0.0228565
0.00190244
-0.0230817
0.00328634
-0.0232179
0.00501489
-0.0232522
0.00707667
-0.0231671
0.00946424
-0.0229452
0.0121595
-0.0225679
0.0151183
-0.0220121
0.0182609
-0.021249
0.0214683
-0.0202416
0.0245758
-0.0189439
0.027369
-0.0173093
0.0295853
-0.0152965
0.0309211
-0.0128676
0.0310328
-0.00999327
0.029564
-0.00665654
0.0261732
-0.00284837
0.0205688
0.00132669
0.012606
0.00571935
0.00222965
0.0104107
-0.0101499
0.0153723
-0.0242064
0.0204372
-0.0390594
0.0254527
-0.0534891
0.030109
-0.0661748
0.034052
-0.0758784
0.0369584
-0.0817358
0.0387154
-0.0834546
0.0395779
-0.081256
0.0402306
-0.0754781
0.0416312
-0.0664322
0.0446433
-0.0543398
0.0496586
-0.0398453
0.0564804
-0.0239934
0.064526
-0.00846215
0.0731049
0.00525959
0.0816948
0.0156865
0.0900416
0.0222785
0.0981221
0.0245405
0.105993
0.0230765
0.113675
0.0181894
0.121058
0.0113526
0.127939
0.0032244
0.13409
-0.0044618
0.139317
-0.0114949
0.143536
-0.0164929
0.14679
-0.0201436
0.149182
-0.0213843
0.15094
-0.021563
0.152252
-0.0195194
0.153422
-0.0169757
0.154538
-0.0124452
0.155834
-0.00806799
0.157162
-0.00230351
0.158691
0.0023324
0.160126
0.00746693
0.161629
0.0109519
0.162928
0.0142541
0.164198
0.0161452
0.0175369
-0.0100015
0.000709482
-0.00997795
0.00187888
-0.00982054
0.00312893
-0.00951107
0.00470542
-0.00904438
0.00660998
-0.00840101
0.00882088
-0.00756212
0.0113206
-0.00651045
0.0140667
-0.00522592
0.0169764
-0.00368597
0.0199284
-0.00186808
0.0227579
0.000245151
0.0252558
0.0026666
0.0271638
0.00541528
0.0281725
0.00849787
0.0279502
0.0119109
0.0261509
0.01564
0.0224441
0.0196568
0.016552
0.0239479
0.00831486
0.0284266
-0.00224901
0.0331278
-0.0148511
0.0379695
-0.0290481
0.0428653
-0.0439552
0.0476898
-0.0583136
0.0521983
-0.0706833
0.0560583
-0.0797384
0.0589489
-0.0846264
0.060668
-0.0851737
0.0612331
-0.0818212
0.0609983
-0.0752433
0.0606835
-0.0661175
0.0611988
-0.0548551
0.0632886
-0.041935
0.0672515
-0.0279563
0.0729171
-0.0141277
0.079834
-0.00165736
0.0875002
0.0080203
0.0955533
0.0142254
0.103766
0.0163279
0.111959
0.014883
0.119948
0.010201
0.127474
0.00382646
0.134292
-0.00359419
0.14016
-0.0103294
0.144965
-0.0162996
0.148685
-0.0202134
0.151415
-0.0228735
0.153283
-0.0232518
0.154514
-0.0227948
0.15529
-0.0202946
0.155908
-0.017594
0.156473
-0.0130103
0.157249
-0.0088437
0.158127
-0.00318229
0.159298
0.00116141
0.160484
0.00628167
0.161833
0.00960282
0.163063
0.0130236
0.164317
0.0148918
0.0163653
0.00618798
0.000514717
0.00636184
0.00170502
0.00668993
0.00280084
0.00725932
0.00413603
0.00806042
0.00580888
0.00910329
0.007778
0.0104037
0.0100202
0.0119699
0.0125004
0.0138058
0.0151405
0.0159144
0.0178198
0.0183015
0.0203709
0.020978
0.0225793
0.0239508
0.024191
0.0272097
0.0249136
0.0307356
0.0244243
0.034499
0.0223875
0.0384647
0.0184783
0.0425975
0.0124193
0.046866
0.00404634
0.0512076
-0.00659065
0.0556359
-0.0192794
0.0601127
-0.0335249
0.0645778
-0.0484203
0.0689248
-0.0626605
0.07296
-0.0747185
0.0764281
-0.0832065
0.079107
-0.0873053
0.0808541
-0.0869208
0.0816198
-0.0825868
0.0815148
-0.0751383
0.0809062
-0.0655089
0.0804374
-0.0543863
0.0808589
-0.0423565
0.0827572
-0.0298546
0.0863556
-0.0177261
0.0915347
-0.00683648
0.0979176
0.00163736
0.105127
0.00701613
0.112804
0.00865098
0.120589
0.00709833
0.128153
0.00263626
0.135179
-0.00319944
0.14136
-0.00977531
0.146529
-0.0154984
0.150628
-0.0203984
0.153692
-0.0232775
0.155846
-0.0250271
0.157221
-0.0246271
0.158022
-0.0235957
0.158395
-0.0206676
0.158607
-0.0178063
0.158756
-0.0131594
0.159112
-0.00919898
0.159602
-0.00367237
0.160432
0.000331349
0.16136
0.00535354
0.162523
0.00843939
0.163652
0.011895
0.164849
0.013695
0.0151942
0.0265134
0.00067656
0.0264314
0.001787
0.0265674
0.00266493
0.0269969
0.00370645
0.0277306
0.00507527
0.0287766
0.00673198
0.0301572
0.00863954
0.0318816
0.0107761
0.0339475
0.0130745
0.0363476
0.0154198
0.03907
0.0176485
0.0420964
0.0195528
0.0454038
0.0208836
0.0489614
0.021356
0.0527279
0.0206579
0.0566518
0.0184636
0.0606787
0.0144515
0.0647578
0.00834011
0.0688848
-8.05929e-05
0.0729651
-0.010671
0.0769981
-0.0233124
0.0809547
-0.0374814
0.0847802
-0.0522459
0.0883799
-0.0662603
0.0916129
-0.0779515
0.0943228
-0.0859164
0.0964145
-0.089397
0.0978783
-0.0883847
0.0987369
-0.0834454
0.0990321
-0.0754335
0.0988872
-0.0653641
0.0986018
-0.0541008
0.0986676
-0.0424223
0.0996417
-0.0308287
0.101937
-0.0200218
0.105699
-0.0105981
0.110761
-0.00342461
0.116793
0.000984183
0.123439
0.0020048
0.130249
0.000288592
0.136871
-0.00398593
0.142892
-0.00922083
0.148079
-0.0149624
0.152306
-0.0197252
0.155567
-0.0236588
0.157931
-0.025642
0.159535
-0.0266306
0.160499
-0.025592
0.160995
-0.0240912
0.161125
-0.0207979
0.161108
-0.0177887
0.161017
-0.0130682
0.161103
-0.00928498
0.161322
-0.00389228
0.161885
-0.000231514
0.162598
0.00464093
0.163584
0.00745279
0.164608
0.0108716
0.165732
0.0125706
0.0140418
0.0515497
0.00168281
0.0506906
0.00264608
0.0501655
0.00319
0.049996
0.00387597
0.0501865
0.00488474
0.0507579
0.0061606
0.0517482
0.00764926
0.0531729
0.00935142
0.0550296
0.0112178
0.0573064
0.013143
0.0599806
0.0149742
0.0630162
0.0165172
0.0663653
0.0175345
0.069972
0.0177493
0.0737711
0.0168587
0.0776852
0.0145494
0.0816439
0.0104928
0.0855403
0.00444379
0.0894415
-0.00398179
0.0931517
-0.0143812
0.0966732
-0.0268339
0.0999532
-0.0407614
0.102926
-0.0552188
0.10551
-0.068844
0.107636
-0.0800774
0.109273
-0.0875532
0.110462
-0.0905869
0.111328
-0.0892502
0.111993
-0.0841103
0.112526
-0.0759666
0.112953
-0.0657908
0.113333
-0.0544811
0.113855
-0.0429439
0.114847
-0.031821
0.116675
-0.0218496
0.119569
-0.0134922
0.123537
-0.00739304
0.128406
-0.00388424
0.133821
-0.00341073
0.139424
-0.00531453
0.144776
-0.00933737
0.149582
-0.0140272
0.153638
-0.0190182
0.156867
-0.0229547
0.159299
-0.0260903
0.161018
-0.0273615
0.162157
-0.0277687
0.162818
-0.026253
0.163135
-0.0244089
0.163173
-0.0208353
0.163092
-0.0177083
0.162938
-0.0129134
0.162922
-0.00926926
0.163018
-0.00398803
0.163428
-0.000641799
0.164004
0.00406474
0.164861
0.00659618
0.165806
0.00992587
0.16687
0.0115069
0.0129059
0.0809667
0.00384114
0.0790621
0.00455071
0.0775566
0.00469548
0.0764374
0.00499516
0.0757026
0.00561957
0.0753901
0.00647309
0.0755543
0.00748511
0.0762181
0.00868758
0.07739
0.0100459
0.0790679
0.0114651
0.0812312
0.0128109
0.0838384
0.01391
0.0868294
0.0145435
0.0901305
0.0144483
0.0936533
0.0133358
0.0972894
0.0109134
0.100963
0.00681929
0.104535
0.000871681
0.108009
-0.00745547
0.111213
-0.0175859
0.114079
-0.0296997
0.116526
-0.0432078
0.118463
-0.0571564
0.119821
-0.0702018
0.120602
-0.0808584
0.120934
-0.0878857
0.121021
-0.0906734
0.121094
-0.0893234
0.121347
-0.0843633
0.121879
-0.0764988
0.122691
-0.0666023
0.123724
-0.0555139
0.124951
-0.0441715
0.126453
-0.0333231
0.128411
-0.0238071
0.130998
-0.0160793
0.134289
-0.0106841
0.138197
-0.0077924
0.142481
-0.00769494
0.146845
-0.00967832
0.150949
-0.0134415
0.154565
-0.0176433
0.157554
-0.0220066
0.159882
-0.0252833
0.161601
-0.0278094
0.162798
-0.0285582
0.16359
-0.0285605
0.164061
-0.026724
0.164314
-0.0246618
0.164379
-0.0209008
0.164371
-0.0176999
0.164302
-0.0128441
0.164338
-0.00930513
0.164457
-0.00410776
0.16484
-0.00102462
0.165383
0.00352191
0.166184
0.00579489
0.167105
0.00900494
0.168146
0.0104661
0.0117639
0.112245
0.00702684
0.109419
0.00737698
0.106956
0.00715855
0.104833
0.00711778
0.103089
0.00736349
0.101777
0.00778516
0.10094
0.0083224
0.100611
0.00901669
0.100813
0.00984343
0.101562
0.0107164
0.102849
0.0115242
0.104643
0.0121162
0.106888
0.012298
0.109508
0.0118282
0.112406
0.0104383
0.115447
0.00787206
0.118448
0.00381841
0.121608
-0.00228832
0.124354
-0.0102017
0.126815
-0.0200468
0.128807
-0.031691
0.130205
-0.0446058
0.130901
-0.0578527
0.130858
-0.0701591
0.130172
-0.0801724
0.129108
-0.0868212
0.128033
-0.0895985
0.127264
-0.0885548
0.127019
-0.0841181
0.127396
-0.0768755
0.128381
-0.0675874
0.129867
-0.0570006
0.131717
-0.0460212
0.13383
-0.0354356
0.136192
-0.0261691
0.138849
-0.018737
0.141838
-0.0136732
0.145111
-0.0110652
0.148518
-0.0111014
0.151858
-0.013019
0.154912
-0.0164952
0.157534
-0.0202647
0.159651
-0.0241241
0.16127
-0.0269022
0.162454
-0.0289934
0.163284
-0.0293883
0.163861
-0.0291375
0.164251
-0.0271138
0.164533
-0.0249433
0.164715
-0.0210836
0.164874
-0.0178586
0.164999
-0.012969
0.165207
-0.00951301
0.165477
-0.00437766
0.165952
-0.00149981
0.166568
0.00290604
0.167402
0.00496027
0.168368
0.00803971
0.169443
0.00939101
0.0105753
0.140885
0.0107491
0.137592
0.0106703
0.134507
0.0102431
0.131676
0.00994956
0.129206
0.00983328
0.127138
0.00985261
0.125477
0.00998415
0.124277
0.0102164
0.123575
0.010545
0.123391
0.0109002
0.123727
0.0111887
0.124566
0.011277
0.125869
0.0109954
0.12757
0.0101269
0.129571
0.00843745
0.131774
0.00566858
0.134007
0.00158558
0.136198
-0.004479
0.138054
-0.0120578
0.139504
-0.0214964
0.140366
-0.0325533
0.140482
-0.0447221
0.139753
-0.057124
0.138209
-0.0686144
0.136059
-0.0780227
0.133688
-0.0844499
0.13157
-0.0874804
0.130059
-0.0870447
0.129362
-0.083421
0.129547
-0.0770605
0.130579
-0.0686189
0.132329
-0.0587506
0.134613
-0.0483058
0.137234
-0.0380562
0.140032
-0.0289671
0.142927
-0.0216316
0.145881
-0.0166273
0.148825
-0.0140095
0.151665
-0.0139414
0.154289
-0.0156429
0.156584
-0.01879
0.158487
-0.0221681
0.159989
-0.0256264
0.161127
-0.0280395
0.161971
-0.0298379
0.162595
-0.0300125
0.163085
-0.0296269
0.16349
-0.0275195
0.163875
-0.0253277
0.164236
-0.0214452
0.164623
-0.0182449
0.165011
-0.0133569
0.165473
-0.0099756
0.165988
-0.00489207
0.166654
-0.00216628
0.167439
0.00212107
0.168396
0.00400316
0.16948
0.00695549
0.170658
0.00821311
0.00928727
0.161966
0.014191
0.158802
0.013834
0.155657
0.0133881
0.152695
0.0129118
0.150031
0.0124969
0.147688
0.012196
0.145679
0.0119935
0.144041
0.0118537
0.142817
0.011769
0.142026
0.0116912
0.141674
0.0115406
0.141754
0.0111977
0.142234
0.0105151
0.143061
0.00929995
0.144157
0.00734143
0.14541
0.00441502
0.146547
0.000449114
0.147733
-0.00566481
0.148531
-0.0128557
0.148788
-0.0217534
0.148333
-0.0320982
0.147027
-0.0434162
0.144832
-0.0549292
0.141874
-0.0656569
0.138469
-0.0746172
0.135052
-0.0810336
0.132114
-0.084542
0.130029
-0.0849595
0.128968
-0.0823597
0.128964
-0.0770569
0.129963
-0.0696183
0.131829
-0.0606161
0.134364
-0.0508409
0.13733
-0.0410226
0.14049
-0.0321273
0.143647
-0.0247886
0.146705
-0.0196845
0.149552
-0.0168566
0.152107
-0.016497
0.154318
-0.0178537
0.156155
-0.0206268
0.157624
-0.0236376
0.158768
-0.0267695
0.159644
-0.0289155
0.160331
-0.0305253
0.160895
-0.0305763
0.161408
-0.0301405
0.161913
-0.0280237
0.162458
-0.0258735
0.163041
-0.0220279
0.163691
-0.0188944
0.16438
-0.0140463
0.165147
-0.0107423
0.165968
-0.00571285
0.166899
-0.0030973
0.167929
0.00109012
0.169089
0.00284396
0.170363
0.00568098
0.171714
0.006862
0.00784068
0.172438
0.0163872
0.170028
0.0162441
0.167615
0.0158011
0.165256
0.015271
0.163014
0.0147393
0.160952
0.0142575
0.159108
0.0138375
0.157505
0.0134572
0.156182
0.0130921
0.155169
0.0127042
0.154479
0.0122299
0.154108
0.0115691
0.154029
0.010594
0.154181
0.00914821
0.15449
0.00703269
0.154866
0.00403881
0.15537
-5.49842e-05
0.155311
-0.00560551
0.154934
-0.0124795
0.153969
-0.0207879
0.152263
-0.0303928
0.149737
-0.0408902
0.146445
-0.0516362
0.142602
-0.0618142
0.138567
-0.0705819
0.134737
-0.0772037
0.131441
-0.0812465
0.128946
-0.0824641
0.127477
-0.0808914
0.127149
-0.0767285
0.127915
-0.0703843
0.129646
-0.0623473
0.132156
-0.0533508
0.135203
-0.0440692
0.138518
-0.0354429
0.141849
-0.0281195
0.145005
-0.0228404
0.147852
-0.0197031
0.150306
-0.0189508
0.152337
-0.0198852
0.153967
-0.0222567
0.155246
-0.0249168
0.15625
-0.0277736
0.157053
-0.0297182
0.157737
-0.031209
0.158361
-0.0312003
0.15899
-0.03077
0.159659
-0.0286925
0.160412
-0.0266264
0.161244
-0.0228608
0.162177
-0.0198271
0.163186
-0.0150546
0.164281
-0.011838
0.165443
-0.00687425
0.166687
-0.00434166
0.168019
-0.000242356
0.169445
0.00141809
0.170972
0.00415449
0.172562
0.00527186
0.00617687
0.189407
0.0181636
-0.191183
0.188006
0.0176446
0.18655
0.0172579
0.18506
0.0167606
0.183593
0.0162067
0.182183
0.0156673
0.180864
0.0151564
0.179671
0.0146503
0.178646
0.0141172
0.177837
0.0135125
0.177296
0.012771
0.177066
0.0117993
0.17718
0.0104797
0.177656
0.00867235
0.178492
0.00619662
0.179627
0.00290439
0.181001
-0.00142935
0.182396
-0.00699989
0.183697
-0.013781
0.184659
-0.02175
0.185028
-0.0307616
0.184577
-0.0404397
0.183169
-0.0502274
0.180792
-0.0594378
0.177579
-0.0673692
0.17377
-0.0733944
0.169646
-0.0771225
0.165507
-0.0783247
0.161635
-0.0770198
0.158271
-0.0733646
0.155608
-0.067721
0.153766
-0.060505
0.152787
-0.0523724
0.152632
-0.0439139
0.153177
-0.0359875
0.154235
-0.0291773
0.1556
-0.0242062
0.157066
-0.0211693
0.158437
-0.020321
0.15956
-0.0210081
0.160343
-0.0230404
0.160758
-0.0253314
0.160825
-0.0278404
0.160599
-0.0294925
0.160159
-0.0307688
0.159583
-0.0306246
0.158953
-0.0301395
0.158332
-0.0280716
0.157779
-0.0260735
0.157323
-0.0224046
0.156987
-0.0194915
0.156771
-0.0148383
0.156672
-0.0117389
0.156676
-0.00687838
0.156767
-0.00443257
0.156946
-0.000421537
0.157189
0.00117539
0.157492
0.00385105
0.157827
0.0049366
0.00583653
0.202856
0.0186611
-0.203353
0.202332
0.0181688
0.201808
0.0177811
0.201205
0.0173642
0.200534
0.0168772
0.199848
0.0163535
0.199191
0.0158136