/*--------------------------------*- C++ -*----------------------------------*\
| =========                 |                                                 |
| \\      /  F ield         | OpenFOAM: The Open Source CFD Toolbox           |
|  \\    /   O peration     | Version:  2512                                  |
|   \\  /    A nd           | Website:  www.openfoam.com                      |
|    \\/     M anipulation  |                                                 |
\*---------------------------------------------------------------------------*/
FoamFile
{
    version     2.0;
    format      ascii;
    arch        "LSB;label=32;scalar=64";
    class       surfaceScalarField;
    location    "151.5";
    object      phi;
}
// * * * * * * * * * * * * * * * * * * * * * * * * * * * * * * * * * * * * * //

dimensions      [0 3 -1 0 0 0 0];

oriented        oriented;

internalField   nonuniform List<scalar> 
26232
(
0.000190863
0.000866173
-0.00105704
0.000844651
0.00131427
-0.00196806
0.00206825
0.000612701
-0.0018363
0.00398507
-0.00117487
-0.000741942
0.00673167
-0.00399947
0.00125287
0.0104466
-0.00782021
0.00410524
0.0152528
-0.0125918
0.00778567
0.0212351
-0.0182479
0.0122656
0.0284179
-0.0246847
0.0175019
0.0367472
-0.0317521
0.0234228
0.0460823
-0.0392542
0.029919
0.0562015
-0.0469613
0.0368422
0.0668201
-0.0546298
0.0440112
0.0776198
-0.0620254
0.0512257
0.0882832
-0.0689466
0.0582832
0.0985279
-0.075242
0.0649972
0.108135
-0.080821
0.0712137
0.116968
-0.0856563
0.0768235
0.124979
-0.0897765
0.0817661
0.132201
-0.0932594
0.0860374
0.138728
-0.0961933
0.0896659
0.1447
-0.098733
0.0927609
0.150118
-0.100829
0.0954104
-0.102913
0.0979765
0.155055
0.000223706
0.000642467
0.00103547
0.000502505
0.00258405
-0.000935874
0.00502145
-0.00361228
0.00849881
-0.00747683
0.0131481
-0.0124695
0.0190555
-0.0184993
0.0262331
-0.0254255
0.0345969
-0.0330484
0.0439586
-0.0411138
0.054037
-0.0493326
0.0644863
-0.0574106
0.0749373
-0.0650808
0.0850424
-0.0721305
0.0945166
-0.0784208
0.103167
-0.0838919
0.110905
-0.0885593
0.117747
-0.0924986
0.123797
-0.0958261
0.129215
-0.0986776
0.134206
-0.101185
0.138961
-0.103487
0.143743
-0.105611
-0.107922
0.148751
0.000274983
0.000367484
0.00128767
-0.000510186
0.00322382
-0.00287202
0.00625648
-0.00664494
0.0105338
-0.0117541
0.0161494
-0.0180851
0.0231083
-0.0254582
0.0312999
-0.033617
0.0404902
-0.0422387
0.0503402
-0.0509639
0.0604472
-0.0594395
0.0703994
-0.0673629
0.0798326
-0.074514
0.0884751
-0.0807731
0.0961743
-0.0861199
0.102901
-0.0906186
0.108734
-0.0943922
0.11383
-0.0975948
0.118388
-0.100384
0.122616
-0.102905
0.126704
-0.105272
0.130801
-0.107585
0.135047
-0.109857
-0.112317
0.139443
0.000351886
1.55974e-05
0.00162046
-0.00177876
0.00401412
-0.00526567
0.00770683
-0.0103377
0.0128111
-0.0168584
0.0193374
-0.0246115
0.0271604
-0.0332812
0.03601
-0.0424666
0.0454961
-0.0517248
0.0551644
-0.0606322
0.0645669
-0.0688421
0.0733293
-0.0761252
0.0811984
-0.0823831
0.0880629
-0.0876376
0.0939451
-0.0920021
0.0989711
-0.0956446
0.103329
-0.0987505
0.107229
-0.101494
0.110867
-0.104022
0.114406
-0.106444
0.117972
-0.108838
0.121649
-0.111262
0.125509
-0.113717
-0.116368
0.129559
0.000455181
-0.000439584
0.0020323
-0.00335588
0.00493879
-0.00817216
0.00931715
-0.014716
0.0152002
-0.0227415
0.0224669
-0.0318781
0.0308265
-0.0416408
0.039848
-0.0514881
0.0490293
-0.0609062
0.0578858
-0.0694886
0.0660295
-0.0769858
0.07322
-0.0833158
0.0793775
-0.0885406
0.0845616
-0.0928217
0.088929
-0.0963695
0.0926832
-0.0993988
0.0960313
-0.102099
0.0991542
-0.104617
0.102193
-0.107061
0.105249
-0.109501
0.108391
-0.11198
0.111657
-0.114528
0.115085
-0.117145
-0.119932
0.11865
0.000580975
-0.00102056
0.00250485
-0.00527975
0.0059466
-0.0116139
0.0109755
-0.0197449
0.0174971
-0.0292631
0.0252228
-0.0396038
0.0336946
-0.0501126
0.042366
-0.0601595
0.05071
-0.0692501
0.0583139
-0.0770926
0.0649362
-0.083608
0.0705129
-0.0888925
0.0751262
-0.0931539
0.0789505
-0.096646
0.082196
-0.099615
0.0850648
-0.102268
0.0877251
-0.104759
0.0903028
-0.107195
0.0928846
-0.109643
0.0955269
-0.112143
0.0982651
-0.114718
0.101119
-0.117382
0.10411
-0.120136
-0.123034
0.107212
0.000722358
-0.00174292
0.00300864
-0.00756604
0.00696366
-0.0155689
0.0125383
-0.0253195
0.0194724
-0.0361972
0.027302
-0.0474334
0.0354423
-0.058253
0.0433152
-0.0680323
0.0504658
-0.0764007
0.0566305
-0.0832572
0.0617426
-0.0887202
0.0658923
-0.0930421
0.0692621
-0.0965237
0.0720657
-0.0994496
0.074502
-0.102051
0.0767315
-0.104497
0.0788704
-0.106898
0.0809968
-0.109321
0.0831602
-0.111806
0.0853908
-0.114374
0.0877068
-0.117034
0.090118
-0.119793
0.0926337
-0.122651
-0.125632
0.0952312
0.000870892
-0.00261381
0.00350817
-0.0102033
0.00790603
-0.0199668
0.013857
-0.0312704
0.0209189
-0.0432592
0.0284822
-0.0549967
0.0359103
-0.065681
0.0426848
-0.0748068
0.0484941
-0.0822101
0.0532466
-0.0880097
0.0570245
-0.0924982
0.060012
-0.0960296
0.0624254
-0.0989371
0.0644642
-0.101488
0.0662863
-0.103873
0.0680043
-0.106215
0.0696913
-0.108585
0.0713929
-0.111023
0.0731365
-0.11355
0.0749388
-0.116176
0.0768095
-0.118905
0.0787544
-0.121738
0.0807783
-0.124675
-0.127719
0.0828653
0.00101709
-0.00363089
0.00396536
-0.0131516
0.00869049
-0.0246919
0.0148019
-0.0373818
0.0216899
-0.0501472
0.028661
-0.0619678
0.0351124
-0.0721324
0.0406544
-0.0803488
0.0451426
-0.0866983
0.0486336
-0.0915007
0.0513046
-0.0951692
0.0533743
-0.0980993
0.0550467
-0.10061
0.0564829
-0.102924
0.0577958
-0.105186
0.059058
-0.107477
0.0603131
-0.10984
0.061587
-0.112297
0.0628952
-0.114858
0.0642476
-0.117528
0.0656498
-0.120307
0.0671056
-0.123194
0.0686166
-0.126186
-0.129276
0.0701734
0.00115053
-0.00478143
0.00434263
-0.0163437
0.00924443
-0.0295937
0.0152803
-0.0434178
0.0217174
-0.0565843
0.0278551
-0.0681056
0.033194
-0.0774712
0.037503
-0.0846579
0.0407885
-0.0899838
0.0432084
-0.0939206
0.0449812
-0.096942
0.0463186
-0.0994367
0.0473898
-0.101681
0.0483135
-0.103848
0.0491647
-0.106038
0.0499878
-0.1083
0.0508083
-0.110661
0.0516414
-0.11313
0.0524964
-0.115713
0.0533796
-0.118411
0.0542945
-0.121222
0.0552436
-0.124143
0.0562273
-0.12717
-0.13029
0.057242
0.00126113
-0.00604256
0.00460767
-0.0196902
0.00951558
-0.0345016
0.0152476
-0.0491498
0.0210115
-0.0623482
0.0261708
-0.0732649
0.0303689
-0.0816692
0.0335278
-0.0878168
0.035766
-0.0922219
0.0372942
-0.0954488
0.0383325
-0.0979804
0.0390631
-0.100167
0.0396154
-0.102233
0.040071
-0.104304
0.0404776
-0.106444
0.0408616
-0.108684
0.0412383
-0.111037
0.041617
-0.113509
0.0420039
-0.1161
0.0424032
-0.118811
0.0428172
-0.121636
0.0432471
-0.124573
0.0436917
-0.127615
-0.13075
0.044151
0.00134293
-0.00738549
0.0047402
-0.0230875
0.00947921
-0.0392406
0.0147078
-0.0543784
0.0196445
-0.0672848
0.0237677
-0.0773881
0.0268715
-0.084773
0.0290022
-0.0899475
0.0303466
-0.0935663
0.0311296
-0.0962318
0.0315493
-0.0984
0.031751
-0.100369
0.0318278
-0.10231
0.0318338
-0.10431
0.0317982
-0.106409
0.0317368
-0.108623
0.031659
-0.110959
0.0315711
-0.113421
0.0314775
-0.116007
0.0313815
-0.118715
0.0312853
-0.12154
0.0311894
-0.124477
0.0310915
-0.127517
0.0309941
-0.130652
-0.000308925
-0.000366307
0.000675232
-0.00105866
-0.00154214
0.00229187
-0.0021516
-0.00296969
0.00406263
-0.00352099
-0.00448591
0.00585531
-0.00511591
-0.00599359
0.00758851
-0.00689393
-0.00746028
0.0092383
-0.00881748
-0.00890151
0.0108251
-0.0108523
-0.0103593
0.0123941
-0.0129669
-0.0118825
0.013997
-0.0151317
-0.0135121
0.0156769
-0.0173182
-0.0152742
0.0174607
-0.0194968
-0.0171779
0.0193565
-0.0216351
-0.0192156
0.0213538
-0.0236955
-0.0213651
0.0234255
-0.0256344
-0.0235897
0.0255286
-0.0274007
-0.0258379
0.0276043
-0.0289359
-0.0280426
0.0295777
-0.0301743
-0.0301191
0.0313575
-0.0310459
-0.031965
0.0328365
-0.0314783
-0.0334622
0.0338946
-0.0314008
-0.0344826
0.0344051
-0.0307507
-0.0348884
0.0342383
-0.0294951
-0.0345223
0.0332666
-0.0332532
-0.027659
0.0314171
-0.000362219
-4.08752e-06
-0.00123681
-0.000667556
-0.00250359
-0.00170291
-0.0040789
-0.00291059
-0.00590024
-0.00417225
-0.00791933
-0.0054412
-0.0100981
-0.00672277
-0.0124059
-0.00805146
-0.0148179
-0.00947046
-0.0173126
-0.0110174
-0.0198698
-0.012717
-0.0224686
-0.0145792
-0.0250848
-0.0165994
-0.0276899
-0.01876
-0.0302494
-0.0210302
-0.0327219
-0.0233655
-0.0350585
-0.025706
-0.0372031
-0.0279744
-0.0390938
-0.0300742
-0.0406662
-0.0318898
-0.0418583
-0.0332905
-0.042613
-0.0341337
-0.042884
-0.0342513
-0.0334721
-0.0426651
-0.000382599
0.000378512
-0.00130838
0.000258227
-0.00264664
-0.00036465
-0.00430255
-0.00125468
-0.00620477
-0.00227004
-0.00829938
-0.00334658
-0.0105463
-0.00447591
-0.0129156
-0.00568208
-0.0153851
-0.00700097
-0.0179366
-0.00846586
-0.0205537
-0.0100999
-0.023219
-0.0119138
-0.0259128
-0.0139056
-0.0286113
-0.0160614
-0.0312863
-0.0183552
-0.0339035
-0.0207483
-0.0364223
-0.0231873
-0.0387943
-0.0256024
-0.0409636
-0.0279049
-0.0428696
-0.0299838
-0.044455
-0.0317051
-0.0456675
-0.0329212
-0.0464482
-0.0334706
-0.0331375
-0.0467828
-0.000366079
0.00074459
-0.00126241
0.00115456
-0.00256084
0.000933779
-0.00416306
0.000347543
-0.0059919
-0.0004412
-0.0079873
-0.00135118
-0.0101048
-0.00235841
-0.0123112
-0.00347567
-0.0145815
-0.00473065
-0.0168953
-0.00615208
-0.0192337
-0.00776159
-0.0215771
-0.00957043
-0.0239041
-0.0115786
-0.0261908
-0.0137747
-0.0284103
-0.0161357
-0.0305325
-0.018626
-0.032523
-0.0211968
-0.034341
-0.0237844
-0.0359369
-0.026309
-0.0372509
-0.0286698
-0.0382185
-0.0307376
-0.0387819
-0.0323577
-0.038871
-0.0333815
-0.0335718
-0.0384368
-0.000315239
0.00105983
-0.00110426
0.00194357
-0.00225576
0.00208528
-0.00367486
0.00176664
-0.00528036
0.0011643
-0.0070056
0.000374061
-0.00879986
-0.000564149
-0.0106213
-0.00165427
-0.0124366
-0.00291529
-0.0142169
-0.0043718
-0.0159344
-0.00604411
-0.0175608
-0.00794396
-0.0190669
-0.0100725
-0.0204222
-0.0124194
-0.0215962
-0.0149617
-0.0225588
-0.0176634
-0.0232808
-0.0204748
-0.0237324
-0.0233328
-0.0238803
-0.0261611
-0.0236805
-0.0288696
-0.0230712
-0.0313469
-0.0219857
-0.0334432
-0.0203813
-0.0349859
-0.0359462
-0.0180069
-0.000237719
0.00129755
-0.000856074
0.00256193
-0.00176961
0.00299881
-0.00289177
0.00288881
-0.00414068
0.00241321
-0.00544446
0.00167784
-0.00673868
0.000730067
-0.00797162
-0.000421323
-0.0090966
-0.00179031
-0.0100702
-0.00339823
-0.0108501
-0.00526418
-0.011394
-0.00740011
-0.011659
-0.00980745
-0.0116035
-0.0124749
-0.0111882
-0.015377
-0.0103787
-0.0184729
-0.00914726
-0.0217063
-0.00747347
-0.0250066
-0.00534406
-0.0282906
-0.00274862
-0.031465
0.000335381
-0.0344309
0.00397491
-0.0370827
0.00823162
-0.0392426
-0.0406641
0.0129495
-0.000145309
0.00144286
-0.000551664
0.00296828
-0.00116239
0.00360954
-0.00190224
0.00362866
-0.00268998
0.00320094
-0.0034462
0.00243406
-0.00409703
0.0013809
-0.00457268
5.43233e-05
-0.00481193
-0.00155106
-0.00475296
-0.0034572
-0.00433635
-0.00568078
-0.00350358
-0.00823288
-0.00219817
-0.0111129
-0.000367791
-0.0143053
0.00203302
-0.0177778
0.00504004
-0.0214799
0.00867712
-0.0253434
0.012955
-0.0292844
0.0178717
-0.0332073
0.0234164
-0.0370097
0.0295727
-0.0405872
0.0363473
-0.0438573
0.0436827
-0.046578
-0.0491484
0.0521671
-5.14437e-05
0.0014943
-0.000230536
0.00314738
-0.000505417
0.00388442
-0.000811495
0.00393474
-0.00106834
0.00345779
-0.00118979
0.00255551
-0.00108961
0.00128071
-0.000684869
-0.000350414
0.000107481
-0.00234341
0.00136488
-0.0047146
0.00316268
-0.00747859
0.00557142
-0.0106416
0.00865429
-0.0141957
0.0124635
-0.0181145
0.0170362
-0.0223505
0.0223919
-0.0268356
0.0285303
-0.0314819
0.0354326
-0.0361867
0.0430634
-0.0408382
0.0513776
-0.0453238
0.0603201
-0.0495297
0.0698635
-0.0534007
0.0799404
-0.0566548
-0.0601323
0.0909243
3.18148e-05
0.00146249
7.06248e-05
0.00310857
0.000133346
0.0038217
0.000278451
0.00378963
0.000587054
0.00314919
0.00115225
0.00199032
0.00207223
0.000360737
0.00344589
-0.00172408
0.00537058
-0.0042681
0.00793833
-0.00728235
0.0112334
-0.0107736
0.0153275
-0.0147357
0.0202746
-0.0191429
0.0261056
-0.0239455
0.032824
-0.029069
0.0404041
-0.0344157
0.0487919
-0.0398696
0.0579092
-0.045304
0.0676614
-0.0505904
0.0779457
-0.0556081
0.0886666
-0.0602506
0.0997382
-0.0644723
0.1111
-0.0680167
-0.0718314
0.122799
9.62096e-05
0.00136628
0.000325607
0.00287917
0.000705156
0.00344215
0.001294
0.00320079
0.0021776
0.00226558
0.00345761
0.00071031
0.00524413
-0.00142579
0.0076491
-0.00412905
0.0107803
-0.00739925
0.0147344
-0.0112365
0.0195899
-0.0156291
0.0253986
-0.0205445
0.0321785
-0.0259227
0.0399077
-0.0316747
0.048523
-0.0376843
0.0579222
-0.0438149
0.0679713
-0.0499187
0.0785159
-0.0558486
0.0893949
-0.0614694
0.100454
-0.0666669
0.111564
-0.0713609
0.122602
-0.07551
0.133579
-0.0789944
-0.0824924
0.14424
0.000140143
0.00122613
0.000527943
0.00249137
0.00119549
0.0027746
0.00221222
0.00218406
0.00367354
0.000804267
0.00569226
-0.00130841
0.00838926
-0.00412279
0.0118838
-0.00762362
0.0162828
-0.0117982
0.0216686
-0.0166222
0.0280868
-0.0220474
0.0355365
-0.0279941
0.0439625
-0.0343487
0.0532551
-0.0409673
0.0632555
-0.0476847
0.0737677
-0.0543271
0.084576
-0.060727
0.0954643
-0.0667369
0.106236
-0.072241
0.116734
-0.0771649
0.126849
-0.0814761
0.136519
-0.0851803
0.145807
-0.0882825
-0.0910011
0.154316
0.000169098
0.000692407
0.00163071
0.00307282
0.00512996
0.00792679
0.0115897
0.0162316
0.0219353
0.0287359
0.0366075
0.0454556
0.0551181
0.0653765
0.0759751
0.0866451
0.0971319
0.107218
0.116743
0.125616
0.133806
0.141386
0.148514
0.15549
-0.0225748
-0.0431415
0.0380573
-0.0164919
-0.0361268
0.0300439
-0.00947898
-0.0260571
0.0190442
-0.0016042
-0.0129165
0.00504172
0.0069968
0.00301145
-0.0116125
0.0161103
0.0215789
-0.0306924
0.0253168
0.0422807
-0.0514872
0.0344586
0.0635904
-0.0727322
0.0432049
0.0841796
-0.092926
0.0510149
0.102718
-0.110528
0.0571706
0.118338
-0.124494
0.0609837
0.130884
-0.134697
0.0622485
0.140823
-0.142088
0.0618571
0.148288
-0.147897
0.0619523
0.151624
-0.151719
0.0650576
0.14689
-0.149995
0.0725284
0.129639
-0.13711
0.0837538
0.0976758
-0.108901
0.0970124
0.0522701
-0.0655287
0.110676
-0.0024382
-0.0112251
0.123565
-0.059281
0.0463919
0.134401
-0.109151
0.0983143
0.142182
-0.144831
0.13705
0.146513
-0.165082
0.160751
0.147927
-0.173665
0.172252
0.147326
-0.175001
0.175602
0.14466
-0.173746
0.176412
0.139056
-0.176052
0.181656
0.130944
-0.184576
0.192688
0.123365
-0.189
0.196579
0.120137
-0.169068
0.172295
0.12286
-0.112637
0.109914
0.13032
-0.0287602
0.0212999
0.139488
0.0582437
-0.067411
0.147958
0.129086
-0.137556
0.154414
0.172698
-0.179154
0.157765
0.196743
-0.200094
0.156641
0.213091
-0.211967
0.150864
0.235204
-0.229427
0.142913
0.248101
-0.24015
0.136985
0.2267
-0.220772
0.135839
0.155379
-0.154232
0.139505
0.0428648
-0.0465305
0.146059
-0.0641489
0.0575944
0.152229
-0.154916
0.148746
0.154241
-0.197576
0.195564
0.150352
-0.238738
0.242627
0.143043
-0.254143
0.261452
0.137662
-0.246006
0.251387
0.137999
-0.187052
0.186715
0.142971
-0.0575762
0.0526042
0.147649
0.0332073
-0.0378858
0.147852
0.180238
-0.18044
0.144827
0.234089
-0.231064
0.142492
0.300742
-0.298406
0.142457
0.281367
-0.281332
0.143413
0.122328
-0.123284
0.14344
0.0711725
-0.0712
0.14162
-0.213237
0.215057
-0.241253
0.243113
-0.0391702
-0.0466364
-0.0342749
-0.0410221
-0.0280458
-0.0322862
-0.0204654
-0.0204969
-0.0117472
-0.00570677
-0.00214768
0.0119793
0.00865061
0.0314825
0.0194343
0.0528068
0.0297569
0.073857
0.0392083
0.0932662
0.0471343
0.110412
0.0531226
0.124896
0.0574213
0.136524
0.0612294
0.14448
0.0664002
0.146453
0.0744451
0.138845
0.0854997
0.118584
0.0982762
0.0848993
0.111233
0.039313
0.123308
-0.0145125
0.133779
-0.0697519
0.141794
-0.117166
0.146771
-0.149808
0.148655
-0.166966
0.148056
-0.173067
0.145935
-0.17288
0.142354
-0.170165
0.1362
-0.169899
0.127366
-0.175741
0.118698
-0.180332
0.114556
-0.164927
0.117159
-0.11524
0.12538
-0.0369813
0.135958
0.0476663
0.146145
0.118898
0.154292
0.164551
0.158993
0.192042
0.158888
0.213195
0.154044
0.240048
0.14693
0.255215
0.141409
0.232222
0.139836
0.156952
0.142363
0.0403377
0.147434
-0.0692199
0.152447
-0.159928
0.153863
-0.198992
0.149668
-0.234543
0.142222
-0.246698
0.136808
-0.240591
0.137423
-0.187668
0.142581
-0.0627341
0.147408
0.0283809
0.147773
0.179873
0.144848
0.237014
0.142653
0.302936
0.142726
0.281293
0.144014
0.121041
0.144266
0.0709199
0.142455
-0.211425
-0.239398
-0.0454499
-0.0479693
-0.0425912
-0.0438808
-0.0381451
-0.0367323
-0.0319835
-0.0266585
-0.0241024
-0.0135878
-0.0146668
0.00254372
-0.00435101
0.0211666
0.00725902
0.0411968
0.0187903
0.0623257
0.0299643
0.0820922
0.0401219
0.100255
0.0490442
0.115973
0.057143
0.128426
0.0654735
0.13615
0.075264
0.136663
0.0870892
0.12702
0.100305
0.105368
0.113428
0.0717765
0.125296
0.0274455
0.135369
-0.0245855
0.143264
-0.077647
0.148432
-0.122335
0.150671
-0.152046
0.150275
-0.16657
0.14791
-0.170701
0.144481
-0.169452
0.140191
-0.165874
0.133837
-0.163545
0.124685
-0.166589
0.115112
-0.170759
0.109864
-0.159678
0.111996
-0.117372
0.120563
-0.0455478
0.132331
0.0358981
0.14412
0.107109
0.153927
0.154744
0.160048
0.185922
0.161155
0.212087
0.157471
0.243732
0.151306
0.261379
0.146149
0.237379
0.14409
0.159011
0.145341
0.0390864
0.148866
-0.0727453
0.152658
-0.16372
0.153521
-0.199856
0.149123
-0.230146
0.141606
-0.23918
0.136138
-0.235124
0.136957
-0.188487
0.142259
-0.0680354
0.147265
0.0233744
0.147822
0.179316
0.14497
0.239866
0.142887
0.30502
0.143097
0.281084
0.144758
0.119379
0.145264
0.0704142
0.143456
-0.209616
-0.237544
-0.0393878
-0.0470182
-0.0389968
-0.0442718
-0.0369528
-0.0387763
-0.0330605
-0.0305508
-0.027189
-0.0194593
-0.0191904
-0.00545487
-0.00963546
0.0116117
0.000893517
0.0306678
0.0133107
0.0499086
0.0258637
0.0695391
0.0381751
0.0879434
0.0500558
0.104093
0.0617891
0.116692
0.0740102
0.123929
0.0872668
0.123406
0.101437
0.11285
0.11549
0.0913144
0.128071
0.0591956
0.138404
0.0171124
0.14638
-0.0325614
0.151775
-0.0830417
0.154232
-0.124792
0.153875
-0.15169
0.151374
-0.164069
0.147475
-0.166802
0.142934
-0.164911
0.138059
-0.160999
0.131763
-0.157249
0.122767
-0.157592
0.112647
-0.160639
0.106184
-0.153216
0.107368
-0.118555
0.115902
-0.0540819
0.128568
0.0232319
0.141811
0.0938659
0.153227
0.143328
0.160838
0.178311
0.163347
0.209579
0.161024
0.246055
0.155899
0.266504
0.15107
0.242207
0.148433
0.161649
0.148405
0.0391145
0.150328
-0.0746688
0.15285
-0.166242
0.153184
-0.20019
0.148667
-0.225628
0.141132
-0.231645
0.135588
-0.22958
0.136532
-0.189432
0.141965
-0.0734677
0.147201
0.0181384
0.147994
0.178522
0.145203
0.242658
0.143207
0.307015
0.143577
0.280713
0.145645
0.117312
0.14643
0.0696285
0.144619
-0.207805
-0.23569
-0.0211379
-0.0438873
-0.0232378
-0.0421719
-0.0237369
-0.0382772
-0.0225167
-0.0317711
-0.0190567
-0.0229193
-0.0135109
-0.0110006
-0.0056943
0.00379505
0.00431048
0.020663
0.0159995
0.0382195
0.0289529
0.0565857
0.0425462
0.0743501
0.0564853
0.0901536
0.0707697
0.102408
0.0855467
0.109152
0.100786
0.108167
0.115919
0.0977166
0.129811
0.0774222
0.141362
0.0476446
0.150129
0.00834528
0.156116
-0.0385478
0.159132
-0.0860578
0.159005
-0.124665
0.156227
-0.148911
0.151832
-0.159674
0.146656
-0.161626
0.141242
-0.159498
0.135908
-0.155665
0.129827
-0.151168
0.121389
-0.149154
0.111201
-0.150451
0.103623
-0.145638
0.103476
-0.118407
0.111443
-0.0620491
0.124663
0.0100118
0.139137
0.079392
0.152071
0.130395
0.161229
0.169152
0.165315
0.205492
0.164541
0.24683
0.160533
0.270512
0.156002
0.246738
0.152762
0.164888
0.151447
0.04043
0.151779
-0.0750013
0.152996
-0.167459
0.152816
-0.200009
0.148253
-0.221065
0.140747
-0.224139
0.135093
-0.223925
0.136088
-0.190427
0.141654
-0.079033
0.147185
0.0126072
0.148277
0.17743
0.145551
0.245383
0.143626
0.308941
0.144171
0.280168
0.146668
0.114815
0.147759
0.0685372
0.145937
-0.205983
-0.23383
0.00777925
-0.0387171
0.00289001
-0.0372826
-0.000531021
-0.0348561
-0.00179571
-0.0305064
-0.0012316
-0.0234834
0.00213484
-0.0143671
0.00854141
-0.00261152
0.0169275
0.0122769
0.0271871
0.0279599
0.0393622
0.0444107
0.0529547
0.0607576
0.0675654
0.0755428
0.0829024
0.087071
0.0986785
0.0933754
0.11443
0.0924155
0.129343
0.0828037
0.142347
0.0644178
0.152644
0.0373483
0.160004
0.000984842
0.164246
-0.0427893
0.165065
-0.0868772
0.162552
-0.122152
0.157615
-0.143974
0.151586
-0.153645
0.145379
-0.15542
0.13933
-0.153449
0.133649
-0.149983
0.127842
-0.145362
0.120261
-0.141572
0.110545
-0.140736
0.102169
-0.137262
0.100449
-0.116688
0.107335
-0.0689351
0.120633
-0.00328595
0.136018
0.0640063
0.150321
0.116092
0.161054
0.15842
0.166871
0.199675
0.16781
0.24589
0.165013
0.27331
0.16079
0.250961
0.156917
0.168761
0.154389
0.0429578
0.153169
-0.0737808
0.153061
-0.167351
0.152372
-0.19932
0.147831
-0.216524
0.1404
-0.216708
0.134597
-0.218122
0.135563
-0.191393
0.141273
-0.0847428
0.147178
0.0067024
0.148652
0.175957
0.146021
0.248014
0.144154
0.310808
0.14488
0.279443
0.147823
0.111871
0.149242
0.0671178
0.147401
-0.204141
-0.231962
0.0457248
-0.0322748
0.0398055
-0.0313633
0.0346126
-0.0296633
0.0306447
-0.0265384
0.0286595
-0.0214982
0.0288273
-0.0145349
0.0315499
-0.00533406
0.0370313
0.00679543
0.0449795
0.0200117
0.0553398
0.0340504
0.067724
0.0483734
0.0816676
0.0615992
0.0966546
0.072084
0.112078
0.0779521
0.127189
0.0773043
0.141072
0.0689214
0.152809
0.0526802
0.161813
0.0283447
0.167904
-0.00510667
0.170559
-0.0454443
0.169364
-0.085682
0.164716
-0.117504
0.15794
-0.137198
0.150574
-0.146279
0.143577
-0.148423
0.137121
-0.146992
0.131218
-0.14408
0.125661
-0.139805
0.119066
-0.134977
0.110318
-0.131989
0.101672
-0.128616
0.098398
-0.113413
0.103804
-0.0743411
0.116445
-0.015927
0.132398
0.0480538
0.147852
0.100638
0.160138
0.146133
0.167806
0.192008
0.170619
0.243077
0.169142
0.274786
0.165259
0.254845
0.160802
0.173217
0.157101
0.0466595
0.154439
-0.0711188
0.153007
-0.165919
0.151806
-0.19812
0.14735
-0.212068
0.140042
-0.2094
0.13405
-0.212131
0.134901
-0.192244
0.140769
-0.0906113
0.147133
0.00033837
0.149095
0.173995
0.146611
0.250498
0.1448
0.312619
0.145704
0.278539
0.149103
0.108472
0.15087
0.0653512
0.148998
-0.202269
-0.230083
0.0842442
-0.0255947
0.0779267
-0.0250458
0.0719556
-0.0236922
0.0666301
-0.0212129
0.0625302
-0.0173984
0.0600825
-0.0120872
0.0597773
-0.00502888
0.062091
0.00448174
0.0670821
0.0150207
0.0747917
0.0263408
0.0849671
0.038198
0.0971433
0.049423
0.110677
0.0585498
0.124767
0.0638623
0.138496
0.0635755
0.150918
0.0564996
0.161255
0.0423433
0.169053
0.0205464
0.173908
-0.00996206
0.174998
-0.0465341
0.171902
-0.0825856
0.165388
-0.11099
0.157134
-0.128944
0.148764
-0.13791
0.141205
-0.140864
0.134533
-0.14032
0.128549
-0.138096
0.123189
-0.134446
0.117533
-0.12932
0.110097
-0.124553
0.101812
-0.12033
0.0972855
-0.108887
0.100825
-0.0778803
0.11232
-0.0274225
0.128272
0.0321022
0.144575
0.0843345
0.158332
0.132377
0.167908
0.182432
0.172709
0.238276
0.172682
0.274813
0.169229
0.258298
0.164232
0.178215
0.159524
0.0513673
0.155524
-0.0671188
0.152793
-0.163189
0.151067
-0.196393
0.146758
-0.207759
0.139633
-0.202275
0.133417
-0.205916
0.134056
-0.192883
0.140085
-0.09664
0.146997
-0.00657357
0.149577
0.171415
0.147318
0.252756
0.145569
0.314369
0.146645
0.277463
0.150501
0.104615
0.152631
0.0632219
0.150717
-0.200355
-0.228194
0.116551
-0.0193462
0.110609
-0.0191047
0.10495
-0.0180326
0.0996808
-0.0159439
0.0951149
-0.0128325
0.0916234
-0.00859565
0.0897234
-0.00312888
0.0896133
0.00459187
0.0917812
0.0128527
0.0965351
0.0215869
0.103852
0.0308813
0.113418
0.0398566
0.124636
0.0473317
0.136663
0.0518361
0.148514
0.0517237
0.159239
0.0457749
0.168115
0.033467
0.174577
0.0140847
0.178043
-0.0134282
0.177442
-0.045933
0.172533
-0.0776767
0.164456
-0.102912
0.155111
-0.119599
0.14608
-0.128879
0.138174
-0.132958
0.131432
-0.133579
0.125507
-0.13217
0.120323
-0.129262
0.115445
-0.124442
0.10945
-0.118558
0.102108
-0.112989
0.096875
-0.103654
0.0984997
-0.079505
0.108317
-0.0372401
0.123691
0.0167285
0.140447
0.0675787
0.155501
0.117323
0.166998
0.170935
0.173932
0.231342
0.175495
0.27325
0.172541
0.261251
0.167116
0.18364
0.161542
0.0569413
0.156353
-0.0619291
0.152366
-0.159202
0.150091
-0.194118
0.145993
-0.20366
0.139135
-0.195417
0.13267
-0.199451
0.132994
-0.193207
0.139167
-0.102813
0.146712
-0.0141184
0.150059
0.168068
0.14813
0.254684
0.146462
0.316037
0.147699
0.276226
0.152009
0.100305
0.15451
0.060721
0.152542
-0.198388
-0.226299
0.138841
-0.0139465
0.133739
-0.0140034
0.12891
-0.0132026
0.124531
-0.0115651
0.12077
-0.00907186
0.117741
-0.00556698
0.11574
-0.00112725
0.114914
0.00541719
0.115745
0.0120222
0.118448
0.0188841
0.123259
0.0260697
0.130094
0.0330218
0.138582
0.0388443
0.14806
0.0423578
0.157628
0.0421554
0.166353
0.0370504
0.173518
0.0263018
0.178469
0.0091332
0.180208
-0.0151668
0.177735
-0.0434601
0.171137
-0.071079
0.161845
-0.0936204
0.1518
-0.109554
0.142423
-0.119503
0.134362
-0.124896
0.127656
-0.126873
0.121916
-0.126429
0.116943
-0.12429
0.112655
-0.120154
0.108023
-0.113925
0.102045
-0.107011
0.0967691
-0.0983782
0.0967362
-0.0794721
0.104552
-0.045056
0.118765
0.0025155
0.135492
0.0508521
0.151581
0.101234
0.164889
0.157627
0.17396
0.222271
0.177256
0.269953
0.175001
0.263507
0.169308
0.189332
0.163087
0.0631632
0.156876
-0.0557189
0.151699
-0.154024
0.148836
-0.191255
0.145002
-0.199826
0.138519
-0.188934
0.131807
-0.192739
0.131699
-0.193098
0.137971
-0.109086
0.146216
-0.0223631
0.150497
0.163787
0.149027
0.256155
0.147477
0.317587
0.148862
0.274841
0.153618
0.095549
0.156488
0.0578516
0.154464
-0.196364
-0.224402
0.14997
-0.00960071
0.145799
-0.00983249
0.141882
-0.00928484
0.13854
-0.00822377
0.135898
-0.00642969
0.134047
-0.00371563
0.133236
-0.000316274
0.133258
0.00539457
0.134166
0.0111147
0.136221
0.0168288
0.13979
0.0225005
0.144848
0.0279647
0.151183
0.0325084
0.15832
0.0352208
0.165582
0.0348934
0.172185
0.0304475
0.1774
0.0210877
0.180203
0.0063302
0.18017
-0.015134
0.175912
-0.0392021
0.167996
-0.0631634
0.157979
-0.0836039
0.147664
-0.0992379
0.138243
-0.110082
0.130193
-0.116845
0.123566
-0.120246
0.118043
-0.120907
0.113299
-0.119546
0.109389
-0.116244
0.105834
-0.110371
0.101361
-0.102537
0.0966403
-0.0936576
0.0954003
-0.0782322
0.101088
-0.0507435
0.113629
-0.0100261
0.129762
0.0347196
0.146542
0.084453
0.161622
0.142547
0.173002
0.210891
0.178155
0.2648
0.176596
0.265066
0.170833
0.195095
0.164146
0.0698497
0.157151
-0.0487239
0.150887
-0.147759
0.147373
-0.187742
0.143813
-0.196266
0.137794
-0.182915
0.130872
-0.185817
0.130216
-0.192443
0.13649
-0.115359
0.145437
-0.0313098
0.150842
0.158382
0.149984
0.257013
0.148602
0.318968
0.150127
0.273317
0.155313
0.0903628
0.158552
0.0546131
0.156468
-0.194281
-0.222515
0.152603
-0.00671424
0.14936
-0.00658881
0.146363
-0.00628831
0.143855
-0.00571587
0.141947
-0.00452129
0.140754
-0.00252244
0.140086
0.000351476
0.140921
0.00455906
0.142814
0.00922161
0.145602
0.0140411
0.149174
0.0189285
0.153611
0.0235282
0.158821
0.0272984
0.164501
0.0295406
0.170089
0.0293052
0.174912
0.025624
0.178283
0.0177168
0.179787
0.00482628
0.177506
-0.0128527
0.171805
-0.0335009
0.163196
-0.0545545
0.153184
-0.0735917
0.143197
-0.0892516
0.134132
-0.101017
0.126318
-0.109031
0.119819
-0.113748
0.114475
-0.115562
0.109929
-0.115
0.106192
-0.112507
0.103297
-0.107476
0.10017
-0.0994102
0.0963909
-0.0898784
0.0944928
-0.076334
0.0982386
-0.0544893
0.108523
-0.0203108
0.123556
0.0196868
0.140283
0.0677264
0.156479
0.126351
0.170006
0.197364
0.177353
0.257453
0.176985
0.265434
0.171438
0.200641
0.164709
0.0765788
0.157076
-0.0410907
0.149945
-0.140628
0.145792
-0.183589
0.142484
-0.192958
0.136976
-0.177407
0.129894
-0.178735
0.12864
-0.191189
0.134859
-0.121578
0.144362
-0.0408128
0.15103
0.151713
0.150955
0.257088
0.149825
0.320099
0.151495
0.271646
0.157084
0.0847736
0.160677
0.0510202
0.158555
-0.192158
-0.22062
0.183228
-0.00324777
-0.186694
0.180294
-0.00365495
0.177471
-0.0034659
0.174638
-0.00288275
0.171841
-0.00172439
0.169261
5.80866e-05
0.167087
0.00252535
0.165707
0.00593946
0.165075
0.00985347
0.165172
0.0139435
0.166148
0.0179528
0.168161
0.0215146
0.171332
0.0241283
0.175709
0.0251628
0.181171
0.023844
0.187362
0.0194329
0.193661
0.0114172
0.199115
-0.000626949
0.202612
-0.0163501
0.203277
-0.0341655
0.200961
-0.0522385
0.196189
-0.0688198
0.189728
-0.082791
0.182312
-0.093601
0.174487
-0.101206
0.166649
-0.10591
0.159073
-0.107986
0.151715
-0.107642
0.144533
-0.105325
0.137819
-0.100763
0.131104
-0.0926945
0.123338
-0.0821132
0.115409
-0.0684045
0.110663
-0.0497431
0.111777
-0.0214252
0.117623
0.0138408
0.125277
0.0600729
0.132301
0.119326
0.138268
0.191397
0.143612
0.252109
0.149923
0.259123
0.158067
0.192497
0.165396
0.0692506
0.168304
-0.0439987
0.166094
-0.138419
0.161647
-0.179141
0.155885
-0.187197
0.148052
-0.169574
0.13915
-0.169833
0.133593
-0.185632
0.133517
-0.121502
0.135706
-0.0430021
0.136673
0.150746
0.134899
0.258862
0.134705
0.320293
0.139521
0.266831
0.146357
0.0779368
0.150362
0.0470152
0.147403
-0.189198
-0.216574
0.194
-0.000816623
-0.196432
0.19163
-0.0012843
0.189381
-0.00121749
0.187227
-0.000727858
0.185222
0.00028033
0.183495
0.00178491
0.182157
0.00386306
0.18149
0.00660724
0.181566
0.00977687
0.182431
0.0130781
0.184149
0.0162357
0.186763
0.0189001
0.190283
0.0206079
0.194641
0.0208056
0.199608
0.0188764
0.20478
0.014261
0.209614
0.00658331
0.213331
-0.00434411
0.215068
-0.0180865
0.21435
-0.0334483
0.211176
-0.0490637
0.205945
-0.0635892
0.199252
-0.0760978
0.191729
-0.086078
0.183886
-0.0933633
0.176052
-0.0980761
0.168475
-0.100409
0.161174
-0.10034
0.153987
-0.0981378
0.14718
-0.0939553
0.140741
-0.0862556
0.1337
-0.0750725
0.126024
-0.0607285
0.120435
-0.0441541
0.120039
-0.0210287
0.124988
0.00889175
0.132557
0.0525037
0.140265
0.111618
0.147388
0.184274
0.154138
0.245359
0.161925
0.251337
0.171058
0.183364
0.178955
0.0613539
0.181619
-0.0466635
0.178534
-0.135334
0.17297
-0.173577
0.166479
-0.180705
0.158271
-0.161367
0.148769
-0.16033
0.142531
-0.179394
0.141996
-0.120967
0.144407
-0.0454134
0.145991
0.149162
0.144631
0.260222
0.144793
0.320131
0.150042
0.261581
0.1574
0.070579
0.161641
0.042774
0.158055
-0.185613
-0.212035
0.20495
0.00111492