/*--------------------------------*- C++ -*----------------------------------*\
| =========                 |                                                 |
| \\      /  F ield         | OpenFOAM: The Open Source CFD Toolbox           |
|  \\    /   O peration     | Version:  2512                                  |
|   \\  /    A nd           | Website:  www.openfoam.com                      |
|    \\/     M anipulation  |                                                 |
\*---------------------------------------------------------------------------*/
FoamFile
{
    version     2.0;
    format      ascii;
    arch        "LSB;label=32;scalar=64";
    class       surfaceScalarField;
    location    "72.75";
    object      phi;
}
// * * * * * * * * * * * * * * * * * * * * * * * * * * * * * * * * * * * * * //

dimensions      [0 3 -1 0 0 0 0];

oriented        oriented;

internalField   nonuniform List<scalar> 
26232
(
-1.69338e-06
0.000997243
-0.00099555
0.000239128
0.00193841
-0.00217923
0.000925147
0.00198448
-0.0026705
0.00223598
0.00118084
-0.00249167
0.00434354
-0.00045781
-0.00164975
0.00741487
-0.00293265
-0.000138683
0.0116086
-0.00624862
0.00205494
0.0170624
-0.010402
0.00494819
0.0238778
-0.0153673
0.00855189
0.032101
-0.0210875
0.0128642
0.0417066
-0.0274692
0.0178637
0.0525859
-0.0343834
0.0235041
0.0645454
-0.0416721
0.0297126
0.0773139
-0.0491594
0.0363909
0.0905598
-0.0566648
0.0434189
0.103915
-0.0640171
0.0506617
0.117006
-0.0710672
0.0579765
0.129481
-0.0777
0.0652245
0.141049
-0.0838378
0.0722702
0.151485
-0.0894614
0.0790256
0.160672
-0.0945448
0.0853576
0.168519
-0.0992602
0.0914132
0.17492
-0.103245
0.0968439
-0.107636
0.102927
0.179628
5.24939e-05
0.000944749
0.000473352
0.00151755
0.00149011
0.000967716
0.00331195
-0.000640996
0.00613652
-0.00328238
0.0101442
-0.00694034
0.0154834
-0.0115878
0.022249
-0.0171676
0.0304599
-0.0235781
0.0400408
-0.0306685
0.0508153
-0.0382437
0.0625117
-0.0460798
0.0747837
-0.053944
0.0872412
-0.0616169
0.0994883
-0.0689119
0.111162
-0.0756909
0.121968
-0.0818728
0.131704
-0.0874361
0.140279
-0.0924133
0.1477
-0.096882
0.154092
-0.100937
0.159556
-0.104724
0.164507
-0.108196
-0.111977
0.168849
0.000132746
0.000812003
0.000799298
0.000851002
0.00224788
-0.000480864
0.00470735
-0.00310047
0.00838319
-0.00695822
0.0134387
-0.0119959
0.019968
-0.0181171
0.0279677
-0.0251673
0.0373178
-0.0329282
0.0477782
-0.0411289
0.0590067
-0.0494722
0.0705939
-0.0576671
0.0821109
-0.065461
0.0931586
-0.0726646
0.103413
-0.0791661
0.112656
-0.084934
0.120792
-0.0900092
0.127844
-0.0944877
0.133929
-0.0984981
0.139227
-0.102181
0.143943
-0.105653
0.148263
-0.109044
0.152373
-0.112306
-0.115883
0.156279
0.000234018
0.000577985
0.00120224
-0.000117222
0.00316392
-0.00244254
0.00635059
-0.00628714
0.0109462
-0.0115539
0.0170534
-0.0181031
0.024658
-0.0257216
0.0336056
-0.034115
0.043603
-0.0429256
0.0542474
-0.0517733
0.0650788
-0.0603036
0.075644
-0.0682323
0.0855566
-0.0753737
0.0945428
-0.0816508
0.102464
-0.0870874
0.109315
-0.0917853
0.115201
-0.0958944
0.120294
-0.0995812
0.124797
-0.103001
0.128898
-0.106282
0.132757
-0.109511
0.136471
-0.112758
0.14016
-0.115995
-0.119499
0.143776
0.000352768
0.000225217
0.00166615
-0.0014306
0.00419599
-0.00497238
0.00815042
-0.0102416
0.0136513
-0.0170548
0.020689
-0.0251407
0.0290908
-0.0341234
0.0385231
-0.0435473
0.0485321
-0.0529346
0.0586142
-0.0618554
0.0682971
-0.0699865
0.077209
-0.0771442
0.0851221
-0.0832867
0.0919627
-0.0884914
0.0977913
-0.092916
0.102762
-0.0967556
0.107071
-0.100204
0.110916
-0.103426
0.114463
-0.106548
0.117836
-0.109654
0.121117
-0.112793
0.124354
-0.115995
0.127602
-0.119242
-0.122695
0.130798
0.000486502
-0.000261285
0.00217548
-0.00311958
0.00529735
-0.00809425
0.0100011
-0.0149453
0.0162985
-0.0233521
0.0240189
-0.0328612
0.0328052
-0.0429097
0.0421616
-0.0529037
0.0515427
-0.0623157
0.0604526
-0.0707653
0.0685248
-0.0780586
0.0755625
-0.0841819
0.0815371
-0.0892614
0.0865517
-0.0935059
0.090787
-0.0971514
0.0944478
-0.100416
0.0977214
-0.103477
0.100755
-0.10646
0.103654
-0.109447
0.106483
-0.112483
0.109283
-0.115594
0.112077
-0.118789
0.114895
-0.12206
-0.125489
0.117689
0.000632632
-0.000893917
0.00271182
-0.00519877
0.00641181
-0.0117942
0.0117793
-0.0203128
0.0186691
-0.0302419
0.0267222
-0.0409142
0.0354125
-0.0516001
0.0441512
-0.0616424
0.0524069
-0.0705714
0.0597999
-0.0781583
0.0661435
-0.0844023
0.0714325
-0.0894709
0.0757936
-0.0936225
0.0794224
-0.0971347
0.0825257
-0.100255
0.0852834
-0.103174
0.0878316
-0.106025
0.0902625
-0.108891
0.0926334
-0.111818
0.0949781
-0.114828
0.0973157
-0.117932
0.0996564
-0.12113
0.102014
-0.124417
-0.127827
0.104353
0.000786827
-0.00168074
0.0032502
-0.00766214
0.00747032
-0.0160144
0.0133473
-0.0261899
0.0205478
-0.0374424
0.0285331
-0.0488996
0.0366705
-0.0597375
0.0443772
-0.069349
0.0512356
-0.0774298
0.0570432
-0.0839659
0.0617963
-0.0891554
0.0656308
-0.0933053
0.0687497
-0.0967414
0.0713624
-0.0997475
0.0736463
-0.102539
0.075732
-0.10526
0.0777062
-0.107999
0.0796209
-0.110806
0.0815062
-0.113703
0.0833786
-0.1167
0.0852475
-0.119801
0.0871188
-0.123001
0.0889994
-0.126298
-0.129695
0.0908674
0.000942022
-0.00262277
0.0037582
-0.0104783
0.00839422
-0.0206504
0.0145688
-0.0323645
0.0217579
-0.0446314
0.0292923
-0.056434
0.0365229
-0.0669681
0.0429659
-0.0757921
0.0483729
-0.0828367
0.052718
-0.088311
0.0561321
-0.0925695
0.0588214
-0.0959946
0.0609993
-0.0989194
0.0628458
-0.101594
0.0644919
-0.104185
0.0660227
-0.106791
0.0674886
-0.109465
0.0689178
-0.112235
0.0703256
-0.115111
0.0717208
-0.118095
0.0731087
-0.121188
0.074493
-0.124385
0.0758766
-0.127682
-0.131066
0.0772476
0.00108862
-0.00371139
0.00419867
-0.0135884
0.00910552
-0.0255572
0.0153315
-0.0385905
0.0221934
-0.0514932
0.028969
-0.0632096
0.0350804
-0.0730794
0.0401987
-0.0809104
0.0442479
-0.086886
0.0473371
-0.0914001
0.0496692
-0.0949016
0.0514635
-0.0977889
0.052907
-0.100363
0.0541362
-0.102823
0.0552391
-0.105287
0.0562672
-0.107819
0.0572487
-0.110447
0.0581987
-0.113185
0.0591257
-0.116038
0.0600348
-0.119005
0.0609294
-0.122083
0.061812
-0.125268
0.0626835
-0.128553
-0.131923
0.0635399
0.00121617
-0.00492756
0.00453607
-0.0169083
0.00954067
-0.0305618
0.0155672
-0.044617
0.021833
-0.057759
0.0276454
-0.069022
0.0325584
-0.0779925
0.0364105
-0.0847624
0.0392651
-0.0897406
0.0413117
-0.0934468
0.0427742
-0.0963641
0.0438505
-0.0988652
0.0446874
-0.1012
0.0453806
-0.103516
0.0459854
-0.105892
0.0465318
-0.108365
0.0470355
-0.110951
0.047505
-0.113655
0.0479457
-0.116478
0.0483611
-0.11942
0.0487537
-0.122476
0.0491246
-0.125639
0.0494729
-0.128901
-0.132248
0.0497982
0.00131764
-0.0062452
0.00474513
-0.0203358
0.00966235
-0.035479
0.0152602
-0.0502149
0.0207313
-0.0632301
0.0254795
-0.0737703
0.0292153
-0.0817283
0.031923
-0.0874701
0.0337593
-0.0915769
0.0349463
-0.0946339
0.0356949
-0.0971127
0.0361673
-0.0993376
0.036471
-0.101504
0.0366691
-0.103714
0.0367952
-0.106018
0.0368665
-0.108436
0.0368918
-0.110976
0.0368767
-0.113639
0.0368251
-0.116427
0.03674
-0.119335
0.0366238
-0.122359
0.0364774
-0.125493
0.0362991
-0.128723
0.0360912
-0.13204
-0.000193675
0.000968014
-0.00077434
-0.000682008
0.00270921
-0.00222088
-0.00140982
0.00431074
-0.00358292
-0.00233441
0.00575326
-0.00482868
-0.00341989
0.00703185
-0.00594636
-0.00463494
0.00816311
-0.00694806
-0.00595159
0.00917962
-0.00786296
-0.00734473
0.0101215
-0.00872839
-0.00879179
0.0110286
-0.00958157
-0.0102725
0.0119341
-0.0104535
-0.0117682
0.0128609
-0.0113652
-0.0132612
0.0138198
-0.0123268
-0.0147337
0.0148107
-0.0133382
-0.0161667
0.0158229
-0.0143899
-0.0175394
0.0168369
-0.0154642
-0.018828
0.0178249
-0.0165363
-0.0200059
0.0187519
-0.0175739
-0.0210439
0.0195755
-0.0185376
-0.0219105
0.0202472
-0.0193806
-0.0225737
0.0207129
-0.0200497
-0.0230027
0.0209162
-0.0204873
-0.0231719
0.0207999
-0.0206307
-0.0230771
0.0203144
-0.0204092
0.0194575
-0.0227718
-0.0197628
-0.000133168
0.00110118
-0.000479204
0.00305525
-0.00100473
0.00483626
-0.00168116
0.00642969
-0.00248161
0.0078323
-0.00337939
0.00906089
-0.00434741
0.0101476
-0.0053583
0.0111324
-0.00638492
0.0120553
-0.0074008
0.01295
-0.00838026
0.0138403
-0.00929823
0.0147378
-0.0101297
0.0156422
-0.0108488
0.0165421
-0.0114282
0.0174162
-0.0118377
0.0182344
-0.0120444
0.0189585
-0.0120114
0.0195425
-0.011698
0.0199338
-0.0110595
0.0200744
-0.0100471
0.0199038
-0.00861183
0.0193646
-0.0067138
0.0184163
0.0170958
-0.00435208
-7.02024e-05
0.00117139
-0.000264704
0.00324975
-0.000569529
0.00514109
-0.000968334
0.00682849
-0.00144201
0.00830599
-0.00196791
0.00958679
-0.00251964
0.0106994
-0.00306759
0.0116804
-0.00357983
0.0125675
-0.00402317
0.0133934
-0.0043639
0.014181
-0.00456791
0.0149418
-0.00460142
0.0156757
-0.00442981
0.0163705
-0.00401733
0.0170037
-0.00332647
0.0175436
-0.00231746
0.0179495
-0.000947662
0.0181728
0.000829086
0.0181571
0.00306403
0.0178395
0.00581391
0.0171539
0.00914136
0.0160371
0.0131159
0.0144418
0.0124002
0.0178115
-1.2901e-05
0.00118429
-6.39145e-05
0.00330076
-0.000152767
0.00522994
-0.000271333
0.00694706
-0.000405755
0.00844041
-0.000536193
0.00971723
-0.00063673
0.0107999
-0.000675885
0.0117195
-0.000617616
0.0125092
-0.000422543
0.0131983
-4.91666e-05
0.0138077
0.000544624
0.014348
0.00140283
0.0148175
0.00256939
0.0152039
0.00408904
0.0154841
0.00600745
0.0156252
0.00837146
0.0155855
0.0112292
0.015315
0.0146304
0.0147559
0.0186266
0.0138433
0.0232742
0.0125064
0.0286373
0.010674
0.0347791
0.00829998
0.00527995
0.0418993
3.19683e-05
0.00115232
9.99423e-05
0.00323279
0.000199257
0.00513063
0.000335492
0.00681082
0.000520841
0.00825506
0.000774257
0.00946381
0.00112176
0.0104524
0.0015962
0.0112451
0.00223655
0.0118689
0.00308668
0.0123482
0.00419413
0.0127002
0.00560924
0.0129329
0.00738353
0.0130432
0.00956994
0.0130175
0.0122223
0.0128317
0.0153953
0.0124522
0.0191442
0.0118366
0.0235253
0.0109339
0.028595
0.00968622
0.0344094
0.00802882
0.0410273
0.00588852
0.0485203
0.00318103
0.0568925
-7.21649e-05
-0.00435585
0.0665283
5.89592e-05
0.00109336
0.000209006
0.00308274
0.000449954
0.00488968
0.00079129
0.00646949
0.00124789
0.00779846
0.00184041
0.00887129
0.00259615
0.00969665
0.00354943
0.0102918
0.00474134
0.010677
0.00621902
0.0108705
0.00803466
0.0108846
0.0102444
0.0107231
0.0129075
0.0103801
0.0160856
0.00983937
0.0198426
0.00907471
0.024244
0.00805084
0.0293565
0.00672401
0.0352519
0.00503849
0.0419991
0.002939
0.0496571
0.000370782
0.0583065
-0.00276087
0.0680425
-0.00655494
0.0787652
-0.0107948
-0.0166543
0.0910636
6.57715e-05
0.00102759
0.000254559
0.00289396
0.000580311
0.00456393
0.00106269
0.0059871
0.0017237
0.00713745
0.00258889
0.0080061
0.00368905
0.0085965
0.00506139
0.00891945
0.00675014
0.00898823
0.00880649
0.00881412
0.0112881
0.00840292
0.0142587
0.00775255
0.0177871
0.00685176
0.0219468
0.0056797
0.0268165
0.00420503
0.0324782
0.00238912
0.0390068
0.000195384
0.0465046
-0.00245936
0.0550457
-0.0056021
0.0647248
-0.00930832
0.0755683
-0.0136044
0.0877062
-0.0186928
0.100906
-0.0239944
-0.0315599
0.115811
5.35844e-05
0.000974003
0.000240262
0.00270728
0.000596466
0.00420772
0.00115759
0.00542598
0.00195724
0.0063378
0.00302988
0.00693346
0.00441368
0.00721269
0.00615284
0.0071803
0.00829908
0.00684199
0.0109125
0.00620068
0.0140619
0.00525358
0.0178242
0.00399023
0.0222843
0.00239159
0.0275318
0.000432263
0.0336658
-0.00192899
0.0407826
-0.0047277
0.0489885
-0.00801051
0.0583563
-0.0118271
0.0689697
-0.0162155
0.0808823
-0.0212209
0.0940922
-0.0268142
0.108629
-0.0332299
0.12422
-0.0395848
-0.0485151
0.141175
2.78547e-05
0.000946148
0.000184301
0.00255083
0.000534547
0.00385748
0.00113452
0.00482601
0.00203428
0.00543803
0.00328274
0.00568501
0.00493193
0.00556351
0.00704045
0.00507178
0.00967585
0.00420658
0.0129159
0.00296063
0.0168486
0.00132089
0.021571
-0.000732183
0.0271871
-0.00322446
0.0338048
-0.00618551
0.0415245
-0.00964864
0.0504411
-0.0136443
0.0606294
-0.0181988
0.072132
-0.0233297
0.0849551
-0.0290386
0.099052
-0.0353178
0.114319
-0.0420815
0.130569
-0.0494791
0.14761
-0.0566266
-0.0659642
0.165059
-1.64065e-06
0.000947789
0.000118738
0.00243045
0.000459385
0.00351683
0.00110103
0.00418436
0.00211595
0.00442311
0.0035748
0.00422615
0.00555216
0.00358615
0.00813047
0.00249347
0.0114021
0.000934988
0.0154691
-0.00110636
0.0204408
-0.00365088
0.0264291
-0.00672043
0.0335403
-0.0103356
0.0418671
-0.0145124
0.0514767
-0.0192582
0.0624007
-0.0245684
0.0746247
-0.0304228
0.0880789
-0.0367839
0.102632
-0.0435919
0.118089
-0.050775
0.134204
-0.0581963
0.150592
-0.0658666
0.167108
-0.0731429
-0.0815872
0.182731
-2.31088e-05
0.000970897
8.40028e-05
0.00232334
0.00045333
0.0031475
0.00119456
0.00344314
0.00240842
0.00320925
0.00419496
0.00243961
0.00665888
0.00112223
0.00991215
-0.000759797
0.0140729
-0.00322574
0.0192604
-0.00629392
0.0255873
-0.00997774
0.0331479
-0.0142811
0.0420061
-0.0191938
0.0521823
-0.0246886
0.0636423
-0.0307182
0.0762893
-0.0372154
0.0899604
-0.0440938
0.104429
-0.0512522
0.119408
-0.0585716
0.134581
-0.065948
0.149603
-0.0732181
0.164127
-0.0803905
0.177984
-0.0870002
-0.0938073
0.190204
-2.46525e-05
0.000119456
0.000596463
0.00154793
0.00310743
0.00540835
0.00858553
0.0127739
0.0181001
0.0246704
0.0325563
0.0417793
0.0522981
0.0640004
0.0767011
0.0901474
0.10403
0.118002
0.131701
0.144779
0.156918
0.167941
0.177785
0.186904
-0.0212998
0.0233998
-0.0248718
-0.0194289
0.0192943
-0.0211651
-0.0170512
0.0132562
-0.015634
-0.0142529
0.00530673
-0.00810505
-0.0109952
-0.00468357
0.00142587
-0.00727737
-0.016748
0.0130302
-0.00323114
-0.0307149
0.0266686
0.00102281
-0.0461594
0.0419054
0.00507173
-0.0623206
0.0582717
0.00873391
-0.0785405
0.0748783
0.0116658
-0.0939122
0.0909804
0.0135895
-0.107735
0.105811
0.0145639
-0.119539
0.118564
0.0151625
-0.129007
0.128409
0.016469
-0.135235
0.133928
0.0199478
-0.136436
0.132957
0.0266723
-0.129802
0.123077
0.0367052
-0.112591
0.102558
0.0491376
-0.0837392
0.0713068
0.0629065
-0.0445164
0.0307475
0.0771381
0.00188482
-0.0161164
0.0911345
0.0508995
-0.0648959
0.103755
0.0960913
-0.108712
0.113778
0.131986
-0.142008
0.120641
0.156122
-0.162985
0.124316
0.169294
-0.172969
0.12423
0.176265
-0.176179
0.11969
0.184822
-0.180282
0.112099
0.197724
-0.190132
0.105664
0.203982
-0.197548
0.104658
0.183309
-0.182303
0.110144
0.124267
-0.129754
0.120279
0.0363356
-0.04647
0.131598
-0.056037
0.0447173
0.141045
-0.131931
0.122484
0.147268
-0.182391
0.176168
0.150566
-0.20724
0.203942
0.150296
-0.214703
0.214972
0.144977
-0.221386
0.226706
0.135576
-0.236551
0.245952
0.126711
-0.239421
0.248286
0.123209
-0.197362
0.200863
0.126293
-0.101026
0.0979423
0.133847
0.0189098
-0.0264635
0.142609
0.122137
-0.130899
0.148274
0.194433
-0.200098
0.147572
0.242787
-0.242085
0.140747
0.288046
-0.281221
0.132237
0.296788
-0.288277
0.128078
0.25358
-0.249421
0.130418
0.125833
-0.128173
0.136741
-0.0127402
0.00641688
0.140894
-0.14162
0.137467
0.139358
-0.240288
0.241823
0.13458
-0.295441
0.30022
0.129396
-0.341572
0.346756
0.127461
-0.224193
0.226129
0.128414
-0.156663
0.15571
0.127516
0.0640681
-0.0631704
0.191034
-0.189278
-0.0018303
0.020878
0.0008019
0.0166621
0.00355958
0.0104986
0.00662418
0.00224213
0.00994862
-0.00800801
0.0134665
-0.0202659
0.017069
-0.0343173
0.0205925
-0.0496829
0.0238874
-0.0656155
0.0265899
-0.081243
0.0283037
-0.095626
0.0286004
-0.108032
0.0272194
-0.118158
0.02431
-0.126098
0.0209574
-0.131882
0.0190304
-0.134509
0.0205833
-0.131355
0.0267958
-0.118803
0.0373412
-0.0942845
0.050908
-0.0580833
0.0661156
-0.0133227
0.0816715
0.0353436
0.0962635
0.0814993
0.108527
0.119722
0.117646
0.147004
0.123102
0.163838
0.124135
0.175232
0.120651
0.188306
0.114825
0.20355
0.11074
0.208067
0.111559
0.18249
0.117486
0.11834
0.12683
0.0269913
0.136611
-0.0658176
0.144278
-0.139599
0.148607
-0.186719
0.150271
-0.208904
0.149089
-0.213521
0.143392
-0.21569
0.133557
-0.226715
0.124009
-0.229872
0.120066
-0.193419
0.123483
-0.104443
0.1321
0.0102931
0.142034
0.112203
0.148549
0.187918
0.148388
0.242948
0.141963
0.29447
0.133655
0.305096
0.129347
0.257888
0.131266
0.123914
0.137233
-0.0187076
0.141281
-0.145668
0.139589
-0.238596
0.1348
-0.290653
0.129907
-0.336679
0.128129
-0.222415
0.128962
-0.157497
0.127398
0.0656321
0.193233
0.0208568
0.0178327
0.0239488
0.0135701
0.0271444
0.00730296
0.0304622
-0.00107575
0.0337724
-0.0113182
0.0370138
-0.0235073
0.0401131
-0.0374166
0.0429553
-0.0525251
0.0453935
-0.0680536
0.0471849
-0.0830345
0.0479851
-0.0964262
0.0473026
-0.107349
0.0445808
-0.115436
0.0395538
-0.121071
0.0327207
-0.125049
0.0257845
-0.127573
0.0214129
-0.126983
0.0221376
-0.119528
0.0289354
-0.101082
0.040883
-0.0700309
0.0561207
-0.0285604
0.0727883
0.0186759
0.089055
0.0652326
0.103378
0.105398
0.114588
0.135794
0.12173
0.156696
0.124079
0.172883
0.122157
0.190228
0.118565
0.207142
0.116906
0.209726
0.119264
0.180132
0.125286
0.112319
0.133396
0.0188807
0.141418
-0.0738395
0.147227
-0.145407
0.149729
-0.189221
0.14982
-0.208995
0.147815
-0.211516
0.141962
-0.209837
0.131955
-0.216708
0.121861
-0.219779
0.117411
-0.188969
0.120994
-0.108026
0.130469
0.000818002
0.141453
0.10122
0.148824
0.180547
0.149312
0.24246
0.143428
0.300354
0.135417
0.313108
0.13095
0.262354
0.132334
0.122531
0.137856
-0.0242297
0.141792
-0.149604
0.139972
-0.236775
0.135129
-0.28581
0.13048
-0.33203
0.128848
-0.220783
0.129615
-0.158264
0.127438
0.0678092
0.195868
0.0453045
0.0144276
0.0488082
0.0100664
0.0522279
0.00388328
0.0556777
-0.00452559
0.058863
-0.0145034
0.0617542
-0.0263985
0.0642882
-0.0399506
0.0663753
-0.0546122
0.0678993
-0.0695777
0.0686807
-0.0838159
0.0684509
-0.0961964
0.0668757
-0.105774
0.0635158
-0.112076
0.0578305
-0.115386
0.0495521
-0.116771
0.0394652
-0.117486
0.0299351
-0.117453
0.0243732
-0.113966
0.0255304
-0.102239
0.0338877
-0.0783882
0.0477195
-0.0423921
0.0646511
0.00174432
0.082123
0.0477607
0.0981972
0.0893242
0.111261
0.12273
0.120041
0.147915
0.12399
0.168935
0.124106
0.190112
0.123076
0.208172
0.123779
0.209023
0.127368
0.176543
0.133145
0.106542
0.139846
0.012179
0.145932
-0.0799248
0.14985
-0.149325
0.150626
-0.189998
0.149219
-0.207588
0.146432
-0.208729
0.14059
-0.203996
0.130688
-0.206806
0.120245
-0.209336
0.115257
-0.183981
0.118801
-0.111569
0.128924
-0.00930562
0.14083
0.0893138
0.149069
0.172308
0.150323
0.241206
0.145126
0.305551
0.137521
0.320713
0.132894
0.266982
0.133632
0.121792
0.138607
-0.0292048
0.142412
-0.153408
0.140495
-0.234858
0.135552
-0.280868
0.131081
-0.327558
0.12959
-0.219292
0.130349
-0.159023
0.127624
0.0705344
0.198924
0.0701486
0.0108072
0.0738693
0.00634572
0.0774945
0.000258085
0.0809734
-0.00800445
0.0839906
-0.0175207
0.0865164
-0.0289243
0.0884521
-0.0418863
0.0896849
-0.0558451
0.0901051
-0.0699979
0.0895978
-0.0833086
0.0880523
-0.0946508
0.0853577
-0.103079
0.0813458
-0.108064
0.07564
-0.10968
0.067626
-0.108757
0.0569841
-0.106844
0.0447732
-0.105242
0.0340122
-0.103205
0.0286624
-0.0968896
0.0313397
-0.0810655
0.0417448
-0.0527972
0.057465
-0.0139759
0.0753363
0.0298894
0.0926603
0.0720003
0.107283
0.108108
0.117719
0.137479
0.1236
0.163054
0.126184
0.187528
0.127939
0.206417
0.130918
0.206043
0.135452
0.172009
0.140745
0.101248
0.145943
0.00698124
0.150047
-0.084029
0.152064
-0.151342
0.151229
-0.189163
0.148439
-0.204798
0.14491
-0.2052
0.139214
-0.1983
0.129678
-0.19727
0.119108
-0.198765
0.113586
-0.178459
0.116903
-0.114887
0.127429
-0.0198316
0.14012
0.0766232
0.149235
0.163193
0.151378
0.239062
0.147021
0.309908
0.139937
0.327797
0.135153
0.271765
0.135164
0.121782
0.139482
-0.0335233
0.143116
-0.157042
0.141139
-0.232881
0.13606
-0.275789
0.131688
-0.323186
0.130331
-0.217936
0.131139
-0.159831
0.12794
0.0737339
0.202376
0.0948192
0.00705165
0.0984611
0.0027038
0.102328
-0.00360865
0.105471
-0.011148
0.10811
-0.0201596
0.110095
-0.0309088
0.11127
-0.0430612
0.111498
-0.056073
0.110684
-0.0691844
0.108779
-0.0814039
0.105791
-0.0916623
0.101782
-0.0990701
0.0968355
-0.103118
0.0909296
-0.103774
0.0836894
-0.101517
0.0743363
-0.0974913
0.0624677
-0.0933734
0.0494363
-0.0901737
0.0388265
-0.0862798
0.0348366
-0.0770757
0.0396146
-0.0575751
0.0519879
-0.0263493
0.0688254
0.0130519
0.0865542
0.0542715
0.102363
0.0922994
0.114488
0.125353
0.122604
0.154938
0.127976
0.182155
0.132641
0.201752
0.137782
0.200902
0.143069
0.166722
0.147782
0.0965356
0.151504
0.00325909
0.153669
-0.0861934
0.153796
-0.151469
0.151474
-0.186841
0.147451
-0.200774
0.143211
-0.20096
0.137742
-0.192831
0.128811
-0.188339
0.118348
-0.188302
0.112339
-0.17245
0.115251
-0.117799
0.125938
-0.0305189
0.139259
0.0633024
0.149258
0.153194
0.152414
0.235907
0.149047
0.313274
0.142596
0.334248
0.137676
0.276686
0.136911
0.122546
0.140469
-0.0370813
0.143882
-0.160455
0.141882
-0.230881
0.136642
-0.270549
0.132286
-0.318831
0.131052
-0.216702
0.13196
-0.160739
0.128368
0.0773261
0.206184
0.119226
0.00363665
0.122733
-0.000803184
0.125971
-0.00684636
0.128553
-0.0137303
0.1305
-0.0221059
0.131643
-0.0320523
0.131787
-0.0432046
0.13078
-0.0550667
0.128555
-0.0669589
0.125128
-0.0779769
0.120622
-0.0871563
0.115251
-0.0936994
0.109272
-0.0971387
0.102899
-0.0974004
0.0961334
-0.0947515
0.0884609
-0.0898188
0.0788769
-0.0837894
0.0669349
-0.0782317
0.0543126
-0.0736575
0.0449768
-0.0677399
0.0430296
-0.0556278
0.0498835
-0.0332032
0.0635584
-0.000622994
0.0803167
0.0375132
0.0966686
0.0759475
0.110363
0.111659
0.120852
0.14445
0.129146
0.173862
0.136687
0.194211
0.14383
0.193759
0.149775
0.160777
0.154006
0.092305
0.156339
0.000926054
0.156692
-0.0865464
0.154971
-0.149748
0.151294
-0.183164
0.146221
-0.195701
0.141308
-0.196048
0.136091
-0.187614
0.127961
-0.180209
0.117841
-0.178183
0.111413
-0.166022
0.113765
-0.120151
0.124375
-0.041129
0.138171
0.0495071
0.149058
0.142307
0.153348
0.231616
0.151119
0.315503
0.145409
0.339958
0.140401
0.281694
0.138831
0.124116
0.141554
-0.039804
0.144682
-0.163582
0.142696
-0.228896
0.137286
-0.265139
0.132867
-0.314411
0.131738
-0.215573
0.132789
-0.16179
0.128893
0.0812221
0.210299
0.14359
0.0012218
0.14618
-0.00339397
0.148243
-0.00890912
0.149683
-0.0151704
0.150432
-0.0228543
0.150285
-0.0319054
0.149016
-0.0419362
0.146494
-0.0525439
0.142683
-0.0631488
0.137669
-0.0729621
0.13167
-0.081158
0.125025
-0.0870535
0.118112
-0.0902263
0.111266
-0.0905544
0.104683
-0.0881683
0.0982369
-0.0833726
0.0911836
-0.0767361
0.0823228
-0.0693709
0.0712793
-0.062614
0.0600357
-0.0564963
0.0527104
-0.0483025
0.0529838
-0.0334767
0.0613958
-0.00903491
0.0753215
0.0235875
0.0910681
0.0602009
0.105798
0.0969291
0.118452
0.131795
0.129527
0.162787
0.139745
0.183993
0.148677
0.184828
0.155196
0.154257
0.159014
0.0884875
0.1603
-0.000360364
0.158991
-0.0852368
0.155521
-0.146278
0.150615
-0.178259
0.144698
-0.189784
0.139171
-0.190521
0.134177
-0.18262
0.126993
-0.173025
0.117448
-0.168637
0.110684
-0.159258
0.112342
-0.121808
0.12265
-0.0514378
0.136771
0.0353866
0.148548
0.13053
0.154083
0.226081
0.153125
0.316461
0.148263
0.344821
0.143227
0.286729
0.140879
0.126464
0.142712
-0.0416363
0.145488
-0.166359
0.14355
-0.226958
0.137978
-0.259566
0.133424
-0.309858
0.132377
-0.214526
0.133604
-0.163017
0.1295
0.0853265
0.21466
0.166098
0.000183217
0.167009
-0.00430469
0.167429
-0.00932936
0.16725
-0.0149917
0.166389
-0.0219932
0.164599
-0.0301149
0.161672
-0.0390092
0.157519
-0.0483911
0.152149
-0.0577791
0.145701
-0.0665144
0.138462
-0.0739187
0.130829
-0.0794208
0.123243
-0.0826404
0.116094
-0.0834051
0.109644
-0.0817181
0.103963
-0.077692
0.0987452
-0.0715182
0.0930356
-0.0636612
0.0855617
-0.0551402
0.0761118
-0.0470463
0.0668991
-0.0390899
0.0619268
-0.0285044
0.0642302
-0.0113384
0.0734925
0.0143252
0.0870122
0.0466811
0.101689
0.0822524
0.115821
0.117663
0.129187
0.149421
0.141682
0.171498
0.152118
0.174392
0.15914
0.147236
0.162723
0.0849039
0.163184
-0.000821215
0.160438
-0.0824904
0.155353
-0.141193
0.149335
-0.172241
0.142788
-0.183238
0.136745
-0.184477
0.131909
-0.177784
0.12576
-0.166877
0.117022
-0.159899
0.110026
-0.152262
0.110873
-0.122655
0.120665
-0.0612297
0.134971
0.0210804
0.147633
0.117869
0.154523
0.219191
0.154967
0.316017
0.151038
0.34875
0.146044
0.291723
0.142989
0.129519
0.143909
-0.0425566
0.14627
-0.16872
0.144407
-0.225095
0.138699
-0.253858
0.133955
-0.305114
0.132965
-0.213536
0.134387
-0.164439
0.130175
0.0895386
0.219197
0.182527
0.000386658
0.181885
-0.00366203
0.180592
-0.00803643
0.178761
-0.0131604
0.17628
-0.019513
0.172892
-0.0267264
0.168453
-0.0345708
0.162922
-0.0428594
0.156342
-0.0511992
0.148893
-0.0590652
0.140889
-0.0659147
0.132736
-0.0712682
0.124867
-0.0747714
0.117665
-0.0762036
0.111414
-0.0754662
0.106265
-0.0725434
0.102179
-0.0674326
0.0987041
-0.060186
0.0947599
-0.051196
0.0891044
-0.0413908
0.0817305
-0.031716
0.0749617
-0.0217356
0.0724702
-0.00884682
0.0763328
0.0104626
0.0860393
0.0369746
0.0991579
0.0691339
0.113615
0.103206
0.128418
0.134618
0.142584
0.157332
0.154185
0.162791
0.161679
0.139741
0.165184
0.0813994
0.165009
-0.000646185
0.160973
-0.0784544
0.154405
-0.134625
0.147375
-0.165211
0.140409
-0.176271
0.133996
-0.178064
0.12923
-0.173018
0.124137
-0.161783
0.116439
-0.152201
0.109345
-0.145169
0.109265
-0.122575
0.118335
-0.070299
0.132689
0.00672603
0.146228
0.10433
0.154547
0.210872
0.156485
0.314078
0.153594
0.351641
0.148751
0.296567
0.145096
0.133174
0.145115
-0.0425756
0.147004
-0.170609
0.145234
-0.223325
0.139433
-0.248057
0.134466
-0.300148
0.133505
-0.212574
0.135122
-0.166057
0.130908
0.0937533
0.223832
0.189227
0.00136449
0.18765
-0.00208551
0.185268
-0.00565439
0.182381
-0.0102736
0.178816
-0.0159478
0.174388
-0.0222988
0.169034
-0.0292164
0.162739
-0.0365641
0.155577
-0.0440379
0.147751
-0.0512388
0.13957
-0.0577336
0.131412
-0.0631102
0.123666
-0.0670257
0.116683
-0.0692199
0.110743
-0.0695269
0.106035
-0.0678352
0.102584
-0.0639818
0.100243
-0.0578445
0.0985148
-0.0494681
0.0964148
-0.0392908
0.0928998
-0.028201
0.0880632
-0.0168989
0.0842085
-0.00499206
0.0839044
0.0107667
0.0891859
0.0316931
0.0992591
0.0590607
0.112525
0.0899396
0.127567
0.119576
0.142528
0.142371
0.154774
0.150545
0.162803
0.131712
0.166617
0.0775855
0.165993
-2.22573e-05
0.160822
-0.073283
0.152939
-0.126742
0.145006
-0.157278
0.137774
-0.16904
0.131138
-0.171428
0.126308
-0.168187
0.122144
-0.15762
0.115664
-0.145721
0.10864
-0.138145
0.10752
-0.121455
0.115607
-0.0783856
0.129824
-0.00749135
0.144242
0.0899118
0.154121
0.200993
0.157663
0.310537
0.155839
0.353464
0.151233
0.301173
0.147164
0.137243
0.146328
-0.0417402
0.1477
-0.17198
0.146023
-0.221648
0.140174
-0.242208
0.134979
-0.294953
0.134013
-0.211607
0.135801
-0.167845
0.131689
0.0978648
0.228486
0.185727
0.00254209
0.183886
-0.00024433
0.181404
-0.00317323
0.178391
-0.00726041
0.174604
-0.0121602
0.170026
-0.0177208
0.164644
-0.023835
0.15846
-0.0303796
0.15157
-0.0371483
0.144181
-0.0438499
0.136583
-0.0501359
0.129113
-0.0556397
0.1221
-0.0600131
0.115826
-0.0629453
0.110483
-0.0641844
0.106186
-0.0635382
0.103029
-0.0608243
0.101069
-0.0558843
0.100224
-0.0486236
0.10004
-0.0391071
0.0995594
-0.0277199
0.0979191
-0.0152587
0.0952183
-0.00229124
0.0941469
0.011838
0.0964031
0.0294369
0.103071
0.0523927
0.113755
0.0792556
0.127377
0.105954
0.141849
0.127899
0.154425
0.137969
0.163414
0.122723
0.167704
0.0732959
0.166446
0.00123599
0.159967
-0.0668042
0.15107
-0.117845
0.142515
-0.148723
0.135172
-0.161697
0.128443
-0.164699
0.123401
-0.163146
0.119902
-0.15412
0.114699
-0.140519
0.107932
-0.131377
0.105739
-0.119263
0.11266
-0.0853062
0.126453
-0.021284
0.141559
0.0748053
0.15295
0.189602
0.158225
0.305261
0.157596
0.354093
0.153408
0.305362
0.149135
0.141516
0.147513
-0.0401186
0.148354
-0.172822
0.14676
-0.220053
0.140908
-0.236355
0.135501
-0.289547
0.134497
-0.210603
0.136429
-0.169777
0.132516
0.101778
0.233077
0.20692
0.00324273
-0.20762
0.206372
0.000303591
0.206184
-0.00298527
0.205656
-0.0067326
0.204734
-0.0112384
0.203326
-0.0163129
0.201327
-0.0218354
0.198628
-0.0276811
0.195159
-0.0336792
0.190909
-0.0396
0.185932
-0.0451586
0.180334
-0.0500418
0.174259
-0.0539378
0.16787
-0.0565568
0.161334
-0.0576482
0.154803
-0.0570072
0.14843
-0.0544517
0.14236
-0.0498142
0.136713
-0.0429768
0.131494
-0.0338877
0.126358
-0.0225837
0.120681
-0.00958206
0.113994
0.00439593
0.106979
0.0188534
0.101274
0.0351415
0.0988074
0.0548594
0.10102
0.0770431
0.108268
0.0987055
0.119819
0.116348
0.135319
0.122469
0.154165
0.103876
0.172098
0.0553631
0.183575
-0.0102406
0.187236
-0.0704655
0.184067
-0.114676
0.17707
-0.141726
0.16866
-0.153287
0.159509
-0.155548
0.150892
-0.154528
0.143704
-0.146933
0.135734
-0.132549
0.125823
-0.121467
0.118139
-0.111579
0.11722
-0.0843877
0.122048
-0.0261119
0.12757
0.0692833
0.130787
0.186386
0.132184
0.303864
0.134294
0.351983
0.138756
0.3009
0.144049
0.136223
0.148183
-0.0442526
0.150163
-0.174802
0.147364
-0.217254
0.14027
-0.229261
0.132271
-0.281547
0.12794
-0.206272
0.126267
-0.168104
0.120682
0.107363
0.237297
0.216891
0.00377369
-0.217422
0.216526
0.000667721
0.216165
-0.00262409
0.215602
-0.00616908
0.214588
-0.010225
0.213059
-0.0147832
0.210947
-0.0197232
0.20818
-0.0249145
0.20471
-0.0302096
0.200532
-0.0354216
0.19569
-0.0403165
0.190276
-0.0446285
0.184421
-0.0480826
0.178279
-0.0504147
0.172016
-0.0513856
0.165796
-0.050787
0.15978
-0.0484357
0.15412
-0.0441535
0.148943
-0.0377999
0.144355
-0.0293002
0.140312
-0.0185401
0.136342
-0.00561216
0.131912
0.00882597
0.126931
0.023834
0.122361
0.0397118
0.120091
0.0571296
0.121998
0.0751357
0.128871
0.0918321
0.140496
0.104723
0.156597
0.106369
0.175229
0.0852438
0.191435
0.0391574
0.200502
-0.0193073
0.201849
-0.071813
0.196873
-0.109699
0.188487
-0.13334
0.179237
-0.144038
0.169653
-0.145963
0.160516
-0.145391
0.153025
-0.139442
0.145366
-0.124889
0.135552
-0.111654
0.127021
-0.103047
0.125042
-0.0824088
0.129429
-0.0304989
0.135316
0.0633959
0.139211
0.182491
0.141519
0.301555
0.144807
0.348696
0.150437
0.29527
0.15638
0.130279
0.160357
-0.0482299
0.16166
-0.176105
0.158192
-0.213787
0.150264
-0.221333
0.141438
-0.272721
0.136483
-0.201317
0.134528
-0.166149
0.128575
0.113316
0.241754
0.226363
0.00394254