/*--------------------------------*- C++ -*----------------------------------*\
| =========                 |                                                 |
| \\      /  F ield         | OpenFOAM: The Open Source CFD Toolbox           |
|  \\    /   O peration     | Version:  2512                                  |
|   \\  /    A nd           | Website:  www.openfoam.com                      |
|    \\/     M anipulation  |                                                 |
\*---------------------------------------------------------------------------*/
FoamFile
{
    version     2.0;
    format      ascii;
    arch        "LSB;label=32;scalar=64";
    class       surfaceScalarField;
    location    "136.5";
    object      phi;
}
// * * * * * * * * * * * * * * * * * * * * * * * * * * * * * * * * * * * * * //

dimensions      [0 3 -1 0 0 0 0];

oriented        oriented;

internalField   nonuniform List<scalar> 
26232
(
-2.10627e-05
0.000824599
-0.000803536
0.000102724
0.00137227
-0.00149606
0.000561762
0.00102903
-0.00148807
0.00154681
-0.000125301
-0.000859748
0.00324639
-0.0020588
0.000359217
0.00584266
-0.00476173
0.00216547
0.00950248
-0.00823025
0.00457043
0.0143659
-0.01245
0.00758662
0.0205312
-0.0173825
0.0112171
0.0280404
-0.0229558
0.0154466
0.0368673
-0.0290625
0.0202356
0.0469126
-0.0355643
0.025519
0.058006
-0.0423019
0.0312085
0.0699171
-0.0491088
0.0371977
0.082372
-0.0558253
0.0433704
0.0950748
-0.0623117
0.049609
0.10773
-0.0684585
0.0558031
0.120065
-0.0741928
0.0618576
0.13185
-0.0794786
0.0676936
0.142908
-0.0843267
0.0732689
0.15313
-0.0887516
0.0785294
0.162455
-0.0928896
0.0835648
0.170872
-0.0966151
0.0881986
-0.100518
0.0932609
0.178129
6.66169e-05
0.000757982
0.000452749
0.000986143
0.00135875
0.000123026
0.00298782
-0.00175437
0.00553848
-0.00460946
0.0091926
-0.00841585
0.0140977
-0.0131354
0.0203467
-0.018699
0.0279579
-0.0249937
0.0368617
-0.0318596
0.0468975
-0.0390983
0.0578231
-0.0464898
0.0693354
-0.0538142
0.0811
-0.0608734
0.0927836
-0.0675088
0.104085
-0.0736133
0.114762
-0.0791357
0.124649
-0.0840798
0.133667
-0.0884958
0.141811
-0.0924715
0.149166
-0.0961061
0.155824
-0.0995473
0.161987
-0.102778
-0.106271
0.16774
0.000157138
0.000600844
0.00082483
0.000318451
0.00221689
-0.00126903
0.00454549
-0.00408297
0.00800677
-0.00807073
0.012758
-0.0131671
0.0188898
-0.0192673
0.0264006
-0.0262097
0.0351795
-0.0337725
0.0450067
-0.0416868
0.0555719
-0.0496636
0.066509
-0.0574269
0.0774386
-0.0647439
0.0880129
-0.0714477
0.0979525
-0.0774484
0.107072
-0.0827326
0.11529
-0.0873535
0.122624
-0.0914138
0.129173
-0.0950446
0.135087
-0.0983863
0.140544
-0.101563
0.145699
-0.104702
0.150721
-0.1078
-0.111196
0.155645
0.000254296
0.000346547
0.00122642
-0.000653671
0.00314184
-0.00318446
0.00621112
-0.00715225
0.0106048
-0.0124644
0.0164185
-0.0189807
0.0236383
-0.0264871
0.0321202
-0.0346916
0.0415919
-0.0432443
0.0516827
-0.0517775
0.0619724
-0.0599533
0.0720507
-0.0675051
0.081571
-0.0742642
0.0902902
-0.0801669
0.0980874
-0.0852456
0.104961
-0.089606
0.111006
-0.0933984
0.11638
-0.0967886
0.121269
-0.0999334
0.125847
-0.102964
0.130261
-0.105977
0.134606
-0.109047
0.138971
-0.112165
-0.115551
0.143326
0.000362905
-1.63574e-05
0.00166625
-0.00195702
0.00413701
-0.00565521
0.0079631
-0.0109783
0.0132543
-0.0177556
0.0199977
-0.0257241
0.0280288
-0.0345182
0.0370337
-0.0436965
0.0465882
-0.0527988
0.0562247
-0.061414
0.0655069
-0.0692355
0.0740937
-0.0760919
0.0817778
-0.0819483
0.0884947
-0.0868839
0.0943037
-0.0910546
0.0993503
-0.0946526
0.103822
-0.0978696
0.107906
-0.100873
0.111763
-0.10379
0.115512
-0.106713
0.119232
-0.109697
0.122963
-0.112777
0.126743
-0.115946
-0.119336
0.130529
0.00048599
-0.000502348
0.00214649
-0.00361752
0.00518875
-0.00869747
0.00974561
-0.0155352
0.0158215
-0.0238315
0.0232501
-0.0331528
0.0316908
-0.0429589
0.0406746
-0.0526803
0.0496879
-0.0618122
0.0582656
-0.0699917
0.0660652
-0.0770351
0.0729042
-0.0829309
0.0787583
-0.0878024
0.0837277
-0.0918533
0.0879869
-0.0953138
0.0917341
-0.0983997
0.095152
-0.101288
0.0983858
-0.104106
0.101538
-0.106942
0.104671
-0.109847
0.107822
-0.112848
0.111005
-0.115961
0.114241
-0.119181
-0.122579
0.117484
0.000623705
-0.00112605
0.00265709
-0.00565091
0.00625722
-0.0122976
0.0114603
-0.0207383
0.0181211
-0.0304923
0.0258933
-0.040925
0.0342746
-0.0513402
0.0427046
-0.0611103
0.0506794
-0.0697869
0.057839
-0.0771514
0.0640074
-0.0832034
0.0691811
-0.0881046
0.0734835
-0.0921048
0.0771046
-0.0954744
0.0802468
-0.0984561
0.0830876
-0.10124
0.0857617
-0.103962
0.0883608
-0.106706
0.0909409
-0.109522
0.093533
-0.112439
0.0961524
-0.115467
0.0988039
-0.118613
0.101494
-0.121871
-0.125272
0.104186
0.000771428
-0.00189748
0.00317458
-0.00805406
0.00727783
-0.0164008
0.0129777
-0.0264381
0.0199492
-0.0374638
0.0276741
-0.0486499
0.0355462
-0.0592123
0.0430083
-0.0685724
0.049661
-0.0764396
0.0553105
-0.0828009
0.0599537
-0.0878467
0.0637227
-0.0918735
0.0668155
-0.0951976
0.0694377
-0.0980966
0.0717646
-0.100783
0.0739265
-0.103402
0.0760098
-0.106045
0.0780664
-0.108762
0.0801248
-0.111581
0.0821992
-0.114513
0.0842953
-0.117564
0.086414
-0.120731
0.0885564
-0.124013
-0.127414
0.090698
0.000921373
-0.00281885
0.00366556
-0.0107982
0.00817181
-0.0209071
0.0141629
-0.0324293
0.0211313
-0.0444322
0.0284329
-0.0559516
0.035444
-0.0662233
0.0416992
-0.0748276
0.0469588
-0.0816993
0.0511978
-0.0870398
0.0545428
-0.0911917
0.057195
-0.0945257
0.0593639
-0.0973665
0.0612274
-0.09996
0.062916
-0.102472
0.064515
-0.105001
0.066075
-0.107605
0.0676235
-0.110311
0.0691744
-0.113132
0.070734
-0.116073
0.0723045
-0.119134
0.0738856
-0.122312
0.0754758
-0.125604
-0.128998
0.0770604
0.00106339
-0.00388225
0.00409191
-0.0138268
0.0088605
-0.0256757
0.0149033
-0.0384721
0.0215598
-0.0510886
0.0281338
-0.0625256
0.0340681
-0.0721576
0.0390445
-0.079804
0.0429885
-0.0856433
0.0460055
-0.0900568
0.0482933
-0.0934794
0.0500665
-0.0962989
0.0515097
-0.0988097
0.0527585
-0.101209
0.0539011
-0.103614
0.0549893
-0.106089
0.056051
-0.108667
0.0571006
-0.11136
0.0581451
-0.114176
0.0591874
-0.117115
0.0602283
-0.120175
0.0612668
-0.123351
0.0623004
-0.126637
-0.13002
0.0633219
0.00118684
-0.00506908
0.00441784
-0.0170578
0.0092801
-0.0305379
0.0151296
-0.0443216
0.0212098
-0.0571688
0.0268518
-0.0681676
0.0316239
-0.0769297
0.0353686
-0.0835487
0.038147
-0.0884217
0.0401432
-0.092053
0.0415759
-0.0949122
0.04264
-0.097363
0.0434808
-0.0996506
0.0441936
-0.101922
0.0448341
-0.104255
0.0454323
-0.106688
0.0460033
-0.109238
0.0465551
-0.111912
0.0470915
-0.114712
0.0476141
-0.117638
0.0481231
-0.120684
0.0486168
-0.123845
0.0490919
-0.127112
-0.130473
0.0495455
0.00128464
-0.00635373
0.00461802
-0.0203911
0.009393
-0.0353129
0.0148246
-0.0497531
0.0201318
-0.062476
0.0247378
-0.0727736
0.0283615
-0.0805534
0.030987
-0.0861742
0.0327664
-0.0902011
0.0339165
-0.0932031
0.034644
-0.0956397
0.035109
-0.0978279
0.0354181
-0.0999597
0.0356342
-0.102138
0.0357912
-0.104412
0.035906
-0.106802
0.0359871
-0.109319
0.036039
-0.111964
0.0360646
-0.114738
0.0360651
-0.117638
0.0360407
-0.120659
0.0359901
-0.123794
0.0359095
-0.127032
0.0357989
-0.130363
-0.000251685
-0.00249139
0.00274307
-0.000903999
-0.00583528
0.00648759
-0.0018914
-0.00801079
0.0089982
-0.00315719
-0.00928091
0.0105467
-0.00465212
-0.00988317
0.0113781
-0.00633606
-0.0100198
0.0117038
-0.00817797
-0.00984489
0.0116868
-0.0101541
-0.00945919
0.0114353
-0.0122456
-0.00891322
0.0110047
-0.0144356
-0.00821597
0.0104059
-0.0167068
-0.00734648
0.00961775
-0.01904
-0.00626512
0.00859825
-0.0214117
-0.00492279
0.00729458
-0.0237938
-0.00326756
0.00564957
-0.0261531
-0.00124717
0.00360656
-0.0284126
0.00117217
0.00108727
-0.0305834
0.00402579
-0.00185498
-0.0325792
0.00734231
-0.00534647
-0.0343385
0.0111279
-0.00936862
-0.0357971
0.01537
-0.0139114
-0.0368932
0.0200347
-0.0189387
-0.0375711
0.0250655
-0.0243875
-0.037799
0.0304003
-0.0301724
0.0359802
-0.0376215
-0.0361578
-0.000315567
-0.00217582
-0.00109698
-0.00505387
-0.00223897
-0.0068688
-0.00366026
-0.00785961
-0.00529863
-0.00824481
-0.00710872
-0.00820972
-0.00905865
-0.00789496
-0.0111255
-0.00739234
-0.0132907
-0.00674799
-0.0155361
-0.0059706
-0.0178406
-0.00504198
-0.0201783
-0.00392745
-0.0225165
-0.00258461
-0.0248167
-0.000967288
-0.02702
0.000956115
-0.0290747
0.00322683
-0.0309157
0.00586684
-0.0324632
0.0088898
-0.0336302
0.0122949
-0.0343258
0.0160657
-0.0344613
0.0201702
-0.0339561
0.0245602
-0.0327377
0.029182
0.0340166
-0.030774
-0.000355736
-0.00182009
-0.0012122
-0.0041974
-0.00243282
-0.00564818
-0.00391546
-0.00637697
-0.00558517
-0.0065751
-0.0073892
-0.00640569
-0.00929113
-0.00599304
-0.0112644
-0.00541909
-0.0132862
-0.00472616
-0.0153328
-0.00392405
-0.0173754
-0.00299938
-0.0193786
-0.00192417
-0.0212976
-0.000665609
-0.0230755
0.000810543
-0.024653
0.0025336
-0.0259532
0.00452711
-0.026891
0.0068046
-0.0273697
0.00936853
-0.027283
0.0122081
-0.0265166
0.0152993
-0.0249542
0.0186078
-0.022487
0.0220929
-0.0190192
0.0257142
0.0294821
-0.0144847
-0.000374734
-0.00144535
-0.00125967
-0.00331247
-0.00249543
-0.00441242
-0.00396283
-0.00490957
-0.00557469
-0.00496324
-0.00726906
-0.00471131
-0.0090018
-0.0042603
-0.010739
-0.00368188
-0.0124503
-0.0030149
-0.0141031
-0.00227124
-0.0156592
-0.00144327
-0.0170715
-0.000511864
-0.018284
0.000546854
-0.0192299
0.00175651
-0.0198329
0.00313656
-0.0200053
0.00469952
-0.0196495
0.00644877
-0.0186576
0.00837671
-0.0169123
0.0104627
-0.0142867
0.0126738
-0.0106453
0.0149663
-0.00584685
0.0172945
0.00024218
0.0196252
0.0220555
0.00766873
-0.000377638
-0.00106771
-0.00125585
-0.00243425
-0.00246005
-0.00320823
-0.00385794
-0.00351167
-0.00535128
-0.0034699
-0.00686815
-0.00319445
-0.00835485
-0.0027736
-0.00976802
-0.0022687
-0.0110676
-0.00171528
-0.0122113
-0.00112758
-0.0131509
-0.000503667
-0.0138295
0.000166761
-0.0141809
0.000898233
-0.014129
0.0017046
-0.0135882
0.00259578
-0.0124639
0.00357524
-0.0106531
0.00463789
-0.0080449
0.00576855
-0.00452354
0.00694139
3.33825e-05
0.00811689
0.00575642
0.00924329
0.012785
0.010266
0.0212665
0.0111436
0.0117651
0.031557
-0.00036952
-0.000698194
-0.00121649
-0.00158728
-0.00235726
-0.00206745
-0.00365034
-0.00221859
-0.00498824
-0.002132
-0.00628949
-0.00189321
-0.00749046
-0.00157263
-0.00853763
-0.00122153
-0.00938082
-0.000872089
-0.0099679
-0.000540505
-0.0102414
-0.000230207
-0.0101358
6.12082e-05
-0.00957741
0.000339842
-0.00848381
0.000611001
-0.00676461
0.000876575
-0.00432248
0.00113311
-0.0010545
0.0013699
0.00314648
0.00156757
0.0083917
0.00169617
0.0147933
0.00171532
0.0224647
0.00157185
0.0315425
0.0011882
0.0420874
0.000598705
-0.000860222
0.0547127
-0.000353321
-0.000344873
-0.00115018
-0.000790422
-0.00220264
-0.001015
-0.00336341
-0.00105781
-0.00451766
-0.000977747
-0.00557514
-0.000835725
-0.00646227
-0.0006855
-0.00711489
-0.000568918
-0.00747185
-0.000515123
-0.00747064
-0.000541712
-0.00704333
-0.000657521
-0.00611574
-0.000866384
-0.00460622
-0.00116968
-0.00242608
-0.00156914
0.000519419
-0.00206892
0.00433001
-0.00267748
0.00910869
-0.00340877
0.01496
-0.00428378
0.021988
-0.00533183
0.0302953
-0.00659197
0.0399698
-0.00810266
0.0511578
-0.00999981
0.063727
-0.0119704
-0.0156891
0.0785559
-0.000328823
-1.60498e-05
-0.00105532
-6.39247e-05
-0.00199081
-7.95104e-05
-0.00298455
-6.40745e-05
-0.00391508
-4.7212e-05
-0.00468306
-6.77538e-05
-0.00520325
-0.000165305
-0.00539881
-0.000373362
-0.00519442
-0.000719515
-0.00451298
-0.00122314
-0.0032726
-0.00189791
-0.00138575
-0.00275323
0.00124092
-0.00379635
0.0047056
-0.00503381
0.0091096
-0.00647292
0.0145551
-0.008123
0.0211428
-0.00999646
0.0289689
-0.0121098
0.0381214
-0.0144844
0.0486818
-0.0171523
0.0606901
-0.020111
0.0742809
-0.0235906
0.0891503
-0.0268398
-0.0326495
0.106111
-0.00029328
0.00027723
-0.000922025
0.00056482
-0.00169948
0.000697944
-0.00247167
0.000708115
-0.00310962
0.00059074
-0.00350199
0.000324616
-0.00354776
-0.00011954
-0.00315297
-0.000768147
-0.00222246
-0.00165003
-0.000659099
-0.0027865
0.00163759
-0.0041946
0.00477127
-0.00588691
0.00884681
-0.00787189
0.0139674
-0.0101544
0.0202311
-0.0127366
0.0277265
-0.0156184
0.0365291
-0.0187991
0.0466971
-0.0222778
0.0582662
-0.0260535
0.0712509
-0.030137
0.0856147
-0.0344749
0.101361
-0.0393369
0.118221
-0.0436996
-0.0508566
0.136428
-0.000243807
0.000521037
-0.000739419
0.00106043
-0.00130296
0.00126149
-0.00177614
0.00118129
-0.00201912
0.000833718
-0.00190434
0.000209835
-0.00131247
-0.00071141
-0.000124565
-0.00195605
0.00177607
-0.00355066
0.00450654
-0.00551697
0.00818206
-0.00787012
0.0129121
-0.010617
0.0187955
-0.0137552
0.0259145
-0.0172735
0.0343297
-0.0211518
0.0440747
-0.0253634
0.0551524
-0.0298768
0.0675327
-0.0346581
0.0811503
-0.0396711
0.0959035
-0.0448902
0.111663
-0.0502344
0.128213
-0.0558866
0.145487
-0.0609743
-0.0682223
0.162853
-0.000179594
0.000700631
-0.000502485
0.00138332
-0.000787331
0.00154633
-0.000869084
0.00126305
-0.000593908
0.000558542
0.000184579
-0.000568652
0.00160849
-0.00213532
0.00381698
-0.00416454
0.00694368
-0.00667736
0.011113
-0.00968632
0.0164337
-0.0131908
0.0229908
-0.017174
0.030838
-0.0216025
0.0399914
-0.0264268
0.0504244
-0.0315848
0.0620665
-0.0370055
0.074804
-0.0426143
0.0884838
-0.0483379
0.102919
-0.054106
0.117895
-0.0598667
0.133201
-0.0655406
0.148522
-0.0712068
0.16393
-0.0763832
-0.08256
0.178268
-0.000102906
-0.000215643
-0.000157375
0.000245924
0.00116368
0.0027605
0.0051956
0.00861768
0.0131575
0.0189177
0.0259625
0.0343075
0.0439134
0.0546843
0.0664698
0.0790733
0.0922622
0.105782
0.11937
0.132772
0.145761
0.158119
0.169934
0.180635
-0.035086
0.0555655
-0.058101
-0.0317055
0.0656367
-0.0690172
-0.027316
0.0750933
-0.0794827
-0.0216644
0.0830807
-0.0887324
-0.0145165
0.0887818
-0.0959297
-0.00565947
0.091212
-0.100069
0.00500462
0.089381
-0.100045
0.0172947
0.0824449
-0.094735
0.0307491
0.0698503
-0.0833048
0.0447969
0.0514969
-0.0655447
0.0588147
0.0275892
-0.0416071
0.0722516
-0.00113601
-0.0123008
0.0850807
-0.034018
0.0211889
0.0970521
-0.0692802
0.0573087
0.107741
-0.103168
0.0924793
0.116397
-0.130999
0.122343
0.122319
-0.1496
0.143677
0.125354
-0.158921
0.155886
0.125934
-0.161104
0.160524
0.124258
-0.159152
0.160827
0.11985
-0.157333
0.161741
0.1128
-0.159713
0.166763
0.105318
-0.164433
0.171916
0.101193
-0.160294
0.164419
0.103071
-0.133102
0.131224
0.110724
-0.0783901
0.0707376
0.121853
-0.0065262
-0.00460254
0.133586
0.0653707
-0.0771042
0.143478
0.122923
-0.132816
0.150325
0.161298
-0.168144
0.154302
0.181467
-0.185444
0.155472
0.19035
-0.191519
0.15302
0.198678
-0.196226
0.146846
0.214815
-0.208641
0.139262
0.227835
-0.220251
0.134002
0.212361
-0.207102
0.13343
0.150569
-0.149997
0.137399
0.0509893
-0.0549581
0.143883
-0.0523608
0.0458763
0.150642
-0.13731
0.130552
0.155627
-0.185733
0.180748
0.156469
-0.215035
0.214192
0.151815
-0.229844
0.234498
0.14352
-0.245992
0.254287
0.136253
-0.235184
0.242451
0.134278
-0.175847
0.177822
0.138466
-0.0804048
0.0762171
0.145514
0.045044
-0.0520927
0.150486
0.124785
-0.129757
0.14979
0.218531
-0.217834
0.144774
0.257063
-0.252047
0.140453
0.283009
-0.278688
0.140466
0.237413
-0.237426
0.143833
0.0999963
-0.103363
0.146364
0.0207888
-0.0233203
0.145336
-0.178545
0.179573
0.14338
-0.224709
0.226666
0.141916
-0.305354
0.306818
0.140466
-0.295415
0.296864
-0.0232114
0.0251076
-0.0262824
0.0510739
-0.0206219
0.0599763
-0.0138162
0.0682876
-0.00555745
0.074822
0.00417265
0.0790517
0.0153111
0.0800736
0.027676
0.077016
0.0409225
0.0691985
0.0545216
0.0562512
0.0678875
0.0381309
0.0805035
0.0149732
0.0920743
-0.0127067
0.102602
-0.0445455
0.111943
-0.0786215
0.119683
-0.110908
0.125219
-0.136536
0.128129
-0.152509
0.128466
-0.159258
0.126836
-0.159474
0.123701
-0.156017
0.118544
-0.152175
0.110761
-0.151929
0.101786
-0.155458
0.0955102
-0.154018
0.0956522
-0.133244
0.102827
-0.0855652
0.11482
-0.0185189
0.128174
0.0520167
0.140019
0.111078
0.1489
0.152417
0.154719
0.175648
0.15729
0.187778
0.155914
0.200055
0.150835
0.219893
0.144338
0.234333
0.139694
0.217006
0.138841
0.151422
0.141744
0.0480863
0.146684
-0.0573006
0.151747
-0.142373
0.155342
-0.189329
0.15538
-0.215073
0.150333
-0.224796
0.141698
-0.237357
0.134252
-0.227738
0.13248
-0.174076
0.137358
-0.0852828
0.145073
0.0373288
0.150516
0.119343
0.150152
0.218895
0.145285
0.26193
0.14101
0.287285
0.140878
0.237545
0.144399
0.0964754
0.147077
0.0181102
0.145947
-0.177415
0.143859
-0.222622
0.142233
-0.303728
0.140678
-0.293859
-0.0212585
-0.00857557
0.0451647
-0.00141235
0.052813
0.00742072
0.0594545
0.0173749
0.0648679
0.0284422
0.0679843
0.0404837
0.0680321
0.0531992
0.0643005
0.0661567
0.056241
0.0788492
0.0435587
0.0907739
0.0262062
0.101503
0.00424451
0.110964
-0.0221685
0.11912
-0.0527013
0.12583
-0.0853311
0.13065
-0.115728
0.133125
-0.139011
0.133164
-0.152548
0.13109
-0.157184
0.127582
-0.155967
0.123247
-0.151681
0.117678
-0.146606
0.109749
-0.144
0.0999015
-0.145611
0.0916817
-0.145798
0.0897103
-0.131273
0.0958304
-0.0916853
0.108048
-0.030736
0.122648
0.0374164
0.136265
0.0974611
0.14715
0.141532
0.154846
0.167953
0.158942
0.183682
0.15889
0.200106
0.155164
0.22362
0.149861
0.239635
0.145743
0.221124
0.144437
0.152727
0.146112
0.046412
0.149439
-0.060628
0.152777
-0.145711
0.154984
-0.191536
0.154301
-0.21439
0.149042
-0.219537
0.140237
-0.228553
0.132648
-0.220148
0.130979
-0.172407
0.136391
-0.0906944
0.144674
0.0290458
0.150607
0.11341
0.150651
0.218851
0.145978
0.266604
0.141733
0.29153
0.141423
0.237854
0.145077
0.0928214
0.147932
0.015256
0.14669
-0.176174
0.144438
-0.220369
0.142655
-0.301945
0.14103
-0.292235
-0.0192774
0.0149096
0.0379238
0.0232631
0.0444596
0.0325966
0.050121
0.0430543
0.0544102
0.0544065
0.0566321
0.0663439
0.0560947
0.0784886
0.0521558
0.0904069
0.0443227
0.101654
0.0323113
0.111807
0.0160539
0.120687
-0.00463543
0.128136
-0.029618
0.134135
-0.0587
0.138408
-0.0896042
0.140464
-0.117784
0.140028
-0.138575
0.137386
-0.149906
0.133191
-0.152989
0.128134
-0.150909
0.122811
-0.146358
0.117039
-0.140834
0.109495
-0.136457
0.0995899
-0.135706
0.0899288
-0.136137
0.0856017
-0.126946
0.0898792
-0.0959628
0.10162
-0.0424771
0.116999
0.0220376
0.13216
0.0823004
0.144977
0.128714
0.154561
0.158368
0.160308
0.177936
0.161814
0.1986
0.159664
0.225769
0.155633
0.243667
0.151953
0.224803
0.150062
0.154618
0.150402
0.0460719
0.152088
-0.0623139
0.153725
-0.147347
0.15455
-0.192361
0.153195
-0.213035
0.147873
-0.214215
0.139067
-0.219747
0.131381
-0.212462
0.129713
-0.170739
0.1355
-0.0964819
0.144275
0.0202712
0.150736
0.106949
0.15128
0.218306
0.146867
0.271016
0.142654
0.295743
0.142121
0.238387
0.145872
0.08907
0.148916
0.0122124
0.147559
-0.174817
0.145112
-0.217922
0.143173
-0.300005
0.14151
-0.290571
-0.0172956
0.0393577
0.030123
0.0479814
0.0358359
0.0574736
0.0406288
0.0678203
0.0440635
0.0787792
0.0456732
0.0900081
0.0448657
0.101126
0.0410379
0.111732
0.0337168
0.121467
0.0225759
0.130042
0.00747913
0.137356
-0.0119497
0.143208
-0.0354695
0.147372
-0.0628641
0.149364
-0.0915959
0.148738
-0.117159
0.145557
-0.135393
0.140523
-0.144873
0.134572
-0.147038
0.128371
-0.144708
0.122345
-0.140333
0.116482
-0.134971
0.109627
-0.129602
0.100428
-0.126507
0.0901464
-0.125855
0.0835579
-0.120357
0.0853332
-0.097738
0.0957314
-0.0528753
0.111294
0.00647458
0.127659
0.0659354
0.142249
0.114125
0.153684
0.146933
0.161185
0.170435
0.164457
0.195328
0.164082
0.226144
0.161418
0.246331
0.158151
0.22807
0.155563
0.157207
0.154497
0.0471376
0.154559
-0.0623753
0.154551
-0.147339
0.154018
-0.191829
0.152027
-0.211045
0.146767
-0.208954
0.138113
-0.211094
0.130382
-0.20473
0.128615
-0.168973
0.134619
-0.102486
0.143824
0.0110669
0.150864
0.099908
0.152018
0.217152
0.147959
0.275075
0.143792
0.29991
0.142987
0.239192
0.146776
0.0852819
0.150016
0.00897212
0.148544
-0.173346
0.145879
-0.215256
0.143782
-0.297909
0.142104
-0.288893
-0.015342
0.0623988
0.0224369
0.0707364
0.0274983
0.0798234
0.0315418
0.0896029
0.034284
0.0997956
0.0354805
0.110066
0.034595
0.120066
0.0310379
0.129437
0.0243463
0.137857
0.0141561
0.145306
2.97699e-05
0.151363
-0.0180067
0.155884
-0.0399904
0.158366
-0.0653466
0.158184
-0.0914131
0.155057
-0.114032
0.149454
-0.12979
0.142443
-0.137862
0.135134
-0.13973
0.128166
-0.137739
0.121734
-0.133901
0.115846
-0.129084
0.109748
-0.123504
0.101822
-0.118581
0.091909
-0.115942
0.083656
-0.112104
0.0825435
-0.0966255
0.0906857
-0.0610176
0.105666
-0.00850571
0.122742
0.0488597
0.138827
0.0980398
0.152006
0.133754
0.161321
0.161121
0.166524
0.190125
0.168097
0.224572
0.166922
0.247505
0.164112
0.23088
0.160774
0.160545
0.158294
0.0496176
0.156772
-0.0608538
0.155208
-0.145775
0.153355
-0.189976
0.150751
-0.20844
0.145647
-0.203851
0.137286
-0.202732
0.129564
-0.197009
0.127609
-0.167018
0.133677
-0.108554
0.143257
0.0014868
0.150941
0.0922247
0.152829
0.215264
0.149241
0.278664
0.145157
0.303994
0.144033
0.240316
0.147781
0.0815345
0.151213
0.00554028
0.149632
-0.171765
0.14673
-0.212355
0.144473
-0.295652
0.142799
-0.287219
-0.0134456
0.0849598
0.016033
0.092137
0.0203211
0.100161
0.023518
0.108878
0.0255672
0.117969
0.0263887
0.127128
0.0254365
0.136026
0.0221394
0.144345
0.016028
0.151672
0.00682893
0.158176
-0.00647476
0.163111
-0.0229407
0.166263
-0.0431426
0.16695
-0.0660336
0.164572
-0.0890356
0.159147
-0.108606
0.151533
-0.122176
0.143036
-0.129365
0.134799
-0.131493
0.127392
-0.130332
0.120827
-0.127336
0.114995
-0.123252
0.109526
-0.118035
0.103078
-0.112132
0.0944652
-0.107329
0.0856037
-0.103242
0.0817622
-0.0927841
0.0869783
-0.0662337
0.100241
-0.0217685
0.117442
0.031659
0.134613
0.0808687
0.149346
0.119021
0.160464
0.150002
0.167706
0.182883
0.171379
0.220899
0.17182
0.247064
0.16956
0.23314
0.165573
0.164532
0.161647
0.0535436
0.158642
-0.0578488
0.155639
-0.142772
0.152527
-0.186864
0.149319
-0.205233
0.144444
-0.198975
0.13649
-0.194778
0.128836
-0.189354
0.126617
-0.164799
0.1326
-0.114537
0.142508
-0.00842194
0.150901
0.0838318
0.153663
0.212502
0.150685
0.281642
0.146742
0.307937
0.145257
0.241801
0.148879
0.0779125
0.152484
0.00193575
0.150806
-0.170087
0.14766
-0.209209
0.145239
-0.29323
0.14358
-0.28556
-0.0116368
0.110092
0.0120514
0.11517
0.0152437
0.121322
0.0173661
0.128265
0.018624
0.135693
0.0189602
0.143335
0.0177947
0.150848
0.0146269
0.157892
0.0089834
0.164114
0.000606727
0.169242
-0.0116027
0.172787
-0.0264854
0.1742
-0.0445552
0.172815
-0.064649
0.168238
-0.0844586
0.160832
-0.1012
0.151729
-0.113073
0.142294
-0.11993
0.133559
-0.122758
0.125979
-0.122752
0.119478
-0.120835
0.113809
-0.117583
0.108795
-0.113021
0.10366
-0.106998
0.096899
-0.100568
0.0886707
-0.0950142
0.0829292
-0.0870426
0.0848095
-0.0681139
0.0954822
-0.0324412
0.111891
0.0152499
0.12958
0.0631803
0.145578
0.103022
0.158415
0.137165
0.167718
0.173581
0.173548
0.215069
0.175716
0.244897
0.17417
0.234686
0.169694
0.169008
0.16449
0.058748
0.160076
-0.0534356
0.155776
-0.138472
0.151489
-0.182577
0.14768
-0.201423
0.143081
-0.194377
0.135639
-0.187336
0.128103
-0.181818
0.125558
-0.162254
0.131317
-0.120295
0.141506
-0.0186114
0.150672
0.074666
0.154453
0.208721
0.152242
0.283852
0.148523
0.311656
0.146646
0.243678
0.15006
0.074498
0.153808
-0.00181226
0.152048
-0.168327
0.148658
-0.205819
0.146066
-0.290638
0.144433
-0.283927
-0.00994835
0.137856
0.0106231
0.140565
0.012535
0.144384
0.013547
0.148997
0.0140111
0.15421
0.0137476
0.159783
0.0122208
0.165357
0.00905303
0.170409
0.00393192
0.175186
-0.00417096
0.178305
-0.0147213
0.179834
-0.0280142
0.179076
-0.0437971
0.175477
-0.0610504
0.168921
-0.0779024
0.160045
-0.0923246
0.150065
-0.103094
0.140233
-0.110098
0.131382
-0.113907
0.123833
-0.115203
0.1175
-0.114503
0.112088
-0.11217
0.107428
-0.10836
0.103245
-0.102815
0.098371
-0.0956938
0.0917909
-0.088434
0.085482
-0.0807337
0.0843802
-0.0670121
0.0917436
-0.0398046
0.106326
0.000667401
0.123783
0.0457239
0.140632
0.0861726
0.155
0.122797
0.166337
0.162244
0.174427
0.206978
0.178451
0.240873
0.177722
0.235415
0.172926
0.173803
0.16665
0.0650239
0.160966
-0.0477515
0.155524
-0.133029
0.150175
-0.177227
0.145762
-0.197011
0.141474
-0.190088
0.134647
-0.18051
0.127285
-0.174456
0.124361
-0.159329
0.129763
-0.125698
0.140183
-0.0290314
0.150171
0.0646779
0.155123
0.20377
0.153852
0.285123
0.150456
0.315052
0.148179
0.245955
0.151295
0.0713823
0.155163
-0.00568015
0.153339
-0.166503
0.149711
-0.202192
0.14694
-0.287867
0.145341
-0.282329
-0.00841635
0.162677
0.0107993
0.163648
0.0115643
0.165426
0.0117685
0.167846
0.0115909
0.170845
0.0107492
0.174173
0.00889283
0.177534
0.00569175
0.180557
0.000909067
0.18282
-0.00643362
0.183777
-0.0156784
0.183025
-0.0272624
0.18005
-0.0408218
0.174496
-0.055497
0.166498
-0.0699042
0.156816
-0.0826424
0.146569
-0.0928471
0.136783
-0.100312
0.128088
-0.105211
0.120703
-0.107819
0.114579
-0.108379
0.109477
-0.107069
0.105175
-0.104058
0.101628
-0.0992683
0.0982798
-0.0923456
0.0938157
-0.0839699
0.0883524
-0.0752705
0.0854073
-0.064067
0.0893463
-0.0437436
0.101112
-0.0110979
0.117401
0.0294344
0.134523
0.0690502
0.150127
0.107193
0.163334
0.149037
0.173588
0.196724
0.179538
0.234924
0.179883
0.235069
0.17506
0.178626
0.168049
0.0720348
0.16126
-0.0409627
0.154822
-0.126591
0.148542
-0.170948
0.143526
-0.191994
0.139549
-0.186112
0.13345
-0.17441
0.126334
-0.167341
0.122973
-0.155968
0.127876
-0.130601
0.138486
-0.0396406
0.149323
0.0538408
0.155581
0.197511
0.15542
0.285284
0.152486
0.317986
0.149831
0.24861
0.152565
0.068648
0.156518
-0.00963257
0.154658
-0.164644
0.150803
-0.198336
0.147846
-0.28491
0.146292
-0.280775
-0.00708062
0.177692
0.0113759
0.177849
0.0114066
0.178414
0.0112038
0.179438
0.0105673
0.180871
0.00931584
0.182478
0.00728626
0.183926
0.00424376
0.184974
-0.00013912
0.185222
-0.0066821
0.184237
-0.0146927
0.181607
-0.0246332
0.176972
-0.0361867
0.170193
-0.0487177
0.161562
-0.0612732
0.151814
-0.0728949
0.141866
-0.0828985
0.132489
-0.090935
0.124151
-0.0968726
0.117021
-0.100689
0.111094
-0.102451
0.106246
-0.102221
0.102261
-0.100073
0.0990985
-0.0961054
0.0966941
-0.0899413
0.0941264
-0.0814021
0.0904141
-0.0715582
0.0871166
-0.0607694
0.0882971
-0.0449242
0.0966812
-0.019482
0.110778
0.0153372
0.127365
0.0524641
0.143815
0.090743
0.158853
0.133999
0.171443
0.184135
0.179455
0.226911
0.180835
0.23369
0.176197
0.183264
0.168761
0.0794704
0.161121
-0.0333232
0.153811
-0.119281
0.146739
-0.163876
0.141118
-0.186373
0.137367
-0.182361
0.132066
-0.169109
0.125272
-0.160547
0.121421
-0.152117
0.125661
-0.13484
0.136345
-0.0503246
0.148033
0.0421532
0.155759
0.189785
0.156882
0.284161
0.154534
0.320334
0.151559
0.251584
0.153865
0.0663424
0.157844
-0.0136112
0.155994
-0.162794
0.151917
-0.194259
0.148772
-0.281764
0.147275
-0.279279
-0.00598281
0.180523
0.0114877
0.180464
0.0114661
0.180673
0.0109947
0.181093
0.0101473
0.18162
0.00878886
0.18215
0.00675615
0.182556
0.00383756
0.18261
-0.000192876
0.181537
-0.00560941
0.179371
-0.0125263
0.175739
-0.0210018
0.170435
-0.0308826
0.163467
-0.0417499
0.155171
-0.0529774
0.146153
-0.0638763
0.137084
-0.0738295
0.128511
-0.0823619
0.120781
-0.0891427
0.114051
-0.0939598
0.108353
-0.0967522
0.103667
-0.0975358
0.0998704
-0.0962764
0.0968676
-0.0931026
0.0948059
-0.0878796
0.0933958
-0.079992
0.0914729
-0.0696354
0.0889563
-0.0582528
0.0885429
-0.0445107
0.0934696
-0.0244087
0.104584
0.0042227
0.119507
0.0375409
0.135746
0.0745043
0.151785
0.117959
0.166394
0.169526
0.176682
0.216623
0.179698
0.230674
0.175963
0.187
0.168854
0.0865792
0.160526
-0.024995
0.152506
-0.111261
0.144882
-0.156252
0.138719
-0.180209
0.13505
-0.178693
0.130545
-0.164604
0.124137
-0.154139
0.119762
-0.147742
0.123267
-0.138345
0.133877
-0.0609346
0.146288
0.0297421
0.15549
0.180584
0.158073
0.281578
0.156519
0.321888
0.153328
0.254775
0.155175
0.0644953
0.159111
-0.0175473
0.157327
-0.16101
0.153026
-0.189958
0.149714
-0.278452
0.148283
-0.277848
-0.00516692
0.197327
0.0116882
-0.197527
0.197726
0.0110669
0.198334
0.0103874
0.199216
0.0092644
0.200406
0.00759905
0.201864
0.00529807
0.203445
0.00225717
0.205076
-0.00182455
0.206496
-0.00702908
0.207455
-0.0134852
0.20763
-0.021177
0.206714
-0.0299663
0.204499
-0.0395353
0.200947
-0.0494252
0.196183
-0.0591126
0.190435
-0.0680807
0.183955
-0.0758823
0.176993
-0.0821809
0.169777
-0.0867438
0.16249
-0.0894655
0.155294
-0.0903394
0.148284
-0.0892658
0.14144
-0.0862595
0.13487
-0.0813087
0.12874
-0.0738622
0.122481
-0.0633768
0.115222
-0.0509935
0.107854
-0.037143
0.10339
-0.0199445
0.10397
0.0036428
0.109007
0.0325037
0.116233
0.0672786
0.12364
0.110552
0.130859
0.162307
0.138324
0.209158
0.147571
0.221427
0.159346
0.175225
0.170074
0.0758508
0.175819
-0.03074
0.175528
-0.11097
0.170235
-0.150959
0.162707
-0.172682
0.155703
-0.171689
0.148145
-0.157047
0.139124
-0.145117
0.131437
-0.140055
0.128849
-0.135758
0.131562
-0.0636468
0.135432
0.0258713
0.137942
0.178074
0.138621
0.280899
0.139707
0.320802
0.142499
0.251983
0.147992
0.0590014
0.15347
-0.0230248
0.151906
-0.159446
0.146404
-0.184456
0.141239
-0.273287
0.136748
-0.273357
-0.00279067
0.209342
0.0113686
-0.209022
0.209931
0.0104771
0.210823
0.00949542
0.211905
0.00818241
0.213116
0.00638793
0.214406
0.00400886
0.215733
0.000929728
0.216924
-0.00301547
0.2178
-0.00790481
0.218128
-0.0138139
0.21768
-0.0207289
0.216245
-0.0285305
0.213684
-0.0369747
0.209967
-0.0457078
0.205167
-0.0543131
0.199446
-0.0623592
0.193016
-0.0694531
0.186116
-0.0752805
0.17898
-0.0796077
0.1718
-0.082285
0.164716
-0.0832558
0.15784
-0.0823902
0.151187
-0.0796064
0.144756
-0.0748778
0.138771
-0.0678774
0.133131
-0.0577359
0.126976
-0.0448385
0.120128
-0.0302953
0.114484
-0.0143002
0.112912
0.00521449
0.116152
0.0292634
0.122778
0.0606533
0.130826
0.102504
0.139296
0.153836
0.148345
0.20011
0.159694
0.210077
0.173187
0.161732
0.184681
0.0643569
0.189907
-0.0359663
0.188595
-0.109658
0.18218
-0.144544
0.173577
-0.164078
0.165862
-0.163974
0.158131
-0.149315
0.148969
-0.135956
0.14067
-0.131756
0.137449
-0.132536
0.139854
-0.066052
0.144093
0.0216323
0.147353
0.174814
0.148983
0.279268
0.151041
0.318744
0.154157
0.248867
0.159573
0.0535857
0.165053
-0.0285053
0.163024