/*--------------------------------*- C++ -*----------------------------------*\
| =========                 |                                                 |
| \\      /  F ield         | OpenFOAM: The Open Source CFD Toolbox           |
|  \\    /   O peration     | Version:  2512                                  |
|   \\  /    A nd           | Website:  www.openfoam.com                      |
|    \\/     M anipulation  |                                                 |
\*---------------------------------------------------------------------------*/
FoamFile
{
    version     2.0;
    format      ascii;
    arch        "LSB;label=32;scalar=64";
    class       surfaceScalarField;
    location    "175.75";
    object      phi;
}
// * * * * * * * * * * * * * * * * * * * * * * * * * * * * * * * * * * * * * //

dimensions      [0 3 -1 0 0 0 0];

oriented        oriented;

internalField   nonuniform List<scalar> 
26232
(
0.000199163
0.000879976
-0.00107914
0.000894119
0.00135031
-0.00204526
0.00219641
0.000652005
-0.0019543
0.0042286
-0.00116159
-0.000870591
0.00712464
-0.00404742
0.00115138
0.01102
-0.00796701
0.00407165
0.0160336
-0.0128745
0.00786082
0.0222447
-0.0186998
0.0124887
0.0296684
-0.0253329
0.0179092
0.038237
-0.0326144
0.0240458
0.0477916
-0.0403371
0.0307825
0.0580886
-0.0482585
0.0379615
0.0688207
-0.0561224
0.0453902
0.0796494
-0.0636836
0.052855
0.0902421
-0.0707328
0.0601401
0.10031
-0.0771148
0.0670473
0.109636
-0.0827398
0.0734136
0.118096
-0.087585
0.079125
0.125661
-0.091686
0.0841209
0.132388
-0.0951288
0.0884016
0.138395
-0.0980076
0.0920012
0.143831
-0.100483
0.0950468
0.148688
-0.102481
0.0976241
-0.104488
0.100134
0.153043
0.000227285
0.000652691
0.00106799
0.0005096
0.00267887
-0.00095887
0.00521445
-0.00369717
0.00882542
-0.00765839
0.0136407
-0.0127823
0.0197402
-0.018974
0.0271253
-0.0260848
0.0356961
-0.0339037
0.0452448
-0.0421631
0.0554679
-0.0505602
0.0659987
-0.0587893
0.0764513
-0.066575
0.0864692
-0.0737015
0.0957674
-0.080031
0.104162
-0.0855094
0.111582
-0.0901602
0.118065
-0.0940681
0.123736
-0.0973569
0.128775
-0.100167
0.1334
-0.102633
0.137807
-0.10489
0.142286
-0.10696
-0.109222
0.14702
0.000278345
0.000374346
0.00131705
-0.00052911
0.00331061
-0.00295243
0.00643573
-0.00682229
0.0108399
-0.0120625
0.0166114
-0.0185538
0.0237441
-0.0261067
0.0321107
-0.0344515
0.0414567
-0.0432497
0.0514213
-0.0521277
0.0615827
-0.0607216
0.0715168
-0.0687234
0.0808558
-0.075914
0.0893338
-0.0821795
0.0968119
-0.0875091
0.10328
-0.0919771
0.108835
-0.0957156
0.113652
-0.0988848
0.11794
-0.101645
0.121912
-0.10414
0.12576
-0.10648
0.129629
-0.108759
0.133657
-0.110988
-0.113399
0.137833
0.000357789
1.65573e-05
0.00165546
-0.00182678
0.00410875
-0.00540571
0.00789399
-0.0106075
0.0131204
-0.017289
0.0197887
-0.025222
0.0277571
-0.0340751
0.0367348
-0.0434292
0.0463109
-0.0528258
0.056014
-0.0618308
0.0653873
-0.0700949
0.0740567
-0.0773929
0.0817789
-0.0836362
0.0884579
-0.0888585
0.0941335
-0.0931847
0.0989475
-0.096791
0.103099
-0.0998673
0.106803
-0.102588
0.110255
-0.105097
0.113617
-0.107502
0.117011
-0.109874
0.120519
-0.112268
0.124217
-0.114685
-0.117293
0.128111
0.000464516
-0.000447959
0.00207617
-0.00343843
0.00504668
-0.00837623
0.00951775
-0.0150786
0.0155145
-0.0232857
0.022901
-0.0326085
0.0313668
-0.0425409
0.0404605
-0.0525229
0.0496646
-0.0620299
0.0584876
-0.0706538
0.0665449
-0.0781521
0.0736073
-0.0844553
0.0796103
-0.0896392
0.0846292
-0.0938774
0.0888324
-0.097388
0.0924302
-0.100389
0.0956312
-0.103068
0.0986145
-0.105572
0.101519
-0.108001
0.104442
-0.110425
0.107451
-0.112883
0.110585
-0.115402
0.113884
-0.117984
-0.120729
0.11732
0.000593498
-0.00104146
0.00255687
-0.00540181
0.00606558
-0.0118849
0.0111836
-0.0201966
0.017804
-0.0299061
0.0256195
-0.040424
0.0341524
-0.0510738
0.0428415
-0.061212
0.0511536
-0.070342
0.0586806
-0.0781808
0.0651923
-0.0846638
0.0706399
-0.0899028
0.0751189
-0.0941183
0.078813
-0.0975715
0.0819367
-0.100512
0.0846919
-0.103144
0.0872445
-0.105621
0.0897173
-0.108044
0.0921948
-0.110479
0.0947324
-0.112962
0.0973653
-0.115516
0.100115
-0.118152
0.103002
-0.120872
-0.12373
0.106004
0.000737236
-0.00177869
0.00306611
-0.00773068
0.00708768
-0.0159065
0.0127427
-0.0258517
0.0197544
-0.0369178
0.0276396
-0.0483092
0.035798
-0.0592323
0.0436451
-0.069059
0.05073
-0.0774269
0.0568002
-0.084251
0.0618032
-0.0896668
0.0658411
-0.0939407
0.0691045
-0.0973817
0.0718101
-0.100277
0.0741559
-0.102857
0.0763
-0.105288
0.0783558
-0.107677
0.0803992
-0.110088
0.0824784
-0.112558
0.0846237
-0.115107
0.0868536
-0.117746
0.0891789
-0.120477
0.0916101
-0.123303
-0.126245
0.0941252
0.000887201
-0.00266589
0.00356779
-0.0104113
0.00802795
-0.0203667
0.0140458
-0.0318695
0.0211606
-0.0440327
0.0287462
-0.0558947
0.0361577
-0.0666437
0.0428789
-0.0757802
0.0486084
-0.0831565
0.0532677
-0.0889103
0.0569506
-0.0933497
0.0598484
-0.0968385
0.0621802
-0.0997134
0.0641445
-0.102241
0.0658971
-0.10461
0.0675477
-0.106939
0.0691674
-0.109296
0.0708008
-0.111721
0.0724747
-0.114232
0.0742063
-0.116839
0.0760061
-0.119545
0.0778807
-0.122352
0.0798361
-0.125258
-0.128267
0.0818577
0.00103397
-0.00369986
0.00402396
-0.0134013
0.00880366
-0.0251464
0.0149652
-0.0380311
0.0218812
-0.0509486
0.0288468
-0.0628604
0.0352584
-0.0730553
0.0407345
-0.0812564
0.045143
-0.087565
0.0485516
-0.0923189
0.0511449
-0.095943
0.0531444
-0.098838
0.0547536
-0.101323
0.0561315
-0.103619
0.0573886
-0.105867
0.0585953
-0.108145
0.0597941
-0.110495
0.0610105
-0.112938
0.0622603
-0.115482
0.0635535
-0.118132
0.0648968
-0.120889
0.0662947
-0.123749
0.0677496
-0.126713
-0.129771
0.0692533
0.00116721
-0.00486707
0.00439737
-0.0166314
0.00934348
-0.0300925
0.0154118
-0.0440994
0.0218547
-0.0573916
0.0279669
-0.0689725
0.0332538
-0.0783422
0.0374953
-0.0854979
0.0407086
-0.0907783
0.0430595
-0.0946698
0.0447702
-0.0976536
0.0460523
-0.10012
0.0470732
-0.102344
0.0479494
-0.104495
0.0487539
-0.106672
0.0495298
-0.108921
0.0503023
-0.111268
0.0510865
-0.113722
0.051892
-0.116287
0.0527254
-0.118966
0.0535912
-0.121754
0.0544925
-0.124651
0.0554303
-0.127651
-0.130743
0.0564024
0.00127689
-0.00614396
0.00465622
-0.0200107
0.00959683
-0.0350331
0.0153444
-0.0498469
0.0210968
-0.0631441
0.0262185
-0.0740942
0.0303609
-0.0824847
0.0334568
-0.0885938
0.035633
-0.0929545
0.0371049
-0.0961416
0.0380933
-0.0986421
0.0387794
-0.100806
0.0392901
-0.102854
0.0397056
-0.104911
0.040072
-0.107038
0.0404153
-0.109265
0.0407505
-0.111603
0.0410872
-0.114058
0.0414319
-0.116632
0.0417892
-0.119323
0.0421622
-0.122127
0.0425524
-0.125041
0.0429591
-0.128058
-0.131167
0.0433838
0.00135719
-0.00750115
0.0047809
-0.0234345
0.00954086
-0.039793
0.0147706
-0.0550767
0.019684
-0.0680574
0.023764
-0.0781742
0.0268138
-0.0855345
0.0288888
-0.0906688
0.0301812
-0.0942469
0.0309182
-0.0968785
0.0312971
-0.0990211
0.0314616
-0.100971
0.0315031
-0.102896
0.0314742
-0.104882
0.0314035
-0.106967
0.0313066
-0.109168
0.0311927
-0.111489
0.0310684
-0.113934
0.0309386
-0.116502
0.030807
-0.119191
0.0306762
-0.121997
0.0305472
-0.124912
0.0304184
-0.127929
0.0302933
-0.131042
-0.000328193
0.000223834
0.000104359
-0.00111726
-0.000143047
0.000932111
-0.0022582
-0.00102
0.00216094
-0.00367813
-0.00218496
0.00360489
-0.00532418
-0.00348893
0.00513498
-0.00715507
-0.00485496
0.00668585
-0.00913584
-0.00626468
0.00824545
-0.0112351
-0.00773825
0.0098375
-0.0134236
-0.00931378
0.0115023
-0.0156734
-0.0110309
0.0132806
-0.0179564
-0.0129203
0.0152032
-0.0202427
-0.0149992
0.0172856
-0.0224992
-0.0172706
0.0195271
-0.0246873
-0.0197227
0.0219108
-0.0267618
-0.0223295
0.024404
-0.0286701
-0.0250493
0.0269575
-0.0303517
-0.0278228
0.0295044
-0.0317394
-0.0305713
0.031959
-0.0327606
-0.0331952
0.0342164
-0.0333409
-0.0355754
0.0361557
-0.0334073
-0.0375775
0.0376439
-0.0328944
-0.0390538
0.0385409
-0.0317639
-0.0398333
0.0387028
-0.0397633
-0.0300338
0.0380332
-0.000358594
0.000582428
-0.00122495
0.000723313
-0.00247926
0.000234309
-0.0040386
-0.000625623
-0.00584175
-0.00168577
-0.00784269
-0.00285402
-0.0100057
-0.00410172
-0.0123023
-0.00544157
-0.0147095
-0.0069066
-0.017207
-0.0085334
-0.0197755
-0.0103518
-0.0223945
-0.0123802
-0.0250406
-0.0146245
-0.0276857
-0.0170776
-0.0302961
-0.0197191
-0.0328314
-0.022514
-0.035244
-0.0254101
-0.0374794
-0.0283359
-0.0394767
-0.0311979
-0.0411725
-0.0338796
-0.0425052
-0.0362448
-0.0434175
-0.0381416
-0.0438602
-0.0393906
-0.0398002
-0.0438233
-0.000354547
0.000936974
-0.00122181
0.00159057
-0.00248379
0.00149629
-0.00405323
0.000943812
-0.00586278
0.000123777
-0.00786187
-0.000854932
-0.0100117
-0.00195189
-0.0122837
-0.00316961
-0.0146561
-0.00453419
-0.0171115
-0.00607795
-0.0196342
-0.00782908
-0.0222079
-0.00980651
-0.0248143
-0.0120181
-0.0274317
-0.0144601
-0.0300347
-0.0171161
-0.0325932
-0.0199556
-0.0350713
-0.022932
-0.0374267
-0.0259805
-0.0396098
-0.0290148
-0.0415656
-0.0319237
-0.0432412
-0.0345692
-0.0445883
-0.0367946
-0.045549
-0.0384299
-0.039244
-0.0461052
-0.000315045
0.00125202
-0.00110419
0.00237972
-0.00226428
0.00265638
-0.00371064
0.00239017
-0.00537329
0.00178643
-0.00719429
0.000966073
-0.00913078
-1.54015e-05
-0.011149
-0.00115139
-0.0132234
-0.00245979
-0.0153328
-0.00396851
-0.0174583
-0.00570362
-0.0195808
-0.00768404
-0.0216801
-0.00991875
-0.0237349
-0.0124054
-0.025722
-0.015129
-0.0276173
-0.0180603
-0.0293947
-0.0211546
-0.031025
-0.0243502
-0.032473
-0.0275668
-0.0336947
-0.0307019
-0.0346416
-0.0336224
-0.0352698
-0.0361663
-0.0355242
-0.0381755
-0.0394539
-0.0353143
-0.00024548
0.0014975
-0.000886613
0.00302086
-0.00184575
0.00361552
-0.00304672
0.00359114
-0.00441835
0.00315805
-0.00589869
0.00244641
-0.00743485
0.00152076
-0.00898257
0.000396326
-0.0105096
-0.000932721
-0.0119835
-0.00249468
-0.0133751
-0.00431202
-0.0146557
-0.00640345
-0.0157961
-0.00877827
-0.0167676
-0.011434
-0.0175426
-0.014354
-0.0180965
-0.0175063
-0.0184091
-0.020842
-0.0184642
-0.0242951
-0.0182478
-0.0277832
-0.0177414
-0.0312084
-0.0169134
-0.0344503
-0.0157256
-0.0373542
-0.0141616
-0.0397394
-0.0415014
-0.0121141
-0.000156229
0.00165373
-0.000598572
0.0034632
-0.00128022
0.00429716
-0.00213738
0.00444831
-0.00310022
0.00412089
-0.00410068
0.00344687
-0.00507645
0.00249653
-0.00597331
0.00129319
-0.00673927
-0.000166761
-0.00733037
-0.00190358
-0.00770195
-0.00394044
-0.00781032
-0.00629508
-0.00761265
-0.00897594
-0.00706784
-0.0119788
-0.00613909
-0.0152827
-0.00479655
-0.0188488
-0.00301978
-0.0226188
-0.000799685
-0.0265152
0.00186097
-0.0304439
0.00494822
-0.0342956
0.00845203
-0.0379541
0.0123941
-0.0412963
0.0167725
-0.0441178
-0.0463267
0.0215978
-6.05923e-05
0.00171432
-0.000279086
0.00368169
-0.000637755
0.00465583
-0.00108627
0.00489682
-0.00155724
0.00459186
-0.00197744
0.00386707
-0.00227412
0.00279321
-0.00237849
0.00139756
-0.00222373
-0.000321521
-0.00174684
-0.00238047
-0.000887017
-0.00480027
0.000414866
-0.00759697
0.00221509
-0.0107762
0.00456365
-0.0143273
0.00750192
-0.018221
0.0110592
-0.0224061
0.01525
-0.0268095
0.0200721
-0.0313373
0.0255072
-0.035879
0.0315248
-0.0403133
0.0380838
-0.0445131
0.0451629
-0.0483754
0.0526991
-0.051654
-0.0547224
0.0610947
2.8167e-05
0.00168615
3.21001e-05
0.00367776
7.12944e-06
0.0046808
-5.41017e-06
0.00490936
5.95741e-05
0.00452688
0.000280017
0.00364663
0.000738933
0.00233429
0.00152028
0.000616217
0.00270602
-0.00150727
0.00437609
-0.00405054
0.00660638
-0.00703056
0.00946704
-0.0104576
0.0130189
-0.014328
0.0173096
-0.018618
0.0223689
-0.0232804
0.0282052
-0.0282424
0.0348033
-0.0334076
0.0421253
-0.0386593
0.0501141
-0.0438678
0.0587003
-0.0488995
0.0678081
-0.0536209
0.0773797
-0.0579471
0.0873472
-0.0616214
-0.0653393
0.0979641
9.88976e-05
0.00158726
0.0002994
0.00347726
0.000590783
0.00438942
0.00100924
0.00449091
0.0016207
0.00391542
0.00250898
0.00275835
0.00376755
0.00107571
0.0054936
-0.00110983
0.00778425
-0.00379792
0.0107321
-0.00699837
0.014421
-0.0107194
0.0189207
-0.0149573
0.0242806
-0.0196879
0.0305235
-0.0248609
0.0376406
-0.0303975
0.0455895
-0.0361913
0.0542947
-0.0421128
0.0636536
-0.0480183
0.0735455
-0.0537597
0.0838414
-0.0591953
0.0944245
-0.064204
0.105185
-0.0687071
0.116072
-0.0725086
-0.0763167
0.127049
0.000146879
0.00144038
0.000507165
0.00311697
0.00107859
0.003818
0.00190297
0.00366653
0.00305215
0.00276624
0.00461847
0.00119203
0.00670668
-0.00101249
0.00942631
-0.00382946
0.0128842
-0.00725577
0.0171764
-0.0112906
0.0223795
-0.0159226
0.0285408
-0.0211186
0.0356695
-0.0268166
0.0437306
-0.032922
0.0526425
-0.0393094
0.0622801
-0.0458288
0.0724836
-0.0523164
0.0830724
-0.058607
0.0938612
-0.0645485
0.104677
-0.0700114
0.11538
-0.0749065
0.125845
-0.079172
0.136087
-0.0827507
-0.0860748
0.145845
0.000173556
0.00126682
0.000657434
0.00263309
0.00147395
0.00300148
0.00268065
0.00245983
0.0043624
0.00108448
0.00662421
-0.00106977
0.00958229
-0.00397058
0.0133532
-0.00760035
0.0180419
-0.0119445
0.0237281
-0.0169768
0.0304521
-0.0226465
0.038203
-0.0288695
0.0469113
-0.0355249
0.0564475
-0.0424582
0.0666291
-0.0494911
0.0772349
-0.0564346
0.0880245
-0.063106
0.0987619
-0.0693444
0.109237
-0.075024
0.119291
-0.0800654
0.128821
-0.0844356
0.137793
-0.0881443
0.146269
-0.0912273
-0.0937728
0.153967
0.000187682
0.000775511
0.0018227
0.00341193
0.00564779
0.00864967
0.0125399
0.0174282
0.0233929
0.0304619
0.0385979
0.0476899
0.0575552
0.067952
0.078601
0.0892137
0.0995213
0.109302
0.118399
0.126735
0.134301
0.141203
0.1476
0.153961
-0.0249612
-0.0539007
0.0488281
-0.0187332
-0.0491793
0.0429514
-0.0114458
-0.0412468
0.0339593
-0.00321982
-0.0299588
0.0217328
0.00594474
-0.015342
0.00617749
0.015652
0.00237976
-0.012087
0.0255687
0.0231602
-0.0330769
0.0356037
0.0456291
-0.0556642
0.0454527
0.0686037
-0.0784527
0.0548251
0.0902577
-0.0996301
0.063111
0.109176
-0.117462
0.0695326
0.124407
-0.130829
0.0733053
0.135997
-0.13977
0.0740596
0.144971
-0.145725
0.0725844
0.152093
-0.150618
0.0711564
0.155864
-0.154436
0.0726649
0.151674
-0.153182
0.0788366
0.133896
-0.140068
0.0891624
0.0997163
-0.110042
0.101869
0.0505711
-0.0632775
0.115184
-0.00790854
-0.00540674
0.127681
-0.0670436
0.0545466
0.137976
-0.116813
0.106518
0.145074
-0.15071
0.143612
0.148745
-0.169041
0.16537
0.149712
-0.1762
0.175233
0.148751
-0.176786
0.177748
0.14547
-0.176007
0.179288
0.139077
-0.180463
0.186857
0.130676
-0.189884
0.198285
0.123825
-0.189687
0.196538
0.121987
-0.159294
0.161132
0.125932
-0.0914518
0.0875067
0.133815
-0.00291195
-0.00497106
0.142711
0.0831356
-0.0920315
0.15059
0.145832
-0.153711
0.156136
0.183661
-0.189206
0.157937
0.203673
-0.205474
0.154801
0.2244
-0.221264
0.147625
0.245115
-0.237938
0.140042
0.246206
-0.238623
0.136007
0.20391
-0.199875
0.137103
0.107303
-0.1084
0.142495
-0.00379634
-0.00159557
0.149294
-0.113267
0.106468
0.153738
-0.174043
0.169598
0.152571
-0.22269
0.223858
0.146392
-0.248421
0.254599
0.139728
-0.256479
0.263143
0.137621
-0.227202
0.229309
0.141008
-0.11019
0.106803
0.14625
-0.0205848
0.0153428
0.148055
0.13321
-0.135015
0.145937
0.20641
-0.204293
0.143208
0.286614
-0.283885
0.142395
0.310731
-0.309919
0.143067
0.164062
-0.164733
0.143321
0.128122
-0.128376
0.141698
-0.151539
0.153163
-0.230661
0.232567
-0.0407611
-0.0569629
-0.0362037
-0.0537367
-0.0301843
-0.0472662
-0.0226636
-0.0374795
-0.0137876
-0.0242181
-0.00377356
-0.0076343
0.00759374
0.0117929
0.0194377
0.0337852
0.0310024
0.057039
0.0422013
0.0790587
0.0522613
0.099116
0.0604146
0.116254
0.0660921
0.13032
0.0694166
0.141647
0.0716489
0.149861
0.0749567
0.152556
0.0812821
0.145348
0.0910099
0.124168
0.102878
0.0878487
0.115251
0.0381975
0.126929
-0.0195866
0.136982
-0.0770967
0.144489
-0.12432
0.148903
-0.155124
0.15027
-0.170407
0.149353
-0.175284
0.147026
-0.174459
0.142963
-0.171944
0.136028
-0.173528
0.12683
-0.180686
0.118934
-0.181792
0.116434
-0.156794
0.120562
-0.0955798
0.12947
-0.0118196
0.139884
0.0727219
0.149485
0.13623
0.156584
0.176562
0.159555
0.200701
0.157363
0.226592
0.151067
0.25141
0.144173
0.2531
0.140183
0.2079
0.140494
0.106993
0.14453
-0.00783218
0.149999
-0.118736
0.153645
-0.177689
0.152078
-0.221123
0.145723
-0.242065
0.138944
-0.2497
0.137021
-0.225279
0.140591
-0.113761
0.145953
-0.0259463
0.147886
0.131277
0.145872
0.208425
0.143314
0.289172
0.142576
0.31147
0.143555
0.163083
0.144096
0.127581
0.142533
-0.149977
-0.228767
-0.0456377
-0.0574304
-0.0436557
-0.0557186
-0.0399758
-0.0509461
-0.034422
-0.0430333
-0.0269294
-0.0317106
-0.0176126
-0.0169511
-0.00681388
0.00099416
0.00543942
0.0215318
0.0181731
0.0443054
0.0308411
0.0663906
0.0426097
0.0873474
0.0528129
0.106051
0.0611102
0.122023
0.067912
0.134845
0.0744886
0.143285
0.0824569
0.144588
0.0927417
0.135063
0.104799
0.112111
0.117142
0.075506
0.12847
0.02687
0.138131
-0.0292485
0.145597
-0.0845624
0.150295
-0.129018
0.152095
-0.156924
0.151334
-0.169646
0.148766
-0.172715
0.145263
-0.170957
0.140647
-0.167328
0.133541
-0.166422
0.1239
-0.171045
0.115031
-0.172923
0.111621
-0.153383
0.115583
-0.0995414
0.12516
-0.0213969
0.136921
0.0609607
0.148162
0.124989
0.156812
0.167912
0.161073
0.196441
0.160046
0.22762
0.154823
0.256633
0.148664
0.259259
0.144658
0.211906
0.144088
0.107562
0.146681
-0.0104254
0.150728
-0.122783
0.153564
-0.180525
0.151677
-0.219236
0.145225
-0.235613
0.138343
-0.242819
0.13654
-0.223476
0.140241
-0.117461
0.145741
-0.0314464
0.147843
0.129176
0.145919
0.210348
0.143496
0.291594
0.142848
0.312118
0.144176
0.161755
0.145043
0.126714
0.143544
-0.148478
-0.226882
-0.0375468
-0.0551979
-0.0385797
-0.0546858
-0.0379305
-0.0515953
-0.0353155
-0.0456483
-0.0304782
-0.0365479
-0.0233588
-0.0240705
-0.0139998
-0.00836489
-0.00310559
0.0106377
0.00962678
0.031573
0.0229423
0.0530751
0.0361134
0.0741763
0.0484406
0.0937236
0.059663
0.1108
0.0701696
0.124338
0.0808796
0.132575
0.0927023
0.132765
0.105747
0.122018
0.11898
0.0988785
0.130919
0.063567
0.140811
0.016978
0.148364
-0.0368021
0.153316
-0.0895139
0.155331
-0.131033
0.154647
-0.15624
0.151939
-0.166938
0.147944
-0.168721
0.143426
-0.166439
0.13839
-0.162291
0.131426
-0.159458
0.1218
-0.161419
0.112191
-0.163314
0.107639
-0.148832
0.110994
-0.102896
0.120884
-0.0312871
0.133773
0.0480721
0.14654
0.112222
0.156731
0.15772
0.162405
0.190767
0.162754
0.227271
0.158769
0.260618
0.153369
0.264659
0.149293
0.215982
0.147794
0.109062
0.148903
-0.0115342
0.151465
-0.125344
0.153472
-0.182533
0.151325
-0.217088
0.144845
-0.229133
0.137864
-0.235838
0.136111
-0.221723
0.139914
-0.121264
0.145591
-0.0371232
0.147914
0.126852
0.146081
0.212181
0.143765
0.293911
0.143219
0.312664
0.14493
0.160044
0.146159
0.125484
0.144725
-0.147043
-0.225003
-0.0167286
-0.0505835
-0.0206525
-0.0507618
-0.0231025
-0.0491453
-0.0237822
-0.0449686
-0.0223267
-0.0380034
-0.0182962
-0.0281009
-0.0117343
-0.0149268
-0.00289943
0.00180274
0.00855892
0.0201146
0.0214593
0.0401747
0.0351951
0.0604404
0.0490223
0.0798964
0.0626252
0.0971974
0.0761361
0.110827
0.0899719
0.118739
0.104387
0.11835
0.118931
0.107474
0.132381
0.0854288
0.143533
0.052415
0.151837
0.0086746
0.15741
-0.0423754
0.159963
-0.0920668
0.159426
-0.130496
0.156427
-0.153241
0.151977
-0.162488
0.146808
-0.163551
0.14148
-0.161111
0.13613
-0.156942
0.129519
-0.152847
0.120348
-0.152248
0.110379
-0.153345
0.10462
-0.143073
0.106923
-0.1052
0.116695
-0.0410584
0.130404
0.034363
0.144522
0.0981046
0.156217
0.146025
0.163419
0.183566
0.165338
0.225351
0.162734
0.263222
0.15813
0.269263
0.15395
0.220162
0.151496
0.111517
0.151137
-0.0111757
0.15218
-0.126387
0.153338
-0.183691
0.15098
-0.214731
0.144534
-0.222687
0.137451
-0.228755
0.135674
-0.219945
0.13956
-0.125151
0.145466
-0.0430292
0.148081
0.124237
0.146358
0.213904
0.144128
0.296141
0.143694
0.313098
0.145815
0.157923
0.14744
0.123859
0.146072
-0.145674
-0.223128
0.0150523
-0.0440381
0.00855438
-0.0442639
0.00286878
-0.0434597
-0.00118879
-0.0409111
-0.00301743
-0.0361748
-0.00256322
-0.0285551
0.000742728
-0.0182327
0.00777016
-0.00522469
0.0168934
0.0109915
0.0282076
0.0288605
0.0412351
0.047413
0.0553475
0.065784
0.0700949
0.08245
0.0852714
0.0956509
0.100788
0.103223
0.116365
0.102773
0.131211
0.0926273
0.144129
0.0725106
0.154219
0.0423253
0.161203
0.00169066
0.164979
-0.0461508
0.165299
-0.0923868
0.162409
-0.127606
0.157345
-0.148177
0.15139
-0.156533
0.145289
-0.157451
0.139359
-0.155181
0.133771
-0.151354
0.127616
-0.146692
0.119273
-0.143905
0.109439
-0.143512
0.102623
-0.136257
0.103535
-0.106111
0.112641
-0.0501644
0.126784
0.02022
0.142
0.0828879
0.155124
0.132901
0.163944
0.174746
0.167605
0.221691
0.166525
0.264302
0.162766
0.273022
0.158449
0.224478
0.155094
0.114872
0.153314
-0.00939611
0.152838
-0.125911
0.153122
-0.183975
0.150598
-0.212206
0.144247
-0.216337
0.137053
-0.221561
0.13517
-0.218062
0.139125
-0.129105
0.145323
-0.0492273
0.148321
0.121239
0.146747
0.215478
0.144596
0.298292
0.14428
0.313414
0.146826
0.155377
0.14888
0.121805
0.147574
-0.144369
-0.221254
0.0538878
-0.0368311
0.0467736
-0.0371497
0.0399076
-0.0365936
0.0337554
-0.0347589
0.0288501
-0.0312695
0.0260443
-0.0257494
0.0258634
-0.0180518
0.0285099
-0.00787116
0.0341743
0.005327
0.0426956
0.0203392
0.053759
0.0363496
0.0667979
0.0527451
0.0812474
0.0680005
0.0965993
0.080299
0.11234
0.087482
0.1278
0.087313
0.142018
0.078409
0.153935
0.0605934
0.162895
0.0333654
0.168674
-0.0040885
0.170836
-0.0483125
0.169123
-0.090674
0.164141
-0.122624
0.157315
-0.141351
0.15012
-0.149338
0.143317
-0.150648
0.136999
-0.148863
0.131248
-0.145603
0.125537
-0.140981
0.118254
-0.136622
0.109084
-0.134341
0.101582
-0.128756
0.100914
-0.105442
0.108847
-0.0580979
0.122912
0.00615537
0.138889
0.0669107
0.153311
0.118479
0.163798
0.164258
0.16935
0.216139
0.169939
0.263712
0.167094
0.275867
0.162659
0.228913
0.158453
0.119078
0.155358
-0.0063005
0.153397
-0.12395
0.152784
-0.183362
0.150128
-0.20955
0.143939
-0.210148
0.136631
-0.214253
0.134555
-0.215986
0.138553
-0.133103
0.145114
-0.0557885
0.148602
0.117751
0.147243
0.216837
0.145175
0.300359
0.144978
0.313611
0.147961
0.152394
0.150468
0.119299
0.149224
-0.143125
-0.219379
0.0910146
-0.0298815
0.0841609
-0.030296
0.0773346
-0.0297674
0.0706421
-0.0280663
0.0645242
-0.0251516
0.0596071
-0.0208323
0.0564648
-0.0149095
0.0556801
-0.00708643
0.0577716
0.00323549
0.0629092
0.0152015
0.071066
0.0281928
0.0818638
0.0419473
0.0947301
0.0551342
0.108961
0.0660686
0.123742
0.0727005
0.138143
0.0729116
0.151135
0.0654178
0.161825
0.0499035
0.169688
0.0255017
0.1743
-0.00870066
0.17491
-0.0489226
0.171315
-0.0870784
0.16452
-0.11583
0.156278
-0.133109
0.148136
-0.141195
0.140838
-0.14335
0.134323
-0.142349
0.128501
-0.139781
0.123155
-0.135634
0.116984
-0.130451
0.108922
-0.126279
0.101275
-0.121109
0.0990983
-0.103266
0.105427
-0.0644264
0.118834
-0.00725216
0.135143
0.0506016
0.150662
0.10296
0.162809
0.152111
0.170346
0.208602
0.172734
0.261325
0.170902
0.277699
0.166423
0.233392
0.161466
0.124035
0.157183
-0.00201766
0.153809
-0.120576
0.152277
-0.18183
0.149517
-0.206791
0.143567
-0.204198
0.136149
-0.206834
0.13379
-0.213628
0.137799
-0.137112
0.144778
-0.0627681
0.148889
0.11364
0.147833
0.217893
0.145869
0.302324
0.14579
0.31369
0.149215
0.148969
0.152195
0.116318
0.151007
-0.141937
-0.217503
0.120646
-0.0234787
0.114406
-0.0240555
0.108264
-0.0236258
0.102269
-0.022071
0.0966065
-0.0194891
0.0915702
-0.015796
0.0875545
-0.0108938
0.0851451
-0.00467705
0.0846443
0.00373631
0.0866755
0.0131704
0.0916118
0.0232564
0.0994144
0.0341448
0.109701
0.0448476
0.121772
0.0539973
0.134691
0.0597817
0.147385
0.0602178
0.158804
0.0539988
0.168136
0.0405712
0.1748
0.0188382
0.178115
-0.0120163
0.177097
-0.0479044
0.171741
-0.081722
0.163436
-0.107525
0.154144
-0.123817
0.145357
-0.132409
0.137748
-0.135741
0.131193
-0.135793
0.125415
-0.134003
0.120353
-0.130572
0.115192
-0.125291
0.108515
-0.119602
0.101315
-0.113909
0.0979834
-0.0999339
0.102478
-0.0689207
0.114611
-0.0193853
0.130772
0.0344402
0.147099
0.0866338
0.160818
0.138392
0.170428
0.198992
0.174768
0.256985
0.174042
0.278425
0.169606
0.237829
0.16402
0.129621
0.158703
0.00329908
0.154015
-0.115888
0.151544
-0.179359
0.148702
-0.203949
0.143084
-0.198579
0.135582
-0.199333
0.13285
-0.210895
0.136821
-0.141084
0.144261
-0.0702081
0.149139
0.108763
0.148503
0.218529
0.146677
0.30415
0.146717
0.313649
0.150582
0.145105
0.154051
0.112849
0.152913
-0.140799
-0.215627
0.140226
-0.0178596
0.134772
-0.0186022
0.129461
-0.0183141
0.124529
-0.0171389
0.120102
-0.015063
0.116226
-0.0119199
0.113015
-0.00768275
0.110703
-0.00236524
0.10958
0.00485926
0.110255
0.0124959
0.113003
0.0205085
0.118141
0.0290067
0.125584
0.0374042
0.134909
0.0446725
0.145334
0.0493564
0.155823
0.0497296
0.165333
0.0444885
0.173091
0.032813
0.178344
0.0135855
0.180075
-0.0137475
0.177276
-0.0451058
0.170296
-0.0747417
0.160815
-0.0980438
0.150834
-0.113836
0.141689
-0.123264
0.13393
-0.127982
0.127447
-0.12931
0.121839
-0.128394
0.117027
-0.12576
0.11269
-0.120953
0.107473
-0.114385
0.101244
-0.10768
0.0972837
-0.0959736
0.0999684
-0.0716054
0.110379
-0.0297957
0.125842
0.0189768
0.142604
0.0698723
0.157715
0.12328
0.169348
0.187359
0.175712
0.250621
0.176271
0.277866
0.172033
0.242066
0.166039
0.135616
0.159838
0.00949959
0.153985
-0.110034
0.150554
-0.175928
0.147633
-0.201027
0.142448
-0.193394
0.134925
-0.19181
0.131737
-0.207707
0.135587
-0.144933
0.143504
-0.0781259
0.149305
0.102962
0.149226
0.218608
0.147596
0.30578
0.147757
0.313488
0.152053
0.140809
0.15602
0.108882
0.154929
-0.139708
-0.213757
0.149339
-0.0132311
0.144723
-0.0139857
0.140256
-0.0138478
0.136352
-0.0132347
0.133117
-0.0118279
0.130566
-0.00936856
0.128787
-0.00590408
0.128071
-0.00164947
0.128127
0.00480369
0.128998
0.011625
0.131096
0.0184096
0.134873
0.0252304
0.140374
0.0319033
0.147385
0.0376609
0.155354
0.0413874
0.163483
0.0416006
0.170885
0.0370871
0.176765
0.0269328
0.180033
0.0103174
0.18006
-0.0137746
0.175541
-0.0405865
0.167276
-0.0664773
0.157068
-0.0878359
0.146792
-0.10356
0.137561
-0.114033
0.129784
-0.120205
0.123407
-0.122933
0.118022
-0.12301
0.113423
-0.121161
0.109642
-0.117173
0.105724
-0.110467
0.100782
-0.102737
0.0967521
-0.0919441
0.0978149
-0.0726682
0.106267
-0.0382476
0.120455
0.00478854
0.13718
0.0531475
0.153472
0.106988
0.16721
0.173621
0.175778
0.242053
0.177662
0.275982
0.173672
0.246057
0.16755
0.141737
0.160582
0.016468
0.153796
-0.103249
0.149386
-0.171519
0.146352
-0.197993
0.141665
-0.188707
0.134203
-0.184349
0.130509
-0.204013
0.134117
-0.148542
0.142448
-0.0864567
0.149331
0.0960797
0.149975
0.217963
0.148617
0.307138
0.148903
0.313202
0.153623
0.136088
0.158085
0.10442
0.157041
-0.138665
-0.211902
0.150789
-0.0100598
0.147071
-0.0102673
0.143555
-0.0103319
0.140472
-0.0101518
0.137966
-0.00932196
0.136208
-0.0076102
0.135252
-0.00494858
0.134967
-0.00136362
0.136028
0.0037422
0.13821
0.00944337
0.141278
0.0153417
0.145167
0.0213411
0.150024
0.0270467
0.155807
0.0318773
0.162194
0.0350006
0.16854
0.0352544
0.174098
0.0315297
0.178115
0.0229151
0.179942
0.00849113
0.177723
-0.0115562
0.171732
-0.0345955
0.162745
-0.0574899
0.152493
-0.0775844
0.142479
-0.0935454
0.13353
-0.105085
0.125919
-0.112593
0.119662
-0.116675
0.114476
-0.117824
0.110036
-0.116721
0.106523
-0.11366
0.103544
-0.107488
0.0999372
-0.099131
0.096302
-0.0883089
0.0961472
-0.0725134
0.10251
-0.0446105
0.114948
-0.00764909
0.13101
0.0370847
0.147754
0.0902451
0.163131
0.158243
0.17402
0.231165
0.177658
0.272344
0.174304
0.24941
0.168232
0.14781
0.161015
0.0236849
0.153392
-0.0956262
0.148103
-0.16623
0.144934
-0.194823
0.140758
-0.184531
0.133432
-0.177023
0.129228
-0.199809
0.13252
-0.151834
0.141137
-0.0950739
0.149176
0.0880408
0.150705
0.216435
0.149719
0.308124
0.150155
0.312767
0.155284
0.130959
0.160227
0.0994774
0.159248
-0.137686
-0.210045
0.183566
-0.00622362
-0.187402
0.180353
-0.00705456
0.177204
-0.00718263
0.173981
-0.00692828
0.170768
-0.00610944
0.167697
-0.0045395
0.16488
-0.00213091
0.162449
0.00106692
0.160864
0.00532713
0.160087
0.0102204
0.160092
0.0153367
0.161047
0.0203861
0.163146
0.0249476
0.16657
0.028454
0.171414
0.0301562
0.177543
0.029125
0.18457
0.0245033
0.191842
0.015643
0.198089
0.00224363
0.20212
-0.0155873
0.202898
-0.0353731
0.200393
-0.0549846
0.195296
-0.0724877
0.188515
-0.0867649
0.180853
-0.0974223
0.172871
-0.104611
0.164993
-0.108797
0.157423
-0.110253
0.150018
-0.109316
0.142925
-0.106567
0.136272
-0.100835
0.129159
-0.092018
0.120984
-0.0801338
0.113839
-0.0653685
0.11132
-0.0420911
0.11479
-0.0111194
0.121721
0.0301539
0.129241
0.082725
0.135741
0.151744
0.141105
0.225801
0.146412
0.267036
0.153303
0.24252
0.161512
0.139601
0.166538
0.0186585
0.166821
-0.0959085
0.163479
-0.162888
0.158612
-0.189956
0.151905
-0.177824
0.143016
-0.168134
0.135583
-0.192376
0.133504
-0.149755
0.135019
-0.0965884
0.136616
0.0864438
0.135241
0.217809
0.134029
0.309336
0.137262
0.309534
0.143917
0.124304
0.149475
0.0939198
0.147994
-0.136205
-0.206192
0.194057
-0.00348604
-0.196795
0.191336
-0.00433388
0.188706
-0.00455254
0.186069
-0.00429078
0.183505
-0.00354548
0.181171
-0.00220534
0.179213
-0.000173661
0.177689
0.00259116
0.176901
0.00611566
0.176942
0.0101793
0.177857
0.0144216
0.179715
0.018528
0.182578
0.0220843
0.18648
0.0245521
0.19137
0.0252663
0.197008
0.0234869
0.202943
0.0185685
0.208512
0.0100737
0.212901
-0.00214483
0.214923
-0.0176098
0.214184
-0.0346336
0.21075
-0.0515505
0.205153
-0.0668908
0.198111
-0.0797229
0.190332
-0.0896431
0.182323
-0.0966027
0.174423
-0.100897
0.166858
-0.102688
0.159497
-0.101955
0.152319
-0.0993896
0.145635
-0.0941512
0.139009
-0.0853913
0.131456
-0.0725814
0.124122
-0.0580337
0.120461
-0.03843
0.122561
-0.0132201
0.129033
0.0236822
0.136834
0.0749238
0.144268
0.14431
0.150876
0.219193
0.15761
0.260302
0.165764
0.234366
0.174637
0.130728
0.180117
0.0131783
0.179729
-0.0955201
0.175326
-0.158485
0.16951
-0.18414
0.162328
-0.170642
0.152915
-0.158721
0.144813
-0.184273
0.142083
-0.147026
0.143593
-0.0980991
0.145722
0.0843154
0.144758
0.218773
0.14386
0.310234
0.147506
0.305887
0.154718
0.117092
0.160738
0.0878994
0.158806
-0.134273
-0.20186
0.204736
-0.00127177
-0.206951
0.202383
-0.00198046