/*--------------------------------*- C++ -*----------------------------------*\
| =========                 |                                                 |
| \\      /  F ield         | OpenFOAM: The Open Source CFD Toolbox           |
|  \\    /   O peration     | Version:  2512                                  |
|   \\  /    A nd           | Website:  www.openfoam.com                      |
|    \\/     M anipulation  |                                                 |
\*---------------------------------------------------------------------------*/
FoamFile
{
    version     2.0;
    format      ascii;
    arch        "LSB;label=32;scalar=64";
    class       surfaceScalarField;
    location    "161.5";
    object      phi;
}
// * * * * * * * * * * * * * * * * * * * * * * * * * * * * * * * * * * * * * //

dimensions      [0 3 -1 0 0 0 0];

oriented        oriented;

internalField   nonuniform List<scalar> 
26232
(
5.74382e-05
0.000804786
-0.000862225
0.000345066
0.00122669
-0.00151431
0.0010131
0.000668925
-0.00133696
0.00222711
-0.000776342
-0.000437668
0.00415888
-0.00306092
0.00112915
0.00697646
-0.0061588
0.00334122
0.010832
-0.010049
0.00619351
0.015847
-0.0146984
0.00968338
0.0220965
-0.0200463
0.0137967
0.0295951
-0.0259962
0.0184976
0.0382873
-0.0324142
0.023722
0.0480457
-0.039136
0.0293775
0.058679
-0.0459804
0.0353471
0.0699463
-0.0527649
0.0414975
0.0815791
-0.0593228
0.0476901
0.0933041
-0.0655167
0.0537917
0.104867
-0.0712485
0.0596855
0.116052
-0.0764643
0.0652792
0.126697
-0.0811526
0.0705079
0.1367
-0.0853475
0.0753443
0.146018
-0.0890946
0.0797766
0.154676
-0.0925229
0.0838656
0.162691
-0.0956088
0.087593
-0.0987168
0.091417
0.169991
0.000132134
0.000672653
0.000663481
0.000695339
0.00176036
-0.00042795
0.0036013
-0.00261728
0.00636541
-0.00582503
0.0102162
-0.0100096
0.0152811
-0.0151139
0.0216288
-0.0210461
0.0292504
-0.0276679
0.0380478
-0.0347936
0.047835
-0.0422013
0.0583524
-0.0496534
0.069293
-0.056921
0.0803344
-0.0638063
0.0911726
-0.070161
0.101552
-0.0758957
0.111285
-0.0809819
0.120267
-0.0854468
0.128477
-0.0893623
0.135962
-0.0928324
0.142836
-0.0959682
0.14923
-0.0989172
0.155311
-0.10169
-0.104674
0.161268
0.000207738
0.000464915
0.00099456
-9.14828e-05
0.00254788
-0.00198128
0.00505711
-0.00512651
0.00869736
-0.00946528
0.0136037
-0.0149159
0.0198414
-0.0213516
0.0273804
-0.0285851
0.0360812
-0.0363688
0.0456999
-0.0444123
0.0559122
-0.0524136
0.0663524
-0.0600936
0.0766587
-0.0672273
0.0865169
-0.0736645
0.095693
-0.0793371
0.104053
-0.0842553
0.111564
-0.088493
0.118285
-0.092168
0.124342
-0.0954199
0.129901
-0.0983913
0.13514
-0.101207
0.140208
-0.103985
0.145265
-0.106746
-0.109756
0.150347
0.000292746
0.000172169
0.00136008
-0.00115882
0.00340699
-0.00402818
0.00662291
-0.00834243
0.0111554
-0.0139978
0.0170737
-0.0208341
0.0243342
-0.0286122
0.0327634
-0.0370143
0.0420652
-0.0456706
0.0518567
-0.0542038
0.0617217
-0.0622787
0.0712711
-0.0696429
0.0801932
-0.0761495
0.0882886
-0.0817598
0.0954801
-0.0865286
0.101803
-0.0905786
0.10738
-0.0940693
0.112381
-0.097169
0.116993
-0.100032
0.121387
-0.102785
0.125703
-0.105523
0.130033
-0.108316
0.134455
-0.111168
-0.114259
0.138959
0.000393635
-0.000221466
0.00177425
-0.00253944
0.00435112
-0.00660505
0.00829081
-0.0122821
0.0136771
-0.0193841
0.0204672
-0.0276242
0.028466
-0.0366109
0.0373351
-0.0458834
0.0466392
-0.0549746
0.0559161
-0.0634807
0.0647524
-0.0711149
0.0728417
-0.0777322
0.0800167
-0.0833245
0.0862494
-0.0879925
0.0916264
-0.0919057
0.0963088
-0.0952609
0.100488
-0.0982488
0.10435
-0.101031
0.10805
-0.103732
0.111702
-0.106437
0.115381
-0.109202
0.119128
-0.112062
0.122976
-0.115016
-0.118179
0.126895
0.000512816
-0.000734282
0.00223766
-0.00426429
0.00536396
-0.00973135
0.0100009
-0.0169191
0.016124
-0.0255071
0.0235359
-0.0350362
0.0318707
-0.0449457
0.0406473
-0.05466
0.0493579
-0.0636853
0.0575601
-0.0716829
0.0649448
-0.0784996
0.0713653
-0.0841528
0.0768277
-0.0887869
0.0814521
-0.092617
0.0854221
-0.0958756
0.0889361
-0.0987749
0.0921725
-0.101485
0.0952713
-0.10413
0.0983309
-0.106791
0.101413
-0.109519
0.104554
-0.112343
0.107769
-0.115278
0.111076
-0.118323
-0.121541
0.114438
0.000648139
-0.00138242
0.00273534
-0.00635149
0.00639782
-0.0133938
0.0116451
-0.0221664
0.0183017
-0.0321638
0.0259949
-0.0427293
0.034208
-0.0531588
0.042385
-0.062837
0.050043
-0.0713433
0.0568536
-0.0784935
0.062673
-0.084319
0.0675237
-0.0890034
0.0715442
-0.0928075
0.0749299
-0.0960027
0.0778814
-0.0988271
0.080571
-0.101465
0.083129
-0.104043
0.0856436
-0.106645
0.0881697
-0.109317
0.0907383
-0.112088
0.0933653
-0.11497
0.0960561
-0.117969
0.0988161
-0.121083
-0.12434
0.101615
0.000793598
-0.00217602
0.00323957
-0.00879746
0.0073817
-0.017536
0.0130877
-0.0278724
0.0200049
-0.039081
0.0275979
-0.0503222
0.0352612
-0.0608222
0.042456
-0.0700319
0.0488119
-0.0776991
0.0541649
-0.0838465
0.0585351
-0.0886892
0.0620674
-0.0925357
0.0649633
-0.0957034
0.0674256
-0.098465
0.0696245
-0.101026
0.0716857
-0.103526
0.0736926
-0.10605
0.0756957
-0.108648
0.0777238
-0.111345
0.0797917
-0.114156
0.0819057
-0.117084
0.0840673
-0.12013
0.0862773
-0.123293
-0.126576
0.0885135
0.000940498
-0.00311652
0.00371475
-0.0115717
0.00823441
-0.0220556
0.0141939
-0.0338318
0.0210647
-0.0459517
0.0281984
-0.0574559
0.0349851
-0.0676089
0.0409857
-0.0760325
0.0459888
-0.0827022
0.049991
-0.0878488
0.0531314
-0.0918296
0.0556139
-0.0950181
0.0576452
-0.0977347
0.059398
-0.100218
0.0609982
-0.102626
0.0625281
-0.105056
0.0640368
-0.107559
0.0655518
-0.110163
0.0670876
-0.112881
0.0686513
-0.115719
0.0702454
-0.118678
0.0718701
-0.121755
0.0735237
-0.124947
-0.128245
0.0751924
0.00107841
-0.00419493
0.00412246
-0.0146158
0.00887837
-0.0268115
0.0148557
-0.0398092
0.021383
-0.052479
0.027772
-0.063845
0.0334877
-0.0733246
0.0382388
-0.0807835
0.0419727
-0.0864361
0.0448074
-0.0906835
0.0469442
-0.0939664
0.0485954
-0.0966693
0.0499405
-0.0990798
0.0511104
-0.101388
0.05219
-0.103706
0.0532295
-0.106095
0.0542566
-0.108586
0.0552859
-0.111192
0.0563252
-0.113921
0.057378
-0.116772
0.0584453
-0.119745
0.0595263
-0.122836
0.0606184
-0.126039
-0.129341
0.0617146
0.00119681
-0.00539174
0.00442781
-0.0178468
0.0092528
-0.0316365
0.01501
-0.0455664
0.0209429
-0.0584119
0.0263993
-0.0693014
0.0309725
-0.0778977
0.0345273
-0.0843384
0.0371391
-0.0890479
0.0389969
-0.0925413
0.040318
-0.0952875
0.0412926
-0.097644
0.0420615
-0.0998487
0.0427161
-0.102042
0.0433104
-0.1043
0.0438736
-0.106658
0.0444213
-0.109133
0.0449617
-0.111733
0.0454992
-0.114458
0.0460359
-0.117309
0.0465718
-0.120281
0.0471057
-0.12337
0.0476338
-0.126567
-0.129861
0.0481535
0.00128898
-0.00668072
0.0046069
-0.0211647
0.00932346
-0.0363531
0.0146447
-0.0508877
0.0197989
-0.0635661
0.0242307
-0.0737332
0.0276815
-0.0813486
0.0301518
-0.0868087
0.031801
-0.090697
0.0328459
-0.0935862
0.0334894
-0.095931
0.0338869
-0.0980415
0.0341412
-0.100103
0.0343132
-0.102214
0.0344354
-0.104422
0.0345249
-0.106748
0.0345904
-0.109199
0.0346369
-0.111779
0.0346675
-0.114489
0.0346836
-0.117325
0.0346856
-0.120283
0.034672
-0.123356
0.034639
-0.126534
0.0345862
-0.129808
-0.000208094
-0.00250217
0.00271026
-0.000771057
-0.00624749
0.00681045
-0.00165072
-0.00906945
0.00994911
-0.0028062
-0.0111198
0.0122753
-0.00419347
-0.0125608
0.013948
-0.00576941
-0.0135571
0.015133
-0.00749544
-0.0142549
0.0159809
-0.00933927
-0.0147662
0.01661
-0.0112748
-0.0151623
0.0170978
-0.0132804
-0.0154751
0.0174807
-0.0153363
-0.0157029
0.0177589
-0.0174224
-0.0158188
0.0179049
-0.0195153
-0.0157783
0.0178711
-0.0215868
-0.0155253
0.0175968
-0.0236027
-0.0149967
0.0170126
-0.0255218
-0.0141254
0.0160444
-0.0272958
-0.0128421
0.0146162
-0.0288706
-0.0110781
0.0126528
-0.0301852
-0.00876816
0.0100828
-0.0311839
-0.00584572
0.00684438
-0.0317851
-0.00226801
0.00286922
-0.0319621
0.0018991
-0.00172212
-0.0316872
0.00677095
-0.00704581
0.0123291
-0.0310196
-0.0129967
-0.000304858
-0.00219731
-0.00107591
-0.00547643
-0.00222354
-0.00792182
-0.00367364
-0.00966967
-0.00536317
-0.0108712
-0.00724077
-0.0116795
-0.00926692
-0.0122288
-0.0114126
-0.0126205
-0.0136566
-0.0129183
-0.0159822
-0.0131495
-0.0183738
-0.0133113
-0.0208135
-0.0133791
-0.0232788
-0.0133129
-0.0257407
-0.0130634
-0.0281621
-0.0125754
-0.0304968
-0.0117906
-0.0326896
-0.0106493
-0.0346753
-0.00909238
-0.0363856
-0.00705785
-0.0377383
-0.00449302
-0.0386743
-0.00133205
-0.0391196
0.00234437
-0.0390476
0.00669896
0.0117608
-0.0384792
-0.000379763
-0.00181755
-0.00130603
-0.00455017
-0.00264461
-0.00658324
-0.00429238
-0.00802191
-0.00616913
-0.00899447
-0.00821478
-0.00963384
-0.0103863
-0.0100573
-0.0126536
-0.0103532
-0.0149952
-0.0105767
-0.0173934
-0.0107513
-0.0198304
-0.0108743
-0.022285
-0.0109245
-0.0247304
-0.0108675
-0.0271324
-0.0106614
-0.0294477
-0.0102601
-0.0316234
-0.00961495
-0.0335957
-0.00867695
-0.0352907
-0.00739747
-0.0366204
-0.00572807
-0.0374993
-0.00361416
-0.0378302
-0.00100111
-0.03755
0.00206408
-0.0365814
0.00573043
0.0100811
-0.0349017
-0.000428248
-0.0013893
-0.00145012
-0.00352829
-0.00289745
-0.00513592
-0.00464408
-0.00627528
-0.0065952
-0.00704334
-0.00868174
-0.0075473
-0.0108547
-0.00788431
-0.0130791
-0.00812879
-0.0153282
-0.00832762
-0.0175782
-0.0085013
-0.0198039
-0.00864862
-0.0219759
-0.00875247
-0.0240582
-0.00878513
-0.0260072
-0.00871251
-0.0277702
-0.00849708
-0.0292851
-0.00810007
-0.0304791
-0.00748292
-0.031268
-0.00660857
-0.0315543
-0.00544178
-0.0312206
-0.00394787
-0.0301346
-0.00208713
-0.0282452
0.000174695
-0.0254127
0.00289798
0.00612163
-0.0214533
-0.00044878
-0.000940522
-0.00150493
-0.00247214
-0.00297901
-0.00366185
-0.004729
-0.00452529
-0.00664865
-0.00512369
-0.00866011
-0.00553584
-0.0107067
-0.00583768
-0.0127459
-0.00608964
-0.0147423
-0.00633121
-0.0166626
-0.00658098
-0.0184712
-0.00684001
-0.0201274
-0.00709629
-0.0215836
-0.00732893
-0.0227845
-0.0075116
-0.0236665
-0.00761509
-0.0241572
-0.00760934
-0.0241751
-0.00746506
-0.0236284
-0.00715525
-0.0224138
-0.00665639
-0.0204131
-0.0059486
-0.0174884
-0.0050118
-0.0134978
-0.00381592
-0.00832492
-0.00227488
-0.000191796
-0.00201149
-0.000441718
-0.000498804
-0.00147218
-0.00144168
-0.00289358
-0.00224045
-0.00455526
-0.0028636
-0.00634269
-0.00333626
-0.00816976
-0.00370876
-0.00997103
-0.00403641
-0.0116941
-0.00436654
-0.0132931
-0.00473224
-0.014723
-0.00515109
-0.015936
-0.00562703
-0.0168789
-0.00615337
-0.017492
-0.00671585
-0.0177083
-0.00729528
-0.0174538
-0.00786959
-0.0166474
-0.00841571
-0.0152012
-0.0089113
-0.0130199
-0.00933656
-0.00999994
-0.00967632
-0.00602646
-0.00992208
-0.000965169
-0.0100731
0.00534492
-0.010126
0.0130969
-0.0100269
-0.00988617
0.0227913
-0.000408791
-9.00131e-05
-0.00135664
-0.000493831
-0.00264874
-0.00094834
-0.00413202
-0.00138032
-0.00568603
-0.00178225
-0.00721629
-0.00217851
-0.0086469
-0.0026058
-0.00991335
-0.00310009
-0.0109562
-0.00368937
-0.0117163
-0.00439101
-0.0121313
-0.00521205
-0.0121339
-0.00615074
-0.0116513
-0.00719845
-0.0106052
-0.00834139
-0.00891254
-0.00956225
-0.00648646
-0.0108418
-0.00323712
-0.0121606
0.00092755
-0.0135012
0.00610162
-0.0148504
0.0123811
-0.0162015
0.0198637
-0.0175558
0.0286911
-0.0189534
0.0388909
-0.0202267
-0.0222624
0.0512672
-0.000353097
0.000263084
-0.00116622
0.000319288
-0.00225588
0.000141322
-0.00347099
-0.000165212
-0.00468585
-0.00056738
-0.00579638
-0.00106798
-0.00671344
-0.00168873
-0.00735676
-0.00245677
-0.00764957
-0.00339656
-0.00751473
-0.00452586
-0.00687244
-0.00585434
-0.00563956
-0.00738361
-0.00373014
-0.00910787
-0.00105679
-0.0110147
0.00246748
-0.0130865
0.00692732
-0.0153016
0.0124033
-0.0176366
0.0189706
-0.0200685
0.0266976
-0.0225773
0.0356468
-0.0251507
0.0458579
-0.0277669
0.0574348
-0.0305303
0.070189
-0.0329809
-0.0369953
0.0849219
-0.000279271
0.000542355
-0.000913014
0.00095303
-0.00173437
0.000962674
-0.00259417
0.000694594
-0.00336156
0.000200011
-0.00392084
-0.000508711
-0.00416631
-0.00144326
-0.0039984
-0.00262469
-0.00332007
-0.00407489
-0.00203448
-0.00581145
-4.49677e-05
-0.00784385
0.0027437
-0.0101723
0.00642279
-0.012787
0.0110764
-0.0156684
0.0167783
-0.0187884
0.0235889
-0.0221122
0.0315535
-0.0256013
0.0407011
-0.0292161
0.0510434
-0.0329196
0.062578
-0.0366853
0.075273
-0.0404618
0.0891356
-0.044393
0.103949
-0.0477947
-0.0531183
0.120072
-0.000194254
0.000736609
-0.000615681
0.00137446
-0.00111284
0.00145984
-0.00153931
0.00112106
-0.00175716
0.000417857
-0.00163657
-0.000629295
-0.0010536
-0.00202623
0.000111082
-0.00378937
0.00197342
-0.00593722
0.00464432
-0.00848235
0.0082273
-0.0114268
0.0128139
-0.0147589
0.0184787
-0.0184518
0.0252746
-0.0224643
0.0332291
-0.0267429
0.0423425
-0.0312256
0.0525874
-0.0358462
0.0639108
-0.0405396
0.0762372
-0.0452461
0.0894702
-0.0499183
0.103505
-0.0544962
0.118193
-0.0590812
0.133481
-0.0630833
-0.0686344
0.148998
-0.000105706
0.000842315
-0.000295455
0.00156421
-0.000428683
0.00159307
-0.000359021
0.0010514
6.03921e-05
-1.55645e-06
0.000974306
-0.00154321
0.00252262
-0.00357454
0.0048398
-0.00610655
0.00805067
-0.00914809
0.012265
-0.0126967
0.0175703
-0.0167321
0.0240246
-0.0212133
0.0316506
-0.0260777
0.040431
-0.0312447
0.0503084
-0.0366203
0.0611877
-0.0421048
0.0729414
-0.0475998
0.0854177
-0.053016
0.0984494
-0.0582777
0.111862
-0.063331
0.125497
-0.0681314
0.139134
-0.0727177
0.152872
-0.0768217
-0.0815919
0.16583
-1.99094e-05
2.99824e-05
0.000286087
0.00089982
0.00202742
0.00382543
0.00644439
0.0100212
0.0146699
0.0204708
0.0274607
0.035625
0.0448944
0.0551473
0.066217
0.0779039
0.0899896
0.102253
0.114483
0.126496
0.138141
0.149289
0.160061
0.169886
-0.0279851
0.0244633
-0.0274978
-0.0245418
0.0370279
-0.0404713
-0.020678
0.0506659
-0.0545296
-0.016518
0.0648186
-0.0689786
-0.0120996
0.0788566
-0.083275
-0.00750227
0.0920237
-0.096621
-0.0025515
0.103399
-0.108349
0.00321357
0.111932
-0.117697
0.0103997
0.116413
-0.1236
0.0196495
0.115371
-0.124621
0.0312623
0.107305
-0.118918
0.0449091
0.0913157
-0.104963
0.0597195
0.0673214
-0.0821317
0.0746577
0.0360455
-0.0509837
0.0889905
-0.00141633
-0.0129165
0.102467
-0.0431278
0.029651
0.114546
-0.0851461
0.0730679
0.124475
-0.121382
0.111452
0.131474
-0.146921
0.139923
0.13525
-0.160866
0.157089
0.136293
-0.165821
0.164778
0.135324
-0.165226
0.166195
0.132232
-0.162957
0.166048
0.126384
-0.164009
0.169857
0.118531
-0.170166
0.178019
0.111796
-0.173113
0.179847
0.109839
-0.156309
0.158267
0.113998
-0.108333
0.104174
0.123032
-0.0353657
0.0263312
0.133841
0.0439786
-0.0547878
0.143731
0.111265
-0.121155
0.151079
0.157905
-0.165253
0.155673
0.183226
-0.18782
0.157215
0.194938
-0.19648
0.154753
0.206432
-0.203971
0.14839
0.224366
-0.218002
0.14073
0.236632
-0.228972
0.135527
0.212926
-0.207722
0.135105
0.143059
-0.142637
0.13911
0.0358779
-0.0398829
0.14557
-0.0675517
0.0610919
0.152058
-0.149944
0.143456
0.155854
-0.196144
0.192347
0.154358
-0.222499
0.223995
0.147692
-0.244875
0.251542
0.139597
-0.245569
0.253664
0.135392
-0.22239
0.226595
0.137246
-0.122248
0.120394
0.143638
-0.0225978
0.0162054
0.149072
0.0994718
-0.104906
0.149534
0.183565
-0.184027
0.145546
0.247605
-0.243616
0.141704
0.304042
-0.3002
0.141359
0.224404
-0.224059
0.144017
0.18207
-0.184729
0.145359
-0.00594639
0.00460433
0.144561
-0.124616
0.125414
0.142859
-0.22033
0.222032
0.14102
-0.369659
0.371498
-0.151608
0.153407
-0.0350973
0.0210814
-0.0309049
0.0328355
-0.0258935
0.0456545
-0.0201134
0.0590386
-0.0135045
0.0722476
-0.00618097
0.0847002
0.002232
0.0949856
0.0118913
0.102272
0.023033
0.105272
0.0358053
0.102599
0.0499735
0.0931372
0.0649038
0.0763854
0.0796571
0.0525681
0.0934903
0.0222123
0.105942
-0.0138678
0.116968
-0.0541544
0.126197
-0.0943752
0.133023
-0.128207
0.136982
-0.15088
0.138082
-0.161966
0.136919
-0.164658
0.134325
-0.162632
0.130301
-0.158933
0.123886
-0.157595
0.115138
-0.161417
0.106882
-0.164857
0.103426
-0.152853
0.107018
-0.111925
0.116577
-0.0449249
0.128789
0.0317662
0.140456
0.0995983
0.149725
0.148637
0.156077
0.176874
0.158968
0.192047
0.157556
0.207845
0.152241
0.22968
0.145547
0.243327
0.140772
0.217701
0.139925
0.143905
0.14277
0.0330329
0.14764
-0.0724214
0.15257
-0.154874
0.155342
-0.198916
0.153327
-0.220483
0.146384
-0.237933
0.138059
-0.237244
0.133928
-0.218259
0.136225
-0.124546
0.143123
-0.0294958
0.148959
0.0936359
0.149631
0.182893
0.145884
0.251352
0.142025
0.307901
0.1417
0.22473
0.144591
0.17918
0.146084
-0.0074401
0.145308
-0.12384
0.143461
-0.218482
0.141541
-0.36774
-0.149789
-0.0312248
0.0174045
-0.0264111
0.0280218
-0.0203747
0.039618
-0.0132336
0.0518975
-0.00491565
0.0639297
0.00504345
0.0747411
0.01618
0.0838491
0.0284917
0.0899608
0.0419927
0.0917706
0.0564682
0.0881231
0.0714196
0.0781857
0.0861147
0.0616903
0.0997694
0.0389135
0.111775
0.0102068
0.122019
-0.0241114
0.130488
-0.0626236
0.136861
-0.100748
0.140644
-0.13199
0.141697
-0.151933
0.140365
-0.160635
0.137327
-0.161619
0.133387
-0.158692
0.128683
-0.154228
0.122111
-0.151023
0.11298
-0.152287
0.103498
-0.155375
0.0983479
-0.147703
0.100879
-0.114456
0.11045
-0.054496
0.12368
0.0185362
0.136927
0.0863512
0.148069
0.137495
0.156199
0.168744
0.160556
0.18769
0.160426
0.207974
0.156395
0.233712
0.150748
0.248974
0.146315
0.222134
0.14492
0.1453
0.146464
0.0314882
0.149707
-0.075664
0.153036
-0.158203
0.154798
-0.200678
0.152385
-0.218071
0.145322
-0.23087
0.136854
-0.228776
0.132746
-0.214151
0.135365
-0.127165
0.142673
-0.0368041
0.148917
0.0873918
0.149852
0.181958
0.146369
0.254835
0.14247
0.3118
0.142137
0.225062
0.145286
0.176031
0.146959
-0.00911392
0.146196
-0.123077
0.14419
-0.216477
0.142192
-0.365741
-0.147971
-0.0175212
0.0134724
-0.0123499
0.0228505
-0.0058298
0.0330979
0.00255022
0.0435175
0.0125667
0.0539132
0.0237634
0.0635443
0.0361736
0.0714389
0.0496716
0.0764628
0.0639767
0.0774655
0.0786422
0.0734576
0.0930671
0.0637608
0.106568
0.0481895
0.118495
0.0269864
0.128508
0.000193959
0.136576
-0.0321794
0.142656
-0.0687041
0.146349
-0.104441
0.147269
-0.13291
0.145608
-0.150272
0.142093
-0.157119
0.137485
-0.157012
0.132452
-0.153658
0.127222
-0.148998
0.120801
-0.144602
0.111895
-0.143382
0.101715
-0.145195
0.0948418
-0.140829
0.0957272
-0.115342
0.104681
-0.06345
0.118493
0.00472459
0.133091
0.0717527
0.146018
0.124569
0.155926
0.158835
0.161867
0.181749
0.163244
0.206598
0.160694
0.236262
0.156164
0.253503
0.152006
0.226292
0.149913
0.147394
0.150135
0.0312658
0.151731
-0.0772602
0.153453
-0.159924
0.154205
-0.20143
0.151482
-0.215348
0.144438
-0.223826
0.135915
-0.220253
0.131772
-0.210007
0.134596
-0.129989
0.142243
-0.0444513
0.14892
0.0807151
0.150191
0.180686
0.147012
0.258014
0.143062
0.31575
0.142687
0.225438
0.146104
0.172614
0.147976
-0.0109862
0.147219
-0.122319
0.145044
-0.214302
0.142962
-0.363659
-0.146172
0.00273615
0.00872478
0.00855722
0.0170294
0.0158728
0.0257823
0.0245711
0.0348192
0.0346485
0.0438358
0.0460466
0.0521462
0.0586037
0.0588818
0.0720469
0.0630196
0.085957
0.0635555
0.0997898
0.0596248
0.112933
0.0506177
0.124795
0.0363274
0.134909
0.0168721
0.143147
-0.00804357
0.14936
-0.0383929
0.153283
-0.0726265
0.154417
-0.105576
0.152617
-0.13111
0.148488
-0.146143
0.14309
-0.151721
0.137254
-0.151177
0.131433
-0.147837
0.125829
-0.143395
0.119723
-0.138496
0.111534
-0.135192
0.101352
-0.135013
0.0930253
-0.132503
0.0918233
-0.11414
0.099452
-0.0710786
0.113282
-0.00910544
0.128909
0.0561258
0.143457
0.110021
0.155101
0.147191
0.162728
0.174122
0.16581
0.203516
0.164932
0.23714
0.161589
0.256846
0.157653
0.230228
0.154802
0.150244
0.153663
0.0324047
0.153658
-0.0772549
0.153792
-0.160058
0.153535
-0.201174
0.150571
-0.212384
0.143668
-0.216923
0.13517
-0.211755
0.130937
-0.205773
0.133854
-0.132906
0.141781
-0.052378
0.14893
0.0735657
0.150631
0.178986
0.147819
0.260826
0.143822
0.319747
0.143367
0.225893
0.14704
0.16894
0.149123
-0.013069
0.148369
-0.121565
0.146016
-0.211949
0.143843
-0.361486
-0.144407
0.0273039
0.00421216
0.0327667
0.0115666
0.0395487
0.0190003
0.0478274
0.0265405
0.0575043
0.0341589
0.0684105
0.0412401
0.0803344
0.0469578
0.0929429
0.0504111
0.105767
0.0507315
0.118251
0.0471407
0.129838
0.0390307
0.140075
0.0260901
0.148558
0.00838979
0.155336
-0.0148217
0.159986
-0.043043
0.161947
-0.0745874
0.160693
-0.104322
0.156434
-0.126851
0.150199
-0.139907
0.143276
-0.144798
0.136526
-0.144427
0.130202
-0.141513
0.124362
-0.137555
0.118606
-0.13274
0.111454
-0.12804
0.102001
-0.12556
0.0928332
-0.123335
0.0894158
-0.110722
0.0950697
-0.0767326
0.10811
-0.0221461
0.124361
0.0398754
0.140261
0.0941212
0.15354
0.133911
0.162919
0.164743
0.167873
0.198561
0.168832
0.236182
0.166778
0.258899
0.163089
0.233918
0.15943
0.153903
0.156947
0.0348872
0.155418
-0.0757259
0.154016
-0.158656
0.152751
-0.199908
0.149596
-0.209229
0.142939
-0.210265
0.13454
-0.203357
0.130164
-0.201397
0.133068
-0.135811
0.141223
-0.0605334
0.148901
0.065888
0.151144
0.176743
0.148786
0.263185
0.144764
0.323769
0.144187
0.22647
0.148088
0.16504
0.150386
-0.0153672
0.149636
-0.120815
0.147098
-0.20941
0.144822
-0.35921
-0.142694
0.0542335
0.00124588
0.0583368
0.00746328
0.0638266
0.0135106
0.0708982
0.0194689
0.0794111
0.025646
0.0891532
0.031498
0.099868
0.036243
0.111183
0.0390957
0.122619
0.0392955
0.133645
0.0361155
0.143753
0.0289222
0.152554
0.0172886
0.159826
0.00111871
0.165303
-0.0202995
0.168432
-0.0461721
0.168436
-0.0745913
0.164935
-0.100821
0.158541
-0.120456
0.150625
-0.131991
0.142573
-0.136746
0.135203
-0.137057
0.128625
-0.134935
0.122701
-0.131631
0.117238
-0.127277
0.111182
-0.121984
0.103065
-0.117443
0.0939304
-0.1142
0.0885959
-0.105388
0.0917256
-0.0798623
0.10325
-0.0336708
0.119487
0.0236386
0.136344
0.0772645
0.151079
0.119177
0.162213
0.153608
0.169165
0.191609
0.172122
0.233226
0.171487
0.259534
0.168122
0.237283
0.163695
0.15833
0.159857
0.0387256
0.156938
-0.0728077
0.154084
-0.155802
0.151814
-0.197638
0.148501
-0.205916
0.142181
-0.203945
0.133945
-0.195121
0.129377
-0.196829
0.132168
-0.138601
0.140503
-0.0688687
0.148774
0.0576173
0.15169
0.173826
0.149896
0.264979
0.145892
0.327772
0.145154
0.227209
0.149239
0.160954
0.15175
-0.0178785
0.151009
-0.120074
0.148279
-0.20668
0.145886
-0.356818
-0.141048
0.0851692
0.000998582
0.0869088
0.00572365
0.0902238
0.0101956
0.0951526
0.01454
0.101582
0.0192165
0.10935
0.0237299
0.1182
0.0273931
0.12774
0.0295555
0.137496
0.0295395
0.146955
0.0266564
0.155624
0.0202535
0.162996
0.00991655
0.169236
-0.00512082
0.173219
-0.0242831
0.1746
-0.0475523
0.172544
-0.0725354
0.166963
-0.0952401
0.158838
-0.112332
0.14973
-0.122883
0.140967
-0.127983
0.133243
-0.129334
0.126593
-0.128284
0.12073
-0.125767
0.115504
-0.122051
0.11038
-0.116861
0.103888
-0.110952
0.0956888
-0.106001
0.0891973
-0.0988963
0.08967
-0.080335
0.0989204
-0.0429212
0.114393
0.00816629
0.13168
0.0599776
0.147602
0.103254
0.160425
0.140785
0.16942
0.182614
0.174466
0.22818
0.175392
0.258609
0.172505
0.24017
0.16741
0.163425
0.162331
0.0438043
0.158136
-0.0686126
0.153945
-0.151611
0.150679
-0.194372
0.147224
-0.202461
0.141326
-0.198047
0.133316
-0.187111
0.12851
-0.192023
0.131089
-0.14118
0.139551
-0.0773314
0.148483
0.048686
0.152216
0.170093
0.15112
0.266075
0.147198
0.331694
0.146268
0.228138
0.150482
0.156741
0.153198
-0.0205946
0.152471
-0.119347
0.149543
-0.203751
0.147021
-0.354296
-0.139491
0.118176
0.00289457
0.117783
0.00611685
0.118863
0.00911538
0.121342
0.0120613
0.125265
0.0152936
0.130554
0.0184414
0.136995
0.0209514
0.144243
0.0223082
0.151876
0.0219064
0.159413
0.0191196
0.166357
0.0133089
0.172156
0.00411752
0.176561
-0.00952613
0.178795
-0.0265169
0.178133
-0.0468902
0.17399
-0.0683921
0.166633
-0.0878831
0.157283
-0.102983
0.14749
-0.113089
0.138407
-0.118901
0.130561
-0.121488
0.123956
-0.121679
0.118268
-0.12008
0.113279
-0.117061
0.108832
-0.112414
0.103899
-0.106018
0.0973093
-0.0994112
0.0907051
-0.0922921
0.0888965
-0.0785264
0.0953956
-0.0494204
0.109261
-0.00569952
0.126324
0.0429146
0.143051
0.0865276
0.157393
0.126443
0.168433
0.171574
0.175702
0.220911
0.17833
0.25598
0.176032
0.242468
0.170415
0.169042
0.16426
0.0499597
0.158915
-0.0632674
0.153526
-0.146222
0.149286
-0.190132
0.14569
-0.198865
0.140305
-0.192662
0.13259
-0.179396
0.127501
-0.186934
0.129776
-0.143455
0.138306
-0.0858614
0.147958
0.0390338
0.152658
0.165392
0.152418
0.266316
0.148661
0.335451
0.147523
0.229276
0.151802
0.152462
0.15471
-0.0235024
0.154006
-0.118643
0.150873
-0.200618
0.148209
-0.351632
-0.138047
0.146393
0.00549899
0.145062
0.00744803
0.144858
0.00931948
0.145644
0.0112752
0.147628
0.0133091
0.15079
0.0152797
0.154942
0.0168
0.159829
0.0174204
0.165125
0.016611
0.170404
0.0138408
0.175194
0.00851844
0.179115
0.000196625
0.181297
-0.0117079
0.18135
-0.0265706
0.178524
-0.0440638
0.172516
-0.0623846
0.163872
-0.0792387
0.153859
-0.0929694
0.143844
-0.103075
0.134755
-0.109812
0.126965
-0.113698
0.120478
-0.115192
0.115038
-0.114639
0.110348
-0.112371
0.106384
-0.10845
0.102697
-0.102332
0.0979824
-0.0946963
0.092288
-0.0865977
0.0891103
-0.0753487
0.0928481
-0.0531582
0.104295
-0.0171467
0.120411
0.0267989
0.137441
0.0694979
0.153031
0.110852
0.165974
0.158631
0.175418
0.211467
0.17988
0.251518
0.178445
0.243903
0.172554
0.174933
0.165536
0.0569779
0.159208
-0.0569398
0.15278
-0.139794
0.147602
-0.184955
0.14384
-0.195103
0.139054
-0.187876
0.131731
-0.172073
0.126326
-0.181529
0.128189
-0.145318
0.136706
-0.0943787
0.14713
0.02861
0.152943
0.15958
0.153724
0.265534
0.150246
0.33893
0.148904
0.230617
0.15318
0.148186
0.156266
-0.0265879
0.155592
-0.117969
0.152252
-0.197278
0.149437
-0.348818
-0.136745
0.163626
0.00770284
0.162387
0.00868641
0.161855
0.00985164
0.162029
0.0111014
0.163064
0.0122738
0.165004
0.0133398
0.167666
0.0141379
0.170848
0.0142389
0.174279
0.0131801
0.1776
0.0105197
0.180277
0.00584089
0.18203
-0.00155562
0.182248
-0.0119259
0.180295
-0.0246178
0.175704
-0.0394729
0.168444
-0.0551245
0.159207
-0.070002
0.149143
-0.0829048
0.139342
-0.0932742
0.130508
-0.100977
0.122914
-0.106105
0.116578
-0.108856
0.111358
-0.109419
0.106966
-0.107979
0.103329
-0.104813
0.100434
-0.0994371
0.0973777
-0.0916399
0.0932338
-0.0824539
0.0897679
-0.0718827
0.0911534
-0.0545437
0.0998236
-0.0258169
0.114158
0.0124649
0.130837
0.0528182
0.147346
0.0943439
0.162174
0.143803
0.173964
0.199677
0.18038
0.245101
0.179804
0.24448
0.173886
0.18085
0.166251
0.064613
0.159129
-0.0498171
0.151826
-0.132491
0.14576
-0.178889
0.141763
-0.191106
0.137597
-0.183709
0.130759
-0.165235
0.125033
-0.175804
0.126355
-0.146639
0.134714
-0.102738
0.145918
0.0174054
0.152994
0.152505
0.154986
0.263542
0.151908
0.342007
0.150392
0.232133
0.154595
0.143984
0.157847
-0.0298402
0.157211
-0.117333
0.153661
-0.193728
0.150697
-0.345854
-0.135619
0.168917
0.00867196
0.168128
0.00947528
0.167804
0.0101755
0.16804
0.0108658
0.168805
0.0115084
0.170112
0.0120328
0.171916
0.0123338
0.174042
0.0121133
0.176231
0.0109907
0.178202
0.00854849
0.179681
0.00436171
0.180016
-0.00188978
0.178629
-0.010539
0.175344
-0.0213329
0.16984
-0.0339689
0.162291
-0.047576
0.153366
-0.0610763
0.143966
-0.0735051
0.134881
-0.0841891
0.126619
-0.0927154
0.119405
-0.0988909
0.11328
-0.10273
0.108214
-0.104354
0.104027
-0.103792
0.100566
-0.101352
0.0979978
-0.096869
0.0960237
-0.0896657
0.0934827
-0.0799129
0.0905879
-0.0689879
0.0904362
-0.054392
0.0961497
-0.0315304
0.108053
0.000561429
0.123497
0.0373743
0.140022
0.0778184
0.15601
0.127816
0.169935
0.185752
0.178613
0.236424
0.179508
0.243585
0.174091
0.186267
0.166442
0.0722614
0.158618
-0.0419929
0.150672
-0.124545
0.143882
-0.172099
0.139589
-0.186813
0.135993
-0.180113
0.129697
-0.15894
0.123684
-0.169791
0.124375
-0.14733
0.132449
-0.110812
0.144338
0.00551661
0.152717
0.144126
0.156085
0.260173
0.153595
0.344497
0.151974
0.233755
0.156027
0.13993
0.159431
-0.033244
0.158833
-0.116734
0.155095
-0.189991
0.151982
-0.342741
-0.134694
0.189179
0.00989221
-0.190399
0.188496
0.0101583
0.188102
0.0105691
0.188019
0.0109488
0.188318
0.0112095
0.189068
0.0112831
0.190352
0.0110497
0.192197
0.0102684
0.194569
0.00861869
0.197332
0.00578504
0.200168
0.00152602
0.202874
-0.00459612
0.204907
-0.0125712
0.205846
-0.0222726
0.205241
-0.0333637
0.202884
-0.0452185
0.198866
-0.0570591
0.19349
-0.0681284
0.187121
-0.0778202
0.180113
-0.0857076
0.17278
-0.091558
0.165356
-0.0953055
0.158038
-0.0970354
0.150926
-0.0966804
0.143959
-0.0943846
0.137237
-0.0901469
0.130929
-0.0833582
0.124365
-0.0733485
0.116744
-0.0613678
0.109441
-0.0470886
0.105699
-0.0277884
0.107622
-0.0013612
0.113649
0.0313469
0.121289
0.0701781
0.128474
0.120631
0.135129
0.179098
0.14187
0.229682
0.150162
0.235293
0.160268
0.176162
0.168954
0.0635758
0.173275
-0.0463148
0.171601
-0.122871
0.165872
-0.16637
0.159308
-0.180249
0.152434
-0.173238
0.143843
-0.150349
0.135084
-0.161032
0.130881
-0.143126
0.131782
-0.111713
0.135276
0.00202258
0.13734
0.142063
0.137643
0.259869
0.137513
0.344627
0.140057
0.23121
0.147135
0.132853
0.152101
-0.0382103
0.15105
-0.115683
0.146497
-0.185438
0.140836
-0.33708
-0.131615
0.201451
0.0102794
-0.201838
0.201331
0.0102777
0.201477
0.0104235
0.201895
0.0105305
0.202621
0.0104839
0.203701
0.0102033
0.205173
0.00957708
0.207024
0.00841821
0.209156
0.00648629
0.211411
0.00353052
0.213635
-0.000698438
0.215456
-0.00641734
0.216535
-0.0136499
0.216536
-0.0222739
0.215183
-0.0320107
0.212352
-0.0423876
0.208103
-0.0528102
0.202642
-0.062667
0.196258
-0.0714366
0.18927
-0.0787188
0.181985
-0.0842733
0.174638
-0.0879582
0.167389
-0.0897873
0.160363
-0.0896535
0.15353
-0.0875521
0.146864
-0.083481
0.140629
-0.0771227
0.134633
-0.067353
0.127953
-0.0546874
0.120857
-0.0399926
0.115909
-0.0228408
0.115789
-0.00124143
0.120632
0.0265038
0.128101
0.0627093
0.136063
0.112669
0.143963
0.171198
0.152266
0.221379
0.162424
0.225135
0.173833
0.164753
0.183068
0.0543412
0.186926
-0.0501728
0.184376
-0.120321
0.177497
-0.159492
0.16993
-0.172681
0.162631
-0.16594
0.153809
-0.141527
0.144575
-0.151798
0.139638
-0.138189
0.140165
-0.112241
0.143903
-0.0017149
0.146589
0.139377
0.147798
0.25866
0.148402
0.344023
0.151178
0.228434
0.15852
0.12551
0.163539
-0.0432286
0.162167
-0.114312
0.156771