/*--------------------------------*- C++ -*----------------------------------*\
| =========                 |                                                 |
| \\      /  F ield         | OpenFOAM: The Open Source CFD Toolbox           |
|  \\    /   O peration     | Version:  2512                                  |
|   \\  /    A nd           | Website:  www.openfoam.com                      |
|    \\/     M anipulation  |                                                 |
\*---------------------------------------------------------------------------*/
FoamFile
{
    version     2.0;
    format      ascii;
    arch        "LSB;label=32;scalar=64";
    class       volVectorField;
    location    "161.5";
    object      U;
}
// * * * * * * * * * * * * * * * * * * * * * * * * * * * * * * * * * * * * * //

dimensions      [0 1 -1 0 0 0 0];

internalField   nonuniform List<vector> 
13248
(
(-0.0107422 0.0101542 7.64983e-20)
(-0.0162318 0.0178311 0)
(-0.00783388 0.0179527 -1.45501e-19)
(0.0131618 0.0134061 1.37065e-19)
(0.0461713 0.00634855 1.28866e-19)
(0.0908827 -0.00162534 0)
(0.146953 -0.00937018 0)
(0.213774 -0.0160639 3.1007e-19)
(0.290281 -0.0211168 -3.18973e-21)
(0.374842 -0.0241267 -2.67712e-19)
(0.465255 -0.0248655 2.41779e-19)
(0.558856 -0.0232775 -1.50715e-19)
(0.652708 -0.0194759 0)
(0.743853 -0.0137276 -2.37894e-19)
(0.829563 -0.00642362 4.36283e-19)
(0.907556 0.00196185 -1.02953e-19)
(0.97615 0.0109211 -1.68154e-19)
(1.03434 0.01995 1.57859e-19)
(1.08182 0.0286279 0)
(1.11887 0.0364859 0)
(1.1464 0.0435629 0)
(1.16524 0.0487486 0)
(1.17801 0.054116 4.04263e-20)
(1.18352 0.0546239 1.3822e-19)
(-0.00991068 0.00861537 -2.31115e-19)
(-0.0106518 0.0140778 1.5792e-19)
(0.00621107 0.0133667 -1.01665e-21)
(0.0389693 0.00894351 -2.09209e-19)
(0.0866368 0.00281647 -1.28723e-19)
(0.148402 -0.00342616 -1.21546e-19)
(0.223198 -0.00863185 -2.23336e-19)
(0.309421 -0.0120078 2.10697e-19)
(0.404757 -0.0130672 0)
(0.506164 -0.0116069 2.17303e-21)
(0.610036 -0.00769115 4.50738e-21)
(0.712508 -0.00162153 1.50251e-19)
(0.809829 0.0061144 0)
(0.898734 0.0149134 0)
(0.976727 0.0241357 1.57114e-19)
(1.04226 0.0331797 -2.94751e-19)
(1.09476 0.0415427 1.66543e-19)
(1.13458 0.0488565 -1.56358e-19)
(1.16284 0.05491 -6.66247e-20)
(1.18119 0.0595987 -1.14735e-19)
(1.19151 0.0630683 -4.52587e-20)
(1.19601 0.0650249 -8.31659e-20)
(1.19613 0.0669546 1.26777e-19)
(1.19373 0.0649117 3.56065e-20)
(-0.00790163 0.00647943 0)
(-0.00129367 0.00877744 0)
(0.026738 0.00680528 7.40375e-20)
(0.074012 0.00262622 6.84828e-20)
(0.138971 -0.00193187 -1.45566e-21)
(0.219972 -0.00536366 -1.24464e-19)
(0.314741 -0.00664407 0)
(0.420114 -0.00520486 -1.04512e-19)
(0.53202 -0.000901436 9.68534e-20)
(0.645721 0.00602258 6.68571e-23)
(0.756268 0.0150037 -1.61805e-19)
(0.859052 0.0252659 -1.442e-19)
(0.950318 0.0359502 5.51846e-21)
(1.02751 0.0462439 -1.10968e-19)
(1.08943 0.0554839 2.72424e-19)
(1.13621 0.063221 0)
(1.16904 0.0692399 -1.642e-19)
(1.18995 0.0735349 8.00559e-20)
(1.20135 0.0762734 6.65657e-20)
(1.20574 0.0776837 0)
(1.20547 0.0781599 5.18266e-20)
(1.20242 0.0776469 -1.76618e-19)
(1.19787 0.0773525 1.65795e-19)
(1.19347 0.0742777 1.01454e-19)
(-0.00448646 0.0039735 -8.13769e-20)
(0.0125762 0.00266394 -8.39843e-20)
(0.0549467 -0.000451126 7.63519e-20)
(0.119752 -0.00373935 0)
(0.204498 -0.00563312 0)
(0.306168 -0.00485796 -1.84749e-21)
(0.420643 -0.000748671 0)
(0.542655 0.00674626 -3.14832e-19)
(0.666128 0.0171367 2.90814e-19)
(0.78485 0.0295159 -3.56967e-19)
(0.893255 0.0427459 8.07145e-20)
(0.987097 0.0556686 0)
(1.06387 0.0672956 1.28216e-19)
(1.12288 0.0769367 -2.35088e-19)
(1.16506 0.0842517 5.57589e-20)
(1.19255 0.0892285 1.35484e-19)
(1.20817 0.0921081 -9.48436e-21)
(1.21496 0.0932829 -1.49714e-19)
(1.21574 0.0931948 0)
(1.21286 0.0922455 0)
(1.20806 0.0908097 -5.01046e-20)
(1.2025 0.0888955 4.42503e-20)
(1.19688 0.0874306 1.53397e-19)
(1.19153 0.0836075 -1.44014e-19)
(0.000653243 0.00128932 -8.51664e-20)
(0.0317483 -0.00353067 -8.50123e-20)
(0.0918907 -0.00706155 2.39332e-19)
(0.177125 -0.00824941 -1.45576e-19)
(0.283436 -0.005972 1.37027e-19)
(0.405724 0.000551278 2.49137e-19)
(0.537414 0.0112874 -1.75383e-19)
(0.670891 0.0254356 -2.10909e-19)
(0.798438 0.0416469 5.83496e-21)
(0.913328 0.0583235 2.685e-19)
(1.01073 0.0739394 0)
(1.08818 0.0873042 7.16348e-20)
(1.14554 0.0977119 0)
(1.18458 0.104961 -1.12516e-19)
(1.20832 0.109268 1.57582e-19)
(1.22032 0.111124 1.07382e-21)
(1.22405 0.111133 -3.99369e-20)
(1.2225 0.109883 7.25175e-20)
(1.21795 0.10786 6.25072e-20)
(1.21197 0.105413 -5.5239e-20)
(1.20553 0.102778 5.00923e-20)
(1.19915 0.0999699 -4.42391e-20)
(1.19305 0.0975139 0)
(1.18751 0.0932591 -3.3569e-20)
(0.00788408 -0.00136698 8.51543e-20)
(0.0569442 -0.00902437 8.89777e-20)
(0.138231 -0.0116417 -8.00825e-20)
(0.246161 -0.00904105 1.48915e-19)
(0.37445 -0.000878713 -1.40162e-19)
(0.515221 0.0127384 1.26416e-19)
(0.659164 0.0306896 -6.05767e-20)
(0.796749 0.0510772 1.58564e-19)
(0.919763 0.0717056 -9.92471e-20)
(1.02253 0.0905647 1.72846e-19)
(1.10248 0.106192 -3.96612e-19)
(1.15996 0.117842 1.44792e-19)
(1.19756 0.125455 -1.23771e-19)
(1.21912 0.129484 1.16259e-19)
(1.22886 0.130669 9.76447e-20)
(1.23064 0.129816 8.37386e-20)
(1.22757 0.127645 -2.33228e-19)
(1.22189 0.124711 1.43789e-19)
(1.21506 0.121393 -6.25088e-20)
(1.20795 0.117917 1.60958e-19)
(1.201 0.114405 -5.20205e-20)
(1.19442 0.110873 -1.24084e-19)
(1.18828 0.107593 1.14123e-19)
(1.18261 0.103038 3.35584e-20)
(0.0175522 -0.00372877 0)
(0.0886519 -0.0129373 5.60282e-22)
(0.193999 -0.0127868 1.65972e-19)
(0.325729 -0.00442896 -1.55857e-19)
(0.474546 0.0112144 -1.40369e-19)
(0.62941 0.0326821 2.60568e-19)
(0.778681 0.0574714 -1.20858e-19)
(0.912171 0.0826138 1.59935e-19)
(1.02289 0.105424 -4.11098e-21)
(1.10783 0.124026 -8.98447e-20)
(1.16764 0.137556 1.93136e-19)
(1.20563 0.146066 -2.83749e-19)
(1.22645 0.150246 0)
(1.23499 0.15109 -5.43905e-20)
(1.23552 0.149617 -1.4302e-19)
(1.23136 0.146689 4.52913e-20)
(1.22478 0.142946 2.13703e-21)
(1.21723 0.138808 -9.44606e-20)
(1.20951 0.134525 7.35301e-21)
(1.20203 0.130228 1.08576e-19)
(1.19498 0.125978 -4.72384e-20)
(1.18839 0.121799 -1.77131e-20)
(1.18223 0.117767 5.54038e-20)
(1.17649 0.112962 0)
(0.029908 -0.00544566 0)
(0.126965 -0.0142798 4.49511e-20)
(0.258416 -0.00911866 -2.15684e-19)
(0.413478 0.00696701 7.83549e-20)
(0.579348 0.0312077 -7.37449e-20)
(0.742095 0.0603935 -6.6991e-20)
(0.888995 0.0906275 -1.18168e-19)
(1.01104 0.118272 5.92093e-20)
(1.1042 0.140786 5.13187e-20)
(1.16906 0.157024 0)
(1.20952 0.167081 1.14246e-19)
(1.23108 0.171874 -1.68584e-19)
(1.23936 0.172676 1.25248e-19)
(1.23921 0.170755 5.44183e-20)
(1.23424 0.167155 -4.37788e-20)
(1.22691 0.16263 -3.57132e-20)
(1.21868 0.157667 -3.2884e-20)
(1.21038 0.152552 1.00232e-19)
(1.20239 0.147436 0)
(1.19488 0.142393 4.893e-20)
(1.18788 0.137453 4.02757e-20)
(1.18136 0.132631 -1.0095e-19)
(1.17525 0.127897 -6.77467e-20)
(1.16948 0.12285 6.27408e-20)
(0.0450401 -0.00609039 -4.80642e-20)
(0.17146 -0.0120007 -1.55266e-21)
(0.329832 0.00060893 4.37551e-20)
(0.505999 0.0260817 1.21715e-19)
(0.683727 0.0592593 3.51517e-20)
(0.847292 0.0950561 -6.80329e-20)
(0.984781 0.128574 6.22468e-20)
(1.09023 0.156215 -5.44391e-20)
(1.1636 0.176265 9.68381e-20)
(1.20913 0.188717 4.08614e-20)
(1.23315 0.194687 -1.15886e-19)
(1.24222 0.195772 3.39023e-20)
(1.24193 0.193553 5.71476e-20)
(1.2364 0.189322 -2.82402e-20)
(1.22838 0.183995 0)
(1.21947 0.178158 4.09865e-20)
(1.21055 0.172148 6.84679e-20)
(1.20201 0.166144 1.10618e-20)
(1.19401 0.160234 -5.65365e-20)
(1.18658 0.154458 2.3347e-20)
(1.17969 0.148832 0)
(1.17327 0.143352 -1.80051e-20)
(1.16723 0.13796 -1.6792e-20)
(1.16147 0.132626 0)
(0.0628215 -0.00519299 0)
(0.221126 -0.00508913 2.51274e-20)
(0.405777 0.0173645 4.63797e-20)
(0.5992 0.0532873 -1.23637e-19)
(0.782573 0.0948256 3.98137e-20)
(0.940209 0.135314 0)
(1.06303 0.169613 5.95076e-20)
(1.14939 0.194967 -8.29585e-20)
(1.2034 0.210987 -4.82375e-20)
(1.23218 0.218914 2.17785e-20)
(1.24339 0.22071 -3.41527e-20)
(1.24365 0.218368 8.32901e-20)
(1.23786 0.213521 4.1159e-20)
(1.22923 0.207324 -2.89298e-20)
(1.21963 0.200508 -3.02357e-21)
(1.21003 0.193486 -7.68922e-20)
(1.20088 0.186478 3.48633e-20)
(1.19234 0.17959 -8.51337e-22)
(1.18446 0.172872 0)
(1.17719 0.166345 -2.33713e-20)
(1.17046 0.160015 0)
(1.16418 0.153857 5.18125e-20)
(1.15826 0.147845 -6.13442e-20)
(1.15256 0.142147 2.78234e-20)
(0.0828776 -0.0022874 -1.2965e-20)
(0.274373 0.00730737 -6.29198e-20)
(0.48315 0.0417062 7.14019e-20)
(0.688781 0.0883494 4.19253e-20)
(0.871474 0.136808 -2.00927e-20)
(1.01772 0.179588 3.35022e-20)
(1.12286 0.212246 -1.63323e-20)
(1.19 0.23353 2.70269e-20)
(1.22676 0.244588 0)
(1.24208 0.247766 6.05363e-20)
(1.24395 0.245586 -2.67625e-21)
(1.23836 0.240163 -4.85022e-20)
(1.22926 0.233005 2.06003e-20)
(1.21896 0.225059 -2.30053e-20)
(1.20863 0.21686 -8.55182e-21)
(1.19881 0.208687 1.00878e-20)
(1.18969 0.20067 -7.65133e-21)
(1.1813 0.192871 -4.11141e-20)
(1.17362 0.185316 2.51591e-20)
(1.16658 0.178017 5.07839e-21)
(1.16007 0.170962 4.43189e-21)
(1.15399 0.164119 3.86829e-21)
(1.14823 0.157525 0)
(1.14264 0.151361 0)
(0.10465 0.00305015 1.2974e-20)
(0.329244 0.0257916 -1.29835e-20)
(0.558656 0.0736984 -2.3749e-20)
(0.770859 0.130468 0)
(0.947213 0.183766 -9.94316e-21)
(1.07833 0.226337 -8.88883e-21)
(1.16483 0.255317 -1.52003e-20)
(1.21418 0.271334 0)
(1.23657 0.277016 0)
(1.2417 0.275536 0)
(1.2371 0.269678 0)
(1.22785 0.261474 0)
(1.21692 0.252212 -1.2887e-20)
(1.20585 0.242618 5.85482e-21)
(1.19531 0.23306 1.00891e-20)
(1.18556 0.22371 4.70126e-21)
(1.17664 0.214644 1.15039e-20)
(1.16853 0.205891 0)
(1.16116 0.197464 -2.69566e-21)
(1.15443 0.189362 -2.55562e-21)
(1.14823 0.181562 -4.43894e-21)
(1.14244 0.174037 -3.87446e-21)
(1.13695 0.16689 0)
(1.1316 0.160152 2.70931e-21)
(0.00034965 -0.0455271 9.15993e-21)
(-0.00240583 -0.110737 -9.50461e-21)
(-0.0105927 -0.156619 -1.79856e-20)
(-0.0222454 -0.187115 0)
(-0.0359794 -0.205973 -2.41475e-20)
(-0.0508738 -0.21663 7.63841e-21)
(-0.0662014 -0.221917 -1.42973e-20)
(-0.0814231 -0.223898 0)
(-0.0961775 -0.223855 0)
(-0.110236 -0.222401 0)
(-0.123451 -0.219636 0)
(-0.135716 -0.215322 0)
(-0.146936 -0.209029 2.89429e-22)
(-0.157006 -0.200235 -9.86683e-21)
(-0.165804 -0.188403 1.82416e-20)
(-0.173186 -0.17302 2.61679e-20)
(-0.178993 -0.15363 7.81899e-21)
(-0.183051 -0.129868 0)
(-0.185195 -0.101488 7.54714e-21)
(-0.185266 -0.0684021 -2.04951e-20)
(-0.183088 -0.0307124 -1.25084e-20)
(-0.178537 0.0113015 -1.16185e-20)
(-0.171682 0.0572044 0)
(-0.163609 0.106184 0)
(0.00229865 -0.0409288 -2.73031e-20)
(0.00117308 -0.0994538 4.72445e-20)
(-0.00760792 -0.140647 -1.75075e-20)
(-0.0209229 -0.167998 -3.36198e-20)
(-0.0367585 -0.184948 4.76792e-20)
(-0.0538883 -0.194665 -2.9962e-20)
(-0.071424 -0.199733 4.24779e-20)
(-0.0887628 -0.201996 2.6348e-20)
(-0.105545 -0.202577 0)
(-0.121575 -0.201984 -2.41945e-20)
(-0.136755 -0.200269 -1.74134e-22)
(-0.151024 -0.19719 2.14743e-20)
(-0.164325 -0.19234 2.96817e-20)
(-0.176582 -0.18524 3.75677e-20)
(-0.187689 -0.175403 -1.81925e-20)
(-0.197506 -0.162363 -5.03638e-20)
(-0.205862 -0.145707 1.48304e-20)
(-0.212561 -0.125089 -5.68752e-20)
(-0.217398 -0.10025 0)
(-0.22018 -0.0710497 1.33961e-20)
(-0.220717 -0.0374993 1.2495e-20)
(-0.21865 0.000268096 1.16059e-20)
(-0.213991 0.0421335 0)
(-0.209174 0.087734 0)
(0.00353145 -0.0347982 0)
(0.00337262 -0.0851226 9.19314e-20)
(-0.00591108 -0.12113 -3.47579e-20)
(-0.0203317 -0.145413 3.3246e-20)
(-0.0374097 -0.160806 -9.29043e-20)
(-0.0556942 -0.170023 0)
(-0.074179 -0.175281 -5.52815e-20)
(-0.0922116 -0.178163 2.5672e-20)
(-0.109426 -0.179617 -4.84462e-20)
(-0.125645 -0.180062 2.20993e-20)
(-0.140793 -0.17952 1.29124e-19)
(-0.154835 -0.177764 -6.05591e-20)
(-0.167736 -0.174428 -9.53037e-20)
(-0.179441 -0.169089 -3.42161e-20)
(-0.189859 -0.161316 5.77186e-22)
(-0.198865 -0.150706 1.2309e-19)
(-0.206294 -0.136893 -5.7456e-20)
(-0.211941 -0.119568 2.54372e-21)
(-0.215588 -0.0984795 0)
(-0.217045 -0.0734437 -4.17695e-20)
(-0.216089 -0.0443479 0)
(-0.212216 -0.0110988 -3.80633e-20)
(-0.205049 0.0262725 1.32556e-19)
(-0.197963 0.0675833 -2.04705e-21)
(0.00389184 -0.027645 0)
(0.00394008 -0.0688208 -4.98159e-22)
(-0.00572108 -0.099404 3.4104e-20)
(-0.0206224 -0.120779 -3.22064e-20)
(-0.0380268 -0.134959 3.0719e-20)
(-0.05636 -0.144068 1.72489e-19)
(-0.0745475 -0.149891 -5.42246e-20)
(-0.0919025 -0.153714 -5.0622e-20)
(-0.108046 -0.156308 9.58856e-20)
(-0.122798 -0.158008 -1.34976e-19)
(-0.136084 -0.158818 4.15288e-20)
(-0.147872 -0.158533 3.85885e-20)
(-0.158131 -0.15683 0)
(-0.166815 -0.153342 3.46373e-20)
(-0.173845 -0.147697 0)
(-0.17911 -0.139547 5.57364e-20)
(-0.182465 -0.128583 -1.03635e-19)
(-0.183726 -0.114542 2.82596e-20)
(-0.182672 -0.0972054 8.84124e-20)
(-0.179083 -0.0763857 4.17315e-20)
(-0.172716 -0.0518773 0)
(-0.163156 -0.0234683 -9.4315e-20)
(-0.149298 0.00906392 3.14295e-20)
(-0.133553 0.0458147 0)
(0.00333347 -0.0200216 0)
(0.00281955 -0.0516671 -1.07666e-19)
(-0.00706261 -0.0767953 -3.41213e-20)
(-0.0217869 -0.0954411 -6.41311e-20)
(-0.038586 -0.108689 6.03921e-20)
(-0.055871 -0.118002 -5.72569e-20)
(-0.0725543 -0.124695 1.06922e-19)
(-0.0879353 -0.129744 5.029e-20)
(-0.101621 -0.133742 -1.41727e-19)
(-0.113417 -0.136942 8.75179e-20)
(-0.123234 -0.139332 -1.23055e-19)
(-0.131031 -0.140727 2.64007e-19)
(-0.136774 -0.140845 -1.41733e-19)
(-0.140417 -0.139364 6.36994e-20)
(-0.141891 -0.135958 1.75024e-19)
(-0.141104 -0.130328 -5.92666e-20)
(-0.13794 -0.122209 -5.14119e-20)
(-0.132251 -0.111389 -4.74113e-20)
(-0.123855 -0.0976992 0)
(-0.112552 -0.0810108 -6.75415e-20)
(-0.0982027 -0.0611885 -5.49491e-20)
(-0.0806835 -0.0379974 8.58866e-20)
(-0.0586635 -0.0105502 9.20384e-20)
(-0.0293562 0.0232666 -8.33244e-20)
(0.0019254 -0.0124686 0)
(0.000168239 -0.0347373 -1.4245e-19)
(-0.00972875 -0.0545538 -2.1821e-22)
(-0.0235864 -0.0706352 1.2725e-19)
(-0.0388228 -0.0831307 0)
(-0.0539393 -0.0928314 0)
(-0.0678903 -0.100575 0)
(-0.0799857 -0.107026 -4.95544e-20)
(-0.0898231 -0.1126 6.90669e-22)
(-0.0971891 -0.117465 8.70878e-20)
(-0.101977 -0.12159 -1.20168e-19)
(-0.104132 -0.124802 9.15561e-22)
(-0.103616 -0.126851 0)
(-0.100391 -0.127447 -6.36721e-20)
(-0.0944089 -0.126301 5.37524e-20)
(-0.0856132 -0.12314 -1.55726e-19)
(-0.0739327 -0.117735 1.82895e-19)
(-0.0592805 -0.109906 3.25613e-20)
(-0.0415442 -0.0995363 -9.56178e-21)
(-0.0205853 -0.0865765 -1.3169e-19)
(0.00371706 -0.0710317 -5.30554e-20)
(0.0315247 -0.0527961 1.60623e-19)
(0.0640029 -0.0308491 -1.01392e-19)
(0.105196 -0.00234027 0)
(-0.000156723 -0.00547785 6.86108e-20)
(-0.00364985 -0.0190117 7.11301e-20)
(-0.0132664 -0.0338157 -6.76313e-20)
(-0.0255058 -0.0474729 -1.27493e-19)
(-0.0381497 -0.0592821 1.20056e-19)
(-0.049876 -0.069398 -1.12848e-19)
(-0.0597271 -0.0782012 1.59285e-19)
(-0.0670434 -0.0860535 -4.92107e-20)
(-0.0714178 -0.0931916 9.29786e-20)
(-0.0726164 -0.0996932 0)
(-0.0705111 -0.105493 7.78535e-20)
(-0.0650345 -0.110418 -1.47778e-19)
(-0.0561524 -0.114233 1.32666e-19)
(-0.04385 -0.116667 -1.24604e-19)
(-0.0281256 -0.117447 0)
(-0.0089881 -0.116323 1.00027e-19)
(0.0135461 -0.113078 1.71e-19)
(0.0394575 -0.107558 -1.6183e-19)
(0.0687323 -0.0996763 -6.75732e-20)
(0.101371 -0.0894362 -5.55196e-20)
(0.137355 -0.0769498 1.60023e-19)
(0.176874 -0.062381 3.72561e-20)
(0.218802 -0.0456826 -3.91269e-20)
(0.27713 -0.0238611 2.99576e-20)
(-0.00265095 0.000537629 -6.86201e-20)
(-0.00809557 -0.00533115 2.15531e-19)
(-0.0170033 -0.015576 -6.76658e-20)
(-0.0267718 -0.026946 1.28109e-19)
(-0.0356667 -0.0380408 -1.20635e-19)
(-0.0426004 -0.0484536 6.18754e-22)
(-0.0467328 -0.0581486 5.34628e-20)
(-0.0474473 -0.0672008 1.98572e-19)
(-0.0443344 -0.0756659 -1.96935e-21)
(-0.0371396 -0.083519 -8.70028e-20)
(-0.0257182 -0.0906428 0)
(-0.010005 -0.0968445 -7.10161e-20)
(0.010003 -0.101881 1.35557e-19)
(0.034254 -0.105485 1.18967e-19)
(0.0626453 -0.10739 -5.71482e-20)
(0.0950278 -0.107355 -6.0531e-22)
(0.131212 -0.105181 -4.38809e-20)
(0.170978 -0.100736 7.59684e-20)
(0.214087 -0.0939656 6.75499e-20)
(0.260321 -0.0849029 -5.84616e-20)
(0.309197 -0.0737625 4.91416e-20)
(0.362056 -0.0604642 -4.18496e-20)
(0.411099 -0.0465067 0)
(0.48901 -0.0278727 -2.99073e-20)
(-0.00523956 0.00527168 6.97762e-20)
(-0.0125043 0.00563932 -7.2012e-20)
(-0.0201045 -0.000673752 6.89354e-20)
(-0.0264237 -0.00993603 0)
(-0.030258 -0.0202424 0)
(-0.0307816 -0.0307324 1.15164e-19)
(-0.0272911 -0.0410102 -1.07395e-19)
(-0.0192252 -0.0508862 9.9519e-20)
(-0.00618706 -0.0602362 -4.66319e-19)
(0.0120737 -0.0689213 1.10808e-21)
(0.0356765 -0.0767538 8.0015e-20)
(0.0646192 -0.0835008 0)
(0.0987826 -0.0888987 -1.31294e-19)
(0.137932 -0.092675 2.41864e-19)
(0.181723 -0.0945724 -1.65892e-19)
(0.229713 -0.0943725 -2.3775e-19)
(0.281382 -0.0919178 1.06883e-20)
(0.336155 -0.0871298 1.56233e-19)
(0.393419 -0.0800301 0)
(0.452719 -0.070671 0)
(0.51257 -0.0595923 -4.9129e-20)
(0.576672 -0.0459278 4.18386e-20)
(0.628828 -0.0331191 -1.36146e-19)
(0.719574 -0.014451 1.27757e-19)
(-0.0076004 0.00855333 0)
(-0.0161765 0.0134615 0)
(-0.021664 0.0102723 -2.07819e-19)
(-0.0233983 0.00284438 6.5881e-20)
(-0.0207008 -0.00662482 2.02642e-22)
(-0.0130105 -0.0169349 1.16935e-19)
(0.000229897 -0.0273991 0)
(0.0194913 -0.0375936 -1.01507e-19)
(0.0451005 -0.0472255 9.36443e-20)
(0.0772169 -0.0560352 -1.73119e-19)
(0.115815 -0.0637569 1.59256e-21)
(0.160667 -0.0701136 1.44975e-19)
(0.21134 -0.0748267 -4.51079e-21)
(0.267204 -0.0776374 1.13862e-19)
(0.327451 -0.0783305 -1.68447e-19)
(0.391136 -0.0767585 0)
(0.457225 -0.0728604 1.66934e-19)
(0.524658 -0.0666734 -2.32369e-19)
(0.592355 -0.0583625 6.65204e-20)
(0.659597 -0.0480411 0)
(0.724243 -0.036576 5.03695e-20)
(0.790684 -0.0226804 1.65324e-19)
(0.841124 -0.0108202 -1.5515e-19)
(0.926464 0.00735239 -1.58935e-19)
(-0.00944641 0.0103646 2.16525e-19)
(-0.0184364 0.0179765 -2.98858e-19)
(-0.0207759 0.0169415 3.47915e-23)
(-0.0166186 0.0109525 6.68434e-20)
(-0.00575648 0.00231725 -1.25463e-19)
(0.0121093 -0.00754794 -1.16282e-19)
(0.0373424 -0.0177306 2.17879e-19)
(0.0702541 -0.0276154 -2.90032e-21)
(0.110975 -0.0367612 -1.90738e-19)
(0.159397 -0.0448006 3.49073e-19)
(0.215119 -0.0514057 -4.10601e-21)
(0.277425 -0.0562809 -1.49845e-19)
(0.345289 -0.0591744 0)
(0.417416 -0.0598991 0)
(0.492309 -0.0583538 -5.45781e-20)
(0.568366 -0.0545394 -9.75516e-20)
(0.643978 -0.0485663 -1.67777e-19)
(0.717626 -0.0406553 1.57488e-19)
(0.787951 -0.0311274 -6.65396e-20)
(0.853946 -0.0203188 1.12809e-19)
(0.914181 -0.00895077 -5.79939e-20)
(0.970715 0.00355216 7.92349e-20)
(1.01353 0.0139067 -2.00285e-19)
(1.07488 0.0288382 3.28493e-20)
(-0.0105492 0.0108239 7.31918e-20)
(-0.0186563 0.0193072 0)
(-0.0165143 0.0193741 1.43184e-19)
(-0.00491645 0.0143561 -1.34887e-19)
(0.0159294 0.00652195 1.2557e-19)
(0.0460597 -0.00258674 0)
(0.0855678 -0.0119028 0)
(0.13444 -0.0206808 -1.02058e-19)
(0.192389 -0.0283675 2.85569e-21)
(0.258747 -0.0345319 9.00514e-20)
(0.332406 -0.0388382 -7.91941e-20)
(0.411824 -0.0410447 1.50461e-19)
(0.495086 -0.0410154 0)
(0.580032 -0.0387333 2.38466e-19)
(0.664406 -0.0343059 -4.37431e-19)
(0.746025 -0.0279613 2.98075e-19)
(0.822934 -0.0200293 1.68424e-19)
(0.893518 -0.0109285 -1.58103e-19)
(0.956608 -0.00108482 0)
(1.01143 0.00894569 0)
(1.05782 0.0188951 0)
(1.09597 0.0281441 0)
(1.12494 0.0361567 3.93992e-20)
(1.15532 0.0452886 -1.38645e-19)
(-0.154671 0.164826 -7.32841e-21)
(-0.139327 0.237725 7.35053e-21)
(-0.121368 0.31231 -1.93181e-22)
(-0.101558 0.384814 0)
(-0.0803651 0.452029 -5.32642e-21)
(-0.0581752 0.510077 9.94712e-21)
(-0.0348411 0.555455 -3.52829e-22)
(-0.00872487 0.584348 -4.16382e-21)
(0.023102 0.592279 0)
(0.0644033 0.57378 0)
(0.118337 0.523596 -2.2654e-22)
(0.185371 0.43948 -2.34641e-22)
(0.262319 0.323472 -4.07383e-21)
(0.343399 0.181568 3.72187e-21)
(0.423428 0.0215174 0)
(0.499886 -0.146854 0)
(0.570191 -0.306606 2.98211e-21)
(0.629603 -0.436257 -4.55339e-22)
(0.673824 -0.520356 -2.23587e-21)
(0.700906 -0.558693 -1.06511e-22)
(0.712008 -0.562778 0)
(0.711725 -0.546495 0)
(0.702724 -0.525459 0)
(0.680639 -0.516808 0)
(0.642101 -0.523038 0)
(0.597785 -0.514848 0)
(0.571137 -0.445307 5.2814e-22)
(0.578945 -0.291663 -8.18765e-22)
(0.617862 -0.0821075 0)
(0.673235 0.127941 0)
(0.728596 0.291485 -5.26139e-22)
(0.77319 0.393015 5.11338e-22)
(0.803991 0.437657 1.73717e-22)
(0.822521 0.447699 0)
(0.823442 0.455244 0)
(0.798995 0.47604 2.67367e-22)
(0.756471 0.48598 -2.59904e-22)
(0.720223 0.425576 0)
(0.709114 0.279844 3.85851e-22)
(0.72827 0.071349 -5.77891e-22)
(0.76138 -0.120087 1.8201e-22)
(0.801297 -0.264098 0)
(0.833778 -0.338598 -2.01531e-22)
(0.844209 -0.377137 1.95966e-22)
(0.821337 -0.40659 0)
(0.773848 -0.396652 0)
(0.736939 -0.345992 -7.90677e-23)
(0.733585 -0.181376 2.26571e-22)
(0.761556 -0.0282168 0)
(0.803647 0.143544 0)
(0.824994 0.250491 -5.33025e-23)
(0.809763 0.32482 2.54399e-24)
(0.78637 0.387564 -2.88397e-24)
(0.77364 0.278957 4.32128e-23)
(0.787841 0.221322 0)
(0.809684 -0.00649237 0)
(0.8131 -0.142473 0)
(0.80253 -0.244322 0)
(0.803316 -0.396868 0)
(0.786477 -0.158617 0)
(-0.207699 0.143211 -5.89333e-22)
(-0.193455 0.212788 -2.3855e-20)
(-0.175256 0.28431 1.3041e-21)
(-0.152643 0.354617 2.11863e-20)
(-0.125298 0.419955 2.73864e-22)
(-0.0930792 0.476887 0)
(-0.0553706 0.519852 -1.55687e-20)
(-0.0105475 0.544843 3.03931e-20)
(0.0434404 0.547047 -1.48313e-20)
(0.108054 0.521525 1.49608e-20)
(0.183435 0.46468 -1.43135e-20)
(0.267375 0.376263 1.59701e-20)
(0.355227 0.259624 -1.55333e-20)
(0.441675 0.120345 -5.36796e-22)
(0.523148 -0.0356889 -1.63115e-20)
(0.598162 -0.199222 1.58504e-20)
(0.663665 -0.352724 -1.28626e-20)
(0.713962 -0.473118 1.21314e-20)
(0.745149 -0.545242 -8.31359e-21)
(0.757711 -0.571094 1.43551e-20)
(0.754888 -0.565074 -6.12574e-21)
(0.742149 -0.541984 -2.71685e-22)
(0.723918 -0.514519 -3.64713e-21)
(0.696913 -0.497448 7.0536e-21)
(0.65476 -0.497036 -3.41038e-21)
(0.60278 -0.491586 2.18189e-22)
(0.562664 -0.436561 4.81906e-21)
(0.555927 -0.302182 7.17274e-22)
(0.58496 -0.107435 -1.00283e-20)
(0.636594 0.0965433 9.51747e-21)
(0.693614 0.262749 -4.45378e-21)
(0.743958 0.371439 3.97372e-22)
(0.783424 0.423814 -1.74083e-22)
(0.810315 0.442109 2.77604e-22)
(0.817052 0.459388 0)
(0.797114 0.488742 0)
(0.760469 0.501234 -1.30421e-21)
(0.732492 0.435791 9.05879e-22)
(0.728348 0.280674 1.26494e-21)
(0.75209 0.0640309 1.91824e-22)
(0.784571 -0.132137 -1.76628e-21)
(0.820231 -0.275916 3.14191e-22)
(0.846613 -0.34557 0)
(0.853453 -0.375068 0)
(0.828746 -0.396009 0)
(0.778285 -0.383944 0)
(0.738786 -0.33991 2.59313e-22)
(0.731131 -0.184973 -1.49812e-22)
(0.75916 -0.0384791 0)
(0.79909 0.134907 0)
(0.820567 0.248998 0)
(0.805181 0.329231 -9.03751e-23)
(0.782049 0.391806 2.55056e-25)
(0.772198 0.278721 -8.47649e-23)
(0.787461 0.217332 0)
(0.815231 -0.00880346 0)
(0.818842 -0.142222 6.30721e-23)
(0.808542 -0.242949 1.65717e-22)
(0.808554 -0.395352 0)
(0.788875 -0.157265 0)
(-0.198985 0.118527 -1.30572e-21)
(-0.186136 0.182929 -4.07153e-20)
(-0.167337 0.249663 3.68515e-20)
(-0.142025 0.316079 -3.45443e-20)
(-0.108813 0.377573 -2.75766e-22)
(-0.0682602 0.429937 0)
(-0.0197336 0.468603 -2.90707e-20)
(0.0392668 0.489418 2.84484e-20)
(0.108685 0.487205 2.25053e-22)
(0.187867 0.457652 4.56125e-22)
(0.27509 0.398531 4.86918e-22)
(0.366895 0.310783 5.04065e-22)
(0.458449 0.198215 -3.55241e-20)
(0.545251 0.0654785 3.5059e-20)
(0.625153 -0.083386 0)
(0.697239 -0.240012 1.03574e-21)
(0.757098 -0.385581 -2.69994e-20)
(0.797608 -0.496062 2.66042e-20)
(0.815405 -0.557368 0)
(0.813624 -0.573374 0)
(0.797939 -0.560144 -1.04014e-20)
(0.774198 -0.532988 1.84073e-20)
(0.747543 -0.50176 -1.47931e-20)
(0.716318 -0.477737 5.31121e-22)
(0.672394 -0.470026 1.24519e-20)
(0.615441 -0.465482 -1.34422e-20)
(0.563741 -0.424387 1.42675e-20)
(0.542187 -0.310873 5.17736e-22)
(0.559616 -0.133534 -8.41289e-21)
(0.605533 0.062505 0)
(0.662628 0.230101 0)
(0.71768 0.345369 2.03229e-21)
(0.765072 0.405864 -2.70534e-21)
(0.799755 0.433375 -1.72946e-23)
(0.812317 0.461059 2.14791e-21)
(0.797585 0.499093 -2.08746e-21)
(0.767483 0.514504 0)
(0.747726 0.445183 3.63363e-22)
(0.750394 0.282434 4.05674e-21)
(0.778469 0.0589827 -7.96808e-21)
(0.810322 -0.140946 3.40282e-21)
(0.841502 -0.284605 3.49124e-22)
(0.861421 -0.350551 -2.21393e-21)
(0.864415 -0.372063 1.67399e-21)
(0.838216 -0.385027 2.79452e-22)
(0.785357 -0.370971 2.39387e-22)
(0.74368 -0.333936 -2.59962e-22)
(0.731594 -0.189109 0)
(0.759214 -0.0493193 0)
(0.796473 0.12577 -8.09283e-22)
(0.817971 0.247187 4.00383e-22)
(0.802351 0.333269 -3.56027e-22)
(0.779309 0.395976 5.53475e-22)
(0.772184 0.278378 7.83561e-22)
(0.788542 0.21294 -1.67555e-22)
(0.82221 -0.011294 3.64437e-22)
(0.825927 -0.141896 -3.07472e-22)
(0.815609 -0.241258 1.52966e-22)
(0.814634 -0.393532 0)
(0.792148 -0.1558 0)
(-0.131825 0.0932729 -6.7791e-20)
(-0.120892 0.150907 3.34811e-21)
(-0.101235 0.211392 6.09033e-20)
(-0.0741588 0.271053 -4.91013e-22)
(-0.0390817 0.326275 0)
(0.00592764 0.372847 0)
(0.0614677 0.407462 -5.28859e-20)
(0.127992 0.424781 -3.67919e-21)
(0.204592 0.419807 8.19308e-20)
(0.289672 0.389127 2.46394e-21)
(0.380515 0.331419 -3.04828e-20)
(0.473205 0.248142 -3.41475e-20)
(0.563214 0.142856 3.41997e-20)
(0.647276 0.0187057 0)
(0.724618 -0.121814 -3.53432e-20)
(0.793834 -0.27079 3.22419e-20)
(0.848179 -0.407773 0)
(0.878895 -0.508118 0)
(0.883551 -0.559469 1.74077e-20)
(0.868017 -0.567648 -3.68002e-21)
(0.840573 -0.54938 -1.25072e-20)
(0.807373 -0.52006 -8.22984e-21)
(0.773178 -0.487517 8.15845e-21)
(0.738011 -0.458704 -6.00032e-21)
(0.693848 -0.4432 2.60771e-22)
(0.635182 -0.43657 5.40486e-21)
(0.574696 -0.407224 7.54374e-22)
(0.538541 -0.315739 9.4143e-23)
(0.542579 -0.158665 0)
(0.580628 0.0269773 6.83664e-21)
(0.636062 0.194236 -7.00409e-21)
(0.694569 0.315213 3.55131e-22)
(0.74888 0.383998 0)
(0.790659 0.421325 -2.63555e-22)
(0.809031 0.459683 4.2595e-21)
(0.800064 0.506384 -8.40633e-21)
(0.776871 0.52534 -1.77242e-21)
(0.765248 0.453846 -1.3381e-21)
(0.774454 0.285399 5.83086e-21)
(0.806621 0.0564014 9.42543e-22)
(0.838138 -0.146573 -6.27079e-21)
(0.864826 -0.290323 5.42553e-21)
(0.878078 -0.353721 -1.33443e-23)
(0.876893 -0.368425 1.30584e-21)
(0.8494 -0.373899 -1.54993e-21)
(0.794691 -0.357724 -1.59529e-21)
(0.751275 -0.327791 4.75026e-22)
(0.734663 -0.193501 8.33978e-22)
(0.761478 -0.0605739 -1.59213e-21)
(0.795688 0.11614 1.15847e-21)
(0.817169 0.245007 -3.75926e-22)
(0.801325 0.336911 3.14127e-22)
(0.778297 0.400127 3.42834e-22)
(0.773755 0.278005 -1.23613e-21)
(0.791157 0.208189 2.20381e-24)
(0.830589 -0.0139448 -4.32582e-22)
(0.834309 -0.141469 0)
(0.82372 -0.239235 -1.49369e-22)
(0.821512 -0.391395 1.63389e-22)
(0.796238 -0.15422 0)
(-0.0204835 0.065737 5.57462e-20)
(-0.0128032 0.116154 -1.064e-19)
(0.00588125 0.169327 5.01508e-20)
(0.0327859 0.221313 4.666e-20)
(0.0688713 0.270224 -9.15077e-20)
(0.115354 0.31216 -1.42607e-21)
(0.172399 0.342722 4.53824e-20)
(0.239936 0.357025 5.15229e-20)
(0.316884 0.350912 -5.04938e-20)
(0.401165 0.321548 0)
(0.489747 0.267926 -6.62653e-20)
(0.578802 0.191373 1.35018e-19)
(0.664417 0.0948183 -6.86476e-20)
(0.744709 -0.0200302 0)
(0.819723 -0.151817 0)
(0.886366 -0.292069 1.06384e-21)
(0.934851 -0.418946 -5.56791e-20)
(0.955334 -0.508458 5.40874e-20)
(0.947237 -0.550857 0)
(0.919142 -0.553738 2.76496e-20)
(0.881528 -0.533205 -4.62237e-20)
(0.840816 -0.503644 3.53426e-20)
(0.800543 -0.471754 -2.81698e-20)
(0.761711 -0.44084 1.5935e-21)
(0.718027 -0.418587 2.01705e-20)
(0.660551 -0.407293 -9.59699e-21)
(0.594973 -0.385846 -3.40892e-22)
(0.545506 -0.315578 -5.32867e-21)
(0.534634 -0.181154 -4.07085e-22)
(0.562507 -0.00852873 5.78486e-21)
(0.614342 0.155811 3.65649e-22)
(0.674774 0.281279 -4.27894e-21)
(0.734688 0.358209 8.03201e-21)
(0.782726 0.405572 -4.20164e-21)
(0.806833 0.454623 0)
(0.804059 0.510053 -5.37456e-21)
(0.787996 0.533541 5.34089e-21)
(0.784278 0.461859 -6.42073e-21)
(0.799734 0.289692 7.98265e-21)
(0.835832 0.0566268 -1.02265e-21)
(0.86737 -0.148966 0)
(0.88978 -0.29292 -7.21613e-22)
(0.896327 -0.354906 1.55359e-21)
(0.890684 -0.364133 0)
(0.862035 -0.362763 2.48204e-21)
(0.805926 -0.34434 -1.04196e-21)
(0.761165 -0.321408 4.12323e-22)
(0.739973 -0.197936 3.35746e-22)
(0.765647 -0.0720962 0)
(0.796569 0.105998 0)
(0.818073 0.242361 -1.00016e-21)
(0.802127 0.340104 1.69315e-21)
(0.779146 0.404292 -1.09656e-21)
(0.777044 0.277669 4.09794e-22)
(0.795361 0.203126 8.80688e-22)
(0.840316 -0.0167462 4.32991e-22)
(0.843925 -0.140909 -7.3283e-22)
(0.832851 -0.236839 0)
(0.829135 -0.388908 -2.75279e-22)
(0.80108 -0.15252 -6.23279e-24)
(0.116219 0.0346895 4.81661e-20)
(0.12328 0.0802253 -4.77749e-20)
(0.138934 0.126733 3.61671e-22)
(0.163763 0.172413 -2.97486e-22)
(0.198127 0.215488 3.34885e-22)
(0.242414 0.252376 -3.37013e-22)
(0.296755 0.278975 6.40066e-22)
(0.360917 0.291117 0)
(0.433767 0.285233 -7.6939e-22)
(0.513181 0.25878 8.53027e-22)
(0.596305 0.210649 9.38958e-22)
(0.679832 0.141612 -1.06091e-21)
(0.760606 0.0535516 0)
(0.8377 -0.0522405 0)
(0.910891 -0.175009 1.08449e-21)
(0.974307 -0.305017 0)
(1.0155 -0.420059 -9.03222e-22)
(1.02498 -0.498391 0)
(1.00486 -0.53323 -3.39622e-20)
(0.966052 -0.533225 6.00405e-20)
(0.920194 -0.512911 -4.56492e-20)
(0.873814 -0.484707 1.97134e-20)
(0.829044 -0.454657 1.20356e-20)
(0.786869 -0.423883 -1.16887e-20)
(0.743684 -0.396886 -8.62673e-21)
(0.689549 -0.379489 8.36321e-21)
(0.623085 -0.361428 0)
(0.563157 -0.309466 2.23339e-22)
(0.536815 -0.199122 0)
(0.551938 -0.0430732 0)
(0.597756 0.115564 7.6278e-21)
(0.658385 0.243958 -7.85885e-21)
(0.722287 0.328523 3.7617e-22)
(0.775632 0.385826 4.42629e-22)
(0.805323 0.445375 -4.27868e-22)
(0.80898 0.509615 -4.75938e-21)
(0.800094 0.538869 4.6213e-21)
(0.803993 0.469228 -8.21495e-21)
(0.825404 0.295525 7.17302e-21)
(0.865269 0.0597629 2.08017e-21)
(0.897329 -0.148184 -6.78379e-21)
(0.915908 -0.292412 6.88825e-22)
(0.915866 -0.354059 3.94112e-21)
(0.905538 -0.359246 0)
(0.875822 -0.351744 -1.03835e-21)
(0.818667 -0.330875 1.08979e-21)
(0.772883 -0.314656 -1.46182e-21)
(0.747104 -0.202238 -3.37873e-22)
(0.771361 -0.0837959 0)