/*--------------------------------*- C++ -*----------------------------------*\
| =========                 |                                                 |
| \\      /  F ield         | OpenFOAM: The Open Source CFD Toolbox           |
|  \\    /   O peration     | Version:  2512                                  |
|   \\  /    A nd           | Website:  www.openfoam.com                      |
|    \\/     M anipulation  |                                                 |
\*---------------------------------------------------------------------------*/
FoamFile
{
    version     2.0;
    format      ascii;
    arch        "LSB;label=32;scalar=64";
    class       surfaceScalarField;
    location    "97.25";
    object      phi;
}
// * * * * * * * * * * * * * * * * * * * * * * * * * * * * * * * * * * * * * //

dimensions      [0 3 -1 0 0 0 0];

oriented        oriented;

internalField   nonuniform List<scalar> 
26232
(
-2.45623e-05
0.00105132
-0.00102676
0.000196249
0.00201844
-0.00223925
0.000896106
0.00202825
-0.00272811
0.00228179
0.00112537
-0.00251106
0.00454843
-0.000682223
-0.00158441
0.00788123
-0.00340429
7.14885e-05
0.0124523
-0.00705207
0.00248102
0.0184025
-0.0116229
0.00567271
0.0258245
-0.0170838
0.00966186
0.03474
-0.0233609
0.0144453
0.0450821
-0.0303348
0.0199927
0.0566851
-0.0378444
0.0262414
0.0692866
-0.0456965
0.0330951
0.0825415
-0.053681
0.0404262
0.0960476
-0.0615883
0.0480822
0.10938
-0.0692265
0.0558944
0.122128
-0.0764368
0.0636885
0.133936
-0.0831072
0.0712988
0.144541
-0.0891762
0.0785714
0.153778
-0.0946504
0.0854134
0.161623
-0.0995376
0.0916927
0.168065
-0.104044
0.0976018
0.173049
-0.107783
0.102799
-0.112043
0.108612
0.17648
4.32019e-05
0.00100812
0.000469265
0.00159238
0.00153639
0.000961133
0.00347954
-0.000817781
0.00651766
-0.00372034
0.0108452
-0.00773184
0.0166138
-0.0128207
0.0239063
-0.0189154
0.0327116
-0.0258891
0.0429067
-0.033556
0.054253
-0.0416811
0.0664099
-0.0500013
0.0789645
-0.0582511
0.0914732
-0.0661898
0.103509
-0.0736238
0.114705
-0.0804231
0.124797
-0.0865281
0.133638
-0.0919485
0.141214
-0.0967525
0.147613
-0.101049
0.153034
-0.104959
0.157618
-0.108628
0.161853
-0.112018
-0.115758
0.165569
0.000136849
0.00087127
0.000839705
0.000889524
0.00238181
-0.000580975
0.00501402
-0.00344999
0.00895694
-0.00766326
0.0143774
-0.0131523
0.0213564
-0.0197997
0.0298582
-0.0274171
0.0397115
-0.0357424
0.0506131
-0.0444575
0.0621548
-0.0532229
0.0738715
-0.061718
0.0852985
-0.0696781
0.0960296
-0.0769209
0.105763
-0.0833577
0.114332
-0.0889916
0.121706
-0.0939017
0.127976
-0.0982185
0.133318
-0.102095
0.137949
-0.10568
0.142079
-0.109089
0.145887
-0.112436
0.149526
-0.115657
-0.119194
0.152962
0.000250224
0.000621046
0.00128348
-0.000143729
0.0033784
-0.00267589
0.00678163
-0.00685323
0.0116817
-0.0125633
0.018169
-0.0196396
0.0261967
-0.0278274
0.035559
-0.0367795
0.0458998
-0.0460832
0.0567551
-0.0553128
0.0676192
-0.064087
0.078019
-0.0721178
0.0875791
-0.0792383
0.0960643
-0.085406
0.103393
-0.0906863
0.109621
-0.0952201
0.114906
-0.0991863
0.119453
-0.102766
0.123475
-0.106116
0.127148
-0.109354
0.130616
-0.112556
0.133955
-0.115775
0.137277
-0.118979
-0.122447
0.140529
0.000378567
0.000242479
0.00178045
-0.00154562
0.00447469
-0.00537013
0.00867491
-0.0110535
0.0144932
-0.0183816
0.0218892
-0.0270357
0.0306401
-0.0365783
0.0403505
-0.0464899
0.0505091
-0.0562419
0.0605742
-0.0653778
0.0700642
-0.073577
0.0786295
-0.0806831
0.0860877
-0.0866964
0.0924211
-0.0917395
0.0977422
-0.0960074
0.102241
-0.0997188
0.10613
-0.103076
0.109605
-0.106241
0.112817
-0.109328
0.115876
-0.112412
0.118849
-0.11553
0.121779
-0.118705
0.124718
-0.121918
-0.125322
0.127592
0.000519749
-0.00027727
0.00231496
-0.00334083
0.0056218
-0.00867696
0.0105827
-0.0160143
0.0171827
-0.0249816
0.0252038
-0.0350568
0.0342286
-0.0456031
0.0437054
-0.0559667
0.0530539
-0.0655904
0.0617748
-0.0740987
0.0695283
-0.0813305
0.0761648
-0.0873195
0.0817073
-0.092239
0.0863021
-0.0963342
0.0901555
-0.0998608
0.0934795
-0.103043
0.096455
-0.106051
0.099217
-0.109003
0.101856
-0.111968
0.10443
-0.114986
0.106974
-0.118073
0.109507
-0.121238
0.112058
-0.124469
-0.127845
0.114581
0.000671815
-0.000949085
0.00286938
-0.0055384
0.00676346
-0.012571
0.01238
-0.0216308
0.019531
-0.0321326
0.0277994
-0.0433252
0.0366026
-0.0544063
0.0453163
-0.0646804
0.0534058
-0.0736799
0.0605185
-0.0812114
0.066513
-0.0873251
0.0714316
-0.0922381
0.0754379
-0.0962453
0.078747
-0.0996433
0.0815695
-0.102683
0.0840784
-0.105552
0.0863984
-0.108371
0.088611
-0.111215
0.0907655
-0.114122
0.0928906
-0.117111
0.0950033
-0.120186
0.0971133
-0.123348
0.0992352
-0.126591
-0.129943
0.101334
0.000830655
-0.00177974
0.00341882
-0.00812656
0.00783005
-0.0169823
0.0139292
-0.02773
0.0213285
-0.0395319
0.0294314
-0.0514281
0.0375653
-0.0625402
0.0451397
-0.0722547
0.0517604
-0.0803006
0.0572669
-0.0867179
0.0616996
-0.0917577
0.0652274
-0.095766
0.0680709
-0.0990888
0.0704421
-0.102015
0.072512
-0.104753
0.0744014
-0.107441
0.0761874
-0.110157
0.0779153
-0.112943
0.0796107
-0.115818
0.0812886
-0.118789
0.0829581
-0.121856
0.0846259
-0.125016
0.0863002
-0.128265
-0.131605
0.0879612
0.000988977
-0.00276872
0.00393017
-0.0110678
0.00874244
-0.0217945
0.015097
-0.0340846
0.0224116
-0.0468465
0.0299708
-0.0589873
0.0371089
-0.0696784
0.0433586
-0.0785044
0.0485087
-0.0854507
0.0525745
-0.0907837
0.0557189
-0.094902
0.0581649
-0.098212
0.0601296
-0.101053
0.0617875
-0.103672
0.0632608
-0.106227
0.0646265
-0.108807
0.0659286
-0.111459
0.0671918
-0.114206
0.0684297
-0.117056
0.0696507
-0.12001
0.0708607
-0.123066
0.0720645
-0.126219
0.0732658
-0.129466
-0.132794
0.0744548
0.00113681
-0.00390552
0.00436567
-0.0142966
0.00942356
-0.0268524
0.015778
-0.0404391
0.0226929
-0.0537614
0.0294183
-0.0657126
0.0353817
-0.0756418
0.0402851
-0.0834078
0.0440906
-0.0892562
0.0469392
-0.0936323
0.0490521
-0.097015
0.0506537
-0.0998136
0.0519272
-0.102327
0.0530014
-0.104747
0.0539569
-0.107182
0.0548396
-0.109689
0.0556742
-0.112294
0.0564742
-0.115006
0.0572476
-0.117829
0.0579999
-0.120762
0.0587354
-0.123801
0.0594576
-0.126942
0.0601689
-0.130178
-0.133492
0.0608672
0.00126344
-0.00516896
0.00468998
-0.0177232
0.00981302
-0.0319755
0.0159142
-0.0465402
0.0221704
-0.0600176
0.0278807
-0.0714229
0.0326201
-0.0803812
0.0362613
-0.087049
0.0389
-0.0918949
0.0407461
-0.0954784
0.042031
-0.0982999
0.0429509
-0.100733
0.0436463
-0.103022
0.044206
-0.105306
0.04468
-0.107656
0.045095
-0.110104
0.045465
-0.112664
0.045798
-0.115339
0.0460995
-0.118131
0.0463735
-0.121036
0.0466231
-0.124051
0.0468507
-0.127169
0.0470567
-0.130383
-0.133678
0.0472424
0.0013619
-0.00653086
0.004879
-0.0212403
0.00987839
-0.0369749
0.015501
-0.0521628
0.0209149
-0.0654315
0.0255315
-0.0760395
0.0290891
-0.0839388
0.0316035
-0.0895634
0.0332545
-0.093546
0.0342752
-0.0964991
0.0348772
-0.0989018
0.035218
-0.101074
0.0353989
-0.103203
0.0354778
-0.105385
0.0354851
-0.107663
0.0354361
-0.110055
0.035339
-0.112567
0.0351994
-0.1152
0.0350214
-0.117953
0.0348085
-0.120823
0.0345638
-0.123806
0.034289
-0.126894
0.0339834
-0.130078
0.0336511
-0.133345
-0.000198649
0.00127102
-0.00107237
-0.000702712
0.00363415
-0.00313008
-0.0014623
0.00586004
-0.00510045
-0.00243924
0.00789717
-0.00692022
-0.00359878
0.00972193
-0.00856239
-0.00490631
0.0113491
-0.0100416
-0.00632655
0.0128219
-0.0114017
-0.00782419
0.0141968
-0.0126991
-0.00936478
0.0155291
-0.0139885
-0.0109153
0.0168624
-0.0153119
-0.0124437
0.0182225
-0.016694
-0.0139183
0.0196157
-0.0181411
-0.0153055
0.0210298
-0.0196426
-0.0165686
0.0224362
-0.0211731
-0.0176663
0.0237919
-0.0226942
-0.0185517
0.0250404
-0.024155
-0.019172
0.0261125
-0.0254922
-0.0194691
0.0269274
-0.0266302
-0.0193808
0.0273932
-0.0274815
-0.0188421
0.0274104
-0.0279491
-0.0177879
0.0268775
-0.0279316
-0.0161604
0.025697
-0.0273245
-0.0139185
0.0237801
-0.026022
0.0211323
-0.0110899
-0.0239609
-0.000110941
0.00138196
-0.000408327
0.00393153
-0.000873574
0.00632528
-0.00148928
0.00851287
-0.00223434
0.010467
-0.00308135
0.0121961
-0.00399634
0.0137369
-0.00494008
0.0151405
-0.00587025
0.0164592
-0.00674331
0.0177354
-0.00751553
0.0189947
-0.00814315
0.0202433
-0.00858162
0.0214682
-0.00878461
0.0226392
-0.00870318
0.0237105
-0.0082855
0.0246227
-0.00747691
0.0253039
-0.00622087
0.0256713
-0.0044604
0.0256327
-0.00213916
0.0250892
0.000799584
0.0239387
0.00441442
0.0220822
0.00874714
0.0194474
0.016042
0.0138375
-2.50628e-05
0.00140702
-0.00011388
0.00402035
-0.000273217
0.00648462
-0.000502264
0.00874192
-0.000791362
0.0107561
-0.00111997
0.0125248
-0.00145635
0.0140733
-0.00175914
0.0154433
-0.00197992
0.01668
-0.00206602
0.0178216
-0.00196289
0.0188916
-0.00161538
0.0198958
-0.000968375
0.0208212
3.31105e-05
0.0216377
0.00144403
0.0222995
0.00331928
0.0227474
0.00571237
0.0229108
0.00867442
0.0227093
0.0122527
0.0220544
0.0164897
0.0208522
0.0214229
0.0190055
0.0270845
0.0164205
0.033504
0.013028
0.00873073
0.0408152
4.75386e-05
0.00135949
0.000143538
0.00392435
0.000266691
0.00636147
0.000408421
0.00860018
0.000571133
0.0105934
0.000770041
0.0123258
0.00103387
0.0138095
0.00140379
0.0150734
0.00193093
0.0161529
0.00267333
0.0170792
0.00369279
0.0178721
0.00505247
0.0185361
0.00681511
0.0190586
0.00904199
0.0194109
0.011792
0.0195495
0.0151207
0.0194187
0.0190795
0.0189521
0.0237142
0.0180746
0.0290641
0.0167045
0.0351612
0.0147551
0.0420284
0.0121384
0.049698
0.00875095
0.0581389
0.00458705
-0.000745194
0.0676148
9.78577e-05
0.00126163
0.000333123
0.00368908
0.000683005
0.00601159
0.0011386
0.00814459
0.001701
0.010031
0.00238305
0.0116438
0.00321072
0.0129818
0.00422301
0.0140611
0.00547012
0.0149058
0.00701072
0.0155386
0.00890873
0.0159741
0.0112304
0.0162145
0.0140416
0.0162474
0.0174064
0.0160461
0.0213853
0.0155706
0.0260347
0.0147694
0.0314054
0.0135813
0.0375432
0.0119368
0.0444875
0.00976018
0.052277
0.0069656
0.0609291
0.00348632
0.0705105
-0.000830525
0.0809416
-0.00584404
-0.0124579
0.0926543
0.000120436
0.00114119
0.000434511
0.00337501
0.000931447
0.00551465
0.00161124
0.0074648
0.00248009
0.00916213
0.00355245
0.0105714
0.00485329
0.011681
0.00641893
0.0124955
0.00829648
0.0130282
0.0105418
0.0132932
0.0132171
0.0132989
0.0163877
0.0130438
0.0201203
0.0125148
0.0244807
0.0116856
0.029533
0.0105182
0.0353388
0.00896361
0.0419579
0.00696214
0.0494481
0.0044467
0.0578556
0.0013526
0.0672539
-0.00243266
0.0776773
-0.00693705
0.089223
-0.0123762
0.10171
-0.0183306
-0.026464
0.115716
0.000113979
0.00102721
0.000441768
0.00304722
0.000996401
0.00496002
0.00179467
0.00666653
0.00285382
0.00810297
0.00419444
0.00923082
0.00584366
0.0100317
0.00783729
0.0105018
0.0102205
0.010645
0.0130472
0.0104665
0.0163787
0.0099674
0.0202818
0.00914071
0.0248275
0.0079691
0.0300891
0.00642403
0.0361452
0.00446212
0.0430722
0.00203667
0.0509513
-0.000917
0.0598645
-0.00446648
0.0698964
-0.00867923
0.0811015
-0.0136378
0.093524
-0.0193596
0.107231
-0.0260835
0.121987
-0.0330868
-0.0426703
0.138194
8.2227e-05
0.000944986
0.000366604
0.00276284
0.000898921
0.0044277
0.00171865
0.0058468
0.0028592
0.00696243
0.00435235
0.00773767
0.00623283
0.00815126
0.0085418
0.00819285
0.0113291
0.00785768
0.0146543
0.0071413
0.0185867
0.006035
0.023205
0.00452239
0.0285967
0.00257739
0.0348482
0.000172595
0.0420713
-0.00276104
0.0503604
-0.00625244
0.0598112
-0.0103677
0.0705065
-0.0151618
0.0825089
-0.0206816
0.0958347
-0.0269635
0.110457
-0.0339822
0.126265
-0.0418909
0.143059
-0.049881
-0.060253
0.160642
3.44852e-05
0.000910501
0.000240048
0.00255728
0.000700796
0.00396695
0.00148311
0.00506449
0.00264164
0.00580389
0.00422607
0.00615325
0.00628728
0.00609004
0.00888242
0.00559771
0.0120784
0.00466173
0.0159538
0.00326591
0.0205992
0.0013896
0.0261159
-0.000994354
0.0326125
-0.00391916
0.0402071
-0.00742204
0.0489916
-0.0115456
0.0590624
-0.0163232
0.0704771
-0.0217825
0.0832505
-0.0279352
0.0973385
-0.0347697
0.112617
-0.0422416
0.128898
-0.0502639
0.145807
-0.0587997
0.163191
-0.0672651
-0.0771411
0.180079
-1.48391e-05
0.00092534
0.000110245
0.0024322
0.000499769
0.00357743
0.00125054
0.00431371
0.00244458
0.00460986
0.0041583
0.00443952
0.00647009
0.00377826
0.0094659
0.0026019
0.0132423
0.000885289
0.0179068
-0.00139856
0.0235745
-0.00427809
0.0303616
-0.00778151
0.0383759
-0.0119334
0.0477044
-0.0167505
0.0583954
-0.0222366
0.0704491
-0.0283769
0.0838005
-0.0351338
0.0983092
-0.042444
0.113752
-0.0502122
0.12983
-0.0583194
0.146168
-0.0666024
0.162276
-0.0749081
0.177925
-0.0829136
-0.091095
0.191879
-4.87414e-05
0.000974081
3.34543e-05
0.00235
0.000410092
0.00320079
0.00121192
0.00351189
0.00255486
0.00326691
0.00455088
0.0024435
0.00731464
0.0010145
0.0109674
-0.00105085
0.0156354
-0.00378269
0.0214437
-0.00720689
0.0285058
-0.0113402
0.036909
-0.0161847
0.0466986
-0.021723
0.0578615
-0.0279135
0.0703134
-0.0346885
0.0838903
-0.0419538
0.0983463
-0.0495898
0.113361
-0.0574588
0.12855
-0.0654014
0.14351
-0.0732794
0.157805
-0.0808968
0.171117
-0.0882207
0.183132
-0.0949281
-0.101153
0.19319
-5.26785e-05
5.80681e-05
0.000530748
0.00153157
0.00321407
0.00572907
0.00922459
0.0138465
0.0197256
0.0269641
0.0356166
0.0456732
0.0570453
0.069558
0.0829517
0.0968923
0.110991
0.124831
0.138001
0.150135
0.160931
0.170312
0.178183
0.185642
-0.00652087
0.0232793
-0.0278483
-0.00141021
0.0149654
-0.020076
0.00420836
0.00400141
-0.00961998
0.0103204
-0.00940245
0.00329039
0.0168219
-0.0250899
0.0185884
0.0235316
-0.0426273
0.0359176
0.0302407
-0.0612633
0.0545542
0.03668
-0.0799074
0.0734681
0.0423845
-0.0972675
0.0915631
0.0468591
-0.112144
0.107669
0.0495028
-0.123817
0.121173
0.0498495
-0.13244
0.132093
0.0481222
-0.138866
0.140593
0.0457092
-0.143613
0.146026
0.044982
-0.145265
0.145992
0.0481845
-0.139855
0.136652
0.0560738
-0.122666
0.114777
0.0676713
-0.0913375
0.0797401
0.0813989
-0.04735
0.0336224
0.0958053
0.00462312
-0.0190295
0.109687
0.0579048
-0.071786
0.121689
0.104501
-0.116504
0.130646
0.139
-0.147957
0.136234
0.160404
-0.165992
0.138972
0.170832
-0.173569
0.139051
0.174812
-0.174891
0.135832
0.17987
-0.176652
0.12945
0.191013
-0.184631
0.12244
0.201072
-0.194062
0.118678
0.190512
-0.18675
0.120421
0.142744
-0.144487
0.127162
0.0614626
-0.0682034
0.136343
-0.0316524
0.0224712
0.145078
-0.111695
0.10296
0.151505
-0.166898
0.160471
0.155296
-0.194801
0.191009
0.155941
-0.205518
0.204874
0.152175
-0.212042
0.215807
0.144203
-0.225084
0.233057
0.135317
-0.230058
0.238943
0.130079
-0.199274
0.204512
0.130834
-0.124002
0.123247
0.136635
-0.0144911
0.00869029
0.144761
0.0822318
-0.0903583
0.151357
0.163725
-0.17032
0.152718
0.208274
-0.209634
0.147912
0.25442
-0.249615
0.140183
0.273413
-0.265684
0.13512
0.247812
-0.242749
0.136097
0.169419
-0.170396
0.141967
0.0217887
-0.0276581
0.147415
-0.0648207
0.0593721
0.147756
-0.191886
0.191546
0.143891
-0.234852
0.238717
0.140472
-0.290231
0.29365
0.140372
-0.285042
0.285142
0.14184
-0.121071
0.119603
0.141902
-0.0793109
0.0792494
0.140037
0.197438
-0.195574
0.2468
-0.245028
0.0188154
0.0183014
0.023954
0.00982677
0.0292871
-0.0013317
0.03477
-0.0148854
0.0402796
-0.0305995
0.0457145
-0.0480622
0.0509453
-0.0664942
0.0557646
-0.0847267
0.0598614
-0.101364
0.0628039
-0.115086
0.0640211
-0.125034
0.06282
-0.131239
0.0588199
-0.134866
0.0527228
-0.137516
0.0468059
-0.139348
0.0442465
-0.137295
0.0473768
-0.125797
0.0563295
-0.10029
0.0694851
-0.0605056
0.0849049
-0.0107966
0.100674
0.0421353
0.115026
0.0901495
0.126468
0.127558
0.134461
0.152411
0.139228
0.166064
0.140742
0.173299
0.138626
0.181987
0.133579
0.19606
0.128257
0.206394
0.125854
0.192915
0.127867
0.14073
0.133752
0.055578
0.14136
-0.0392606
0.148281
-0.118616
0.15284
-0.171458
0.154971
-0.196931
0.154511
-0.205059
0.150183
-0.207713
0.14176
-0.216662
0.132337
-0.220634
0.126748
-0.193685
0.127826
-0.12508
0.134619
-0.0212844
0.143998
0.0728526
0.151543
0.15618
0.153487
0.206329
0.149144
0.258764
0.141702
0.280855
0.136663
0.252851
0.137171
0.168911
0.142601
0.0163591
0.147878
-0.0700975
0.14813
-0.192139
0.144204
-0.230925
0.140647
-0.286674
0.140544
-0.284939
0.14174
-0.122267
0.141521
-0.0790915
0.139542
0.199417
0.248616
0.0456492
0.0134674
0.0505311
0.00494484
0.0554601
-0.00626062
0.0601847
-0.0196101
0.064635
-0.0350497
0.0687504
-0.0521775
0.0724425
-0.0701863
0.0755512
-0.0878354
0.0778412
-0.103654
0.0790075
-0.116252
0.0786809
-0.124707
0.0763673
-0.128925
0.0713955
-0.129894
0.0635
-0.129621
0.0539778
-0.129826
0.0460726
-0.12939
0.0435163
-0.123241
0.0482388
-0.105013
0.0594299
-0.0716967
0.0748539
-0.0262207
0.0919066
0.0250826
0.108245
0.0738109
0.122056
0.113746
0.132477
0.141991
0.139341
0.1592
0.142459
0.170181
0.14178
0.182666
0.138423
0.199416
0.13491
0.209908
0.133722
0.194104
0.135716
0.138736
0.140392
0.0509017
0.146217
-0.0450855
0.151221
-0.12362
0.153947
-0.174184
0.154483
-0.197468
0.153016
-0.203591
0.148326
-0.203023
0.139717
-0.208053
0.12991
-0.210827
0.123922
-0.187697
0.125153
-0.126311
0.132736
-0.028867
0.143222
0.0623663
0.151691
0.147711
0.154321
0.203699
0.150596
0.262489
0.14356
0.287892
0.13855
0.257861
0.138505
0.168955
0.143368
0.0114963
0.148436
-0.0751656
0.148616
-0.192319
0.1446
-0.226909
0.140848
-0.282923
0.140756
-0.284847
0.141754
-0.123264
0.141295
-0.0786329
0.1392
0.201512
0.250473
0.0722024
0.00887985
0.0767786
0.000368604
0.0812959
-0.0107779
0.0853442
-0.0236584
0.0888586
-0.0385642
0.0917927
-0.0551116
0.0940367
-0.0724303
0.095419
-0.0892176
0.0957478
-0.103983
0.0948601
-0.115365
0.0926712
-0.122518
0.0890858
-0.12534
0.0836918
-0.1245
0.0756974
-0.121627
0.06495
-0.119078
0.0534705
-0.11791
0.0453994
-0.115169
0.0446143
-0.104228
0.0521833
-0.0792657
0.0661503
-0.0401876
0.0836207
0.00761213
0.101418
0.0560138
0.11736
0.0978046
0.13013
0.129221
0.139116
0.150214
0.144012
0.165285
0.145076
0.181601
0.143675
0.200817
0.142032
0.211551
0.141852
0.194284
0.1436
0.136988
0.146913
0.0475882
0.150807
-0.0489798
0.153864
-0.126676
0.154824
-0.175144
0.153847
-0.196491
0.151429
-0.201173
0.146524
-0.198118
0.137991
-0.199519
0.12801
-0.200846
0.121613
-0.1813
0.122794
-0.127492
0.130939
-0.0370124
0.142384
0.0509216
0.151762
0.138333
0.155191
0.200269
0.152247
0.265433
0.145738
0.294401
0.140774
0.262824
0.140112
0.169617
0.144254
0.00735476
0.149072
-0.0799836
0.149193
-0.19244
0.145067
-0.222783
0.14106
-0.278915
0.140981
-0.284769
0.141865
-0.124148
0.141213
-0.0779806
0.139006
0.20372
0.252365
0.0971596
0.00437463
0.101858
-0.00432953
0.105911
-0.0148316
0.109355
-0.0271018
0.112024
-0.0412334
0.113812
-0.0568999
0.11456
-0.0731776
0.114115
-0.088773
0.112396
-0.102265
0.109413
-0.112381
0.105276
-0.118381
0.100179
-0.120243
0.0941858
-0.118507
0.0867543
-0.114195
0.076857
-0.109181
0.0645904
-0.105644
0.0528264
-0.103405
0.0463568
-0.0977581
0.0486707
-0.0815796
0.0595343
-0.0510513
0.0761599
-0.00901344
0.0946698
0.0375039
0.112309
0.0801658
0.127177
0.114352
0.138217
0.139174
0.145025
0.158477
0.148085
0.178541
0.14886
0.200042
0.149114
0.211297
0.149841
0.193557
0.151197
0.135633
0.153054
0.0457312
0.155014
-0.0509402
0.156132
-0.127794
0.155412
-0.174424
0.153033
-0.194112
0.14973
-0.19787
0.144723
-0.193111
0.136498
-0.191295
0.126581
-0.190929
0.119807
-0.174527
0.120736
-0.128421
0.12919
-0.0454666
0.141421
0.0386906
0.151696
0.128058
0.156047
0.195919
0.154046
0.267434
0.148185
0.300261
0.143298
0.267711
0.141956
0.170959
0.145268
0.00404334
0.149763
-0.0844786
0.149839
-0.192516
0.145597
-0.218541
0.141272
-0.27459
0.141198
-0.284695
0.142056
-0.125006
0.14126
-0.0771847
0.138952
0.206027
0.254279
0.120402
-0.000311613
0.124761
-0.00868897
0.12847
-0.0185401
0.131285
-0.0299166
0.133048
-0.0429966
0.133607
-0.0574589
0.132767
-0.0723378
0.130428
-0.0864336
0.126645
-0.0984818
0.121631
-0.107367
0.115704
-0.112455
0.109213
-0.113752
0.102464
-0.111758
0.0954179
-0.107148
0.0871783
-0.100941
0.0765323
-0.0949978
0.0640672
-0.0909403
0.0535301
-0.0872209
0.0499691
-0.0780187
0.05593
-0.0570121
0.0698544
-0.0229378
0.0880515
0.0193068
0.106737
0.0614804
0.123318
0.0977709
0.136264
0.126228
0.145057
0.149685
0.150298
0.1733
0.153386
0.196954
0.155582
0.209101
0.157224
0.191915
0.158133
0.134724
0.158623
0.0452414
0.158719
-0.051037
0.157951
-0.127026
0.155652
-0.172124
0.152005
-0.190465
0.147881
-0.193745
0.142843
-0.188073
0.13512
-0.183572
0.125512
-0.181321
0.118451
-0.167466
0.118947
-0.128917
0.127437
-0.0539565
0.140261
0.0258667
0.151421
0.116898
0.156813
0.190527
0.155914
0.268332
0.150823
0.305353
0.146062
0.272472
0.144024
0.172997
0.146375
0.00169291
0.150483
-0.0885865
0.150525
-0.192558
0.146177
-0.214193
0.141477
-0.26989
0.141388
-0.284606
0.142308
-0.125926
0.141422
-0.076299
0.139032
0.208417
0.256201
0.142501
-0.00461887
0.146138
-0.0123261
0.149073
-0.0214752
0.150868
-0.0317117
0.151377
-0.0435054
0.150405
-0.0564865
0.147764
-0.0696969
0.143443
-0.0821127
0.13764
-0.0926789
0.130742
-0.100469
0.123255
-0.104968
0.115661
-0.106159
0.108318
-0.104414
0.10141
-0.100241
0.0945826
-0.0941137
0.0865508
-0.0869661
0.0761399
-0.0805294
0.0646243
-0.0757053
0.0564448
-0.0698392
0.0563622
-0.0569296
0.0656509
-0.0322265
0.0817887
0.00316898
0.100475
0.0427942
0.118229
0.0800164
0.132888
0.111569
0.143697
0.138876
0.151237
0.16576
0.156716
0.191474
0.160865
0.204952
0.163412
0.189368
0.164116
0.134021
0.163378
0.0459787
0.161808
-0.0494665
0.15924
-0.124458
0.15548
-0.168365
0.150723
-0.185708
0.145851
-0.188873
0.140811
-0.183034
0.133728
-0.176489
0.124661
-0.172254
0.117444
-0.160249
0.117372
-0.128845
0.125618
-0.0622015
0.138823
0.0126614
0.150849
0.104872
0.157397
0.183978
0.157755
0.267975
0.153548
0.30956
0.148975
0.277045
0.146231
0.175741
0.147585
0.000339386
0.151203
-0.0922049
0.151218
-0.192573
0.146796
-0.209771
0.141673
-0.264767
0.141534
-0.284467
0.1426
-0.126992
0.141683
-0.0753815
0.139238
0.210862
0.258108
0.163388
-0.00736496
0.165756
-0.0146941
0.167171
-0.0228907
0.16731
-0.0318509
0.166062
-0.0422569
0.163206
-0.0536309
0.158609
-0.0650996
0.152369
-0.0758724
0.144802
-0.0851122
0.136403
-0.0920697
0.127761
-0.0963257
0.119426
-0.0978241
0.111777
-0.0967656
0.105004
-0.0934669
0.099065
-0.088175
0.0932646
-0.0811657
0.0860866
-0.0733514
0.0766473
-0.0662659
0.0669347
-0.0601266
0.0616927
-0.0516876
0.0649357
-0.0354695
0.0768043
-0.00869956
0.0937979
0.0258005
0.111799
0.0620148
0.127817
0.0955515
0.140606
0.126088
0.150505
0.15586
0.158418
0.183562
0.16452
0.198849
0.16802
0.185868
0.168639
0.133402
0.167107
0.0475102
0.164123
-0.0464822
0.159919
-0.120254
0.154827
-0.163273
0.14913
-0.180011
0.143599
-0.183342
0.138556
-0.177991
0.132193
-0.170125
0.123866
-0.163928
0.11665
-0.153033
0.115934
-0.128128
0.123675
-0.0699426
0.137034
-0.000697849
0.149893
0.0920133
0.157694
0.176177
0.159442
0.266228
0.156237
0.312765
0.151937
0.281345
0.148524
0.179154
0.148852
1.18556e-05
0.151893
-0.0952462
0.151883
-0.192563
0.147436
-0.205325
0.141854
-0.259185
0.141621
-0.284235
0.142913
-0.128284
0.142024
-0.0744925
0.139561
0.213325
0.259974
0.181017
-0.00830274
0.18144
-0.0151167
0.180746
-0.0221975
0.178831
-0.0299353
0.175601
-0.039027
0.170828
-0.0488584
0.164466
-0.0587369
0.156702
-0.0681086
0.147912
-0.0763225
0.13862
-0.0827779
0.129406
-0.0871117
0.12079
-0.0892074
0.113135
-0.0891108
0.106614
-0.0869459
0.101255
-0.0828156
0.0968314
-0.0767426
0.0924102
-0.0689302
0.0864551
-0.0603108
0.0785222
-0.0521937
0.0711363
-0.0443016
0.0688981
-0.0332313
0.0748271
-0.0146286
0.087949
0.0126786
0.104603
0.0453605
0.121168
0.0789866
0.135653
0.111603
0.14787
0.143643
0.158232
0.1732
0.166295
0.190786
0.170821
0.181343
0.171605
0.132617
0.169591
0.0495241
0.165537
-0.0424277
0.159888
-0.114605
0.153589
-0.156974
0.14713
-0.173552
0.141056
-0.177268
0.13599
-0.172925
0.130379
-0.164514
0.122959
-0.156508
0.11591
-0.145984
0.114531
-0.126749
0.12155
-0.0769617
0.134831
-0.0139793
0.148463
0.0783813
0.157596
0.167044
0.160863
0.26296
0.158769
0.314859
0.154828
0.285285
0.150826
0.183156
0.150134
0.000703958
0.152518
-0.0976305
0.15248
-0.192525
0.148077
-0.200922
0.142018
-0.253125
0.141639
-0.283856
0.143229
-0.129875
0.142431
-0.0736942
0.139994
0.215762
0.261766
0.191282
-0.00770578
0.18984
-0.0136744
0.18719
-0.0195483
0.183516
-0.0262604
0.178684
-0.0341953
0.172499
-0.0426734
0.165007
-0.0512454
0.156437
-0.0595378
0.147157
-0.0670432
0.137659
-0.0732797
0.128458
-0.0779105
0.119998
-0.0807472
0.112594
-0.081707
0.106417
-0.0807694
0.101523
-0.0779214
0.0978819
-0.0731014
0.0951499
-0.0661982
0.0922672
-0.0574281
0.0878247
-0.0477512
0.0818098
-0.0382867
0.0769842
-0.0284057
0.0774033
-0.0150476
0.0849995
0.00508238
0.0982284
0.0321316
0.113835
0.0633799
0.129212
0.0962268
0.143373
0.129482
0.156011
0.160561
0.166047
0.180751
0.171768
0.175622
0.172973
0.131412
0.170883
0.0516147
0.166029
-0.0375741
0.159099
-0.107675
0.151692
-0.149568
0.144636
-0.166497
0.138166
-0.170798
0.133054
-0.167812
0.128177
-0.159637
0.121801
-0.150133
0.115083
-0.139266
0.113057
-0.124722
0.119174
-0.0830795
0.132172
-0.0269774
0.14649
0.0640637
0.156989
0.156545
0.161861
0.258088
0.16099
0.315731
0.157535
0.28874
0.153058
0.187633
0.151392
0.00237025
0.153051
-0.0992893
0.152978
-0.192452
0.148693
-0.196638
0.142169
-0.246601
0.141587
-0.283273
0.143535
-0.131823
0.142886
-0.0730452
0.140531
0.218117
0.263446
0.191876
-0.00639201
0.189313
-0.0111116
0.185613
-0.0158482
0.181071
-0.0217181
0.175487
-0.0286109
0.168771
-0.0359582
0.16103
-0.0435042
0.152473
-0.0509806
0.143432
-0.058002
0.134331
-0.0641791
0.125603
-0.0691821
0.117614
-0.0727585
0.110634
-0.0747269
0.104833
-0.0749683
0.100297
-0.0733856
0.0970386
-0.0698429
0.0950119
-0.0641715
0.0938772
-0.0562934
0.0926186
-0.0464926
0.0899631
-0.0356312
0.086189
-0.0246317
0.0840314
-0.01289
0.0865056
0.00260815
0.0948277
0.0238095
0.107535
0.0506724
0.122303
0.0814593
0.137602
0.114183
0.15225
0.145913
0.164107
0.168893
0.170929
0.1688
0.172954
0.129387
0.171142
0.0534265
0.165838
-0.0322695
0.157808
-0.0996447
0.149397
-0.141157
0.14187
-0.158969
0.135139
-0.164067
0.129914
-0.162587
0.125647
-0.15537
0.120379
-0.144865
0.114132
-0.133019
0.111473
-0.122063
0.116524
-0.0881303
0.128999
-0.0394522
0.143888
0.0491746
0.155808
0.144625
0.16241
0.251487
0.162826
0.315314
0.159925
0.291641
0.155169
0.19239
0.152613
0.00492598
0.153489
-0.100166
0.153371
-0.192334
0.149269
-0.192535
0.142319
-0.239651
0.141485
-0.282439
0.143827
-0.134164
0.143372
-0.0725904
0.141165
0.220324
0.264973
0.18413
-0.00488067
0.181186
-0.00816662
0.177573
-0.0122359
0.173183
-0.0173282
0.167814
-0.023242
0.161538
-0.0296818
0.154464
-0.0364302
0.146759
-0.0432753
0.138698
-0.0499414
0.130628
-0.0561084
0.122895
-0.0614497
0.1158
-0.0656639
0.109564
-0.06849
0.104316
-0.0697209
0.100127
-0.0691966
0.0970546
-0.0667703
0.0951647
-0.0622816
0.094468
-0.0555966
0.0946094
-0.0466341
0.094598
-0.0356198
0.0934543
-0.023488
0.0916454
-0.0110811
0.0916674
0.00258612
0.0957672
0.0197098
0.104392
0.0420472
0.116583
0.0692682
0.131105
0.0996609
0.146336
0.130683
0.159463
0.155766
0.168033
0.160231
0.171835
0.125585
0.171021
0.0542407
0.165132
-0.0263803
0.156095
-0.090608
0.146926
-0.131988
0.139109
-0.151152
0.13225
-0.157208
0.12683
-0.157168
0.122944
-0.151483
0.118739
-0.14066
0.113075
-0.127355
0.109825
-0.118813
0.113769
-0.0920746
0.125441
-0.0511235
0.140675
0.0339404
0.153825
0.131475
0.16218
0.243132
0.164025
0.313469
0.16188
0.293786
0.157026
0.197244
0.153803
0.00814876
0.153816
-0.100179
0.153657
-0.192175
0.149785
-0.188663
0.142472
-0.232338
0.141355
-0.281323
0.144105
-0.136914
0.143884
-0.0723691
0.141892
0.222316
0.266303
0.209391
-0.00362423
-0.210647
0.208823
-0.00759908
0.20807
-0.0114821
0.206852
-0.0161103
0.205024
-0.0214147
0.202512
-0.0271691
0.19927
-0.0331889
0.195268
-0.0392729
0.190519
-0.0451927
0.1851
-0.0506891
0.179129
-0.0554789
0.172749
-0.0592834
0.166109
-0.0618504
0.159356
-0.0629675
0.152622
-0.062463
0.146038
-0.0601857
0.139729
-0.0559726
0.133837
-0.0497051
0.128452
-0.0412488
0.123292
-0.0304597
0.117598
-0.0177944
0.111042
-0.00452473
0.104143
0.00948455
0.0988454
0.0250077
0.0967712
0.0441213
0.0987118
0.0673277
0.104673
0.0937001
0.114016
0.12134
0.126492
0.143289
0.143166
0.143557
0.162774
0.105978
0.178825
0.0381892
0.186981
-0.0345358
0.186818
-0.0904457
0.181294
-0.126463
0.173411
-0.143269
0.164572
-0.148369
0.156004
-0.1486
0.148567
-0.144046
0.141158
-0.133251
0.132363
-0.11856
0.124506
-0.110956
0.12189
-0.0894586
0.125242
-0.0544755
0.131042
0.0281406
0.13552
0.126997
0.138191
0.240461
0.140509
0.311151
0.144521
0.289773
0.149207
0.192558
0.152742
0.00461394
0.155178
-0.102615
0.154592
-0.191589
0.149456
-0.183527
0.141122
-0.224004
0.136349
-0.27655
0.135372
-0.135937
0.132007
-0.0690043
0.128836
0.225488
0.267201
0.218814
-0.00272485
-0.219713
0.217847
-0.00663239
0.216942
-0.010577
0.215648
-0.0148164
0.21376
-0.0195261
0.211227
-0.0246368
0.208017
-0.0299783
0.204107
-0.035363
0.199509
-0.0405949
0.194279
-0.0454594
0.188518
-0.0497176
0.182358
-0.0531236
0.175951
-0.0554436
0.169453
-0.0564695
0.163012
-0.056022
0.156771
-0.0539441
0.150854
-0.0500563
0.145377
-0.0442276
0.14047
-0.0363423
0.136162
-0.0261514
0.132037
-0.013669
0.127222
0.00028996
0.121756
0.0149501
0.116504
0.0302598
0.113322
0.047304
0.11393
0.0667191
0.119124
0.0885062
0.128701
0.111762
0.142851
0.129139
0.161702
0.124706
0.181669
0.0860098
0.196436
0.0234229
0.20238
-0.0404802
0.200296
-0.0883618
0.193211
-0.119378
0.184314
-0.134372
0.174927
-0.138982
0.165884
-0.139557
0.158093
-0.136255
0.150834
-0.125993
0.142234
-0.10996
0.133937
-0.102659
0.130402
-0.0859229
0.133214
-0.0572878
0.139187
0.0221671
0.144246
0.121938
0.147784
0.236923
0.151216
0.307718
0.156376
0.284614
0.161667
0.187267
0.165235
0.00104594
0.166976
-0.104356
0.165728
-0.19034
0.160093
-0.177892
0.1507
-0.214611
0.145248
-0.271098
0.144163
-0.134853
0.140566
-0.0654077
0.137191
0.228862
0.268076
0.227697
-0.00217755
-0.228244
0.226842
-0.00577785
0.225802
-0.00953646
0.224424
-0.013439
0.222536
-0.0176383
0.220051
-0.0221517
0.216939
-0.0268657
0.21319
-0.0316145
0.208818
-0.0362224
0.203864
-0.0405057
0.19841