/*--------------------------------*- C++ -*----------------------------------*\
| =========                 |                                                 |
| \\      /  F ield         | OpenFOAM: The Open Source CFD Toolbox           |
|  \\    /   O peration     | Version:  2512                                  |
|   \\  /    A nd           | Website:  www.openfoam.com                      |
|    \\/     M anipulation  |                                                 |
\*---------------------------------------------------------------------------*/
FoamFile
{
    version     2.0;
    format      ascii;
    arch        "LSB;label=32;scalar=64";
    class       volVectorField;
    location    "198";
    object      U;
}
// * * * * * * * * * * * * * * * * * * * * * * * * * * * * * * * * * * * * * //

dimensions      [0 1 -1 0 0 0 0];

internalField   nonuniform List<vector> 
13248
(
(-0.0110728 0.0109312 8.31561e-20)
(-0.0159135 0.0197928 0)
(-0.00520614 0.0208771 -1.58038e-19)
(0.0192585 0.0167252 1.48873e-19)
(0.0565098 0.00943677 1.40092e-19)
(0.105949 0.000670887 0)
(0.166985 -0.00834605 0)
(0.238774 -0.016716 3.3996e-19)
(0.320002 -0.0237819 -2.71291e-21)
(0.408763 -0.0290809 -2.9493e-19)
(0.50256 -0.0323261 2.68078e-19)
(0.598438 -0.0334012 -1.6732e-19)
(0.693211 -0.0323533 0)
(0.783751 -0.0293755 -2.66441e-19)
(0.86727 -0.0247769 4.88901e-19)
(0.941554 -0.018942 -1.1584e-19)
(1.00511 -0.0122838 -1.88161e-19)
(1.05725 -0.00521038 1.76646e-19)
(1.098 0.00194681 0)
(1.12806 0.00880132 0)
(1.14874 0.0154502 0)
(1.16107 0.0207821 0)
(1.16814 0.0269932 4.33192e-20)
(1.16796 0.0282931 1.4388e-19)
(-0.00967051 0.00872391 -2.51136e-19)
(-0.00904057 0.014372 1.71432e-19)
(0.0104726 0.0139132 -1.09094e-21)
(0.046837 0.00947033 -2.2711e-19)
(0.0987702 0.00294666 -1.39938e-19)
(0.165198 -0.00406201 -1.32236e-19)
(0.24478 -0.0103685 -2.43916e-19)
(0.335614 -0.0151405 2.29921e-19)
(0.43506 -0.0178532 0)
(0.539739 -0.0182682 2.09427e-21)
(0.645732 -0.0164142 4.09057e-21)
(0.748927 -0.0125512 1.66106e-19)
(0.845445 -0.00711275 0)
(0.932029 -0.000633019 0)
(1.00634 0.00633293 1.75014e-19)
(1.06709 0.0132801 -3.28409e-19)
(1.1141 0.0198066 1.84845e-19)
(1.14809 0.0256406 -1.73545e-19)
(1.17057 0.0306522 -7.33726e-20)
(1.18349 0.0347991 -1.25651e-19)
(1.18895 0.0382622 -4.85099e-20)
(1.18921 0.0407435 -8.87731e-20)
(1.18592 0.0438142 1.36932e-19)
(1.18005 0.0429077 3.78887e-20)
(-0.00718637 0.00616459 0)
(0.00150837 0.00792966 0)
(0.0326188 0.00564543 8.03775e-20)
(0.0837394 0.0010961 7.44362e-20)
(0.153062 -0.00400377 -1.42302e-21)
(0.238665 -0.0081761 -1.3514e-19)
(0.337941 -0.0104011 0)
(0.447349 -0.0101111 -1.14203e-19)
(0.562432 -0.00716146 1.0588e-19)
(0.678108 -0.00179207 -2.16648e-22)
(0.789193 0.005449 -1.77963e-19)
(0.890996 0.0138214 -1.59052e-19)
(0.979848 0.0225278 5.89072e-21)
(1.05344 0.0308411 -1.22761e-19)
(1.11092 0.0382008 3.01343e-19)
(1.15283 0.0442645 0)
(1.18074 0.0489138 -1.8108e-19)
(1.197 0.0522191 8.85539e-20)
(1.20422 0.054393 7.33084e-20)
(1.205 0.0556849 0)
(1.20167 0.056466 5.64945e-20)
(1.19601 0.0566692 -1.90589e-19)
(1.18933 0.0574094 1.7891e-19)
(1.1826 0.0553718 1.07523e-19)
(-0.003356 0.0034135 -8.81453e-20)
(0.0165135 0.00111482 -9.09156e-20)
(0.0624775 -0.00268692 8.27745e-20)
(0.13146 -0.00657465 0)
(0.220699 -0.00909028 0)
(0.326837 -0.00901279 -1.86855e-21)
(0.44534 -0.00572088 0)
(0.570503 0.000794922 -3.43251e-19)
(0.695878 0.0100109 3.17418e-19)
(0.815024 0.0210075 -3.90328e-19)
(0.92234 0.0326664 8.86115e-20)
(1.01375 0.0438871 0)
(1.08707 0.0537713 1.40917e-19)
(1.14201 0.0617383 -2.58441e-19)
(1.17994 0.0675572 6.14221e-20)
(1.20331 0.0713082 1.48967e-19)
(1.21521 0.0732942 -1.0634e-20)
(1.21876 0.0739356 -1.64044e-19)
(1.21678 0.0736723 0)
(1.21156 0.0728824 0)
(1.20473 0.0719044 -5.44871e-20)
(1.19735 0.0707052 4.79535e-20)
(1.19013 0.0701754 1.64945e-19)
(1.18304 0.0672277 -1.54866e-19)
(0.00218318 0.00059764 -9.20102e-20)
(0.0368128 -0.00545321 -9.19559e-20)
(0.101106 -0.00985906 2.58945e-19)
(0.190861 -0.0117442 -1.57753e-19)
(0.30172 -0.0100992 1.48488e-19)
(0.428149 -0.00422505 2.70535e-19)
(0.563095 0.00576397 -1.90432e-19)
(0.698532 0.0189946 -2.29379e-19)
(0.826507 0.0340752 6.07987e-21)
(0.940301 0.049412 2.92895e-19)
(1.03532 0.0635343 0)
(1.10949 0.0753476 7.81982e-20)
(1.16313 0.0842607 0)
(1.19842 0.0901808 -1.23218e-19)
(1.21868 0.093407 1.72699e-19)
(1.22763 0.0944746 1.33877e-21)
(1.22877 0.0939982 -4.36699e-20)
(1.22503 0.092549 7.94235e-20)
(1.2186 0.0905836 6.82266e-20)
(1.21095 0.0884194 -6.02004e-20)
(1.20298 0.0862583 5.44732e-20)
(1.1952 0.0840986 -4.79409e-20)
(1.18781 0.0824203 0)
(1.18092 0.0789168 -3.62099e-20)
(0.00982891 -0.00211975 9.19971e-20)
(0.0631474 -0.0110876 9.60183e-20)
(0.149119 -0.0146161 -8.66222e-20)
(0.261823 -0.0127042 1.61166e-19)
(0.39453 -0.00514158 -1.51692e-19)
(0.538845 0.00785083 1.3706e-19)
(0.684996 0.0250445 -6.55933e-20)
(0.823194 0.0444679 1.72396e-19)
(0.945245 0.0639122 -1.07807e-19)
(1.04576 0.0814204 1.88115e-19)
(1.12263 0.0956328 -4.31746e-19)
(1.17669 0.105923 1.57513e-19)
(1.21093 0.112338 -1.35055e-19)
(1.22947 0.115404 1.26859e-19)
(1.23663 0.115889 1.06648e-19)
(1.23625 0.114595 9.1505e-20)
(1.23137 0.112215 -2.54635e-19)
(1.22412 0.109273 1.57019e-19)
(1.21589 0.106118 -6.8228e-20)
(1.20747 0.102956 1.75312e-19)
(1.19931 0.0998913 -5.66526e-20)
(1.19158 0.0969293 -1.34701e-19)
(1.18437 0.094315 1.23814e-19)
(1.17761 0.0904242 3.61984e-20)
(0.0199372 -0.00449127 0)
(0.0959908 -0.014968 5.61379e-22)
(0.206463 -0.0156561 1.79136e-19)
(0.34305 -0.00791354 -1.68262e-19)
(0.495903 0.00716814 -1.51789e-19)
(0.653459 0.0279853 2.81868e-19)
(0.803751 0.0519284 -1.30786e-19)
(0.936593 0.0759944 1.73371e-19)
(1.04531 0.0975463 -4.37201e-21)
(1.1274 0.114818 -9.74483e-20)
(1.18404 0.127073 2.09998e-19)
(1.21894 0.13447 -3.0843e-19)
(1.23705 0.137764 0)
(1.2433 0.137967 -5.91976e-20)
(1.24196 0.136082 -1.55883e-19)
(1.23623 0.132941 4.9325e-20)
(1.22831 0.129147 2.34799e-21)
(1.21954 0.125094 -1.03043e-19)
(1.21068 0.121014 8.06531e-21)
(1.20214 0.117025 1.18398e-19)
(1.19406 0.113181 -5.14256e-20)
(1.1865 0.109497 -1.92404e-20)
(1.17942 0.10603 6.03576e-20)
(1.17277 0.101804 0)
(0.0327493 -0.00616964 0)
(0.135394 -0.0161338 4.8473e-20)
(0.272267 -0.0116693 -2.32287e-19)
(0.432044 0.00389707 8.44959e-20)
(0.601331 0.0275858 -7.95245e-20)
(0.765769 0.0560374 -7.22308e-20)
(0.91256 0.0852893 -1.27678e-19)
(1.033 0.111742 6.38483e-20)
(1.12359 0.132968 5.55226e-20)
(1.1855 0.147965 0)
(1.22309 0.156942 1.23914e-19)
(1.24211 0.160879 -1.82865e-19)
(1.2483 0.161064 1.35981e-19)
(1.24643 0.15874 5.92279e-20)
(1.24007 0.154914 -4.76759e-20)
(1.23153 0.150306 -3.89923e-20)
(1.22222 0.145372 -3.59192e-20)
(1.21292 0.14038 1.09339e-19)
(1.20397 0.135471 0)
(1.19554 0.130713 5.34063e-20)
(1.18766 0.126132 4.39396e-20)
(1.18029 0.121737 -1.10128e-19)
(1.17338 0.117487 -7.37764e-20)
(1.16684 0.112948 6.83958e-20)
(0.0483333 -0.00672475 -5.15342e-20)
(0.180877 -0.0135474 -1.54544e-21)
(0.344788 -0.00145693 4.70733e-20)
(0.525313 0.0235796 1.30889e-19)
(0.705672 0.0561682 3.78364e-20)
(0.869932 0.0911044 -7.31836e-20)
(1.00641 0.123502 6.70585e-20)
(1.10968 0.149881 -5.87758e-20)
(1.18035 0.168684 1.04543e-19)
(1.22316 0.180039 4.4247e-20)
(1.24476 0.185136 -1.25321e-19)
(1.25182 0.185588 3.6763e-20)
(1.24991 0.182951 6.2061e-20)
(1.24308 0.178472 -3.06478e-20)
(1.23395 0.173029 0)
(1.22406 0.167174 4.46633e-20)
(1.21422 0.161226 7.47324e-20)
(1.20481 0.155353 1.21582e-20)
(1.19597 0.149636 -6.1767e-20)
(1.18773 0.144114 2.55718e-20)
(1.18006 0.1388 0)
(1.1729 0.133687 -1.97507e-20)
(1.16615 0.128707 -1.83472e-20)
(1.15972 0.123816 0)
(0.0665378 -0.00568513 0)
(0.231372 -0.0062127 2.69109e-20)
(0.421493 0.0159076 4.96955e-20)
(0.618741 0.0514412 -1.3274e-19)
(0.803909 0.0923076 4.26695e-20)
(0.961387 0.131796 0)
(1.0826 0.164871 6.40125e-20)
(1.16657 0.188956 -8.92293e-20)
(1.21802 0.203826 -5.20256e-20)
(1.24445 0.21082 2.35463e-20)
(1.2537 0.211929 -3.69578e-20)
(1.25238 0.209123 9.01194e-20)
(1.24532 0.203989 4.4698e-20)
(1.23564 0.197636 -3.13425e-20)
(1.22511 0.190757 -3.20829e-21)
(1.21466 0.183744 -8.38461e-20)
(1.20471 0.176804 3.8049e-20)
(1.1954 0.170037 -8.9618e-22)
(1.18677 0.16349 0)
(1.17878 0.157183 -2.55982e-20)
(1.17136 0.15112 0)
(1.16442 0.145273 5.69324e-20)
(1.15787 0.13961 -6.74955e-20)
(1.15158 0.134296 3.06298e-20)
(0.0869635 -0.00258753 -1.38133e-20)
(0.28524 0.00670161 -6.72947e-20)
(0.49925 0.0409385 7.63e-20)
(0.708073 0.0871942 4.48878e-20)
(0.891782 0.13487 -2.1529e-20)
(1.03724 0.176527 3.59288e-20)
(1.14046 0.207912 -1.75208e-20)
(1.20525 0.227975 2.9063e-20)
(1.23974 0.238007 0)
(1.25311 0.240408 6.5317e-20)
(1.25339 0.237688 -2.80992e-21)
(1.24654 0.231917 -5.24718e-20)
(1.23642 0.22455 2.23541e-20)
(1.22523 0.216493 -2.50439e-20)
(1.21409 0.208253 -9.3822e-21)
(1.20352 0.200092 1.09824e-20)
(1.19367 0.192134 -8.38878e-21)
(1.18459 0.184438 -4.51045e-20)
(1.17623 0.177028 2.76234e-20)
(1.16854 0.169913 5.6071e-21)
(1.16141 0.163082 4.9042e-21)
(1.15473 0.156499 4.28983e-21)
(1.14841 0.150199 0)
(1.1423 0.144363 0)
(0.109032 0.00298439 1.38229e-20)
(0.340497 0.0257691 -1.3853e-20)
(0.574769 0.0736554 -2.53667e-20)
(0.78951 0.13 0)
(0.966229 0.182399 -1.06442e-20)
(1.09615 0.223763 -9.50317e-21)
(1.18066 0.251474 -1.62961e-20)
(1.22785 0.266356 0)
(1.2483 0.271139 0)
(1.25182 0.269011 0)
(1.24594 0.262719 0)
(1.23566 0.254238 0)
(1.22386 0.244808 -1.40025e-20)
(1.21201 0.235119 6.36764e-21)
(1.20075 0.22552 1.10074e-20)
(1.19031 0.216174 5.12975e-21)
(1.18073 0.20715 1.26136e-20)
(1.17199 0.198478 0)
(1.164 0.190166 -2.98049e-21)
(1.15668 0.182215 -2.81774e-21)
(1.14992 0.174597 -4.91198e-21)
(1.14359 0.167285 -4.29666e-21)
(1.13759 0.160381 0)
(1.13176 0.153925 3.03488e-21)
(-3.73497e-05 -0.0371261 9.07281e-21)
(-0.00335526 -0.0945275 -9.41863e-21)
(-0.0119468 -0.138609 -1.78295e-20)
(-0.0238237 -0.171196 0)
(-0.0376606 -0.194449 -2.38949e-20)
(-0.0525803 -0.210746 7.52671e-21)
(-0.0678594 -0.222311 -1.41741e-20)
(-0.0829349 -0.230936 0)
(-0.0974126 -0.237848 0)
(-0.111035 -0.243714 0)
(-0.123636 -0.248731 0)
(-0.135104 -0.25275 0)
(-0.145346 -0.255397 1.87763e-22)
(-0.154263 -0.256164 -9.67763e-21)
(-0.16174 -0.25447 1.80883e-20)
(-0.167639 -0.249703 2.59046e-20)
(-0.171802 -0.241247 7.88048e-21)
(-0.174055 -0.228512 0)
(-0.17423 -0.210965 7.51428e-21)
(-0.172183 -0.188179 -2.05784e-20)
(-0.167764 -0.159881 -1.27015e-20)
(-0.160779 -0.12597 -1.18942e-20)
(-0.151255 -0.0864634 0)
(-0.140319 -0.0418152 0)
(0.00133561 -0.0322732 -2.71522e-20)
(-0.000918523 -0.082845 4.69246e-20)
(-0.0103596 -0.122227 -1.75552e-20)
(-0.0239945 -0.151685 -3.35434e-20)
(-0.0399587 -0.17305 4.74737e-20)
(-0.0571185 -0.18845 -2.99081e-20)
(-0.0746128 -0.199877 4.23044e-20)
(-0.091825 -0.208918 2.65094e-20)
(-0.108366 -0.216635 0)
(-0.124018 -0.223575 -2.39683e-20)
(-0.138665 -0.229867 -1.9024e-22)
(-0.152251 -0.235339 2.12512e-20)
(-0.164732 -0.239629 2.97876e-20)
(-0.176058 -0.242267 3.76343e-20)
(-0.186155 -0.242721 -1.79838e-20)
(-0.194921 -0.240433 -5.0358e-20)
(-0.20222 -0.234837 1.51659e-20)
(-0.207897 -0.225373 -5.77249e-20)
(-0.211796 -0.211511 0)
(-0.213787 -0.192788 1.35112e-20)
(-0.213696 -0.16884 1.2689e-20)
(-0.211166 -0.139386 1.18824e-20)
(-0.206232 -0.10415 0)
(-0.20144 -0.0632871 0)
(0.00197034 -0.0259214 0)
(0.000126559 -0.0681006 9.29029e-20)
(-0.0100245 -0.102177 -3.50854e-20)
(-0.0248001 -0.128457 3.33992e-20)
(-0.0419709 -0.148164 -9.41305e-20)
(-0.060237 -0.16299 0)
(-0.0786513 -0.174587 -5.60267e-20)
(-0.0965651 -0.184278 2.62117e-20)
(-0.113594 -0.192944 -4.95959e-20)
(-0.129542 -0.201023 2.30885e-20)
(-0.144323 -0.208593 1.31927e-19)
(-0.15791 -0.215478 -6.18904e-20)
(-0.170292 -0.221342 -9.72093e-20)
(-0.181449 -0.225757 -3.55718e-20)
(-0.191342 -0.228247 4.30594e-22)
(-0.199908 -0.22831 1.26587e-19)
(-0.207053 -0.225431 -5.91683e-20)
(-0.212655 -0.219092 1.95949e-21)
(-0.216597 -0.208772 0)
(-0.218799 -0.193971 -4.40436e-20)
(-0.219113 -0.174214 0)
(-0.217021 -0.149053 -3.99721e-20)
(-0.212334 -0.118066 1.40235e-19)
(-0.208896 -0.0813868 -1.92225e-21)
(0.00174104 -0.0186362 0)
(-0.000392755 -0.0514752 -3.02001e-23)
(-0.0110162 -0.079913 3.51092e-20)
(-0.0261768 -0.103039 -3.3233e-20)
(-0.0435034 -0.121287 3.11913e-20)
(-0.0616362 -0.135789 1.7748e-19)
(-0.0795974 -0.147777 -5.57082e-20)
(-0.096727 -0.158284 -5.25588e-20)
(-0.112641 -0.168002 9.89831e-20)
(-0.127149 -0.177267 -1.39392e-19)
(-0.140171 -0.18612 4.34043e-20)
(-0.151688 -0.194386 4.0561e-20)
(-0.161697 -0.201756 0)
(-0.170195 -0.207843 3.58501e-20)
(-0.177165 -0.212219 0)
(-0.182572 -0.214435 5.94605e-20)
(-0.186361 -0.214033 -1.09783e-19)
(-0.188446 -0.210547 2.93138e-20)
(-0.188731 -0.203494 9.39605e-20)
(-0.187158 -0.192369 4.40063e-20)
(-0.183636 -0.176606 0)
(-0.177571 -0.155551 -1.00706e-19)
(-0.168113 -0.128561 3.3552e-20)
(-0.159491 -0.0957417 0)
(0.000652154 -0.0110571 0)
(-0.00242396 -0.0342526 -1.11275e-19)
(-0.0131995 -0.0569475 -3.55769e-20)
(-0.0279046 -0.0769613 -6.65743e-20)
(-0.0442604 -0.0938652 6.26932e-20)
(-0.0609561 -0.108171 -5.91868e-20)
(-0.0770376 -0.120661 1.11724e-19)
(-0.0918534 -0.132059 5.25239e-20)
(-0.105018 -0.142871 -1.48203e-19)
(-0.116334 -0.153337 9.23694e-20)
(-0.125713 -0.163463 -1.29756e-19)
(-0.133128 -0.173077 2.81667e-19)
(-0.138577 -0.181894 -1.50816e-19)
(-0.142065 -0.189557 6.8945e-20)
(-0.143595 -0.195673 1.89231e-19)
(-0.143164 -0.199836 -6.28019e-20)
(-0.140761 -0.201636 -5.5971e-20)
(-0.136355 -0.200667 -5.0888e-20)
(-0.129891 -0.19652 0)
(-0.121328 -0.188761 -7.37881e-20)
(-0.110662 -0.176848 -5.98065e-20)
(-0.097498 -0.159973 9.35367e-20)
(-0.0802382 -0.136997 9.92169e-20)
(-0.0602722 -0.107355 -9.00899e-20)
(-0.00116231 -0.00380855 0)
(-0.00568677 -0.017693 -1.49781e-19)
(-0.0162226 -0.0347589 -7.62788e-22)
(-0.029585 -0.051703 1.33552e-19)
(-0.0437973 -0.06728 0)
(-0.0576924 -0.081387 0)
(-0.0703882 -0.0943541 0)
(-0.0812591 -0.106597 -5.2489e-20)
(-0.0899182 -0.118435 3.08436e-22)
(-0.0961509 -0.13001 9.30512e-20)
(-0.0998528 -0.141292 -1.28738e-19)
(-0.100984 -0.152106 6.73588e-22)
(-0.0995426 -0.162178 0)
(-0.0955478 -0.171172 -6.89137e-20)
(-0.0890356 -0.178716 6.01346e-20)
(-0.080055 -0.184425 -1.72381e-19)
(-0.0686633 -0.187922 2.03108e-19)
(-0.054916 -0.18885 3.71928e-20)
(-0.03885 -0.186883 -1.05169e-20)
(-0.0204802 -0.181724 -1.47021e-19)
(0.000151753 -0.173052 -5.94529e-20)
(0.0230231 -0.160345 1.76734e-19)
(0.048907 -0.14238 -1.11211e-19)
(0.0830873 -0.115549 0)
(-0.00345692 0.0025316 7.31716e-20)
(-0.00971415 -0.00294231 7.49911e-20)
(-0.0195454 -0.0147048 -7.20397e-20)
(-0.0306538 -0.0286463 -1.35499e-19)
(-0.041517 -0.0428424 1.27596e-19)
(-0.0511812 -0.0566345 -1.20608e-19)
(-0.058872 -0.0699283 1.70613e-19)
(-0.0640029 -0.0828424 -5.22948e-20)
(-0.0661842 -0.0955066 1.00208e-19)
(-0.0651808 -0.10796 0)
(-0.0608676 -0.120121 8.62466e-20)
(-0.0531964 -0.131797 -1.63088e-19)
(-0.0421778 -0.142714 1.47251e-19)
(-0.0278712 -0.152536 -1.38305e-19)
(-0.0103805 -0.160896 0)
(0.010149 -0.167417 1.12531e-19)
(0.0335375 -0.171736 1.94767e-19)
(0.0595822 -0.173522 -1.83542e-19)
(0.088078 -0.1725 -7.73027e-20)
(0.118837 -0.168473 -6.23894e-20)
(0.151648 -0.161346 1.80611e-19)
(0.186489 -0.151025 4.09164e-20)
(0.222677 -0.136928 -4.37696e-20)
(0.273119 -0.114073 3.15949e-20)
(-0.00589829 0.00754747 -7.31814e-20)
(-0.0138745 0.00909549 2.30877e-19)
(-0.0224808 0.00206416 -7.27207e-20)
(-0.030426 -0.00902234 1.37382e-19)
(-0.036718 -0.0217681 -1.29366e-19)
(-0.0406595 -0.0350675 8.41153e-22)
(-0.041611 -0.0484527 5.78332e-20)
(-0.0390375 -0.0617651 2.17068e-19)
(-0.0325527 -0.074947 -1.02115e-21)
(-0.0219096 -0.0879207 -9.46338e-20)
(-0.00697957 -0.100537 0)
(0.012263 -0.112567 -8.0026e-20)
(0.0357469 -0.123713 1.51316e-19)
(0.0633077 -0.133628 1.34593e-19)
(0.0946925 -0.141939 -6.42569e-20)
(0.129567 -0.148271 -1.6919e-22)
(0.167529 -0.152276 -5.00005e-20)
(0.208133 -0.153652 8.75138e-20)
(0.250917 -0.15217 7.72695e-20)
(0.295452 -0.147686 -6.67081e-20)
(0.341126 -0.14024 5.58208e-20)
(0.388872 -0.129567 -4.67903e-20)
(0.431956 -0.117154 0)
(0.500945 -0.0964843 -3.15318e-20)
(-0.00817445 0.0110126 7.53153e-20)
(-0.0175335 0.0178192 -7.7319e-20)
(-0.0242914 0.0146974 7.44258e-20)
(-0.0281418 0.00617472 0)
(-0.0286324 -0.00511921 0)
(-0.0253265 -0.0177541 1.2569e-19)
(-0.0177282 -0.0309613 -1.16612e-19)
(-0.00538139 -0.0443388 1.09712e-19)
(0.0120655 -0.0576487 -5.12654e-19)
(0.0348278 -0.0706865 8.13787e-22)
(0.0629723 -0.0832199 8.91506e-20)
(0.0964119 -0.0949654 0)
(0.134901 -0.105591 -1.48544e-19)
(0.178032 -0.114735 2.74485e-19)
(0.225251 -0.122025 -1.88873e-19)
(0.275876 -0.127112 -2.73128e-19)
(0.329136 -0.129692 1.17843e-20)
(0.384214 -0.129535 1.80099e-19)
(0.440284 -0.126507 0)
(0.496697 -0.120521 0)
(0.552041 -0.111967 -5.58041e-20)
(0.609297 -0.0998149 4.67762e-20)
(0.654504 -0.0879112 -1.45515e-19)
(0.733476 -0.0668425 1.36572e-19)
(-0.00999687 0.0128844 0)
(-0.0200745 0.0229899 0)
(-0.0242422 0.0227247 -2.24769e-19)
(-0.0230204 0.016284 7.12395e-20)
(-0.016437 0.00632692 -8.78939e-23)
(-0.00431245 -0.00552343 1.2739e-19)
(0.0136847 -0.0182803 0)
(0.0378957 -0.0313399 -1.11385e-19)
(0.0685633 -0.0442983 1.03075e-19)
(0.105767 -0.0568242 -1.92664e-19)
(0.149372 -0.0685954 1.35242e-21)
(0.199007 -0.0792717 1.63242e-19)
(0.254047 -0.088497 -4.18435e-21)
(0.31363 -0.0959165 1.30457e-19)
(0.376693 -0.101202 -1.91833e-19)
(0.442025 -0.10408 0)
(0.508351 -0.104357 1.91849e-19)
(0.574405 -0.101936 -2.6723e-19)
(0.638986 -0.0968521 7.5877e-20)
(0.701262 -0.0891151 0)
(0.75943 -0.0794535 5.64191e-20)
(0.816978 -0.0664902 1.80865e-19)
(0.859305 -0.0550137 -1.69741e-19)
(0.930685 -0.0347983 -1.63521e-19)
(-0.0111626 0.0133083 2.35264e-19)
(-0.0209649 0.0247281 -3.24475e-19)
(-0.0216006 0.0261074 2.71799e-23)
(-0.0141956 0.0211092 7.25912e-20)
(0.0008357 0.0122664 -1.36433e-19)
(0.0234356 0.00128188 -1.26617e-19)
(0.0537348 -0.0107151 2.38692e-19)
(0.0918754 -0.0229687 -2.21206e-21)
(0.13786 -0.0349334 -2.09873e-19)
(0.191443 -0.046168 3.87465e-19)
(0.252054 -0.0562788 -3.43449e-21)
(0.318768 -0.0648988 -1.67513e-19)
(0.390312 -0.071694 0)
(0.465121 -0.0763816 0)
(0.541437 -0.0787536 -6.2197e-20)
(0.617425 -0.0786973 -1.10789e-19)
(0.691309 -0.0762069 -1.91366e-19)
(0.761489 -0.0713896 1.79635e-19)
(0.826639 -0.0644555 -7.59013e-20)
(0.885834 -0.0556506 1.26494e-19)
(0.938088 -0.0455889 -6.63993e-20)
(0.985088 -0.0335913 8.43428e-20)
(1.01922 -0.0231959 -2.17253e-19)
(1.06812 -0.00620268 3.441e-20)
(-0.0115481 0.0125519 7.96136e-20)
(-0.0197386 0.0234599 0)
(-0.0155833 0.0252516 1.5552e-19)
(-0.000604258 0.0210006 -1.46506e-19)
(0.0244917 0.0130307 1.36549e-19)
(0.0594109 0.00304209 0)
(0.10401 -0.00776343 0)
(0.158078 -0.018528 -1.12378e-19)
(0.221144 -0.0286112 2.22262e-21)
(0.292339 -0.0375103 9.91023e-20)
(0.370319 -0.0448215 -8.83588e-20)
(0.453275 -0.050231 1.67702e-19)
(0.539015 -0.0535237 0)
(0.62512 -0.0545947 2.68981e-19)
(0.709128 -0.0534573 -4.93927e-19)
(0.788737 -0.0502405 3.37466e-19)
(0.86198 -0.0451732 1.90291e-19)
(0.927349 -0.0385732 -1.78635e-19)
(0.983896 -0.0307733 0)
(1.03115 -0.0222338 0)
(1.06938 -0.0131656 0)
(1.09903 -0.00405176 0)
(1.12017 0.00430354 4.23234e-20)
(1.142 0.0155414 -1.44675e-19)
(-0.128167 0.0142567 -7.78808e-21)
(-0.106553 0.088715 7.81214e-21)
(-0.0820224 0.169966 -2.11291e-22)
(-0.0546999 0.254154 0)
(-0.0256208 0.337359 -6.03884e-21)
(0.00384739 0.415455 1.12595e-20)
(0.0318724 0.484667 -4.97788e-22)
(0.0566255 0.542191 -4.60869e-21)
(0.0774421 0.585213 0)
(0.0958026 0.612453 0)
(0.115958 0.620054 -1.89206e-22)
(0.144537 0.601086 -1.84736e-22)
(0.188111 0.547319 -3.22138e-21)
(0.249077 0.453901 2.94693e-21)
(0.323688 0.32316 0)
(0.404533 0.163399 0)
(0.484944 -0.0142211 3.23018e-21)
(0.561142 -0.193489 -2.33989e-22)
(0.628476 -0.350885 -2.65013e-21)
(0.681487 -0.464693 -1.40198e-22)
(0.717154 -0.527412 0)
(0.735309 -0.547956 0)
(0.739496 -0.54127 0)
(0.734828 -0.52188 0)
(0.720328 -0.507389 0)
(0.689656 -0.510253 0)
(0.645016 -0.516693 3.94596e-22)
(0.605491 -0.481508 -6.1361e-22)
(0.594033 -0.36521 0)
(0.617369 -0.173178 0)
(0.664169 0.0428983 -6.27537e-22)
(0.718306 0.22863 6.09882e-22)
(0.765764 0.353657 2.2198e-22)
(0.800959 0.416198 0)
(0.824405 0.436333 0)
(0.830267 0.444886 2.51671e-22)
(0.810322 0.468122 -2.44642e-22)
(0.769251 0.478232 0)
(0.72905 0.432866 3.22051e-22)
(0.714835 0.291632 -4.91805e-22)
(0.727779 0.0964799 1.87457e-22)
(0.761216 -0.101696 0)
(0.800467 -0.246376 -2.41357e-22)
(0.833108 -0.32427 2.34689e-22)
(0.843849 -0.374413 0)
(0.815995 -0.390129 0)
(0.77158 -0.402702 -7.10863e-23)
(0.738767 -0.308818 2.05212e-22)
(0.740853 -0.17851 0)
(0.774331 0.00392927 0)
(0.812848 0.155849 -5.71741e-23)
(0.820318 0.247862 3.66283e-24)
(0.806163 0.369128 -4.92698e-24)
(0.781394 0.323711 3.9762e-23)
(0.782387 0.312795 0)
(0.798687 0.129737 0)
(0.812097 -0.0457895 0)
(0.804131 -0.14275 0)
(0.807827 -0.380856 0)
(0.787874 -0.218599 0)
(-0.200162 -0.0112633 -6.25392e-22)
(-0.183357 0.0589876 -2.58781e-20)
(-0.163534 0.136497 1.09904e-21)
(-0.139323 0.218196 2.32893e-20)
(-0.111268 0.300435 2.98681e-22)
(-0.0801418 0.379346 0)
(-0.0470142 0.451262 -1.634e-20)
(-0.0135597 0.51197 3.09571e-20)
(0.0211461 0.557187 -1.46214e-20)
(0.0600708 0.584174 1.25216e-20)
(0.106037 0.58743 -1.19809e-20)
(0.16314 0.560335 1.22626e-20)
(0.233936 0.497248 -1.19135e-20)
(0.316716 0.396985 -4.27188e-22)
(0.405531 0.264102 -1.45862e-20)
(0.493416 0.10601 1.41736e-20)
(0.576091 -0.0680982 -1.40478e-20)
(0.650721 -0.242129 1.32245e-20)
(0.711934 -0.39171 -1.07057e-20)
(0.754153 -0.494579 1.87353e-20)
(0.776242 -0.54483 -8.12384e-21)
(0.780769 -0.554148 -3.48789e-22)
(0.77244 -0.539675 -4.019e-21)
(0.75731 -0.514681 7.35903e-21)
(0.736238 -0.493104 -3.35602e-21)
(0.702114 -0.487756 1.85454e-22)
(0.652697 -0.491389 3.65977e-21)
(0.603099 -0.464821 7.51204e-22)
(0.578192 -0.365822 -8.55275e-21)
(0.590265 -0.190701 9.23373e-21)
(0.631422 0.0156623 -4.63824e-21)
(0.685218 0.200724 4.86236e-22)
(0.73692 0.330915 -2.22446e-22)
(0.779866 0.400465 3.22877e-22)
(0.811509 0.428607 0)
(0.823516 0.446863 0)
(0.807728 0.479288 -1.04969e-21)
(0.772453 0.493251 7.44738e-22)
(0.739449 0.443925 1.07607e-21)
(0.732703 0.294043 3.65998e-22)
(0.749558 0.0901171 -1.69802e-21)
(0.782969 -0.112941 3.68931e-22)
(0.817737 -0.258019 0)
(0.845087 -0.330882 0)
(0.853163 -0.371937 0)
(0.822802 -0.37954 0)
(0.777208 -0.391429 2.46678e-22)
(0.739831 -0.304324 -1.362e-22)
(0.740715 -0.18371 0)
(0.771585 -0.00576229 0)
(0.809057 0.14936 0)
(0.815981 0.248356 -8.79732e-23)
(0.800957 0.373443 8.70614e-24)
(0.778899 0.326244 -8.19497e-23)
(0.779686 0.310845 0)
(0.801585 0.126883 0)
(0.817212 -0.046851 7.03346e-23)
(0.810052 -0.141945 2.01455e-22)
(0.814166 -0.379169 0)
(0.791262 -0.217271 0)
(-0.214454 -0.0344549 -1.23614e-21)
(-0.204141 0.0292805 -4.34944e-20)
(-0.189769 0.101715 3.96487e-20)
(-0.16981 0.179156 -3.71832e-20)
(-0.143714 0.258397 -3.00777e-22)
(-0.111416 0.335971 0)
(-0.0736892 0.407442 -2.80126e-20)
(-0.0318688 0.466796 2.73623e-20)
(0.0163446 0.511684 2.03538e-22)
(0.0735446 0.536717 3.44715e-22)
(0.140495 0.53581 3.53235e-22)
(0.218552 0.503398 3.78961e-22)
(0.30713 0.436161 -2.75132e-20)
(0.40232 0.335271 2.71643e-20)
(0.497697 0.206008 0)
(0.587642 0.0543553 9.75e-22)
(0.669751 -0.112682 -2.96208e-20)
(0.741244 -0.279262 2.92078e-20)
(0.795372 -0.419648 0)
(0.826206 -0.511823 0)
(0.834567 -0.55166 -1.38236e-20)
(0.826003 -0.552549 2.38907e-20)
(0.80643 -0.532842 -1.7956e-20)
(0.781875 -0.504671 1.34525e-21)
(0.754752 -0.477954 1.22779e-20)
(0.718329 -0.464744 -1.17815e-20)
(0.666341 -0.46436 1.14372e-20)
(0.608764 -0.445347 6.04417e-22)
(0.57093 -0.36439 -6.73942e-21)
(0.570572 -0.20815 0)
(0.60436 -0.0132249 0)
(0.656307 0.169524 2.47913e-21)
(0.711236 0.304076 -3.29476e-21)
(0.761173 0.380759 -3.2264e-23)
(0.80037 0.417768 2.08736e-21)
(0.818396 0.446418 -2.02856e-21)
(0.807336 0.488234 0)
(0.778529 0.506361 2.76774e-22)
(0.752852 0.454054 3.3499e-21)
(0.753284 0.297107 -7.10847e-21)
(0.774056 0.0861475 3.2536e-21)
(0.807328 -0.121062 4.16975e-22)
(0.837438 -0.266818 -2.80417e-21)
(0.858992 -0.335703 2.11644e-21)
(0.864209 -0.36869 3.46958e-22)
(0.831637 -0.368558 2.68552e-22)
(0.785331 -0.379953 -2.47294e-22)
(0.743639 -0.300031 0)
(0.743185 -0.189297 0)
(0.770964 -0.0159288 -8.12507e-22)
(0.807111 0.142635 4.04252e-22)
(0.813418 0.248479 -3.47812e-22)
(0.797341 0.377538 5.19159e-22)
(0.77773 0.328701 7.11136e-22)
(0.778268 0.308548 -1.60812e-22)
(0.805851 0.123689 3.57333e-22)
(0.823708 -0.0480888 -3.26833e-22)
(0.817186 -0.140976 1.74622e-22)
(0.821434 -0.37717 0)
(0.79551 -0.21581 0)
(-0.166677 -0.0533893 -7.13866e-20)
(-0.16349 0.00318729 4.48894e-21)
(-0.153506 0.0687018 6.31473e-20)
(-0.138214 0.140171 -5.16276e-22)
(-0.114923 0.214809 0)
(-0.0830341 0.287166 0)
(-0.0440393 0.353519 -4.53839e-20)
(0.00326341 0.40993 4.05027e-22)
(0.0615024 0.45287 6.34066e-20)
(0.130527 0.475423 9.03656e-22)
(0.210237 0.471793 -2.1676e-20)
(0.299913 0.437487 -2.48752e-20)
(0.396979 0.370833 2.48857e-20)
(0.496539 0.274279 0)
(0.592581 0.152805 -3.17693e-20)
(0.681262 0.010209 2.88909e-20)
(0.76165 -0.148302 0)
(0.829879 -0.306521 0)
(0.876877 -0.437249 2.26388e-20)
(0.896422 -0.519105 -4.13017e-21)
(0.891438 -0.550089 -1.68811e-20)
(0.870486 -0.544711 -1.06918e-20)
(0.84094 -0.521582 1.05859e-20)
(0.808141 -0.492146 -6.67139e-21)
(0.775275 -0.462608 9.1572e-22)
(0.737214 -0.442391 5.3812e-21)
(0.685029 -0.436153 6.25424e-22)
(0.622442 -0.42215 6.5209e-23)
(0.572858 -0.359059 0)
(0.559072 -0.223888 6.89457e-21)
(0.58354 -0.0427774 -7.08732e-21)
(0.631909 0.135717 4.2603e-22)
(0.688926 0.273584 0)
(0.744853 0.357332 -2.94293e-22)
(0.790816 0.403746 3.95616e-21)
(0.814719 0.443081 -7.38564e-21)
(0.808859 0.494319 -1.03976e-21)
(0.786911 0.517102 -9.82853e-22)
(0.768571 0.463229 4.4128e-21)
(0.775945 0.3012 8.31808e-22)
(0.800533 0.0845923 -6.94042e-21)
(0.833674 -0.126104 5.95254e-21)
(0.859282 -0.272861 -2.76911e-23)
(0.874689 -0.338907 1.68124e-21)
(0.876776 -0.364937 -1.98257e-21)
(0.842173 -0.357399 -1.78034e-21)
(0.795572 -0.368201 5.33789e-22)
(0.749851 -0.29568 8.18406e-22)
(0.747929 -0.195034 -1.57118e-21)
(0.772265 -0.026485 1.15206e-21)
(0.806919 0.135649 -3.64807e-22)
(0.812618 0.248187 3.39302e-22)
(0.795385 0.381445 3.1901e-22)
(0.778025 0.331146 -1.0958e-21)
(0.778259 0.30595 -6.16471e-24)
(0.8115 0.120188 -4.21938e-22)
(0.831543 -0.0494764 0)
(0.825516 -0.13983 -1.69317e-22)
(0.829596 -0.374843 2.63429e-22)
(0.800569 -0.214202 0)
(-0.064206 -0.0678028 5.85738e-20)
(-0.068508 -0.0179613 -1.09321e-19)
(-0.0626118 0.0392416 5.03554e-20)
(-0.0501121 0.102752 4.22472e-20)
(-0.0315009 0.168611 -8.10872e-20)
(-0.00389127 0.233494 1.84039e-21)
(0.0349768 0.294176 3.63287e-20)
(0.0848261 0.347329 3.5809e-20)
(0.146483 0.386938 -3.51061e-20)
(0.219784 0.407032 0)
(0.303825 0.402369 -4.50033e-20)
(0.396591 0.369221 9.40867e-20)
(0.494517 0.306718 -4.89613e-20)
(0.592474 0.217635 0)
(0.685331 0.106095 0)
(0.771299 -0.0263757 1.0022e-21)
(0.849994 -0.17545 -6.11325e-20)
(0.914894 -0.324003 5.9379e-20)
(0.954345 -0.443982 0)
(0.962572 -0.515721 3.72902e-20)
(0.945035 -0.539689 -6.25437e-20)
(0.912918 -0.530736 4.75167e-20)
(0.874979 -0.506333 -3.65975e-20)
(0.835586 -0.477229 2.92602e-21)
(0.797647 -0.447161 2.27636e-20)
(0.758157 -0.421908 -1.02916e-20)
(0.70751 -0.408945 -2.91891e-22)
(0.643246 -0.396626 -4.37856e-21)
(0.584149 -0.349371 -6.64662e-22)
(0.556398 -0.236628 5.06478e-21)
(0.569542 -0.0721321 3.92625e-22)
(0.61248 0.0999609 -4.96017e-21)
(0.670153 0.239818 9.08948e-21)
(0.730784 0.330274 -4.59586e-21)
(0.782568 0.386254 0)
(0.812161 0.436291 -4.35574e-21)
(0.81187 0.496987 4.27978e-21)
(0.796995 0.525223 -4.83816e-21)
(0.785931 0.471584 6.00725e-21)
(0.799844 0.30637 -8.98054e-22)
(0.828217 0.0852145 0)
(0.86149 -0.128077 -8.64326e-22)
(0.882897 -0.275996 2.03096e-21)
(0.891938 -0.340339 0)
(0.890657 -0.360665 3.1769e-21)
(0.854158 -0.346179 -1.37184e-21)
(0.807565 -0.356235 4.29209e-22)
(0.758083 -0.291182 3.43193e-22)
(0.754563 -0.200768 0)
(0.775236 -0.0373596 0)
(0.80833 0.128344 -9.44374e-22)
(0.813533 0.247411 1.52524e-21)
(0.795149 0.385166 -9.46426e-22)
(0.779912 0.33364 3.23651e-22)
(0.779773 0.303088 7.71664e-22)
(0.818534 0.116367 4.2234e-22)
(0.840667 -0.0510045 -7.90448e-22)
(0.835015 -0.138477 0)
(0.838597 -0.372142 -4.13608e-22)
(0.806383 -0.212431 -3.64711e-23)
(0.0819827 -0.0804242 4.86083e-20)
(0.0694036 -0.0373034 -4.81674e-20)
(0.0683918 0.0118813 3.39405e-22)
(0.0757165 0.0662649 -2.38173e-22)
(0.0902174 0.12299 2.83052e-22)
(0.114579 0.181295 -2.61199e-22)
(0.150142 0.236572 3.97891e-22)
(0.197467 0.284549 0)
(0.256972 0.320136 -4.5169e-22)
(0.328287 0.338117 5.11862e-22)
(0.409998 0.333784 5.90866e-22)
(0.499558 0.303833 -7.25504e-22)
(0.593184 0.247519 0)
(0.686126 0.167235 0)
(0.774384 0.0657045 9.26847e-22)
(0.857641 -0.0564908 0)
(0.934588 -0.195389 -9.41229e-22)
(0.995223 -0.332646 0)
(1.02608 -0.440824 -4.37099e-20)
(1.02298 -0.503032 7.85913e-20)
(0.994191 -0.521914 -6.15262e-20)
(0.952641 -0.511826 2.67796e-20)
(0.90793 -0.488071 1.57493e-20)
(0.863576 -0.460389 -1.52953e-20)
(0.821394 -0.431434 -1.00033e-20)
(0.780366 -0.403495 9.66833e-21)
(0.732248 -0.384059 0)
(0.669573 -0.370203 1.99795e-22)
(0.604284 -0.335242 0)
(0.563064 -0.244916 0)
(0.563108 -0.0999996 8.32918e-21)
(0.598521 0.063093 -8.55892e-21)
(0.655039 0.203241 4.1641e-22)
(0.718782 0.299682 4.52695e-22)
(0.77532 0.365074 -3.70215e-22)
(0.810354 0.425594 -3.69291e-21)
(0.815859 0.495756 3.58587e-21)
(0.808091 0.530469 -6.07184e-21)
(0.804143 0.479126 5.31528e-21)
(0.824153 0.312627 1.82201e-21)
(0.85637 0.0879683 -7.53477e-21)
(0.890172 -0.127051 -2.35012e-23)
(0.907856 -0.276198 4.86151e-21)
(0.91045 -0.339939 0)
(0.905596 -0.355929 -1.41052e-21)
(0.86732 -0.335009 1.28875e-21)
(0.820921 -0.344047 -1.74809e-21)
(0.76792 -0.286402 -3.45365e-22)
(0.762665 -0.206355 0)
(0.779574 -0.0485356 2.95895e-22)
(0.811139 0.120623 -5.18491e-22)
(0.816077 0.246051 -3.30054e-23)