/*--------------------------------*- C++ -*----------------------------------*\
| =========                 |                                                 |
| \\      /  F ield         | OpenFOAM: The Open Source CFD Toolbox           |
|  \\    /   O peration     | Version:  2512                                  |
|   \\  /    A nd           | Website:  www.openfoam.com                      |
|    \\/     M anipulation  |                                                 |
\*---------------------------------------------------------------------------*/
FoamFile
{
    version     2.0;
    format      ascii;
    arch        "LSB;label=32;scalar=64";
    class       volVectorField;
    location    "161.75";
    object      U;
}
// * * * * * * * * * * * * * * * * * * * * * * * * * * * * * * * * * * * * * //

dimensions      [0 1 -1 0 0 0 0];

internalField   nonuniform List<vector> 
13248
(
(-0.0108474 0.0104274 7.88078e-20)
(-0.0160487 0.0184713 0)
(-0.00678153 0.0188562 -1.49859e-19)
(0.0154659 0.0143661 1.41169e-19)
(0.0499688 0.00714853 1.32784e-19)
(0.0963135 -0.00117463 0)
(0.154071 -0.0094279 0)
(0.222553 -0.0167618 3.20523e-19)
(0.300608 -0.0225624 -3.03596e-21)
(0.386511 -0.0264056 -2.77207e-19)
(0.477964 -0.0280417 2.50896e-19)
(0.572205 -0.0273922 -1.56467e-19)
(0.666217 -0.0245457 0)
(0.756993 -0.0197419 -2.47582e-19)
(0.841789 -0.0133424 4.54056e-19)
(0.918353 -0.00578932 -1.073e-19)
(0.985077 0.0024425 -1.74714e-19)
(1.04106 0.0108818 1.64019e-19)
(1.08613 0.0191377 0)
(1.12069 0.0267703 0)
(1.14582 0.0338313 0)
(1.16239 0.0392359 0)
(1.17321 0.0450263 4.12341e-20)
(1.17677 0.0461555 1.39336e-19)
(-0.00980271 0.00864536 -2.38066e-19)
(-0.0100013 0.0141385 1.62617e-19)
(0.00784449 0.0134712 -1.03587e-21)
(0.0418954 0.0089909 -2.15443e-19)
(0.0910549 0.00267344 -1.32637e-19)
(0.154418 -0.00388723 -1.25282e-19)
(0.230823 -0.00952456 -2.30537e-19)
(0.318565 -0.0134306 2.17422e-19)
(0.415221 -0.0151039 0)
(0.517639 -0.0143272 2.15492e-21)
(0.62211 -0.0111504 4.38608e-21)
(0.724693 -0.00585847 1.55744e-19)
(0.821599 0.00108173 0)
(0.909572 0.00909251 0)
(0.986174 0.0175643 1.63135e-19)
(1.04995 0.0259293 -3.06067e-19)
(1.10047 0.0337194 1.72575e-19)
(1.13822 0.0405987 -1.62023e-19)
(1.16443 0.0463831 -6.88102e-20)
(1.18087 0.0509874 -1.18154e-19)
(1.1895 0.0545697 -4.62042e-20)
(1.19254 0.0568293 -8.4739e-20)
(1.1915 0.0592817 1.29822e-19)
(1.18793 0.0577658 3.62539e-20)
(-0.00761432 0.00635182 0)
(-0.00021432 0.00843321 0)
(0.0289367 0.00632323 7.62473e-20)
(0.0775686 0.00198357 7.05632e-20)
(0.144032 -0.00279759 -1.43918e-21)
(0.226587 -0.00652317 -1.28187e-19)
(0.322846 -0.00816849 0)
(0.429522 -0.00716378 -1.07901e-19)
(0.542416 -0.00336226 1e-19)
(0.65668 0.0029962 -3.64272e-23)
(0.767291 0.011356 -1.6741e-19)
(0.869621 0.0209556 -1.49317e-19)
(0.959948 0.0309593 5.67356e-21)
(1.0358 0.0405849 -1.14952e-19)
(1.09612 0.0492051 2.82255e-19)
(1.14115 0.0564071 0)
(1.17224 0.0620082 -1.69794e-19)
(1.1915 0.0660278 8.28783e-20)
(1.20143 0.068647 6.87494e-20)
(1.20456 0.0701004 0)
(1.20323 0.0707703 5.32853e-20)
(1.19928 0.0706013 -1.80905e-19)
(1.19401 0.070748 1.69819e-19)
(1.18883 0.0681436 1.03199e-19)
(-0.00404426 0.00375421 -8.37284e-20)
(0.0140579 0.00206961 -8.63912e-20)
(0.0577094 -0.00130688 7.85859e-20)
(0.123963 -0.00482558 0)
(0.210233 -0.00695977 0)
(0.313386 -0.00645371 -1.84733e-21)
(0.429167 -0.00265636 0)
(0.552165 0.0044712 -3.24733e-19)
(0.676187 0.0144297 3.00072e-19)
(0.79495 0.0263108 -3.68565e-19)
(0.902881 0.0389854 8.34522e-20)
(0.995798 0.0513174 0)
(1.0713 0.0623504 1.32567e-19)
(1.12886 0.0714323 -2.43065e-19)
(1.16952 0.0782602 5.76921e-20)
(1.19555 0.082853 1.40005e-19)
(1.20986 0.085472 -9.91332e-21)
(1.21551 0.086518 -1.54502e-19)
(1.21532 0.086431 0)
(1.21161 0.0856029 0)
(1.20612 0.084395 -5.15223e-20)
(1.19993 0.082799 4.54356e-20)
(1.19377 0.0817241 1.56982e-19)
(1.18784 0.0782808 -1.47382e-19)
(0.00124009 0.00102235 -8.75386e-20)
(0.0336209 -0.00425544 -8.74218e-20)
(0.0952186 -0.00811014 2.46139e-19)
(0.181996 -0.00955786 -1.49809e-19)
(0.289825 -0.0075192 1.41011e-19)
(0.413463 -0.00124253 2.56587e-19)
(0.546181 0.00921201 -1.80617e-19)
(0.680233 0.0230207 -2.1732e-19)
(0.80783 0.0388225 5.92951e-21)
(0.922257 0.0550233 2.76966e-19)
(1.01877 0.0701179 0)
(1.09502 0.0829501 7.3895e-20)
(1.15105 0.0928535 0)
(1.18877 0.0996639 -1.16162e-19)
(1.21128 0.103626 1.62728e-19)
(1.2222 0.105244 1.15999e-21)
(1.22502 0.105126 -4.11922e-20)
(1.2227 0.103853 7.48134e-20)
(1.21749 0.101899 6.44065e-20)
(1.21093 0.0996033 -5.68754e-20)
(1.20396 0.0971867 5.15094e-20)
(1.1971 0.0946586 -4.54239e-20)
(1.19057 0.0925245 0)
(1.18458 0.0885887 -3.44132e-20)
(0.00861637 -0.00165347 8.75261e-20)
(0.0592032 -0.00979303 9.1414e-20)
(0.142111 -0.012745 -8.23513e-20)
(0.251649 -0.0103997 1.53165e-19)
(0.381391 -0.00246278 -1.44162e-19)
(0.523292 0.0109189 1.3011e-19)
(0.667898 0.0285887 -6.23157e-20)
(0.805602 0.0486258 1.63366e-19)
(0.928203 0.0688323 -1.02215e-19)
(1.03013 0.0872182 1.78121e-19)
(1.10897 0.102357 -4.08734e-19)
(1.16523 0.113545 1.49172e-19)
(1.20165 0.120758 -1.27634e-19)
(1.22215 0.124475 1.19887e-19)
(1.23098 0.125444 1.007e-19)
(1.232 0.124469 8.63541e-20)
(1.22829 0.122259 -2.40438e-19)
(1.22206 0.11936 1.48234e-19)
(1.21474 0.116139 -6.4408e-20)
(1.20717 0.112814 1.65697e-19)
(1.19981 0.1095 -5.35491e-20)
(1.19284 0.10621 -1.27557e-19)
(1.18634 0.103203 1.17287e-19)
(1.18031 0.0989236 3.44023e-20)
(0.018435 -0.00401481 0)
(0.0912889 -0.0136863 5.58621e-22)
(0.19839 -0.0138441 1.70523e-19)
(0.331737 -0.00571636 -1.60148e-19)
(0.48186 0.00971451 -1.44322e-19)
(0.637555 0.0309386 2.67941e-19)
(0.787084 0.0554183 -1.24295e-19)
(0.920271 0.0801755 1.64584e-19)
(1.03024 0.102543 -4.20459e-21)
(1.11415 0.120684 -9.24706e-20)
(1.17284 0.133778 1.98942e-19)
(1.20974 0.141914 -2.92235e-19)
(1.22961 0.145803 0)
(1.23735 0.146445 -5.60325e-20)
(1.23722 0.144852 -1.47395e-19)
(1.23251 0.141876 4.66659e-20)
(1.22546 0.138144 2.21229e-21)
(1.21748 0.134066 -9.7337e-20)
(1.20936 0.129886 7.6073e-21)
(1.20152 0.125731 1.11859e-19)
(1.19411 0.121657 -4.86228e-20)
(1.1872 0.117685 -1.82169e-20)
(1.18074 0.113884 5.70477e-20)
(1.1747 0.109315 0)
(0.0309439 -0.00571369 0)
(0.129958 -0.0149581 4.61677e-20)
(0.263247 -0.0100558 -2.21412e-19)
(0.419861 0.00583145 8.04744e-20)
(0.586814 0.0298616 -7.57398e-20)
(0.750048 0.0587748 -6.87973e-20)
(0.896827 0.0886542 -1.2145e-19)
(1.01826 0.115877 6.08097e-20)
(1.11048 0.137943 5.27707e-20)
(1.1743 0.153754 0)
(1.21375 0.163446 1.17569e-19)
(1.23443 0.167954 -1.7348e-19)
(1.24198 0.168558 1.28927e-19)
(1.24123 0.166514 5.60611e-20)
(1.23577 0.162856 -4.51029e-20)
(1.22801 0.158324 -3.68201e-20)
(1.21941 0.153396 -3.39034e-20)
(1.21075 0.148349 1.03308e-19)
(1.20244 0.143333 0)
(1.19461 0.138417 5.04288e-20)
(1.18731 0.13363 4.14939e-20)
(1.18051 0.128986 -1.0401e-19)
(1.17413 0.124448 -6.97421e-20)
(1.16811 0.119605 6.46161e-20)
(0.0462251 -0.00632275 -4.92566e-20)
(0.17477 -0.0125642 -1.54662e-21)
(0.335002 -0.00015275 4.48981e-20)
(0.512585 0.0251478 1.24871e-19)
(0.691123 0.0581002 3.60746e-20)
(0.854838 0.0935809 -6.98031e-20)
(0.991908 0.126698 6.3903e-20)
(1.09656 0.153897 -5.59333e-20)
(1.16897 0.173516 9.94878e-20)
(1.21354 0.185594 4.20246e-20)
(1.23672 0.191271 -1.19124e-19)
(1.2451 0.192149 3.48833e-20)
(1.24424 0.1898 5.8827e-20)
(1.23826 0.185498 -2.9064e-20)
(1.22985 0.180148 0)
(1.2206 0.174324 4.2236e-20)
(1.21136 0.168356 7.05906e-20)
(1.20251 0.16242 1.14286e-20)
(1.19422 0.1566 -5.83047e-20)
(1.18652 0.150935 2.40975e-20)
(1.17937 0.145442 0)
(1.1727 0.140113 -1.85916e-20)
(1.16643 0.134888 -1.73103e-20)
(1.16045 0.12973 0)
(0.0641438 -0.00537209 0)
(0.224694 -0.00550001 2.57394e-20)
(0.411166 0.0168176 4.75165e-20)
(0.605813 0.0525815 -1.26761e-19)
(0.789709 0.0938643 4.07919e-20)
(0.947211 0.13399 0)
(1.06942 0.167855 6.10536e-20)
(1.15493 0.192766 -8.51096e-20)
(1.20804 0.208392 -4.95386e-20)
(1.236 0.216003 2.23865e-20)
(1.24653 0.217571 -3.51117e-20)
(1.24624 0.21508 8.5628e-20)
(1.24001 0.210146 4.23678e-20)
(1.23102 0.20391 -2.97556e-20)
(1.22109 0.197087 -3.08859e-21)
(1.2112 0.190085 -7.92586e-20)
(1.20177 0.183118 3.59464e-20)
(1.19297 0.176291 -8.65729e-22)
(1.18483 0.169652 0)
(1.17732 0.163221 -2.41225e-20)
(1.17036 0.157004 0)
(1.16386 0.150974 5.35344e-20)
(1.15773 0.145103 -6.34126e-20)
(1.15184 0.139557 2.87663e-20)
(0.0843169 -0.00239702 -1.32542e-20)
(0.278125 0.00707877 -6.44163e-20)
(0.488627 0.0413976 7.30749e-20)
(0.695261 0.0878794 4.29384e-20)
(0.878215 0.136044 -2.05845e-20)
(1.02412 0.178419 3.43326e-20)
(1.12856 0.21063 -1.67394e-20)
(1.19486 0.231491 2.77247e-20)
(1.23083 0.242199 0)
(1.24548 0.245116 6.21723e-20)
(1.2468 0.242759 -2.72249e-21)
(1.24078 0.237226 -4.98595e-20)
(1.23133 0.230007 2.11993e-20)
(1.22072 0.222035 -2.37005e-20)
(1.21011 0.213836 -8.8341e-21)
(1.20003 0.205681 1.03926e-20)
(1.19066 0.1977 -7.90215e-21)
(1.18204 0.189953 -4.24683e-20)
(1.17413 0.182466 2.59955e-20)
(1.16686 0.175248 5.25764e-21)
(1.16015 0.168288 4.59186e-21)
(1.15387 0.161552 4.01092e-21)
(1.14793 0.155077 0)
(1.14217 0.149042 0)
(0.10618 0.00302339 1.32633e-20)
(0.333099 0.0257644 -1.32801e-20)
(0.564097 0.0736361 -2.4301e-20)
(0.777078 0.130229 0)
(0.953476 0.183192 -1.01829e-20)
(1.08413 0.225332 -9.09832e-21)
(1.16991 0.253868 -1.55748e-20)
(1.21851 0.269495 0)
(1.24022 0.274872 0)
(1.2448 0.273176 0)
(1.23976 0.267177 0)
(1.23016 0.258888 0)
(1.21893 0.249578 -1.32676e-20)
(1.20759 0.239962 6.02972e-21)
(1.1968 0.230402 1.04021e-20)
(1.18681 0.221067 4.84718e-21)
(1.17767 0.212029 1.18814e-20)
(1.16935 0.203319 0)
(1.16177 0.194947 -2.79236e-21)
(1.15484 0.186912 -2.64437e-21)
(1.14845 0.179189 -4.59915e-21)
(1.14249 0.171753 -4.01731e-21)
(1.13683 0.164705 0)
(1.13133 0.158078 2.81943e-21)
(0.000256522 -0.0431332 9.12705e-21)
(-0.00258934 -0.106474 -9.47143e-21)
(-0.0107824 -0.152401 -1.79244e-20)
(-0.0223852 -0.184132 0)
(-0.0360445 -0.204889 -2.40499e-20)
(-0.0508518 -0.217771 7.59679e-21)
(-0.0660758 -0.225431 -1.42489e-20)
(-0.081164 -0.229863 0)
(-0.0957408 -0.232352 0)
(-0.109566 -0.233541 0)
(-0.122488 -0.233572 0)
(-0.1344 -0.23224 0)
(-0.145207 -0.229133 2.57092e-22)
(-0.15481 -0.223726 -9.80805e-21)
(-0.16309 -0.215459 1.8207e-20)
(-0.169906 -0.203773 2.61166e-20)
(-0.175098 -0.188148 7.85406e-21)
(-0.178493 -0.168126 0)
(-0.179922 -0.143352 7.56041e-21)
(-0.179231 -0.113614 -2.05891e-20)
(-0.176264 -0.0788891 -1.26198e-20)
(-0.170827 -0.0393094 -1.176e-20)
(-0.163052 0.00485767 0)
(-0.15401 0.0529353 0)
(0.00203429 -0.0384964 -2.72406e-20)
(0.000643539 -0.0951437 4.71157e-20)
(-0.00825027 -0.136385 -1.75153e-20)
(-0.0215864 -0.16497 -3.35771e-20)
(-0.0374026 -0.183817 4.75857e-20)
(-0.0544963 -0.19577 -2.99294e-20)
(-0.0719802 -0.203239 4.2399e-20)
(-0.0892403 -0.208005 2.63911e-20)
(-0.105904 -0.211185 0)
(-0.121767 -0.213312 -2.41171e-20)
(-0.136729 -0.214471 -1.86573e-22)
(-0.150733 -0.214445 2.13991e-20)
(-0.163731 -0.21284 2.97246e-20)
(-0.175659 -0.209177 3.76168e-20)
(-0.186426 -0.202944 -1.8128e-20)
(-0.195907 -0.193636 -5.04186e-20)
(-0.203944 -0.180775 1.49706e-20)
(-0.210355 -0.16393 -5.72578e-20)
(-0.214952 -0.142743 0)
(-0.217571 -0.116953 1.3478e-20)
(-0.218017 -0.0864341 1.26068e-20)
(-0.215932 -0.0511637 1.17477e-20)
(-0.211338 -0.0111205 0)
(-0.206723 0.0334371 0)
(0.00308627 -0.0323025 0)
(0.00248308 -0.0806857 9.2208e-20)
(-0.00701381 -0.116692 -3.48494e-20)
(-0.0215152 -0.142162 3.32804e-20)
(-0.0386163 -0.159414 -9.32667e-20)
(-0.0569054 -0.170844 0)
(-0.0753861 -0.178505 -5.55068e-20)
(-0.0934001 -0.183913 2.58407e-20)
(-0.110572 -0.188005 -4.88131e-20)
(-0.126718 -0.191214 2.24223e-20)
(-0.141762 -0.193586 1.30046e-19)
(-0.155676 -0.194911 -6.0997e-20)
(-0.168438 -0.194833 -9.5963e-20)
(-0.18001 -0.192921 -3.46876e-20)
(-0.190326 -0.188724 5.14185e-22)
(-0.199283 -0.181797 1.24353e-19)
(-0.206747 -0.171713 -5.80789e-20)
(-0.212546 -0.158082 2.37678e-21)
(-0.2165 -0.140553 0)
(-0.218463 -0.118824 -4.25643e-20)
(-0.218228 -0.0926499 0)
(-0.215241 -0.0618159 -3.87962e-20)
(-0.209203 -0.0261264 1.35289e-19)
(-0.203782 0.0141667 -2.04017e-21)
(0.00326076 -0.0250771 0)
(0.0026959 -0.0642096 -3.42517e-22)
(-0.00724584 -0.0946961 3.44219e-20)
(-0.0222456 -0.117162 -3.25329e-20)
(-0.039671 -0.133115 3.08602e-20)
(-0.058006 -0.14437 1.74074e-19)
(-0.0761974 -0.152552 -5.46947e-20)
(-0.0935605 -0.158874 -5.12481e-20)
(-0.109712 -0.164094 9.68853e-20)
(-0.124467 -0.16855 -1.36413e-19)
(-0.137753 -0.17226 4.21393e-20)
(-0.149545 -0.175029 3.92362e-20)
(-0.15983 -0.176536 0)
(-0.168579 -0.176403 3.50476e-20)
(-0.175739 -0.174234 0)
(-0.181232 -0.16964 5.69637e-20)
(-0.184947 -0.162253 -1.05701e-19)
(-0.186736 -0.151733 2.8634e-20)
(-0.186426 -0.137764 9.02728e-20)
(-0.183863 -0.120039 4.25268e-20)
(-0.178872 -0.0982299 0)
(-0.170851 -0.0719518 -9.6352e-20)
(-0.158862 -0.0408274 3.21466e-20)
(-0.146324 -0.00481999 0)
(0.00252412 -0.0174053 0)
(0.00125851 -0.0468966 -1.08812e-19)
(-0.00891454 -0.0717927 -3.45944e-20)
(-0.0236867 -0.0913826 -6.49165e-20)
(-0.0404316 -0.106259 6.1132e-20)
(-0.0576389 -0.117588 -5.7875e-20)
(-0.074255 -0.126527 1.08482e-19)
(-0.0895895 -0.133979 5.10176e-20)
(-0.103249 -0.140515 -1.43835e-19)
(-0.115038 -0.146385 8.91059e-20)
(-0.124871 -0.151585 -1.25247e-19)
(-0.132714 -0.155931 2.69796e-19)
(-0.138548 -0.159136 -1.44711e-19)
(-0.142348 -0.160862 6.54117e-20)
(-0.144075 -0.160756 1.79649e-19)
(-0.143671 -0.158474 -6.04475e-20)
(-0.141058 -0.153698 -5.28915e-20)
(-0.136131 -0.146141 -4.85545e-20)
(-0.128755 -0.135548 0)
(-0.118787 -0.121675 -6.9441e-20)
(-0.106156 -0.104241 -5.62797e-20)
(-0.0905788 -0.0827726 8.81613e-20)
(-0.0704562 -0.0562734 9.39119e-20)
(-0.0459313 -0.0234777 -8.50226e-20)
(0.000967101 -0.00986824 0)
(-0.00162854 -0.0299022 -1.44835e-19)
(-0.0117554 -0.0493255 -4.07929e-22)
(-0.0255289 -0.0661537 1.29303e-19)
(-0.0405463 -0.0800719 0)
(-0.0554068 -0.0915887 0)
(-0.0691096 -0.101387 0)
(-0.0809807 -0.110059 -5.05137e-20)
(-0.0906208 -0.117993 5.64184e-22)
(-0.0978162 -0.125351 8.90518e-20)
(-0.102463 -0.132098 -1.22972e-19)
(-0.104513 -0.138059 8.33258e-22)
(-0.103945 -0.142972 0)
(-0.10074 -0.146527 -6.53834e-20)
(-0.0948842 -0.148399 5.5796e-20)
(-0.0863559 -0.148274 -1.61086e-19)
(-0.0751293 -0.145865 1.89294e-19)
(-0.0611657 -0.140926 3.39098e-20)
(-0.0444004 -0.133262 -9.98961e-21)
(-0.0247473 -0.122729 -1.36306e-19)
(-0.00214807 -0.109215 -5.48283e-20)
(0.023515 -0.0924321 1.64586e-19)
(0.0534073 -0.0712095 -1.03594e-19)
(0.0912942 -0.0426726 0)
(-0.00120918 -0.00299269 7.01075e-20)
(-0.00555748 -0.0142838 7.23895e-20)
(-0.0152729 -0.0285316 -6.90949e-20)
(-0.027221 -0.0427021 -1.30144e-19)
(-0.0393975 -0.0556752 1.22553e-19)
(-0.0505933 -0.0673453 -1.15428e-19)
(-0.0599022 -0.077945 1.63062e-19)
(-0.0666845 -0.0877627 -5.02138e-20)
(-0.0705367 -0.0970036 9.53851e-20)
(-0.0712246 -0.105733 0)
(-0.068622 -0.113878 8.06366e-20)
(-0.0626695 -0.121258 -1.52867e-19)
(-0.0533498 -0.127617 1.37448e-19)
(-0.0406742 -0.13266 -1.29096e-19)
(-0.0246776 -0.136078 0)
(-0.00541438 -0.137571 1.04046e-19)
(0.0170447 -0.136869 1.78455e-19)
(0.0426185 -0.133754 -1.68635e-19)
(0.0712371 -0.128066 -7.05197e-20)
(0.102844 -0.119735 -5.73953e-20)
(0.137362 -0.108795 1.65808e-19)
(0.174914 -0.0952999 3.79014e-20)
(0.214677 -0.0789747 -4.02172e-20)
(0.269975 -0.0561332 2.99177e-20)
(-0.00371894 0.00278279 -7.0117e-20)
(-0.00995849 -0.000940642 2.20652e-19)
(-0.0187815 -0.0104916 -6.93555e-20)
(-0.0280071 -0.0221275 1.31219e-19)
(-0.0361352 -0.0341017 -1.23563e-19)
(-0.0422035 -0.045774 7.11163e-22)
(-0.0454276 -0.0569689 5.49413e-20)
(-0.0452129 -0.0676898 2.04838e-19)
(-0.0411553 -0.077958 -1.65684e-21)
(-0.0330023 -0.0877312 -8.95554e-20)
(-0.0206147 -0.0968798 0)
(-0.00394168 -0.105196 -7.40215e-20)
(0.0169937 -0.112413 1.40805e-19)
(0.0421008 -0.118235 1.24096e-19)
(0.0712257 -0.122355 -5.94801e-20)
(0.104157 -0.124482 -4.45309e-22)
(0.140634 -0.124366 -4.58226e-20)
(0.180362 -0.121811 7.95886e-20)
(0.223032 -0.116701 7.04932e-20)
(0.268357 -0.109009 -6.08593e-20)
(0.315825 -0.0988858 5.09662e-20)
(0.366591 -0.0861963 -4.30312e-20)
(0.413393 -0.072447 0)
(0.487862 -0.0527091 -2.98638e-20)
(-0.00622739 0.00716368 7.16316e-20)
(-0.01415 0.00946121 -7.37877e-20)
(-0.0214605 0.00392134 7.07994e-20)
(-0.0269864 -0.00539183 0)
(-0.0297658 -0.0163077 0)
(-0.0290938 -0.0277652 1.18786e-19)
(-0.0243325 -0.0392475 -1.10535e-19)
(-0.0149501 -0.0504989 1.0301e-19)
(-0.000561538 -0.0613592 -4.82124e-19)
(0.0190722 -0.0716671 1.01388e-21)
(0.0440525 -0.0812187 8.31289e-20)
(0.0743472 -0.0897612 0)
(0.109792 -0.0970049 -1.37063e-19)
(0.150093 -0.102644 2.52728e-19)
(0.194833 -0.106379 -1.7349e-19)
(0.243487 -0.107946 -2.49215e-19)
(0.295453 -0.107135 1.11839e-20)
(0.350073 -0.103815 1.6387e-19)
(0.406668 -0.097954 0)
(0.464715 -0.0895569 0)
(0.522778 -0.0791073 -5.09521e-20)
(0.584251 -0.0656867 4.30191e-20)
(0.633808 -0.0529063 -1.36855e-19)
(0.720203 -0.033013 1.28433e-19)
(-0.00842358 0.0100193 0)
(-0.0174603 0.0165303 0)
(-0.0224694 0.014105 -2.13598e-19)
(-0.023201 0.00677486 6.77113e-20)
(-0.0192152 -0.00307829 9.36972e-23)
(-0.0100698 -0.014106 1.20559e-19)
(0.00471808 -0.0255181 0)
(0.0255802 -0.0368345 -1.04925e-19)
(0.0528184 -0.047725 9.68756e-20)
(0.0865644 -0.0579062 -1.79853e-19)
(0.126753 -0.0670921 1.52439e-21)
(0.173106 -0.0749821 1.51183e-19)
(0.225122 -0.0812691 -4.44035e-21)
(0.28209 -0.0856592 1.1937e-19)
(0.343115 -0.0878971 -1.76279e-19)
(0.407163 -0.0877911 0)
(0.473118 -0.0852341 1.74946e-19)
(0.539857 -0.0802179 -2.43525e-19)
(0.606263 -0.0728617 6.94408e-20)
(0.671583 -0.0632447 0)
(0.733819 -0.0521847 5.21113e-20)
(0.797039 -0.0383455 1.69191e-19)
(0.844606 -0.0263575 -1.58781e-19)
(0.925323 -0.00695857 -1.59598e-19)
(-0.0100443 0.0113837 2.22934e-19)
(-0.0192579 0.0201943 -3.07644e-19)
(-0.0209625 0.0198231 2.04665e-23)
(-0.0156638 0.0139974 6.88274e-20)
(-0.00337248 0.00512448 -1.29268e-19)
(0.0160957 -0.00527062 -1.19852e-19)
(0.0430293 -0.0162004 2.25108e-19)
(0.07768 -0.0270057 -2.68585e-21)
(0.120138 -0.0372086 -1.97382e-19)
(0.170245 -0.0464168 3.6235e-19)
(0.227541 -0.054279 -3.92043e-21)
(0.291237 -0.0604737 -1.55926e-19)
(0.36022 -0.0647192 0)
(0.433103 -0.0667943 0)
(0.508303 -0.0665599 -5.71243e-20)
(0.584141 -0.0639771 -1.01951e-19)
(0.658956 -0.0591162 -1.75424e-19)
(0.73121 -0.0521589 1.64667e-19)
(0.799561 -0.0433895 -6.94614e-20)
(0.863036 -0.0331133 1.16894e-19)
(0.92037 -0.022025 -6.05999e-20)
(0.973489 -0.00950307 8.03314e-20)
(1.01322 0.00100557 -2.04654e-19)
(1.07028 0.0168555 3.31134e-20)
(-0.0108971 0.0114316 7.53977e-20)
(-0.018973 0.0206854 0)
(-0.0160714 0.0212374 1.47456e-19)
(-0.0032617 0.0163601 -1.38911e-19)
(0.0190722 0.00836068 1.29378e-19)
(0.050851 -0.00115646 0)
(0.0920902 -0.0110794 0)
(0.142707 -0.0206225 -1.05666e-19)
(0.202352 -0.0292023 2.64709e-21)
(0.270286 -0.0363626 9.32156e-20)
(0.345321 -0.0417435 -8.23616e-20)
(0.425822 -0.0450772 1.56421e-19)
(0.509783 -0.0461988 0)
(0.594957 -0.0450595 2.48795e-19)
(0.679024 -0.0417333 -4.5646e-19)
(0.759768 -0.0364131 3.11238e-19)
(0.835236 -0.0293938 1.75557e-19)
(0.903856 -0.0210588 -1.648e-19)
(0.964543 -0.0118036 0)
(1.01663 -0.00214966 0)
(1.06011 0.0076418 0)
(1.09524 0.0170243 0)
(1.12145 0.0252955 4.0119e-20)
(1.14887 0.0354144 -1.39502e-19)
(-0.14395 0.111424 -7.52265e-21)
(-0.126413 0.185704 7.54554e-21)
(-0.106356 0.263514 -2.00041e-22)
(-0.0841578 0.341214 0)
(-0.0606493 0.414746 -5.57055e-21)
(-0.0369934 0.480646 1.03776e-20)
(-0.0140984 0.535929 -4.22529e-22)
(0.00840209 0.577209 -4.27867e-21)
(0.0327276 0.600689 0)
(0.0628169 0.601949 0)
(0.103551 0.574663 -2.08633e-22)
(0.158466 0.513331 -2.13672e-22)
(0.227473 0.416096 -3.76296e-21)
(0.305917 0.286618 3.43989e-21)
(0.387379 0.132387 0)
(0.467062 -0.0372996 0)
(0.542219 -0.208783 3.12286e-21)
(0.608938 -0.361146 -3.98133e-22)
(0.662186 -0.473371 -2.41096e-21)
(0.698677 -0.536654 -1.17902e-22)
(0.717889 -0.558037 0)
(0.722896 -0.551508 0)
(0.718652 -0.531392 0)
(0.704621 -0.514866 0)
(0.674898 -0.515354 0)
(0.631121 -0.521239 0)
(0.591292 -0.490523 4.80354e-22)
(0.578903 -0.381152 -7.44268e-22)
(0.601493 -0.194926 0)
(0.64918 0.0220965 0)
(0.705153 0.213296 -5.70852e-22)
(0.755435 0.346771 5.54791e-22)
(0.792651 0.41767 1.89616e-22)
(0.817492 0.441212 0)
(0.827846 0.44768 0)
(0.814645 0.463647 2.56005e-22)
(0.777489 0.485117 -2.48858e-22)
(0.735296 0.457645 0)
(0.71163 0.348262 3.64484e-22)
(0.719653 0.156303 -5.50709e-22)
(0.747348 -0.0453086 1.86026e-22)
(0.786607 -0.213449 0)
(0.823252 -0.312168 -2.14371e-22)
(0.843597 -0.361095 2.08451e-22)
(0.832824 -0.396896 0)
(0.789957 -0.399215 0)
(0.747298 -0.374783 -7.61413e-23)
(0.732336 -0.233494 2.19682e-22)
(0.751938 -0.083377 0)
(0.79324 0.0958249 0)
(0.822449 0.219179 -5.47844e-23)
(0.815221 0.300142 2.99886e-24)
(0.793448 0.386641 -3.76549e-24)
(0.77529 0.300596 4.16295e-23)
(0.784659 0.258643 0)
(0.805723 0.0434666 0)
(0.813132 -0.108798 0)
(0.803305 -0.210241 0)
(0.804825 -0.397008 0)
(0.786871 -0.1833 0)
(-0.205715 0.0885124 -6.0335e-22)
(-0.190994 0.159429 -2.46199e-20)
(-0.172833 0.234131 1.27293e-21)
(-0.150425 0.30955 2.19379e-20)
(-0.123952 0.382164 2.8054e-22)
(-0.0935048 0.447853 0)
(-0.0593624 0.503997 -1.56016e-20)
(-0.0211413 0.543506 3.00461e-20)
(0.0239285 0.563524 -1.445e-20)
(0.078663 0.558811 1.37683e-20)
(0.144668 0.523849 -1.31726e-20)
(0.222129 0.455373 1.45323e-20)
(0.308083 0.35403 -1.41293e-20)
(0.396858 0.224583 -5.01075e-22)
(0.483021 0.0734786 -1.59415e-20)
(0.563539 -0.0920144 1.54907e-20)
(0.636301 -0.258319 -1.35131e-20)
(0.696612 -0.403105 1.27367e-20)
(0.73892 -0.504578 -9.17693e-21)
(0.761527 -0.555318 1.58628e-20)
(0.766602 -0.565102 -6.77719e-21)
(0.758531 -0.550293 -2.93802e-22)
(0.743274 -0.524254 -3.7056e-21)
(0.722197 -0.500561 7.0222e-21)
(0.688853 -0.492652 -3.32465e-21)
(0.640317 -0.495268 2.02027e-22)
(0.5903 -0.47278 4.3803e-21)
(0.563595 -0.381002 8.14699e-22)
(0.573803 -0.212532 -9.68797e-21)
(0.614856 -0.00617181 9.65889e-21)
(0.669986 0.183354 -4.63664e-21)
(0.723911 0.322045 4.32435e-22)
(0.76861 0.400344 -1.90015e-22)
(0.802201 0.431664 2.8949e-22)
(0.819419 0.447356 0)
(0.810938 0.472998 0)
(0.778637 0.500102 -1.18715e-21)
(0.744021 0.470696 8.28906e-22)
(0.727842 0.353137 1.20611e-21)
(0.741751 0.152176 2.66917e-22)
(0.770576 -0.0559481 -1.76198e-21)
(0.806966 -0.225722 3.3565e-22)
(0.837717 -0.32144 0)
(0.853694 -0.362436 0)
(0.84095 -0.388899 0)
(0.795441 -0.386482 0)
(0.750668 -0.366197 2.52525e-22)
(0.731093 -0.234116 -1.45765e-22)
(0.75026 -0.092297 0)
(0.789248 0.0862751 0)
(0.818151 0.215693 0)
(0.810651 0.303354 -8.88021e-23)
(0.788748 0.391222 3.82563e-24)
(0.773383 0.301506 -8.30716e-23)
(0.783326 0.255267 0)
(0.810369 0.0407834 0)
(0.818758 -0.109034 6.59291e-23)
(0.809348 -0.209012 1.79416e-22)
(0.810507 -0.395414 0)
(0.789661 -0.181965 0)
(-0.206987 0.0643657 -1.28672e-21)
(-0.195649 0.1301 -4.16598e-20)
(-0.179429 0.200177 3.77333e-20)
(-0.156831 0.271365 -3.53771e-20)
(-0.127669 0.341244 -2.82497e-22)
(-0.0902305 0.404315 0)
(-0.0468474 0.456353 -2.81511e-20)
(0.00363916 0.492561 2.75263e-20)
(0.0655429 0.509089 2.11898e-22)
(0.137804 0.499938 4.06735e-22)
(0.220044 0.460837 4.32271e-22)
(0.310294 0.390241 4.54471e-22)
(0.404333 0.290239 -3.27924e-20)
(0.496687 0.165742 3.23685e-20)
(0.583005 0.0215714 0)
(0.661815 -0.136833 1.03255e-21)
(0.730965 -0.295819 -2.84132e-20)
(0.784035 -0.431635 2.80039e-20)
(0.81484 -0.52249 0)
(0.82341 -0.562664 0)
(0.81489 -0.563718 -1.14508e-20)
(0.795081 -0.543345 2.00341e-20)
(0.769991 -0.514014 -1.56361e-20)
(0.742426 -0.485335 8.06341e-22)
(0.70658 -0.469528 1.2156e-20)
(0.655575 -0.467534 -1.26015e-20)
(0.597783 -0.451894 1.30874e-20)
(0.557574 -0.378202 6.86792e-22)
(0.554431 -0.229723 -7.89627e-21)
(0.586835 -0.0359129 0)
(0.639294 0.150167 0)
(0.69573 0.293104 2.18923e-21)
(0.747117 0.378742 -2.91949e-21)
(0.788774 0.41862 -2.22679e-23)
(0.812558 0.444407 2.09132e-21)
(0.809231 0.480019 -2.03244e-21)
(0.782567 0.51293 0)
(0.755762 0.482394 3.26417e-22)
(0.746928 0.358208 3.824e-21)
(0.766455 0.149739 -7.73373e-21)
(0.796445 -0.0636458 3.39007e-21)
(0.829798 -0.234753 3.76214e-22)
(0.85432 -0.328355 -2.41288e-21)
(0.86553 -0.362564 1.82194e-21)
(0.85096 -0.38041 3.00112e-22)
(0.803314 -0.373437 2.46049e-22)
(0.756905 -0.357582 -2.53156e-22)
(0.732747 -0.235157 0)
(0.751119 -0.101733 0)
(0.787261 0.0762329 -8.15857e-22)
(0.815685 0.211917 4.04179e-22)
(0.807839 0.306178 -3.5189e-22)
(0.785617 0.395677 5.36838e-22)
(0.772855 0.302334 7.5354e-22)
(0.783392 0.251499 -1.63992e-22)
(0.816434 0.0378586 3.61806e-22)
(0.825751 -0.109284 -3.15393e-22)
(0.81651 -0.207508 1.61735e-22)
(0.817055 -0.393509 0)
(0.793315 -0.180511 0)
(-0.147921 0.0408866 -6.86055e-20)
(-0.13997 0.100329 3.55689e-21)
(-0.12551 0.164737 6.14422e-20)
(-0.102815 0.229827 -4.97668e-22)
(-0.072143 0.293277 0)
(-0.0332096 0.350884 0)
(0.0158964 0.397429 -4.88166e-20)
(0.0754567 0.43079 -2.14643e-21)
(0.146308 0.444159 7.33075e-20)
(0.227304 0.432544 2.04587e-21)
(0.316683 0.392731 -2.68587e-20)
(0.411271 0.324211 -3.07976e-20)
(0.506454 0.229631 3.08323e-20)
(0.597374 0.113282 0)
(0.681314 -0.0220957 -3.46224e-20)
(0.757855 -0.172257 3.15471e-20)
(0.823432 -0.323159 0)
(0.869249 -0.449493 0)
(0.888627 -0.529981 1.9303e-20)
(0.883563 -0.561069 -3.98026e-21)
(0.862196 -0.555611 -1.39645e-20)
(0.831987 -0.531605 -8.96224e-21)
(0.798387 -0.50098 8.88025e-21)
(0.764742 -0.469807 -6.13888e-21)
(0.726997 -0.447201 4.95166e-22)
(0.675906 -0.43878 5.30066e-21)
(0.613596 -0.427058 6.95725e-22)
(0.561445 -0.370915 8.49129e-23)
(0.544075 -0.244678 0)
(0.565759 -0.0665261 7.01986e-21)
(0.613569 0.114463 -7.19903e-21)
(0.67119 0.260446 3.83544e-22)
(0.728216 0.353161 0)
(0.777062 0.402089 -2.70573e-22)
(0.80707 0.438433 4.08399e-21)
(0.809274 0.484036 -7.891e-21)
(0.788766 0.523015 -1.48509e-21)
(0.769837 0.492608 -1.26421e-21)
(0.768147 0.363728 5.27762e-21)
(0.792983 0.149321 9.14282e-22)
(0.824331 -0.0683411 -6.57593e-21)
(0.854716 -0.24066 5.67306e-21)
(0.872903 -0.333055 -1.89475e-23)
(0.878946 -0.361737 1.42592e-21)
(0.862555 -0.371711 -1.68738e-21)
(0.813206 -0.36017 -1.63921e-21)
(0.765645 -0.348722 4.8878e-22)
(0.736971 -0.236327 8.33335e-22)
(0.754238 -0.111494 -1.59559e-21)
(0.787139 0.0657323 1.16512e-21)
(0.814993 0.207805 -3.70843e-22)
(0.806811 0.308583 3.2595e-22)
(0.784175 0.400049 3.32897e-22)
(0.773864 0.303149 -1.18031e-21)
(0.784957 0.247382 -1.14006e-24)
(0.823902 0.0346964 -4.28818e-22)
(0.834064 -0.109524 0)
(0.824777 -0.205717 -1.57613e-22)
(0.824429 -0.391278 1.98789e-22)
(0.797777 -0.17893 0)
(-0.0410821 0.018832 5.50093e-20)
(-0.0355249 0.0709247 -1.04583e-19)
(-0.0234642 0.126735 4.9101e-20)
(-0.00358857 0.184296 4.44201e-20)
(0.0265704 0.240164 -8.5869e-20)
(0.0664137 0.292013 -2.23388e-22)
(0.117231 0.334907 4.09019e-20)
(0.179083 0.36443 4.46896e-20)
(0.251812 0.375234 -4.38017e-20)
(0.334031 0.363092 0)
(0.423286 0.325361 -5.83162e-20)
(0.515998 0.261815 1.20085e-19)
(0.60776 0.174981 -6.16448e-20)
(0.694557 0.0680305 0)
(0.775358 -0.0577384 0)
(0.849917 -0.198975 1.06113e-21)
(0.91194 -0.340465 -5.86144e-20)
(0.950029 -0.456081 5.69365e-20)
(0.957876 -0.52627 0)
(0.93998 -0.550062 3.08937e-20)
(0.907097 -0.540881 -5.15914e-20)
(0.86818 -0.515579 3.91797e-20)
(0.827881 -0.485337 -3.0734e-20)
(0.788981 -0.454002 2.03542e-21)
(0.749509 -0.426838 2.07888e-20)
(0.699969 -0.411358 -9.69499e-21)
(0.636644 -0.400017 -3.17488e-22)
(0.575259 -0.358829 -5.0102e-21)
(0.543264 -0.255837 -5.80863e-22)
(0.552273 -0.0963499 5.62538e-21)
(0.593493 0.0770938 3.82644e-22)
(0.650603 0.224519 -4.5319e-21)
(0.711861 0.323756 8.37702e-21)
(0.766812 0.381862 -4.29512e-21)
(0.802627 0.428892 0)
(0.810659 0.48443 -4.90803e-21)
(0.796669 0.529995 4.85744e-21)
(0.785537 0.501332 -5.82185e-21)
(0.790715 0.369816 7.23365e-21)
(0.820578 0.151193 -9.90961e-22)
(0.853538 -0.0700097 0)
(0.881236 -0.243342 -7.79572e-22)
(0.893166 -0.335353 1.72216e-21)
(0.893737 -0.359876 0)
(0.875505 -0.36289 2.69627e-21)
(0.824794 -0.346826 -1.14669e-21)
(0.776485 -0.339611 4.14412e-22)
(0.743387 -0.23745 3.3894e-22)
(0.759281 -0.121418 0)
(0.788687 0.0547888 0)
(0.815967 0.203272 -9.79232e-22)
(0.807565 0.310507 1.62421e-21)
(0.784532 0.404361 -1.03442e-21)
(0.77655 0.304016 3.76039e-22)
(0.788099 0.242962 8.39697e-22)
(0.832737 0.0313151 4.29225e-22)
(0.843638 -0.109728 -7.57721e-22)
(0.834122 -0.2036 0)
(0.832578 -0.388681 -3.24665e-22)
(0.802986 -0.177214 -1.5448e-23)
(0.0981856 -0.00432069 4.73554e-20)
(0.0994415 0.0409006 -4.69431e-20)
(0.108643 0.0885851 3.50839e-22)
(0.126396 0.138969 -2.70001e-22)
(0.153909 0.188579 3.07274e-22)
(0.191534 0.234666 -3.00725e-22)
(0.239836 0.27281 5.37798e-22)
(0.298981 0.298662 0)
(0.368488 0.307848 -6.43879e-22)
(0.446779 0.296684 7.2283e-22)
(0.531271 0.262765 8.10713e-22)
(0.618575 0.205674 -9.39389e-22)
(0.704814 0.127222 0)
(0.787185 0.0292673 0)
(0.865493 -0.0867826 1.04422e-21)
(0.938074 -0.218368 0)
(0.995452 -0.348722 -9.34238e-22)
(1.02459 -0.452428 0)
(1.0208 -0.512824 -3.75215e-20)
(0.991393 -0.531258 6.65985e-20)
(0.94889 -0.52088 -5.09514e-20)
(0.903028 -0.496369 2.20192e-20)
(0.857784 -0.467685 1.31985e-20)
(0.814642 -0.437757 -1.28181e-20)
(0.773336 -0.408505 -9.00512e-21)
(0.726144 -0.386595 8.71901e-21)
(0.665085 -0.372444 0)
(0.598332 -0.342059 2.12615e-22)
(0.5527 -0.261653 0)
(0.547208 -0.123351 0)
(0.579542 0.0392043 8.00785e-21)
(0.634203 0.185902 -8.24475e-21)
(0.697943 0.290713 3.87827e-22)
(0.757732 0.357785 4.39676e-22)
(0.798878 0.415358 -4.01609e-22)
(0.812898 0.480681 -4.2879e-21)
(0.805592 0.533529 4.16359e-21)
(0.80208 0.508481 -7.39579e-21)
(0.813822 0.376604 6.46848e-21)
(0.848406 0.155475 2.01447e-21)
(0.883322 -0.0686818 -7.13646e-21)
(0.908836 -0.242832 4.77015e-22)
(0.914773 -0.335194 4.3001e-21)
(0.909645 -0.356992 0)
(0.889536 -0.354057 -1.15792e-21)
(0.837733 -0.333493 1.14769e-21)
(0.788973 -0.330163 -1.545e-21)
(0.751566 -0.23836 -3.41086e-22)
(0.765857 -0.131389 0)
(0.791656 0.0433758 3.1097e-22)