/*--------------------------------*- C++ -*----------------------------------*\
| =========                 |                                                 |
| \\      /  F ield         | OpenFOAM: The Open Source CFD Toolbox           |
|  \\    /   O peration     | Version:  2512                                  |
|   \\  /    A nd           | Website:  www.openfoam.com                      |
|    \\/     M anipulation  |                                                 |
\*---------------------------------------------------------------------------*/
FoamFile
{
    version     2.0;
    format      ascii;
    arch        "LSB;label=32;scalar=64";
    class       volScalarField;
    location    "187";
    object      p;
}
// * * * * * * * * * * * * * * * * * * * * * * * * * * * * * * * * * * * * * //

dimensions      [0 2 -2 0 0 0 0];

internalField   nonuniform List<scalar> 
13248
(
-0.433368
-0.430845
-0.428524
-0.426454
-0.42461
-0.422949
-0.421285
-0.4193
-0.416591
-0.412716
-0.407246
-0.39982
-0.390196
-0.378287
-0.364174
-0.348089
-0.330382
-0.311474
-0.291803
-0.271792
-0.251743
-0.232018
-0.212283
-0.192972
-0.442265
-0.438948
-0.435727
-0.432669
-0.429755
-0.426955
-0.424074
-0.420767
-0.416602
-0.411135
-0.403974
-0.394842
-0.38362
-0.370362
-0.355275
-0.338684
-0.320981
-0.30257
-0.283833
-0.265095
-0.246605
-0.228596
-0.210986
-0.194225
-0.452059
-0.447849
-0.443688
-0.43963
-0.435622
-0.431619
-0.427394
-0.422565
-0.41669
-0.409359
-0.400268
-0.389275
-0.376413
-0.361876
-0.345972
-0.329068
-0.311543
-0.293741
-0.275957
-0.258425
-0.241313
-0.224783
-0.208767
-0.193427
-0.463134
-0.457886
-0.452732
-0.447656
-0.442507
-0.437182
-0.431403
-0.424762
-0.416844
-0.407335
-0.396081
-0.383113
-0.368624
-0.352919
-0.336353
-0.319283
-0.302023
-0.284835
-0.267918
-0.251424
-0.235459
-0.220129
-0.205369
-0.191378
-0.475695
-0.469248
-0.463037
-0.456896
-0.450499
-0.443651
-0.436021
-0.42721
-0.416901
-0.404948
-0.391397
-0.376461
-0.360463
-0.34376
-0.326698
-0.309569
-0.292603
-0.275969
-0.259785
-0.244136
-0.22908
-0.214667
-0.200853
-0.187776
-0.489738
-0.481956
-0.474618
-0.467323
-0.459492
-0.450817
-0.440945
-0.429565
-0.416542
-0.401961
-0.386085
-0.369281
-0.351936
-0.3344
-0.316957
-0.299812
-0.283105
-0.266926
-0.251328
-0.236347
-0.222005
-0.208313
-0.195245
-0.182894
-0.505052
-0.495852
-0.487319
-0.478721
-0.469168
-0.458254
-0.445687
-0.431345
-0.415364
-0.39809
-0.379974
-0.361471
-0.342965
-0.324745
-0.307003
-0.289855
-0.27336
-0.257545
-0.242416
-0.227972
-0.214205
-0.201102
-0.188646
-0.176862
-0.521214
-0.510581
-0.500782
-0.49066
-0.478992
-0.465346
-0.449617
-0.431994
-0.412935
-0.393029
-0.372847
-0.352853
-0.333368
-0.314586
-0.296602
-0.27945
-0.263124
-0.247604
-0.23286
-0.218862
-0.205581
-0.192989
-0.181068
-0.169776
-0.537581
-0.525575
-0.514423
-0.502475
-0.488213
-0.47132
-0.452035
-0.430953
-0.408853
-0.386497
-0.364491
-0.343233
-0.322944
-0.30371
-0.285539
-0.268393
-0.252219
-0.236958
-0.222553
-0.208952
-0.196108
-0.183984
-0.172551
-0.161708
-0.553288
-0.540026
-0.527405
-0.513252
-0.495889
-0.475302
-0.452228
-0.427699
-0.402756
-0.378235
-0.354686
-0.332398
-0.311471
-0.291892
-0.273593
-0.256483
-0.240467
-0.225459
-0.21138
-0.198157
-0.18573
-0.174053
-0.163072
-0.152661
-0.56727
-0.552899
-0.538641
-0.521858
-0.500922
-0.476341
-0.449439
-0.421651
-0.394174
-0.367819
-0.343019
-0.319926
-0.298524
-0.278714
-0.260365
-0.243345
-0.227527
-0.2128
-0.199067
-0.186238
-0.174243
-0.163019
-0.152483
-0.142519
-0.578364
-0.563066
-0.546989
-0.527141
-0.502221
-0.473453
-0.442794
-0.412002
-0.382325
-0.354464
-0.328693
-0.305023
-0.283327
-0.263431
-0.245151
-0.228318
-0.212781
-0.198408
-0.185084
-0.17271
-0.161206
-0.150494
-0.140464
-0.131049
-0.341195
-0.343745
-0.345252
-0.346198
-0.347032
-0.347909
-0.348905
-0.350059
-0.351381
-0.352865
-0.354504
-0.356295
-0.358244
-0.360363
-0.362669
-0.365183
-0.367926
-0.370909
-0.374134
-0.377586
-0.381192
-0.384783
-0.388223
-0.391805
-0.343443
-0.346578
-0.348492
-0.349768
-0.350913
-0.352065
-0.353273
-0.354545
-0.355855
-0.357156
-0.358393
-0.359505
-0.360434
-0.361125
-0.36153
-0.361603
-0.36131
-0.360623
-0.359536
-0.358056
-0.35614
-0.353629
-0.350625
-0.34835
-0.347308
-0.350798
-0.353008
-0.35457
-0.356009
-0.357437
-0.358872
-0.360287
-0.361619
-0.362775
-0.363646
-0.364111
-0.364043
-0.363314
-0.361799
-0.359383
-0.355964
-0.351465
-0.345853
-0.33914
-0.331296
-0.322149
-0.311969
-0.30307
-0.352939
-0.356515
-0.358882
-0.360666
-0.362367
-0.364063
-0.365735
-0.367321
-0.368718
-0.369788
-0.370368
-0.370275
-0.369314
-0.367286
-0.363993
-0.359248
-0.352888
-0.344784
-0.334869
-0.32315
-0.309634
-0.294182
-0.277043
-0.261211
-0.360248
-0.363633
-0.365998
-0.367917
-0.369824
-0.371755
-0.373653
-0.375418
-0.376906
-0.377935
-0.37829
-0.377733
-0.376005
-0.372839
-0.367974
-0.361166
-0.352204
-0.340924
-0.327235
-0.311136
-0.292712
-0.271992
-0.249024
-0.226168
-0.368921
-0.371855
-0.374059
-0.376005
-0.378027
-0.38012
-0.38219
-0.384096
-0.385654
-0.386641
-0.386794
-0.385822
-0.383412
-0.379245
-0.373011
-0.364428
-0.353263
-0.339352
-0.322612
-0.303065
-0.280875
-0.256336
-0.229498
-0.199607
-0.378485
-0.380765
-0.382646
-0.384477
-0.386487
-0.388625
-0.390752
-0.392698
-0.394238
-0.395106
-0.394998
-0.393578
-0.390491
-0.385379
-0.377906
-0.367783
-0.354788
-0.338803
-0.319815
-0.297943
-0.27345
-0.246655
-0.217976
-0.186733
-0.388407
-0.389897
-0.391307
-0.392864
-0.394687
-0.396691
-0.398711
-0.400529
-0.401889
-0.402486
-0.401977
-0.399992
-0.396144
-0.390059
-0.381402
-0.369906
-0.355406
-0.337862
-0.317377
-0.294194
-0.268732
-0.241295
-0.213312
-0.182378
-0.398209
-0.398848
-0.399661
-0.400769
-0.402206
-0.403862
-0.405554
-0.407029
-0.407997
-0.408119
-0.407018
-0.404299
-0.399563
-0.392441
-0.382627
-0.369916
-0.354229
-0.33564
-0.314379
-0.290808
-0.265516
-0.23872
-0.212436
-0.18357
-0.407575
-0.407366
-0.40748
-0.407971
-0.408812
-0.409896
-0.411021
-0.411919
-0.412266
-0.411691
-0.409796
-0.406168
-0.400416
-0.392199
-0.381274
-0.367523
-0.350981
-0.331845
-0.310466
-0.287299
-0.262993
-0.2378
-0.213503
-0.187633
-0.416416
-0.415401
-0.41474
-0.414458
-0.414512
-0.414805
-0.415142
-0.415237
-0.414741
-0.413259
-0.410374
-0.405672
-0.398787
-0.389435
-0.377457
-0.362847
-0.345756
-0.326492
-0.305483
-0.283243
-0.260358
-0.237232
-0.215015
-0.192152
-0.424895
-0.423115
-0.421624
-0.420455
-0.419572
-0.41891
-0.418281
-0.417388
-0.415859
-0.413275
-0.409208
-0.403257
-0.395102
-0.384542
-0.371527
-0.356167
-0.338725
-0.319583
-0.299191
-0.278047
-0.256595
-0.235341
-0.214899
-0.195153
-0.396391
-0.400907
-0.401994
-0.398221
-0.388584
-0.371378
-0.347352
-0.317062
-0.282811
-0.248019
-0.216318
-0.190742
-0.173481
-0.166106
-0.169641
-0.183625
-0.204493
-0.225023
-0.236111
-0.231032
-0.208819
-0.175751
-0.141297
-0.112635
-0.092727
-0.0815679
-0.0778114
-0.0804484
-0.0904427
-0.108663
-0.130356
-0.144864
-0.143021
-0.12628
-0.103419
-0.0836508
-0.0711551
-0.0651053
-0.0653176
-0.0738547
-0.0888184
-0.100843
-0.0996381
-0.0873627
-0.071649
-0.0586742
-0.0504708
-0.0474946
-0.0497916
-0.0520973
-0.0502532
-0.0468375
-0.0421279
-0.0366826
-0.0339295
-0.0322884
-0.0302541
-0.0301003
-0.0231918
-0.00583218
-0.347319
-0.346833
-0.34449
-0.339132
-0.329746
-0.31515
-0.296736
-0.273299
-0.246792
-0.220173
-0.196439
-0.178383
-0.168346
-0.168161
-0.178734
-0.198838
-0.223925
-0.246275
-0.256837
-0.249674
-0.224058
-0.187101
-0.148967
-0.117119
-0.0943743
-0.0804876
-0.0740652
-0.0739263
-0.0805824
-0.0950131
-0.113635
-0.127172
-0.127002
-0.113645
-0.0945561
-0.078316
-0.0688693
-0.0654128
-0.068173
-0.0795001
-0.0969419
-0.110492
-0.108832
-0.0947138
-0.0761518
-0.0604465
-0.0500646
-0.0448867
-0.045322
-0.0460606
-0.0445703
-0.0422116
-0.0391938
-0.0358584
-0.0348121
-0.0352702
-0.0336662
-0.0336617
-0.0259897
-0.00651914
-0.296347
-0.289503
-0.2827
-0.274718
-0.26459
-0.25225
-0.236959
-0.221157
-0.202563
-0.184189
-0.168745
-0.158847
-0.156802
-0.164369
-0.181937
-0.207432
-0.235761
-0.259412
-0.270136
-0.261435
-0.233691
-0.194298
-0.15377
-0.119703
-0.0948006
-0.0786325
-0.0697806
-0.0670041
-0.0704288
-0.0810486
-0.0964633
-0.108893
-0.110304
-0.100165
-0.0847794
-0.0720633
-0.0656928
-0.0648806
-0.0702078
-0.0842151
-0.103955
-0.118972
-0.117072
-0.101359
-0.080167
-0.061853
-0.0494597
-0.0423146
-0.0411011
-0.0403641
-0.0390777
-0.0375476
-0.0361265
-0.0349147
-0.0356456
-0.0382234
-0.0370052
-0.0370752
-0.0286759
-0.00718958
-0.24921
-0.235106
-0.223046
-0.211618
-0.200232
-0.187995
-0.175207
-0.164966
-0.153836
-0.143125
-0.135931
-0.134384
-0.140476
-0.155525
-0.179257
-0.209019
-0.239674
-0.264214
-0.275111
-0.266108
-0.237606
-0.197268
-0.155713
-0.120495
-0.0941906
-0.0762918
-0.0653833
-0.0602088
-0.0606258
-0.0675756
-0.0797072
-0.0907528
-0.0936338
-0.0862373
-0.07438
-0.0650618
-0.0616651
-0.0634102
-0.0711696
-0.0876437
-0.109522
-0.126001
-0.124095
-0.107138
-0.0836298
-0.062896
-0.0486832
-0.0398225
-0.0371914
-0.035086
-0.0338498
-0.0329108
-0.0329629
-0.0338591
-0.0364191
-0.0411254
-0.0402395
-0.0403002
-0.0312158
-0.0078354
-0.210844
-0.189487
-0.171958
-0.156082
-0.142725
-0.128923
-0.116398
-0.114547
-0.10626
-0.102186
-0.102353
-0.108398
-0.121776
-0.143163
-0.171668
-0.204347
-0.236361
-0.261421
-0.272646
-0.2641
-0.23612
-0.196344
-0.155168
-0.119838
-0.092827
-0.0737111
-0.0611639
-0.053957
-0.0516942
-0.0551868
-0.0640145
-0.0733756
-0.0770898
-0.0722002
-0.0636295
-0.0574589
-0.056796
-0.0608988
-0.0708562
-0.0895457
-0.113398
-0.131299
-0.129656
-0.111917
-0.0865003
-0.0636006
-0.0477727
-0.0374384
-0.0336195
-0.0302786
-0.0289516
-0.0283697
-0.0297407
-0.0326964
-0.0371211
-0.0439483
-0.0433309
-0.0432949
-0.0335781
-0.00844877
-0.183635
-0.155362
-0.133206
-0.113482
-0.0999696
-0.0857191
-0.0745584
-0.0692899
-0.0659091
-0.0667993
-0.0725946
-0.0844782
-0.103317
-0.129166
-0.160661
-0.19479
-0.22717
-0.252356
-0.263944
-0.256293
-0.229849
-0.192009
-0.152508
-0.11804
-0.0909752
-0.0711007
-0.0573028
-0.0484305
-0.043947
-0.0443598
-0.0499363
-0.057318
-0.0611753
-0.0584861
-0.0528132
-0.0494072
-0.0511396
-0.0573328
-0.0691962
-0.0897963
-0.115391
-0.134676
-0.1336
-0.115599
-0.0887428
-0.0639878
-0.0467559
-0.0351731
-0.0303854
-0.0259704
-0.0244313
-0.0239895
-0.0264936
-0.0314286
-0.0377365
-0.0466595
-0.0462377
-0.0460237
-0.0357344
-0.00902109
-0.168256
-0.138823
-0.111598
-0.0885596
-0.0699268
-0.0546826
-0.0434131
-0.0383867
-0.0371284
-0.0407059
-0.049805
-0.0651221
-0.0870208
-0.115098
-0.147708
-0.181887
-0.213711
-0.238434
-0.250265
-0.243798
-0.219725
-0.184951
-0.148192
-0.115408
-0.088866
-0.0686345
-0.0539163
-0.0437132
-0.0374191
-0.0352629
-0.0378091
-0.043036
-0.0466212
-0.0455596
-0.0422409
-0.0411185
-0.0448474
-0.052798
-0.066194
-0.0883403
-0.115406
-0.136073
-0.135816
-0.118115
-0.0903202
-0.0640697
-0.0456524
-0.0330267
-0.0274631
-0.0221568
-0.0203201
-0.0198323
-0.0232499
-0.0300547
-0.0382472
-0.0492256
-0.0489228
-0.0484539
-0.0376572
-0.00954352
-0.163125
-0.134276
-0.104892
-0.0791755
-0.0575723
-0.0399484
-0.0278679
-0.0218113
-0.0206188
-0.0248088
-0.0348939
-0.0512178
-0.0737959
-0.101971
-0.133998
-0.167025
-0.197547
-0.221268
-0.232866
-0.227755
-0.206707
-0.175834
-0.142594
-0.112123
-0.0865918
-0.0663697
-0.0510314
-0.0398035
-0.0320774
-0.0278492
-0.027737
-0.0307932
-0.0337725
-0.0338068
-0.0322245
-0.0328559
-0.0381231
-0.0474303
-0.0619599
-0.0852197
-0.113467
-0.135538
-0.13624
-0.119434
-0.0912091
-0.0638611
-0.0444812
-0.0310026
-0.0248299
-0.0188078
-0.0166268
-0.0159543
-0.0200319
-0.0285728
-0.0386323
-0.051615
-0.0513521
-0.0505492
-0.0393235
-0.0100093
-0.164652
-0.137912
-0.109082
-0.0822383
-0.0587768
-0.0395646
-0.0256576
-0.0176765
-0.0151051
-0.0181464
-0.0272307
-0.0424987
-0.0637582
-0.0902634
-0.120284
-0.151125
-0.179624
-0.201888
-0.212966
-0.209363
-0.191807
-0.165383
-0.136149
-0.108421
-0.0842935
-0.0644222
-0.0487464
-0.0367676
-0.0279395
-0.0220931
-0.0197564
-0.0207169
-0.0228213
-0.0235095
-0.022983
-0.0248787
-0.0312134
-0.0414152
-0.0565697
-0.0805254
-0.10974
-0.133209
-0.134875
-0.119597
-0.0914603
-0.0634515
-0.0433172
-0.0291298
-0.0224906
-0.0159209
-0.013345
-0.0123977
-0.0168542
-0.0269786
-0.0388702
-0.0537953
-0.0534979
-0.0522746
-0.0407116
-0.0104152
-0.169587
-0.145759
-0.11967
-0.0940977
-0.0703357
-0.0486044
-0.0341194
-0.023546
-0.0185818
-0.0191189
-0.025693
-0.0383393
-0.0567562
-0.0802127
-0.107083
-0.134866
-0.160456
-0.180971
-0.191756
-0.189995
-0.176328
-0.154671
-0.129704
-0.104992
-0.0825683
-0.0633282
-0.0475294
-0.0349743
-0.0252596
-0.0181184
-0.0139384
-0.0129314
-0.0139136
-0.0146065
-0.0146768
-0.0174145
-0.0243229
-0.0349803
-0.050389
-0.0745645
-0.104348
-0.129289
-0.131982
-0.118703
-0.0911705
-0.0630012
-0.0423033
-0.0274635
-0.0204245
-0.0135189
-0.0105122
-0.00920494
-0.0137195
-0.0252766
-0.038935
-0.0557276
-0.0553322
-0.0536113
-0.0417949
-0.0107552
-0.174681
-0.153652
-0.130901
-0.107462
-0.0849643
-0.0635877
-0.0468465
-0.0347919
-0.02777
-0.0250569
-0.0280417
-0.0370159
-0.0515705
-0.0711379
-0.0943198
-0.118704
-0.141654
-0.159423
-0.169868
-0.17015
-0.160658
-0.143985
-0.12348
-0.102003
-0.0815043
-0.0631042
-0.0473449
-0.0343215
-0.0238692
-0.0156928
-0.00998588
-0.0071664
-0.00694971
-0.00731928
-0.00761857
-0.0107892
-0.0177266
-0.0282329
-0.0432475
-0.0673761
-0.0979059
-0.124153
-0.134623
-0.116669
-0.0900526
-0.062295
-0.0413136
-0.025911
-0.0184713
-0.0114156
-0.00812715
-0.00653954
-0.0106265
-0.0234374
-0.0388124
-0.0573879
-0.0568021
-0.0545514
-0.0425405
-0.0110008
-0.180336
-0.163625
-0.145058
-0.12467
-0.104289
-0.0857484
-0.0666347
-0.0517634
-0.041534
-0.0361867
-0.0355212
-0.0399532
-0.0496055
-0.0639042
-0.0817413
-0.10149
-0.121496
-0.137697
-0.14649
-0.148179
-0.142449
-0.130331
-0.11402
-0.0957821
-0.0774593
-0.0603371
-0.0451529
-0.0321712
-0.0214725
-0.0128312
-0.00619265
-0.00193741
-0.000639223
-0.000926636
-0.00160282
-0.00508767
-0.0118042
-0.0219647
-0.0362702
-0.059649
-0.0899195
-0.116773
-0.126094
-0.112299
-0.0871321
-0.0601999
-0.0394414
-0.0239473
-0.0163419
-0.00911696
-0.00574257
-0.00417515
-0.0076652
-0.0215455
-0.0384516
-0.0587075
-0.0578982
-0.0550847
-0.0429458
-0.0111029
-0.171264
-0.163184
-0.146029
-0.126255
-0.106481
-0.0889544
-0.0725653
-0.0591163
-0.0492117
-0.0430643
-0.0409909
-0.0436342
-0.0511262
-0.0630323
-0.0783576
-0.0955669
-0.112663
-0.125861
-0.133418
-0.134474
-0.12887
-0.117752
-0.102997
-0.0865095
-0.0698448
-0.0541032
-0.0399436
-0.0276026
-0.0172092
-0.00861784
-0.00173554
0.00325071
0.00556609
0.00589883
0.007855
0.00188527
-0.00407053
-0.0131995
-0.0266878
-0.0504181
-0.0827812
-0.11237
-0.122984
-0.109122
-0.0836086
-0.0568793
-0.0365329
-0.0214779
-0.0141868
-0.0066841
-0.0030518
-0.000481664
-0.00408387
-0.0191669
-0.0377787
-0.0599786
-0.0589537
-0.0553911
-0.0431164
-0.0110875
-0.162524
-0.156123
-0.140159
-0.121534
-0.104841
-0.0900466
-0.0765129
-0.0648484
-0.055739
-0.0497254
-0.0473419
-0.0489786
-0.0546665
-0.0640176
-0.0761552
-0.0896799
-0.10225
-0.112695
-0.118388
-0.118569
-0.113379
-0.103758
-0.0911009
-0.0768531
-0.0622345
-0.0481634
-0.0352419
-0.0237183
-0.0138153
-0.00547029
0.00144625
0.00679633
0.00957349
0.00977439
0.00680994
0.00615621
0.00137065
-0.00663042
-0.0190777
-0.0425773
-0.0759439
-0.106233
-0.115245
-0.102866
-0.0783328
-0.0528524
-0.0335344
-0.0190805
-0.0120295
-0.00454662
-0.00109053
0.00171609
-0.00152874
-0.0172267
-0.0372185
-0.0608174
-0.0595515
-0.054989
-0.0428588
-0.0110348
-0.153265
-0.148075
-0.134685
-0.118751
-0.104073
-0.0911725
-0.0795599
-0.0693997
-0.061266
-0.0557269
-0.0531892
-0.0538804
-0.0577828
-0.0645444
-0.0734295
-0.0833207
-0.0926532
-0.100162
-0.104142
-0.103927
-0.099524
-0.0914855
-0.0807666
-0.0684616
-0.0555723
-0.0429008
-0.0310347
-0.0202391
-0.0107669
-0.00264949
0.00418092
0.00968039
0.0128205
0.0132737
0.0113395
0.0100648
0.00585955
-0.00154292
-0.013465
-0.0364357
-0.068857
-0.0979763
-0.10767
-0.0954014
-0.0724232
-0.0485458
-0.0303933
-0.016628
-0.00987212
-0.00249079
0.000757751
0.00362777
0.000434021
-0.0157069
-0.0367259
-0.0611837
-0.0597066
-0.0541269
-0.0422096
-0.0109574
-0.14253
-0.139617
-0.128865
-0.115248
-0.102475
-0.0913282
-0.0814275
-0.0727041
-0.0655368
-0.0603866
-0.0575892
-0.0573269
-0.0595774
-0.0640645
-0.0702392
-0.077221
-0.083888
-0.0891326
-0.091828
-0.0913151
-0.0874503
-0.0805677
-0.0713556
-0.0606568
-0.0492829
-0.0379037
-0.0270567
-0.0170058
-0.00800805
-0.000164535
0.00649724
0.0120229
0.015502
0.016451
0.0152951
0.0139498
0.0103499
0.00341606
-0.00804141
-0.0298406
-0.0604037
-0.0884361
-0.0979472
-0.0868657
-0.0657597
-0.0438131
-0.0270673
-0.0141305
-0.00771387
-0.000503113
0.00255127
0.00540447
0.00222328
-0.0141895
-0.0359217
-0.0610042
-0.0594147
-0.0528087
-0.0411196
-0.0108237
-0.131932
-0.130964
-0.122483
-0.110988
-0.100009
-0.0904696
-0.0820751
-0.07462
-0.0683054
-0.0634977
-0.0605031
-0.0594857
-0.0604311
-0.0631259
-0.0671418
-0.0718236
-0.0762952
-0.0797374
-0.0812891
-0.0803784
-0.0768312
-0.0708436
-0.0628846
-0.0535679
-0.0435297
-0.0333164
-0.0234117
-0.0140814
-0.00557812
0.0019673
0.00842709
0.0138832
0.0176027
0.0190681
0.0186182
0.0176903
0.0148927
0.0086764
-0.00188461
-0.0220488
-0.0508681
-0.0778503
-0.0870971
-0.0773554
-0.0584466
-0.0387413
-0.0236089
-0.0116151
-0.00557084
0.00141477
0.00426579
0.00697496
0.00396202
-0.0124367
-0.0346244
-0.0601527
-0.058556
-0.0509629
-0.0395459
-0.0106074
-0.121897
-0.122073
-0.115528
-0.106019
-0.0967265
-0.0886347
-0.0815423
-0.0751912
-0.0696613
-0.0652338
-0.0621742
-0.0606267
-0.0605858
-0.061884
-0.0641714
-0.0670011
-0.0697208
-0.0716829
-0.0722425
-0.0709489
-0.0676148
-0.0623212
-0.0553687
-0.0471961
-0.0383018
-0.0291285
-0.0200967
-0.0114633
-0.00347503
0.00374
0.00998132
0.0153074
0.019162
0.0210957
0.0214726
0.0211395
0.019347
0.0141758
0.00481948
-0.01368
-0.0407397
-0.0663364
-0.0753479
-0.0671266
-0.0506753
-0.0334181
-0.0200573
-0.00910477
-0.00346096
0.00325207
0.00590288
0.00832246
0.0056309
-0.0104245
-0.0327553
-0.0584191
-0.0569813
-0.0485519
-0.0374662
-0.0102822
-0.111894
-0.112972
-0.108158
-0.100461
-0.0927093
-0.0859098
-0.0799537
-0.074579
-0.0697831
-0.0657647
-0.0627408
-0.0608384
-0.0600624
-0.0602902
-0.0612772
-0.0626494
-0.063978
-0.0647595
-0.0645134
-0.0628772
-0.059663
-0.0548834
-0.0487284
-0.0415059
-0.0335978
-0.0253546
-0.0171312
-0.00916392
-0.00169779
0.00515372
0.0111638
0.0163406
0.0202578
0.0225597
0.0235766
0.0240872
0.0234747
0.0196053
0.011526
-0.00534475
-0.0304295
-0.0543014
-0.0630526
-0.0564977
-0.0426707
-0.0279633
-0.0164627
-0.00662497
-0.00140008
0.00500226
0.00747763
0.00946396
0.00718598
-0.00816
-0.0301883
-0.0555833
-0.0544611
-0.045568
-0.0348828
-0.00982474
-0.102023
-0.103946
-0.100593
-0.094459
-0.0880704
-0.0824159
-0.0774559
-0.0729424
-0.0688182
-0.0652124
-0.062298
-0.0601883
-0.0588976
-0.0583389
-0.0583447
-0.0586427
-0.0589083
-0.0587752
-0.0578841
-0.055947
-0.0527964
-0.0484086
-0.0428967
-0.0364684
-0.0294092
-0.0219929
-0.0145144
-0.00718167
-0.000233063
0.00622822
0.0119861
0.0170074
0.0209437
0.0235313
0.0250829
0.0263539
0.026942
0.0245432
0.0177807
0.00250239
-0.0204765
-0.042241
-0.050607
-0.0458279
-0.0346936
-0.0225204
-0.0128801
-0.00419814
0.000600723
0.00666236
0.00900898
0.0104454
0.00862709
-0.00559053
-0.0267839
-0.051484
-0.0510584
-0.042036
-0.0318311
-0.00921885
-0.0927281
-0.0951631
-0.0929392
-0.0881226
-0.0829265
-0.0782796
-0.0741892
-0.07043
-0.0669131
-0.0637157
-0.0609717
-0.0587797
-0.0571628
-0.0560683
-0.0553686
-0.0548772
-0.0543535
-0.0535303
-0.0521419
-0.0499668
-0.0468625
-0.0427861
-0.0377989
-0.0320369
-0.0257102
-0.0190297
-0.0122365
-0.00550763
0.000935339
0.00699219
0.0124716
0.0173223
0.02125
0.02406
0.0260243
0.0278616
0.0294326
0.0284269
0.0229476
0.00927686
-0.011336
-0.0305499
-0.0384453
-0.0355087
-0.0270147
-0.0172446
-0.00937007
-0.00184503
0.00253462
0.00823307
0.010519
0.0113596
0.0100173
-0.00264828
-0.0224738
-0.0460525
-0.0466353
-0.0380127
-0.0283854
-0.00845959
-0.0839646
-0.0866253
-0.0852784
-0.0815731
-0.0774082
-0.0736362
-0.0702991
-0.0671982
-0.0642285
-0.0614282
-0.0588981
-0.0567222
-0.0549295
-0.0534895
-0.052314
-0.0512689
-0.0501829
-0.0488637
-0.047117
-0.0447747
-0.0417195
-0.0379025
-0.0333528
-0.0281575
-0.0224679
-0.0164441
-0.01028
-0.00412403
0.00182737
0.00747669
0.0126556
0.0173072
0.0211973
0.0241606
0.026427
0.0286026
0.0307568
0.0307366
0.0263779
0.0145316
-0.00324303
-0.0196314
-0.0270776
-0.0259365
-0.0198847
-0.0122838
-0.00599811
0.000412009
0.00439525
0.00971996
0.0120301
0.012339
0.0114566
0.000682497
-0.0173094
-0.0393692
-0.0412388
-0.0335991
-0.0246598
-0.00755719
-0.0755809
-0.0783866
-0.0777373
-0.0749473
-0.0716508
-0.0686247
-0.0659336
-0.0634036
-0.0609223
-0.0585
-0.056211
-0.0541251
-0.052273
-0.0506401
-0.0491672
-0.047761
-0.0463007
-0.0446495
-0.0426666
-0.0402266
-0.0372368
-0.0336505
-0.0294779
-0.024773
-0.019643
-0.0142076
-0.00862091
-0.0030062
0.00246925
0.00771134
0.0125747
0.0169998
0.0208061
0.0238463
0.0263083
0.0286308
0.030937
0.0313848
0.0279661
0.0181881
0.00356456
-0.0100345
-0.0170444
-0.0174532
-0.013496
-0.00775679
-0.00283019
0.00254646
0.00616859
0.0111246
0.0135534
0.0135212
0.0130478
0.00433685
-0.0114945
-0.0317244
-0.0350473
-0.0289303
-0.0208025
-0.00653933
-0.0676791
-0.0705434
-0.0704115
-0.0683518
-0.0657731
-0.0633747
-0.0612319
-0.0591925
-0.0571428
-0.055074
-0.0530387
-0.0510946
-0.0492705
-0.0475624
-0.0459332
-0.0443192
-0.0426357
-0.0407868
-0.0386723
-0.0362008
-0.0333013
-0.0299333
-0.0260967
-0.0218242
-0.0171912
-0.0122862
-0.00723034
-0.00212483
0.0028911
0.00772912
0.012266
0.0164398
0.0201078
0.0231557
0.0257037
0.0280245
0.0301891
0.0307471
0.0280963
0.0203545
0.00877583
-0.00227843
-0.0087476
-0.0102605
-0.0079524
-0.00373766
7.5023e-05
0.00453062
0.00782897
0.012428
0.0150652
0.0149971
0.0148633
0.00816193
-0.00540305
-0.0236273
-0.0283745
-0.0239687
-0.0169789
-0.00545134
-0.060322
-0.0631201
-0.0633482
-0.0618673
-0.0598791
-0.058004
-0.0563216
-0.0546997
-0.0530277
-0.0512835
-0.0495032
-0.0477326
-0.0459997
-0.0443055
-0.0426279
-0.0409243
-0.0391367
-0.0371987
-0.0350406
-0.0325971
-0.0298155
-0.0266632
-0.0231355
-0.0192523
-0.0150661
-0.0106425
-0.00607566
-0.00144783
0.00312562
0.00756632
0.0117687
0.0156688
0.0191543
0.0221368
0.0246662
0.0268813
0.0287744
0.0292796
0.0272129
0.0212241
0.0122922
0.00347938
-0.00227637
-0.00438756
-0.00327026
-0.000255559
0.0026726
0.0063399
0.00934436
0.0135876
0.0164827
0.0167368
0.0168907
0.0119162
0.000466327
-0.0157219
-0.0216635
-0.0193234
-0.0133652
-0.00435197
-0.0534475
-0.0561147
-0.0565937
-0.0555691
-0.0540613
-0.0526169
-0.0513166
-0.0500462
-0.0487009
-0.0472502
-0.0457175
-0.0441387
-0.042538
-0.0409206
-0.039274
-0.0375702
-0.03577
-0.0338287
-0.0316982
-0.0293334
-0.0266964
-0.0237626
-0.0205265
-0.0170002
-0.013221
-0.00923726
-0.00512212
-0.000942028
0.0032083
0.007261
0.0111221
0.0147325
0.018003
0.0208453
0.0232777
0.0253247
0.0269239
0.0273273
0.0256974
0.0211309
0.0143601
0.00747
0.0025527
0.000264017
0.000592365
0.00269318
0.00493514
0.00795087
0.0106867
0.0145532
0.0176689
0.0185381
0.0189362
0.0152574
0.0055984
-0.00861756
-0.0153399
-0.0149234
-0.01009
-0.00330329
-0.0470398
-0.0495482
-0.050192
-0.0495185
-0.0483949
-0.0473006
-0.0463137
-0.0453362
-0.0442705
-0.0430813
-0.0417817
-0.0404002
-0.0389571
-0.0374591
-0.0358994
-0.0342604
-0.0325158
-0.030636
-0.0285886
-0.0263436
-0.0238747
-0.0211645
-0.0182083
-0.0150146
-0.0116101
-0.00803102
-0.00433422
-0.000573272
0.00317436
0.00685005
0.0103705
0.0136812
0.0167079
0.0193745
0.021647
0.0234967
0.0248324
0.0251461
0.0238695
0.0204365
0.0153727
0.0100832
0.0060329
0.00384705
0.0037061
0.00513256
0.00685311
0.00933883
0.0118288
0.0152896
0.01849
0.0200562
0.0205902
0.0177613
0.00958273
-0.00270704
-0.00970888
-0.0109041
-0.00724254
-0.00236067
-0.0411085
-0.0434284
-0.0441651
-0.0437569
-0.042938
-0.0421256
-0.0413933
-0.0406572
-0.039828
-0.0388682
-0.0377836
-0.0365964
-0.0353234
-0.0339705
-0.0325345
-0.0310047
-0.029364
-0.0275927
-0.0256698
-0.0235758
-0.0212936
-0.0188117
-0.0161272
-0.0132467
-0.0101903
-0.00698558
-0.00367719
-0.000308134
0.00305766
0.00637012
0.00955679
0.0125676
0.0153322
0.0177905
0.0198742
0.0215296
0.0226572
0.0229203
0.02195
0.0194135
0.0156821
0.0116897
0.00845648
0.00652729
0.00615202
0.0070975
0.00842995
0.010482
0.0127332
0.0157687
0.0188548
0.0209905
0.0214109
0.0190999
0.012221
0.00187007
-0.00494844
-0.00736764
-0.004864
-0.0015635
-0.0356305
-0.0377457
-0.038524
-0.0383142
-0.0377352
-0.0371478
-0.0366202
-0.0360808
-0.0354493
-0.0346881
-0.0337981
-0.0327961
-0.0316953
-0.0305002
-0.0292095
-0.0278171
-0.0263119
-0.0246811
-0.0229111
-0.0209903
-0.0189076
-0.0166568
-0.0142367
-0.0116532
-0.00892213
-0.00606518
-0.0031179
-0.000114854
0.0028909
0.00585733
0.00872044
0.0114358
0.0139353
0.0161653
0.0180536
0.019535
0.0205119
0.0207673
0.0200687
0.0182408
0.0155389
0.0125798
0.0100739
0.00846607
0.00801395
0.00862913
0.00967697
0.0113664
0.0133686
0.0159667
0.0186973
0.0203728
0.0212172
0.0192867
0.01359
0.00514507
-0.00116039
-0.00438065
-0.00294709
-0.000926728
-0.0305829
-0.0324915
-0.033275
-0.0332105
-0.0328183
-0.0324089
-0.0320442
-0.0316635
-0.0311958
-0.0306047
-0.0298872
-0.0290558
-0.0281222
-0.0270884
-0.0259532
-0.0247136
-0.0233623
-0.0218913
-0.0202919
-0.0185574
-0.0166816
-0.0146617
-0.0124982
-0.0101968
-0.00777081
-0.00523741
-0.00262565
3.62912e-05
0.00270433
0.00534334
0.007897
0.0103265
0.0125671
0.014573
0.0162696
0.0175995
0.0184721
0.0187536
0.018297
0.0170258
0.0151109
0.0129671
0.0110855
0.00980692
0.0093744
0.00977206
0.0106105
0.0119899
0.0137285
0.015901
0.0181996
0.0197822
0.0203218
0.018641
0.0139636
0.00724895
0.00163394
-0.0019648
-0.00144539
-0.000439133
-0.0259485
-0.0276538
-0.028416
-0.0284553
-0.0282075
-0.0279378
-0.0277017
-0.0274481
-0.0271146
-0.0266673
-0.0261001
-0.0254219
-0.0246468
-0.0237706
-0.0227923
-0.0217105
-0.0205211
-0.0192191
-0.0177986
-0.0162562
-0.014589
-0.0127965
-0.0108805
-0.00884675
-0.00670653
-0.00447419
-0.00217375
0.000171801
0.00252524
0.00485696
0.00711802
0.00927561
0.0112702
0.0130626
0.0145819
0.0157832
0.0165859
0.0169111
0.0166661
0.0158294
0.0145164
0.0130068
0.0116424
0.0106705
0.010311
0.0105725
0.0112521
0.0123667
0.0138297
0.0156041
0.0174429
0.0187678
0.0190143
0.0175248
0.0136758
0.00839611
0.00343191
-9.57275e-05
-0.000294005
-7.47429e-05
-0.021705
-0.0232152
-0.0239391
-0.024051
-0.0239139
-0.0237531
-0.0236177
-0.0234651
-0.023241
-0.022915
-0.0224801
-0.0219433
-0.0213061
-0.0205765
-0.0197498
-0.0188238
-0.0177963
-0.0166642
-0.0154236
-0.0140728
-0.0126109
-0.0110388
-0.00935937
-0.00757814
-0.00570502
-0.00375219
-0.0017396
0.000313583
0.00237591
0.0044227
0.0064112
0.00831372
0.0100781
0.0116722
0.013032
0.014124
0.014879
0.0152527
0.0151861
0.0146862
0.0138327
0.0128102
0.0118613
0.0111588
0.0108946
0.0110766
0.0116307
0.012519
0.0137091
0.0151194
0.0165133
0.0175187
0.017529
0.0162043
0.013015
0.00886158
0.00468237
0.00130497
0.000570028
0.000193196
-0.0178305
-0.019158
-0.0198335
-0.0199942
-0.0199413
-0.0198647
-0.0198072
-0.0197335
-0.019597
-0.0193704
-0.0190459
-0.0186263
-0.018118
-0.0175259
-0.0168436
-0.0160674
-0.0151963
-0.0142292
-0.0131636
-0.0119986
-0.0107344
-0.00937273
-0.00791692
-0.00637226
-0.0047475
-0.00305299
-0.00130556
0.000478718
0.00227356
0.00405841
0.00579662
0.00746408
0.00901535
0.0104266
0.0116443
0.0126423
0.0133605
0.0137785
0.0138576
0.013615
0.0131065
0.012456
0.0118353
0.0113583
0.0111896
0.0113289
0.01178
0.0124771
0.0134108
0.0144951
0.0154785
0.0161844
0.0160145
0.0148397
0.0121795
0.00887456
0.00540173
0.00229765
0.00119559
0.000386819
-0.0143043
-0.0154632
-0.0160848
-0.0162767
-0.0162873
-0.0162754
-0.0162779
-0.0162657
-0.0161991
-0.016054
-0.0158227
-0.0155052
-0.0151046
-0.0146392
-0.01409
-0.0134538
-0.0127298
-0.0119183
-0.0110182
-0.0100292
-0.00895174
-0.00778786
-0.00654093
-0.00521593
-0.00382046
-0.0023634
-0.00085898
0.000679682
0.00223038
0.00377568
0.00528559
0.0067397
0.00809796
0.00934202
0.0104332
0.0113436
0.0120303
0.0124817
0.0126726
0.0126228
0.0123724
0.012002
0.0116325
0.0113366
0.0112528
0.0113721
0.0117361
0.0122731
0.0129783
0.0137787
0.0144363
0.0148652
0.0145603
0.0135161
0.0112897
0.0086115
0.00573267
0.00295079
0.00162169
0.000521794
-0.0111052
-0.0121106
-0.0126767
-0.0128872
-0.0129453
-0.0129829
-0.0130313
-0.013067
-0.0130568
-0.01298
-0.0128305
-0.0126089
-0.0123181
-0.0119452
-0.0115067
-0.0109949
-0.010405
-0.00973643
-0.00898922
-0.00816333
-0.00725906
-0.00627827
-0.00522408
-0.00410095
-0.00291545
-0.00167512
-0.000391651
0.000923698
0.0022527
0.0035812
0.00488356
0.00614369
0.00732976
0.00842348
0.00939168
0.0102213
0.010878
0.011351
0.0116229
0.0117129
0.0116512
0.0114882
0.0113036
0.0111489
0.0111347
0.0112456
0.0115353
0.011939
0.0124487
0.013009
0.0134091
0.0136155
0.0132142
0.0122749
0.0104091
0.008192
0.00579554
0.00333947
0.00188759
0.000609912
-0.00821259
-0.00908033
-0.00959191
-0.00981183
-0.00990515
-0.00998002
-0.010063
-0.0101348
-0.010168
-0.0101449
-0.0100592
-0.00991077
-0.00969962
-0.00942595
-0.00909022
-0.00869134
-0.00822398
-0.00768635
-0.00707863
-0.00640145
-0.00565526
-0.00484157
-0.00396301
-0.00302344
-0.00202841
-0.000984227
9.94373e-05
0.00121329
0.00234255
0.00347526
0.00459093
0.00567614
0.00670494
0.00766363
0.00852232
0.00927476
0.00989194
0.0103726
0.0106988
0.0108846
0.0109535
0.0109318
0.0108877
0.0108404
0.0108789
0.010986
0.0112125
0.0115067
0.0118544
0.0122183
0.0124194
0.0124565
0.0119941
0.0111356
0.00956702
0.00769598
0.00568066
0.00353065
0.00203169
0.000660251
-0.00560743
-0.00635289
-0.00681254
-0.00703558
-0.00715459
-0.00725741
-0.00736605
-0.00746505
-0.00753184
-0.00755169
-0.0075189
-0.0074328
-0.00729357
-0.00709979
-0.00685083
-0.00655053
-0.00619204
-0.00577195
-0.00528961
-0.0047459
-0.00414168
-0.00347825
-0.0027577
-0.00198316
-0.00115923
-0.000291089