/*--------------------------------*- C++ -*----------------------------------*\
| =========                 |                                                 |
| \\      /  F ield         | OpenFOAM: The Open Source CFD Toolbox           |
|  \\    /   O peration     | Version:  2512                                  |
|   \\  /    A nd           | Website:  www.openfoam.com                      |
|    \\/     M anipulation  |                                                 |
\*---------------------------------------------------------------------------*/
FoamFile
{
    version     2.0;
    format      ascii;
    arch        "LSB;label=32;scalar=64";
    class       volVectorField;
    location    "187";
    object      U;
}
// * * * * * * * * * * * * * * * * * * * * * * * * * * * * * * * * * * * * * //

dimensions      [0 1 -1 0 0 0 0];

internalField   nonuniform List<vector> 
13248
(
(-0.0116015 0.011845 9.19099e-20)
(-0.0163205 0.0226966 0)
(-0.00338763 0.0258648 -1.74369e-19)
(0.0250735 0.0232463 1.64253e-19)
(0.0677217 0.0167114 1.54522e-19)
(0.123625 0.00790309 0)
(0.191868 -0.0018985 0)
(0.271276 -0.0117216 3.78175e-19)
(0.360171 -0.0208365 -1.856e-21)
(0.45623 -0.0287162 -3.30179e-19)
(0.556486 -0.0350162 3.031e-19)
(0.657496 -0.0395611 -1.895e-19)
(0.755626 -0.0423302 0)
(0.847403 -0.0434331 -3.07586e-19)
(0.929856 -0.0430761 5.65921e-19)
(1.00078 -0.0415209 -1.34805e-19)
(1.05889 -0.0390431 -2.2016e-19)
(1.10387 -0.0359041 2.06696e-19)
(1.13627 -0.0322901 0)
(1.15731 -0.0284615 0)
(1.16885 -0.0241675 0)
(1.17227 -0.0206781 0)
(1.1711 -0.014961 4.96577e-20)
(1.16267 -0.0157363 1.61702e-19)
(-0.0096654 0.00893987 -2.77405e-19)
(-0.00799833 0.0151518 1.89094e-19)
(0.0142891 0.0154831 -1.28024e-21)
(0.054979 0.0116044 -2.50364e-19)
(0.112523 0.00522256 -1.54355e-19)
(0.185542 -0.00211823 -1.45962e-19)
(0.272327 -0.00922946 -2.70215e-19)
(0.370536 -0.015259 2.54561e-19)
(0.477012 -0.019661 0)
(0.587822 -0.0221803 1.83292e-21)
(0.698502 -0.0228289 3.18422e-21)
(0.804496 -0.0218395 1.87292e-19)
(0.90164 -0.0195966 0)
(0.986609 -0.0165547 0)
(1.05722 -0.0131571 2.01528e-19)
(1.11255 -0.00977071 -3.78349e-19)
(1.15291 -0.00664462 2.13602e-19)
(1.17958 -0.0038974 -2.0055e-19)
(1.1946 -0.0015242 -8.4463e-20)
(1.20036 0.000549768 -1.45082e-19)
(1.19927 0.00256993 -5.51742e-20)
(1.19363 0.00429657 -1.00954e-19)
(1.18535 0.00747404 1.56635e-19)
(1.17445 0.00651882 4.27619e-20)
(-0.00675393 0.00598208 0)
(0.00392246 0.00736138 0)
(0.0385772 0.00494647 8.85991e-20)
(0.0946378 0.000250817 8.20834e-20)
(0.170035 -0.00515244 -1.44614e-21)
(0.262482 -0.00984725 -1.49045e-19)
(0.368879 -0.0128528 0)
(0.485086 -0.013637 -1.26655e-19)
(0.605998 -0.0120925 1.17661e-19)
(0.725941 -0.00849255 -5.04099e-22)
(0.839291 -0.00340002 -1.99464e-19)
(0.941155 0.00246511 -1.79332e-19)
(1.02793 0.00837126 6.01686e-21)
(1.09762 0.0137023 -1.39977e-19)
(1.14986 0.0180424 3.42701e-19)
(1.18577 0.0212081 0)
(1.20749 0.0232322 -2.07151e-19)
(1.21778 0.0243095 1.01602e-19)
(1.21959 0.0247382 8.43912e-20)
(1.2156 0.0248128 0)
(1.20813 0.0249189 6.48318e-20)
(1.19881 0.0249398 -2.16492e-19)
(1.18893 0.0260821 2.03227e-19)
(1.17871 0.0241683 1.20265e-19)
(-0.00251467 0.00300129 -9.70645e-20)
(0.0203398 -0.000264706 -1.00079e-19)
(0.0707908 -0.0047616 9.11915e-20)
(0.145509 -0.00922337 0)
(0.241371 -0.0122932 0)
(0.354503 -0.0128232 -2.04197e-21)
(0.479704 -0.0102738 0)
(0.610539 -0.00472658 -3.80458e-19)
(0.739914 0.00320939 3.52408e-19)
(0.860954 0.0125588 -4.34374e-19)
(0.967937 0.0221994 9.91503e-20)
(1.05698 0.0310896 0)
(1.12635 0.0384469 1.58616e-19)
(1.17636 0.0438426 -2.91297e-19)
(1.20897 0.0472055 6.94071e-20)
(1.22715 0.0487549 1.69075e-19)
(1.23431 0.0488935 -1.1776e-20)
(1.23371 0.0480954 -1.85625e-19)
(1.22817 0.0468122 0)
(1.21983 0.045409 0)
(1.21022 0.0441889 -6.16923e-20)
(1.20024 0.0430907 5.42058e-20)
(1.19057 0.0430156 1.85865e-19)
(1.18083 0.0403259 -1.74527e-19)
(0.00348597 3.5793e-05 -1.0114e-19)
(0.0421703 -0.00730417 -1.01185e-19)
(0.11197 -0.0126778 2.84975e-19)
(0.208269 -0.0153181 -1.73821e-19)
(0.326161 -0.0143119 1.63609e-19)
(0.45939 -0.00906185 2.98618e-19)
(0.600091 0.000188688 -2.10274e-19)
(0.739516 0.0124347 -2.5394e-19)
(0.869267 0.0261898 6.26491e-21)
(0.982558 0.039835 3.2534e-19)
(1.0751 0.0519556 0)
(1.14539 0.0615803 8.71787e-20)
(1.19441 0.0682763 0)
(1.22496 0.0721057 -1.38388e-19)
(1.24079 0.073489 1.94208e-19)
(1.24585 0.0730328 1.77147e-21)
(1.24369 0.0713748 -4.91842e-20)
(1.23713 0.069074 8.99744e-20)
(1.22824 0.0665576 7.69923e-20)
(1.21834 0.0641125 -6.7952e-20)
(1.20826 0.0619128 6.1676e-20)
(1.19842 0.0599444 -5.4191e-20)
(1.18906 0.0586714 0)
(1.18004 0.0554811 -4.06957e-20)
(0.0116803 -0.00278963 1.01126e-19)
(0.0701716 -0.0131864 1.05487e-19)
(0.162637 -0.0177402 -9.53214e-20)
(0.282537 -0.0165836 1.77493e-19)
(0.422355 -0.00963912 -1.67057e-19)
(0.572797 0.00272282 1.51226e-19)
(0.723263 0.019106 -7.23053e-20)
(0.863451 0.0374063 1.9077e-19)
(0.985115 0.0553684 -1.19247e-19)
(1.08325 0.0710895 2.0877e-19)
(1.15641 0.0833427 -4.79511e-19)
(1.20614 0.0916675 1.74917e-19)
(1.23607 0.0962611 -1.5081e-19)
(1.25072 0.0977536 1.4166e-19)
(1.25455 0.0969601 1.19572e-19)
(1.25141 0.0946815 1.02926e-19)
(1.2442 0.0915836 -2.86109e-19)
(1.23493 0.0881538 1.7661e-19)
(1.22483 0.0847104 -7.69935e-20)
(1.21465 0.0814395 1.97686e-19)
(1.20476 0.0784343 -6.38774e-20)
(1.19533 0.0756995 -1.51692e-19)
(1.18645 0.073461 1.39407e-19)
(1.17795 0.0699221 4.06828e-20)
(0.0224231 -0.00522947 0)
(0.104776 -0.0171338 6.00704e-22)
(0.2226 -0.0187538 1.96922e-19)
(0.366744 -0.0116563 -1.84986e-19)
(0.526359 0.00286438 -1.67154e-19)
(0.688913 0.0230034 3.10528e-19)
(0.841793 0.0459792 -1.44145e-19)
(0.974696 0.0687137 1.9147e-19)
(1.08136 0.0886196 -4.68115e-21)
(1.15999 0.104074 -1.07756e-19)
(1.21258 0.114519 2.33085e-19)
(1.24349 0.120267 -3.42385e-19)
(1.25803 0.122166 0)
(1.26131 0.121258 -6.59577e-20)
(1.25753 0.118528 -1.74234e-19)
(1.24978 0.114769 5.50403e-20)
(1.2401 0.110543 2.60143e-21)
(1.22973 0.106213 -1.15856e-19)
(1.21936 0.10199 8.91696e-21)
(1.20931 0.0979843 1.33175e-19)
(1.19975 0.0942452 -5.79297e-20)
(1.19072 0.0907906 -2.16389e-20)
(1.18219 0.0876554 6.79905e-20)
(1.17407 0.0837827 0)
(0.0359311 -0.00692134 0)
(0.145956 -0.0181847 5.32476e-20)
(0.290827 -0.0144573 -2.54903e-19)
(0.458167 0.000620846 9.28537e-20)
(0.633452 0.0237831 -8.73899e-20)
(0.801468 0.0514418 -7.9394e-20)
(0.949138 0.0795149 -1.40622e-19)
(1.06811 0.104435 7.01732e-20)
(1.15565 0.123929 6.12248e-20)
(1.21379 0.137191 0)
(1.2476 0.144598 1.37236e-19)
(1.26327 0.147227 -2.02707e-19)
(1.26666 0.14639 1.50902e-19)
(1.26255 0.143301 6.59917e-20)
(1.25434 0.138922 -5.32516e-20)
(1.24423 0.133921 -4.37821e-20)
(1.2335 0.12872 -4.04222e-20)
(1.22284 0.123567 1.22619e-19)
(1.21257 0.118592 0)
(1.20283 0.113861 6.01157e-20)
(1.19364 0.109402 4.95552e-20)
(1.18499 0.105224 -1.24073e-19)
(1.1768 0.101271 -8.31556e-20)
(1.16899 0.0970808 7.71438e-20)
(0.052236 -0.00741861 -5.63317e-20)
(0.193134 -0.0152919 -1.58903e-21)
(0.365428 -0.00368078 5.16208e-20)
(0.553162 0.0210178 1.43535e-19)
(0.738454 0.0530551 4.15444e-20)
(0.904814 0.087025 -8.0303e-20)
(1.04074 0.11803 7.36714e-20)
(1.14157 0.142743 -6.47099e-20)
(1.20882 0.159833 1.1515e-19)
(1.24804 0.169623 4.89203e-20)
(1.2664 0.173421 -1.3839e-19)
(1.27077 0.172869 4.0735e-20)
(1.26669 0.169492 6.89563e-20)
(1.2581 0.164483 -3.40149e-20)
(1.2475 0.158664 0)
(1.23629 0.152546 4.9921e-20)
(1.22522 0.146422 8.37756e-20)
(1.21461 0.140448 1.38066e-20)
(1.20458 0.134703 -6.93774e-20)
(1.19517 0.129226 2.88328e-20)
(1.18633 0.124032 0)
(1.17801 0.119114 -2.23462e-20)
(1.17013 0.114396 -2.07174e-20)
(1.16259 0.109829 0)
(0.0711464 -0.00623991 0)
(0.245145 -0.00746032 2.93896e-20)
(0.443752 0.0144654 5.43189e-20)
(0.64756 0.0497672 -1.45382e-19)
(0.836459 0.0899907 4.66657e-20)
(0.994716 0.128315 0)
(1.11437 0.159829 7.02647e-20)
(1.19544 0.182207 -9.79446e-20)
(1.24353 0.195467 -5.72634e-20)
(1.2668 0.201104 2.59795e-20)
(1.27337 0.201161 -4.08924e-20)
(1.2699 0.197586 9.9659e-20)
(1.26112 0.191905 4.9676e-20)
(1.25001 0.185166 -3.47131e-20)
(1.23823 0.178011 -3.4419e-21)
(1.22662 0.170802 -9.37482e-20)
(1.21555 0.163729 4.2598e-20)
(1.20514 0.156889 -9.71569e-22)
(1.19543 0.150326 0)
(1.18637 0.144064 -2.88625e-20)
(1.17789 0.138107 0)
(1.16991 0.132428 6.45249e-20)
(1.16235 0.126993 -7.66315e-20)
(1.15507 0.121972 3.48117e-20)
(0.0922245 -0.00292089 -1.50201e-20)
(0.300267 0.0061217 -7.3445e-20)
(0.522597 0.0404437 8.32201e-20)
(0.737139 0.0865112 4.9055e-20)
(0.923411 0.133404 -2.35406e-20)
(1.06861 0.173714 3.93322e-20)
(1.1697 0.203441 -1.91818e-20)
(1.23149 0.221836 3.19012e-20)
(1.26292 0.230408 0)
(1.27361 0.231654 7.20051e-20)
(1.27171 0.228083 -2.99157e-21)
(1.26311 0.221708 -5.80387e-20)
(1.25156 0.213914 2.48214e-20)
(1.23914 0.205549 -2.79267e-20)
(1.22689 0.197082 -1.05683e-20)
(1.21526 0.188753 1.22502e-20)
(1.20438 0.18068 -9.44063e-21)
(1.19429 0.172917 -5.08397e-20)
(1.18494 0.165489 3.11649e-20)
(1.17626 0.158408 6.37006e-21)
(1.16816 0.151662 5.58857e-21)
(1.16054 0.145216 4.90313e-21)
(1.1533 0.139104 0)
(1.14631 0.133523 0)
(0.114859 0.00294796 1.50305e-20)
(0.356458 0.0259924 -1.50874e-20)
(0.598661 0.0742127 -2.76599e-20)
(0.818198 0.130353 0)
(0.996467 0.181813 -1.16308e-20)
(1.12542 0.221694 -1.03752e-20)
(1.20753 0.247722 -1.7839e-20)
(1.25189 0.261028 0)
(1.26966 0.264512 0)
(1.27093 0.261402 0)
(1.26326 0.254405 0)
(1.25153 0.245424 0)
(1.23849 0.235632 -1.5577e-20)
(1.22554 0.22567 7.09231e-21)
(1.21326 0.215862 1.23084e-20)
(1.20184 0.206355 5.7383e-21)
(1.1913 0.197215 1.41952e-20)
(1.18162 0.188469 0)
(1.17271 0.180128 -3.38956e-21)
(1.16448 0.172192 -3.19784e-21)
(1.15683 0.164634 -5.59742e-21)
(1.14964 0.157426 -4.91091e-21)
(1.14281 0.150669 0)
(1.13619 0.144431 3.51071e-21)
(-0.00107691 -0.0173999 8.98301e-21)
(-0.00635718 -0.0514772 -9.33628e-21)
(-0.0169745 -0.083406 -1.76894e-20)
(-0.0305402 -0.111691 0)
(-0.0457005 -0.135861 -2.36514e-20)
(-0.0616805 -0.156333 7.39985e-21)
(-0.0778461 -0.174029 -1.40717e-20)
(-0.093682 -0.189997 0)
(-0.108804 -0.20513 0)
(-0.122937 -0.220021 0)
(-0.135888 -0.234932 0)
(-0.147514 -0.24983 0)
(-0.157696 -0.26446 -1.62924e-24)
(-0.166316 -0.278405 -9.33537e-21)
(-0.173248 -0.291124 1.76738e-20)
(-0.178345 -0.301985 2.50572e-20)
(-0.181447 -0.310275 7.80582e-21)
(-0.182381 -0.315217 0)
(-0.180987 -0.315996 7.12911e-21)
(-0.177138 -0.311809 -1.97924e-20)
(-0.17071 -0.301922 -1.2325e-20)
(-0.161506 -0.285695 -1.15855e-20)
(-0.149513 -0.262552 0)
(-0.135948 -0.232358 0)
(-0.00089837 -0.0117923 -2.70696e-20)
(-0.00615557 -0.038494 4.66929e-20)
(-0.0176444 -0.0656425 -1.77387e-20)
(-0.032485 -0.0908809 -3.36347e-20)
(-0.0490706 -0.113254 4.74509e-20)
(-0.0665149 -0.132881 -3.00147e-20)
(-0.0841207 -0.15046 4.23021e-20)
(-0.101352 -0.166863 2.6926e-20)
(-0.117837 -0.182847 0)
(-0.133341 -0.198902 -2.36809e-20)
(-0.147715 -0.215226 -1.47189e-22)
(-0.16087 -0.231758 2.09458e-20)
(-0.172738 -0.248245 2.99505e-20)
(-0.183253 -0.26429 3.75182e-20)
(-0.192342 -0.279391 -1.76333e-20)
(-0.199917 -0.292955 -4.97558e-20)
(-0.205872 -0.304305 1.53651e-20)
(-0.210093 -0.31269 -5.7896e-20)
(-0.212476 -0.317298 0)
(-0.212964 -0.317291 1.30875e-20)
(-0.211444 -0.311859 1.23132e-20)
(-0.20757 -0.300209 1.15745e-20)
(-0.201344 -0.281531 0)
(-0.195383 -0.255505 0)
(-0.00142689 -0.00528874 0)
(-0.00718797 -0.0235495 9.50466e-20)
(-0.0192297 -0.0453794 -3.58312e-20)
(-0.0345503 -0.0673749 3.38597e-20)
(-0.0514764 -0.0879505 -9.66486e-20)
(-0.0690974 -0.106804 0)
(-0.086702 -0.124325 -5.75493e-20)
(-0.103754 -0.141157 2.72287e-20)
(-0.119902 -0.157897 -5.16994e-20)
(-0.134934 -0.174936 2.47962e-20)
(-0.148736 -0.192422 1.36953e-19)
(-0.161251 -0.210282 -6.42843e-20)
(-0.17245 -0.228278 -1.00339e-19)
(-0.182309 -0.246043 -3.7668e-20)
(-0.190807 -0.263116 3.81141e-22)
(-0.197914 -0.278947 1.31465e-19)
(-0.203589 -0.292905 -6.14721e-20)
(-0.207783 -0.30427 6.38941e-22)
(-0.210464 -0.312244 0)
(-0.211654 -0.315964 -4.70872e-20)
(-0.211288 -0.314527 0)
(-0.208866 -0.306997 -4.08627e-20)
(-0.204217 -0.292491 1.46932e-19)
(-0.201479 -0.270805 -1.63967e-21)
(-0.00266796 0.00145962 0)
(-0.00941866 -0.00796687 6.92873e-22)
(-0.0215845 -0.0242193 3.68865e-20)
(-0.0364609 -0.0428496 -3.50342e-20)
(-0.0525143 -0.0615948 3.21265e-20)
(-0.0689019 -0.0796712 1.8631e-19)
(-0.0849451 -0.0971053 -5.83645e-20)
(-0.100126 -0.11428 -5.58761e-20)
(-0.114105 -0.131619 1.04413e-19)
(-0.126683 -0.149415 -1.47166e-19)
(-0.137758 -0.16777 4.6647e-20)
(-0.147288 -0.186602 4.39349e-20)
(-0.155267 -0.205686 0)
(-0.161705 -0.224682 3.78706e-20)
(-0.166625 -0.243164 0)
(-0.17006 -0.260624 6.58712e-20)
(-0.172041 -0.276482 -1.19828e-19)
(-0.172598 -0.290078 3.09599e-20)
(-0.171768 -0.300667 1.02896e-19)
(-0.169633 -0.307405 4.70466e-20)
(-0.166212 -0.309317 0)
(-0.160956 -0.305297 -1.1012e-19)
(-0.153093 -0.294341 3.62493e-20)
(-0.147256 -0.276342 0)
(-0.00449336 0.00777357 0)
(-0.0126021 0.00688027 -1.176e-19)
(-0.0244082 -0.00380171 -3.79388e-20)
(-0.0378775 -0.0189915 -7.07059e-20)
(-0.0518088 -0.035821 6.6583e-20)
(-0.0655106 -0.0530252 -6.25143e-20)
(-0.0783779 -0.070252 1.19756e-19)
(-0.0899242 -0.0876098 5.63391e-20)
(-0.099814 -0.105342 -1.59104e-19)
(-0.107844 -0.123636 1.00531e-19)
(-0.113906 -0.142544 -1.41149e-19)
(-0.117958 -0.161971 3.11485e-19)
(-0.120005 -0.181695 -1.66277e-19)
(-0.120087 -0.201389 7.79179e-20)
(-0.118276 -0.220642 2.1402e-19)
(-0.114677 -0.238974 -6.86978e-20)
(-0.109421 -0.255847 -6.39876e-20)
(-0.102655 -0.27067 -5.69033e-20)
(-0.0945307 -0.282795 0)
(-0.0852176 -0.291492 -8.57764e-20)
(-0.0748947 -0.295868 -7.00944e-20)
(-0.0633636 -0.294785 1.08321e-19)
(-0.0491524 -0.286915 1.14458e-19)
(-0.0333918 -0.271427 -1.05438e-19)
(-0.00666565 0.0130575 0)
(-0.0163112 0.0197523 -1.61692e-19)
(-0.0272594 0.0143533 -1.4358e-21)
(-0.0384097 0.00259609 1.4374e-19)
(-0.049024 -0.0122097 0)
(-0.0586177 -0.0283843 0)
(-0.0666947 -0.0452266 0)
(-0.0728163 -0.0625654 -5.73257e-20)
(-0.0766454 -0.0804584 -3.61639e-22)
(-0.0779593 -0.0989782 1.02624e-19)
(-0.0766315 -0.118116 -1.43125e-19)
(-0.0726111 -0.137748 2.7241e-22)
(-0.0659116 -0.157638 0)
(-0.056607 -0.177449 -7.78755e-20)
(-0.0448337 -0.19676 7.1404e-20)
(-0.0307916 -0.215084 -2.01572e-19)
(-0.0147385 -0.231891 2.40003e-19)
(0.00301465 -0.246619 4.69417e-20)
(0.0221342 -0.258705 -1.09487e-20)
(0.0422947 -0.267575 -1.77621e-19)
(0.0631165 -0.272629 -7.38015e-20)
(0.0840727 -0.273157 2.17425e-19)
(0.105375 -0.267733 -1.38507e-19)
(0.134665 -0.251825 0)
(-0.00888252 0.0168885 8.03325e-20)
(-0.020015 0.0296889 8.12092e-20)
(-0.0296302 0.0289804 -7.87174e-20)
(-0.0376438 0.0205049 -1.47736e-19)
(-0.0438476 0.00778215 1.39115e-19)
(-0.0480108 -0.00721198 -1.32369e-19)
(-0.0497564 -0.0234723 1.87624e-19)
(-0.0486945 -0.0405814 -5.74284e-20)
(-0.0445071 -0.0584067 1.11213e-19)
(-0.0369518 -0.0768941 0)
(-0.0258855 -0.0959573 9.93104e-20)
(-0.0112611 -0.115425 -1.86683e-19)
(0.00687618 -0.135028 1.71025e-19)
(0.0283835 -0.154398 -1.60633e-19)
(0.0530157 -0.173083 0)
(0.0804218 -0.190571 1.34153e-19)
(0.110168 -0.206303 2.3803e-19)
(0.141741 -0.219712 -2.23284e-19)
(0.174574 -0.230254 -9.62268e-20)
(0.208115 -0.237437 -7.82055e-20)
(0.241762 -0.240895 2.25929e-19)
(0.275245 -0.240276 5.33811e-20)
(0.306995 -0.234868 -5.66039e-20)
(0.351854 -0.217987 4.06783e-20)
(-0.0108431 0.019069 -8.03432e-20)
(-0.0231593 0.0361148 2.53728e-19)
(-0.0309871 0.0391998 -8.01967e-20)
(-0.0351693 0.0336451 1.50934e-19)
(-0.0360052 0.022934 -1.42122e-19)
(-0.0335161 0.00920592 8.83219e-22)
(-0.0274842 -0.00631531 6.40246e-20)
(-0.0175843 -0.0230033 2.43363e-19)
(-0.00351311 -0.0405406 5.58127e-22)
(0.014952 -0.0587441 -1.06022e-19)
(0.0379323 -0.0774333 0)
(0.0654187 -0.0963708 -9.36977e-20)
(0.0972616 -0.115234 1.75446e-19)
(0.13316 -0.133613 1.59692e-19)
(0.172654 -0.151022 -7.57203e-20)
(0.215135 -0.166925 1.94596e-22)
(0.259872 -0.180758 -6.0829e-20)
(0.306052 -0.191974 1.08304e-19)
(0.352823 -0.200071 9.61795e-20)
(0.3994 -0.20461 -8.38907e-20)
(0.444779 -0.205392 7.10381e-20)
(0.489847 -0.201706 -5.99024e-20)
(0.527228 -0.195428 0)
(0.58794 -0.177414 -4.05922e-20)
(-0.0123082 0.0196408 8.34589e-20)
(-0.0252514 0.0388931 -8.51501e-20)
(-0.0308112 0.0446007 8.21315e-20)
(-0.0305344 0.0413572 0)
(-0.0251422 0.0324059 0)
(-0.0148852 0.0199099 1.39758e-19)
(0.00030146 0.0052202 -1.29376e-19)
(0.0206372 -0.0108652 1.23642e-19)
(0.0463608 -0.0278779 -5.77031e-19)
(0.0776253 -0.0454995 2.40471e-22)
(0.114443 -0.0634429 1.01972e-19)
(0.156638 -0.0813876 0)
(0.203818 -0.0989477 -1.74543e-19)
(0.255359 -0.115672 3.2435e-19)
(0.310415 -0.131058 -2.24872e-19)
(0.367952 -0.144579 -3.31827e-19)
(0.426801 -0.155716 1.17191e-20)
(0.48574 -0.164003 2.20983e-19)
(0.543561 -0.169061 0)
(0.599307 -0.170547 0)
(0.651396 -0.168665 -7.10187e-20)
(0.702345 -0.162012 5.98864e-20)
(0.73993 -0.154973 -1.85761e-19)
(0.804442 -0.135519 1.74334e-19)
(-0.0131388 0.0188444 0)
(-0.0259073 0.0382971 0)
(-0.028597 0.0452701 -2.4821e-19)
(-0.0231767 0.0435013 7.86224e-20)
(-0.0106624 0.0358698 -3.46661e-22)
(0.00850676 0.0244536 1.41017e-19)
(0.0342429 0.0106514 0)
(0.0666277 -0.00462817 -1.24395e-19)
(0.105754 -0.0207848 1.15976e-19)
(0.151589 -0.037372 -2.19029e-19)
(0.203882 -0.0539937 7.58747e-22)
(0.262096 -0.0702463 1.8927e-19)
(0.325371 -0.0856947 -3.06632e-21)
(0.392533 -0.0998751 1.56173e-19)
(0.46214 -0.112316 -2.26982e-19)
(0.532564 -0.122568 0)
(0.60211 -0.130239 2.34043e-19)
(0.66914 -0.135026 -3.27011e-19)
(0.732176 -0.136751 9.29523e-20)
(0.790169 -0.135245 0)
(0.841598 -0.131019 6.95763e-20)
(0.888977 -0.122611 2.25509e-19)
(0.921554 -0.115042 -2.11651e-19)
(0.974432 -0.0960812 -1.99436e-19)
(-0.0132949 0.0170402 2.60975e-19)
(-0.024841 0.03491 -3.59286e-19)
(-0.0238036 0.0417544 1.93965e-22)
(-0.0123158 0.0405087 8.02305e-20)
(0.00844102 0.0336549 -1.50739e-19)
(0.0378845 0.0231259 -1.40269e-19)
(0.0757605 0.0103079 2.65733e-19)
(0.121943 -0.00382824 -9.3942e-22)
(0.176241 -0.0185806 -2.34825e-19)
(0.238236 -0.0333985 4.38598e-19)
(0.30715 -0.0478039 -1.8118e-21)
(0.381787 -0.0613492 -1.91561e-19)
(0.460531 -0.0736065 0)
(0.54141 -0.0841775 0)
(0.62223 -0.0927152 -7.3743e-20)
(0.700742 -0.0989483 -1.3122e-19)
(0.774826 -0.102701 -2.30498e-19)
(0.84266 -0.103908 2.16375e-19)
(0.902863 -0.102604 -9.29898e-20)
(0.954563 -0.0989169 1.54208e-19)
(0.997275 -0.0932298 -8.18513e-20)
(1.03227 -0.0849498 1.01718e-19)
(1.05502 -0.0775758 -2.62589e-19)
(1.08606 -0.0615537 4.185e-20)
(-0.0127862 0.0146045 8.8308e-20)
(-0.0217776 0.0294702 0)
(-0.0157393 0.0349491 1.7174e-19)
(0.00319224 0.0333497 -1.61781e-19)
(0.033762 0.0268015 1.50871e-19)
(0.0752578 0.0170774 0)
(0.127194 0.00551474 0)
(0.189079 -0.00689295 -1.25583e-19)
(0.260188 -0.0193904 1.15762e-21)
(0.339375 -0.0313817 1.10675e-19)
(0.424963 -0.0423821 -1.0071e-19)
(0.514746 -0.0519978 1.9085e-19)
(0.606088 -0.0599237 0)
(0.696124 -0.0659506 3.13363e-19)
(0.782 -0.0699713 -5.77464e-19)
(0.861136 -0.0719802 3.97226e-19)
(0.93144 -0.0720614 2.25885e-19)
(0.991467 -0.0703852 -2.12057e-19)
(1.04051 -0.067133 0)
(1.0785 -0.062651 0)
(1.10624 -0.0569535 0)
(1.12457 -0.050629 0)
(1.1349 -0.0440633 5.04378e-20)
(1.14428 -0.0331696 -1.66147e-19)
(-0.120569 -0.190533 -7.79083e-21)
(-0.0929805 -0.128744 7.81568e-21)
(-0.0616139 -0.0540921 -2.22393e-22)
(-0.0258918 0.0317668 0)
(0.0130409 0.125561 -6.8544e-21)
(0.0544846 0.22303 1.29686e-20)
(0.0975287 0.320083 -4.62147e-22)
(0.139999 0.409281 -5.50918e-21)
(0.179913 0.484742 0)
(0.214575 0.543265 0)
(0.24074 0.58473 -1.96332e-22)
(0.255837 0.611904 -1.70667e-22)
(0.260719 0.627096 -2.59629e-21)
(0.262284 0.626685 2.37412e-21)
(0.27276 0.598767 0)
(0.303756 0.528624 0)
(0.358517 0.409331 2.75329e-21)
(0.430141 0.246905 1.97978e-22)
(0.508382 0.0568495 -2.60556e-21)
(0.585448 -0.13862 -1.76846e-22)
(0.654418 -0.310431 0)
(0.708856 -0.434089 0)
(0.745509 -0.502587 0)
(0.764141 -0.526687 0)
(0.768726 -0.522669 0)
(0.764628 -0.505528 0)
(0.750343 -0.494047 2.89619e-22)
(0.718762 -0.500332 -4.60666e-22)
(0.672752 -0.507462 0)
(0.632649 -0.466995 0)
(0.62123 -0.341375 -5.90906e-22)
(0.643551 -0.144001 5.74298e-22)
(0.688099 0.0702871 2.74007e-22)
(0.737639 0.245544 0)
(0.781352 0.358095 0)
(0.814207 0.407504 2.88853e-22)
(0.833971 0.4277 -2.80779e-22)
(0.829444 0.444769 0)
(0.797167 0.469494 2.38047e-22)
(0.752823 0.453403 -3.5906e-22)
(0.72288 0.359817 1.50307e-22)
(0.722629 0.187325 0)
(0.749016 -0.017714 -2.86352e-22)
(0.785242 -0.178465 2.78438e-22)
(0.826269 -0.294197 0)
(0.840408 -0.338408 0)
(0.82469 -0.389312 -6.70477e-23)
(0.780251 -0.384034 1.88154e-22)
(0.747704 -0.332857 0)
(0.74569 -0.201968 0)
(0.779665 -0.0123701 -5.95066e-23)
(0.808719 0.103919 4.81654e-24)
(0.823423 0.276383 -5.88311e-24)
(0.800076 0.310726 3.73567e-23)
(0.788984 0.365571 0)
(0.787341 0.289377 0)
(0.80513 0.0943868 0)
(0.801064 0.0213158 0)
(0.811977 -0.280879 0)
(0.789135 -0.253764 0)
(-0.192975 -0.21848 -6.4125e-22)
(-0.174378 -0.162709 -2.71962e-20)
(-0.151219 -0.0934831 5.15983e-22)
(-0.122075 -0.0126185 2.5081e-20)
(-0.0876422 0.0774799 3.35829e-22)
(-0.0477777 0.173357 0)
(-0.00504506 0.269506 -1.9222e-20)
(0.0376435 0.362312 3.6269e-20)
(0.08007 0.442953 -1.7049e-20)
(0.119931 0.509632 1.30997e-20)
(0.154377 0.561117 -1.25361e-20)
(0.182475 0.597422 1.01541e-20)
(0.20712 0.616874 -9.85252e-21)
(0.235771 0.612842 -2.91326e-22)
(0.277973 0.574104 -1.0279e-20)
(0.339525 0.490926 9.98868e-21)
(0.417693 0.362289 -1.20882e-20)
(0.503363 0.196226 1.13507e-20)
(0.588121 0.00672104 -1.24927e-20)
(0.666116 -0.185024 2.33238e-20)
(0.730571 -0.34974 -1.08727e-20)
(0.775315 -0.462941 -5.31212e-22)
(0.799385 -0.519414 -5.77199e-21)
(0.805343 -0.532773 1.00663e-20)
(0.7982 -0.521454 -4.33152e-21)
(0.784251 -0.498989 1.97608e-22)
(0.763874 -0.480471 2.94947e-21)
(0.729044 -0.478681 2.10924e-22)
(0.67842 -0.483386 -6.0146e-21)
(0.628917 -0.451486 6.80174e-21)
(0.605569 -0.342171 -3.58934e-21)
(0.618453 -0.159993 4.93898e-22)
(0.658533 0.0460989 -2.74571e-22)
(0.708752 0.22122 4.22561e-22)
(0.757481 0.338381 0)
(0.798244 0.39448 0)
(0.824654 0.423594 -9.75234e-22)
(0.82509 0.450899 7.18107e-22)
(0.79689 0.482874 7.74545e-22)
(0.75915 0.466946 3.1909e-22)
(0.736299 0.366502 -1.29276e-21)
(0.741284 0.185017 3.61594e-22)
(0.769076 -0.0269028 0)
(0.801754 -0.190178 0)
(0.838979 -0.302565 0)
(0.84924 -0.338276 0)
(0.833098 -0.380778 2.72618e-22)
(0.785712 -0.373335 -1.23057e-22)
(0.751458 -0.328105 0)
(0.746614 -0.206117 0)
(0.778017 -0.0208503 0)
(0.806092 0.0983486 -8.80894e-23)
(0.817914 0.277077 1.42335e-23)
(0.796773 0.314233 -8.19157e-23)
(0.784767 0.366833 0)
(0.786458 0.287894 0)
(0.808043 0.0924154 7.00824e-23)
(0.805623 0.0208846 2.18478e-22)
(0.819032 -0.279339 0)
(0.793462 -0.252377 0)
(-0.208996 -0.239335 -7.74839e-22)
(-0.20333 -0.191429 -4.64253e-20)
(-0.191717 -0.129108 4.3571e-20)
(-0.173215 -0.0549101 -4.08517e-20)
(-0.147307 0.029522 -3.38193e-22)
(-0.114661 0.121717 0)
(-0.0750936 0.215698 -3.18577e-20)
(-0.0339047 0.309867 3.10944e-20)
(0.00787077 0.39419 2.28412e-22)
(0.0524283 0.467023 3.23317e-22)
(0.0965219 0.525423 2.92543e-22)
(0.140285 0.566865 3.14832e-22)
(0.186913 0.586996 -1.86467e-20)
(0.242228 0.578195 1.84137e-20)
(0.311827 0.531351 0)
(0.396518 0.441281 6.93512e-22)
(0.490196 0.310666 -2.56191e-20)
(0.584023 0.147699 2.52882e-20)
(0.671762 -0.0365562 0)
(0.74868 -0.221572 0)
(0.807386 -0.377524 -2.04508e-20)
(0.841718 -0.480405 3.59213e-20)
(0.852916 -0.526761 -2.7118e-20)
(0.846584 -0.531901 2.81899e-21)
(0.828762 -0.515522 1.57348e-20)
(0.805767 -0.489869 -1.30738e-20)
(0.779741 -0.466 1.07523e-20)
(0.742819 -0.456424 -2.7895e-22)
(0.689561 -0.457771 -5.03685e-21)
(0.632301 -0.433892 0)
(0.597204 -0.341744 0)
(0.599485 -0.176508 2.7712e-21)
(0.633673 0.0198357 -3.58319e-21)
(0.683553 0.1936 -5.4476e-23)
(0.736511 0.314908 2.4245e-21)
(0.784439 0.37814 -2.35617e-21)
(0.817011 0.41696 0)
(0.822589 0.454934 2.30818e-22)
(0.799182 0.494327 2.36257e-21)
(0.76844 0.479173 -5.15552e-21)
(0.752653 0.373044 2.44499e-21)
(0.762748 0.184239 4.11909e-22)
(0.79195 -0.0334526 -3.42993e-21)
(0.820865 -0.199159 2.61351e-21)
(0.853721 -0.309127 4.75837e-22)
(0.85982 -0.337307 3.52331e-22)
(0.84334 -0.371796 -2.73299e-22)
(0.793342 -0.36249 0)
(0.757557 -0.323379 0)
(0.749772 -0.210625 -7.82377e-22)
(0.77829 -0.0294985 3.90346e-22)
(0.805234 0.0925738 -3.36619e-22)
(0.814103 0.277499 4.96125e-22)
(0.79489 0.317591 6.29932e-22)
(0.781652 0.367833 -1.55716e-22)
(0.78673 0.286093 3.19011e-22)
(0.812259 0.0900144 -3.10923e-22)
(0.811499 0.020311 1.77007e-22)
(0.827182 -0.27759 0)
(0.798709 -0.25084 0)
(-0.159896 -0.249324 -7.97377e-20)
(-0.168717 -0.210203 4.7276e-21)
(-0.169461 -0.15587 7.07999e-20)
(-0.164436 -0.0897349 -5.75243e-22)
(-0.150466 -0.0126955 0)
(-0.128115 0.0726257 0)
(-0.0964621 0.163626 -4.77102e-20)
(-0.0599713 0.254317 2.4833e-21)
(-0.0203679 0.33857 6.17849e-20)
(0.0270225 0.414171 -1.47504e-21)
(0.0795987 0.476034 -1.76441e-20)
(0.137533 0.519587 -1.61358e-20)
(0.203024 0.53895 1.61244e-20)
(0.279369 0.526655 0)
(0.368484 0.475991 -2.14854e-20)
(0.467715 0.38528 1.94777e-20)
(0.569623 0.259047 0)
(0.666628 0.103709 0)
(0.755 -0.072453 2.67106e-20)
(0.830211 -0.24923 -1.78355e-21)
(0.882967 -0.395814 -2.27877e-20)
(0.906919 -0.488747 -1.65484e-20)
(0.905482 -0.526492 1.63934e-20)
(0.887381 -0.525387 -9.50359e-21)
(0.85997 -0.505545 2.08387e-21)
(0.828881 -0.478474 6.88182e-21)
(0.797388 -0.451329 6.40376e-22)
(0.759066 -0.434608 3.10434e-23)
(0.705394 -0.430939 0)
(0.642833 -0.41318 5.28288e-21)
(0.596614 -0.338568 -5.44618e-21)
(0.58719 -0.19234 4.22885e-22)
(0.614016 -0.00735964 0)
(0.662347 0.163248 -3.72788e-22)
(0.718512 0.288042 4.34103e-21)
(0.77267 0.358629 -7.58611e-21)
(0.810879 0.407583 -3.8392e-22)
(0.821744 0.456345 -2.68598e-22)
(0.803685 0.503333 3.23558e-21)
(0.780073 0.489863 5.78762e-22)
(0.771283 0.379614 -6.15894e-21)
(0.786331 0.185243 5.20569e-21)
(0.817018 -0.0372521 -3.88876e-23)
(0.842242 -0.205401 2.29537e-21)
(0.87033 -0.313977 -2.70881e-21)
(0.87198 -0.335732 -2.33969e-21)
(0.855116 -0.362562 7.00968e-22)
(0.802816 -0.351449 8.26008e-22)
(0.765629 -0.318463 -1.55656e-21)
(0.754838 -0.215297 1.11479e-21)
(0.780276 -0.0382557 -3.48524e-22)
(0.806063 0.0865495 3.46026e-22)
(0.81198 0.277637 2.918e-22)
(0.794475 0.32086 -9.30878e-22)
(0.779755 0.368621 -8.03773e-24)
(0.788237 0.283987 -3.6437e-22)
(0.817777 0.0872059 0)
(0.818687 0.019594 -1.68359e-22)
(0.836389 -0.275619 3.69573e-22)
(0.80484 -0.249131 0)
(-0.0474213 -0.247177 6.68566e-20)
(-0.0702467 -0.216517 -1.2409e-19)
(-0.0825723 -0.170806 5.68343e-20)
(-0.0905046 -0.11327 4.59888e-20)
(-0.0903484 -0.0446216 -8.56527e-20)
(-0.0800411 0.0314778 4.07382e-21)
(-0.0582293 0.115393 3.502e-20)
(-0.0306912 0.197618 3.03509e-20)
(0.00405929 0.278567 -2.97695e-20)
(0.0515772 0.353435 0)
(0.108508 0.415577 -2.65627e-20)
(0.175249 0.459211 5.38908e-20)
(0.252656 0.477749 -2.73757e-20)
(0.341629 0.464332 0)
(0.441272 0.414189 0)
(0.546814 0.327888 7.04758e-22)
(0.650643 0.210329 -5.27215e-20)
(0.747508 0.0653473 5.12066e-20)
(0.835713 -0.100861 0)
(0.908979 -0.267977 5.01965e-20)
(0.955435 -0.404203 -8.80669e-20)
(0.968999 -0.487362 7.19352e-20)
(0.955542 -0.518187 -5.67214e-20)
(0.92661 -0.513276 5.39984e-21)
(0.890965 -0.491847 3.23828e-20)
(0.853184 -0.464864 -1.39768e-20)
(0.816698 -0.436626 -3.13266e-22)
(0.777244 -0.414369 -3.79252e-21)
(0.724894 -0.404678 -4.27318e-23)
(0.659906 -0.39029 3.8789e-21)
(0.604147 -0.331991 3.16608e-22)
(0.582413 -0.206236 -5.15339e-21)
(0.600066 -0.0350846 9.97736e-21)
(0.64525 0.130607 -5.35681e-21)
(0.703465 0.258053 0)
(0.762721 0.335909 -3.9527e-21)
(0.805984 0.395072 3.8245e-21)
(0.822223 0.45459 -3.36279e-21)
(0.809934 0.509488 4.17622e-21)
(0.793424 0.498954 -6.08899e-22)
(0.791471 0.38641 0)
(0.811247 0.1879 -8.52066e-22)
(0.843666 -0.0383411 2.428e-21)
(0.865493 -0.20878 0)
(0.888541 -0.316939 4.5632e-21)
(0.885531 -0.333517 -1.98377e-21)
(0.868188 -0.35313 5.34708e-22)
(0.813843 -0.340242 3.91086e-22)
(0.775292 -0.313284 0)
(0.761455 -0.220005 0)
(0.783718 -0.0470966 -8.77164e-22)
(0.808449 0.0802132 1.36042e-21)
(0.811506 0.277459 -8.0496e-22)
(0.795573 0.324071 2.50915e-22)
(0.779192 0.369243 6.15285e-22)
(0.791054 0.281587 3.6472e-22)
(0.824579 0.083982 -7.46492e-22)
(0.827165 0.0186893 0)
(0.846607 -0.273384 -5.52077e-22)
(0.811809 -0.247224 -9.23167e-23)
(0.120465 -0.232579 5.76497e-20)
(0.08562 -0.20763 -5.71022e-20)
(0.0625124 -0.172174 3.83848e-22)
(0.0428895 -0.125827 -2.47042e-22)
(0.0287535 -0.0688665 2.88435e-22)
(0.0250926 -0.00209531 -2.47918e-22)
(0.0339107 0.0708668 2.64546e-22)
(0.0518591 0.144389 0)
(0.0810947 0.220149 -2.18206e-22)
(0.123892 0.290723 2.2134e-22)
(0.179552 0.350244 2.45039e-22)
(0.248084 0.392361 -3.75551e-22)
(0.32923 0.410347 0)
(0.42212 0.397942 0)
(0.524044 0.351583 5.5068e-22)
(0.629198 0.272867 0)
(0.730719 0.166025 -7.42636e-22)
(0.825751 0.0324078 0)
(0.913233 -0.122686 -5.12794e-20)
(0.983873 -0.278615 9.78135e-20)
(1.02326 -0.403488 -8.58043e-20)
(1.02645 -0.477341 3.93313e-20)
(1.00204 -0.502989 2.451e-20)
(0.963659 -0.496532 -2.3803e-20)
(0.921172 -0.475223 -1.43369e-20)
(0.878158 -0.449366 1.38221e-20)
(0.83729 -0.421758 0)
(0.79664 -0.396063 2.24765e-22)
(0.746764 -0.380175 0)
(0.682374 -0.366185 0)
(0.619597 -0.321611 7.27067e-21)
(0.585484 -0.217052 -7.44091e-21)
(0.592385 -0.0624944 4.53806e-22)
(0.632729 0.0963735 5.3451e-22)
(0.691326 0.225273 -3.77434e-22)
(0.754329 0.309954 -3.10353e-21)
(0.802023 0.379109 3.01349e-21)
(0.823631 0.449198 -4.10815e-21)
(0.817378 0.512433 3.57144e-21)
(0.807813 0.50635 1.22637e-21)
(0.812402 0.393487 -6.65578e-21)
(0.836692 0.192235 -1.36996e-21)
(0.871258 -0.0367342 5.08522e-21)
(0.890181 -0.209247 0)
(0.908043 -0.31792 -2.09736e-21)
(0.900242 -0.330689 1.81879e-21)
(0.882293 -0.343576 -2.47841e-21)
(0.826133 -0.328854 -3.9356e-22)
(0.786172 -0.307723 0)
(0.769243 -0.224634 2.69643e-22)
(0.788313 -0.0560467 -5.00794e-22)
(0.812208 0.0734755 -4.11838e-23)