/*--------------------------------*- C++ -*----------------------------------*\
| =========                 |                                                 |
| \\      /  F ield         | OpenFOAM: The Open Source CFD Toolbox           |
|  \\    /   O peration     | Version:  2512                                  |
|   \\  /    A nd           | Website:  www.openfoam.com                      |
|    \\/     M anipulation  |                                                 |
\*---------------------------------------------------------------------------*/
FoamFile
{
    version     2.0;
    format      ascii;
    arch        "LSB;label=32;scalar=64";
    class       volVectorField;
    location    "19.5";
    object      U;
}
// * * * * * * * * * * * * * * * * * * * * * * * * * * * * * * * * * * * * * //

dimensions      [0 1 -1 0 0 0 0];

internalField   nonuniform List<vector> 
13248
(
(-0.0128119 0.0117423 6.48056e-20)
(-0.0249289 0.0252433 0)
(-0.0242775 0.0326342 -1.22594e-19)
(-0.0115547 0.0359391 1.15486e-19)
(0.0127603 0.0367605 1.08107e-19)
(0.0483275 0.0363551 0)
(0.0948559 0.0356829 0)
(0.15199 0.0354694 2.60488e-19)
(0.219173 0.0362453 -1.25818e-21)
(0.295512 0.0383629 -2.27616e-19)
(0.379685 0.0419992 2.1134e-19)
(0.469912 0.0471583 -1.32125e-19)
(0.563997 0.0536785 0)
(0.659441 0.0612507 -2.2859e-19)
(0.753604 0.0694479 4.27714e-19)
(0.843888 0.0777652 -1.0119e-19)
(0.927915 0.085672 -1.84578e-19)
(1.00369 0.0926332 1.7327e-19)
(1.06973 0.0982616 0)
(1.12508 0.101937 0)
(1.16966 0.104183 0)
(1.20289 0.102502 0)
(1.22775 0.102707 5.67182e-20)
(1.24109 0.0902081 2.12959e-19)
(-0.0128077 0.0104496 -1.9574e-19)
(-0.0213465 0.0209407 1.33518e-19)
(-0.0137648 0.0259223 -1.16762e-21)
(0.00881971 0.0276071 -1.76452e-19)
(0.0456857 0.0277355 -1.07991e-19)
(0.0962453 0.0276606 -1.02096e-19)
(0.159812 0.0283739 -1.87476e-19)
(0.235402 0.0305683 1.77282e-19)
(0.321545 0.0346648 0)
(0.416181 0.040821 7.47431e-22)
(0.516651 0.0489366 1.60794e-21)
(0.619825 0.0586742 1.32245e-19)
(0.722322 0.069501 0)
(0.820782 0.0807503 0)
(0.91215 0.0916986 1.57518e-19)
(0.993913 0.101644 -2.95852e-19)
(1.06428 0.10998 1.79957e-19)
(1.12228 0.116248 -1.68944e-19)
(1.16773 0.120175 -7.59476e-20)
(1.20132 0.121646 -1.41036e-19)
(1.22408 0.120861 -6.11998e-20)
(1.23812 0.117577 -1.15936e-19)
(1.24445 0.113955 1.66361e-19)
(1.24622 0.105274 4.9127e-20)
(-0.0119031 0.00877793 0)
(-0.0145503 0.0159393 0)
(0.00277844 0.0187666 6.24143e-20)
(0.0383836 0.0195168 5.74863e-20)
(0.0910937 0.0199889 -1.42062e-21)
(0.159758 0.0215724 -1.05381e-19)
(0.242838 0.0252016 0)
(0.338147 0.0313929 -8.81356e-20)
(0.442714 0.0402687 8.28837e-20)
(0.552832 0.0515761 6.43105e-22)
(0.664282 0.0647323 -1.41915e-19)
(0.772719 0.0789084 -1.30687e-19)
(0.874089 0.0931442 1.78168e-21)
(0.965019 0.106476 -1.09986e-19)
(1.0431 0.118057 2.62326e-19)
(1.10705 0.127248 0)
(1.1567 0.133676 -1.74824e-19)
(1.19288 0.137235 8.4324e-20)
(1.21723 0.138093 7.58782e-20)
(1.23182 0.136511 0)
(1.23902 0.133166 6.3969e-20)
(1.24097 0.127916 -2.2533e-19)
(1.23934 0.12314 2.11526e-19)
(1.23725 0.114436 1.38851e-19)
(-0.0097181 0.00670806 -6.92962e-20)
(-0.00358015 0.0103552 -7.16746e-20)
(0.0267098 0.0115564 6.47799e-20)
(0.0786577 0.0124051 0)
(0.150301 0.0146202 0)
(0.23942 0.0194892 -2.23963e-21)
(0.342985 0.0276929 0)
(0.456965 0.0393223 -2.69426e-19)
(0.576419 0.0539312 2.50486e-19)
(0.695885 0.0706247 -3.09535e-19)
(0.809954 0.0882078 7.10521e-20)
(0.913885 0.105378 0)
(1.00411 0.120921 1.19806e-19)
(1.07853 0.133876 -2.22595e-19)
(1.13658 0.14364 5.28193e-20)
(1.17906 0.149994 1.38817e-19)
(1.20784 0.153072 -4.44331e-21)
(1.22543 0.153272 -1.56189e-19)
(1.23456 0.151148 0)
(1.2378 0.147288 0)
(1.23732 0.142316 -5.82197e-20)
(1.23469 0.136392 5.29707e-20)
(1.23102 0.131071 1.94785e-19)
(1.22729 0.122934 -1.82832e-19)
(-0.00585135 0.00430865 -7.31418e-20)
(0.0125096 0.00452184 -7.28152e-20)
(0.0592194 0.00497491 2.04788e-19)
(0.130691 0.00732887 -1.24141e-19)
(0.223661 0.0129985 1.16853e-19)
(0.334153 0.022917 2.12223e-19)
(0.45695 0.0371974 -1.50037e-19)
(0.585696 0.0551739 -1.82926e-19)
(0.713475 0.0755684 3.30196e-21)
(0.833649 0.0967375 2.34363e-19)
(0.94072 0.116972 0)
(1.03096 0.134785 6.5292e-20)
(1.10267 0.149122 0)
(1.1561 0.159455 -1.08066e-19)
(1.19305 0.165773 1.52025e-19)
(1.21634 0.168465 1.28851e-21)
(1.22917 0.168174 -4.08095e-20)
(1.23463 0.165627 7.69807e-20)
(1.23536 0.161515 6.73192e-20)
(1.23331 0.156397 -6.11122e-20)
(1.22981 0.150725 5.82067e-20)
(1.22564 0.144617 -5.29585e-20)
(1.22112 0.139003 0)
(1.21706 0.131347 -4.13845e-20)
(9.0114e-05 0.00174895 7.31314e-20)
(0.03455 -0.000975157 7.68386e-20)
(0.101149 3.4243e-05 -6.86291e-20)
(0.194788 0.00565615 1.27821e-19)
(0.310223 0.0166608 -1.2031e-19)
(0.440976 0.0332411 1.08827e-19)
(0.579126 0.0545379 -5.22711e-20)
(0.716044 0.0788197 1.37352e-19)
(0.843589 0.103884 -8.6514e-20)
(0.955294 0.127516 1.54291e-19)
(1.04716 0.147894 -3.5704e-19)
(1.11786 0.163854 1.31713e-19)
(1.16846 0.174965 -1.16475e-19)
(1.20171 0.181438 1.09402e-19)
(1.22124 0.183928 9.59277e-20)
(1.23084 0.183304 8.53184e-20)
(1.23383 0.180445 -2.37922e-19)
(1.23282 0.176106 1.48069e-19)
(1.22963 0.170858 -6.73224e-20)
(1.22539 0.16509 1.7849e-19)
(1.22074 0.159053 -5.74653e-20)
(1.21598 0.152838 -1.44034e-19)
(1.21128 0.146944 1.33578e-19)
(1.20693 0.139655 4.13707e-20)
(0.00845927 -0.000699728 0)
(0.0631407 -0.00531441 6.85833e-22)
(0.152786 -0.00199323 1.43764e-19)
(0.270237 0.00890963 -1.34795e-19)
(0.407516 0.02704 -1.21521e-19)
(0.555066 0.0513624 2.25944e-19)
(0.702294 0.0796704 -1.0497e-19)
(0.839155 0.109065 1.40368e-19)
(0.957811 0.136662 -2.74614e-21)
(1.05369 0.160178 -7.99149e-20)
(1.12566 0.178269 1.75722e-19)
(1.17549 0.190574 -2.60159e-19)
(1.20682 0.197527 0)
(1.22406 0.20005 -5.18629e-20)
(1.23149 0.19924 -1.39735e-19)
(1.2327 0.196128 4.38644e-20)
(1.23033 0.191544 1.41389e-21)
(1.22614 0.186083 -9.97847e-20)
(1.22118 0.180131 4.90892e-21)
(1.21601 0.173923 1.16039e-19)
(1.21089 0.167596 -5.27415e-20)
(1.20593 0.161232 -2.0853e-20)
(1.20112 0.155035 6.26902e-20)
(1.19662 0.148012 0)
(0.0195255 -0.0026735 0)
(0.0985222 -0.0074934 3.90113e-20)
(0.213668 0.000293109 -1.87934e-19)
(0.355134 0.0185317 6.82972e-20)
(0.511588 0.0451514 -6.4279e-20)
(0.670321 0.0774154 -5.88851e-20)
(0.818924 0.111618 -1.04238e-19)
(0.947574 0.143967 5.18934e-20)
(1.05058 0.171484 4.52224e-20)
(1.12666 0.192486 0)
(1.17807 0.206603 1.04698e-19)
(1.20929 0.214469 -1.56783e-19)
(1.2255 0.217287 1.16784e-19)
(1.2316 0.216408 5.18895e-20)
(1.23151 0.213048 -4.32206e-20)
(1.22801 0.208148 -3.67322e-20)
(1.2229 0.202357 -3.46085e-20)
(1.21721 0.196085 1.02281e-19)
(1.21148 0.189572 0)
(1.20592 0.182956 5.28813e-20)
(1.20063 0.176317 4.5598e-20)
(1.1956 0.169714 -1.11955e-19)
(1.19076 0.16318 -7.86062e-20)
(1.18616 0.156322 7.25199e-20)
(0.0334215 -0.00373464 -4.23699e-20)
(0.140451 -0.00641618 -1.7145e-21)
(0.28246 0.00824328 3.82928e-20)
(0.44642 0.0356285 1.07165e-19)
(0.617439 0.071351 3.12667e-20)
(0.780379 0.110708 -6.04098e-20)
(0.922676 0.148743 5.51179e-20)
(1.0367 0.181424 -4.84389e-20)
(1.12037 0.206434 8.73066e-20)
(1.17616 0.223229 3.74372e-20)
(1.20927 0.232597 -1.06331e-19)
(1.22579 0.236039 3.14758e-20)
(1.23132 0.235218 5.423e-20)
(1.23031 0.231599 -2.66043e-20)
(1.22584 0.226288 0)
(1.21984 0.220031 4.04396e-20)
(1.21338 0.213286 6.92073e-20)
(1.207 0.206313 1.24105e-20)
(1.20092 0.199257 -5.8199e-20)
(1.19521 0.192198 2.46639e-20)
(1.18985 0.185186 0)
(1.18479 0.178248 -1.98021e-20)
(1.17996 0.171356 -1.90817e-20)
(1.17529 0.164536 0)
(0.0500875 -0.00340219 0)
(0.188109 -0.00100609 2.22388e-20)
(0.356947 0.0229691 4.11272e-20)
(0.54014 0.0607711 -1.09532e-19)
(0.719735 0.105263 3.54566e-20)
(0.879718 0.149915 0)
(1.00944 0.1892 5.35405e-20)
(1.10508 0.219701 -7.48329e-20)
(1.16876 0.240392 -4.36867e-20)
(1.20627 0.252096 1.97619e-20)
(1.22466 0.256631 -3.20499e-20)
(1.23052 0.256054 7.7598e-20)
(1.22902 0.252171 3.92082e-20)
(1.22373 0.246337 -2.70699e-20)
(1.21685 0.23945 -2.34937e-21)
(1.20957 0.232048 -7.56381e-20)
(1.20247 0.22443 3.4557e-20)
(1.19579 0.216756 -9.23473e-22)
(1.18958 0.20911 0)
(1.18383 0.201542 -2.46899e-20)
(1.17849 0.194082 0)
(1.17347 0.186726 5.7174e-20)
(1.16868 0.179464 -6.85136e-20)
(1.16401 0.17255 3.14051e-20)
(0.0692255 -0.00119124 -1.16858e-20)
(0.240074 0.00967828 -5.61486e-20)
(0.434165 0.0451908 6.39767e-20)
(0.631902 0.0939037 3.75741e-20)
(0.813582 0.145884 -1.7895e-20)
(0.964397 0.193404 3.02615e-20)
(1.07747 0.231327 -1.46494e-20)
(1.15363 0.257632 2.45113e-20)
(1.19887 0.272917 0)
(1.22127 0.279286 5.59932e-20)
(1.22866 0.279282 -2.21061e-21)
(1.22726 0.275188 -4.53901e-20)
(1.22139 0.268723 1.95331e-20)
(1.21367 0.261019 -2.21871e-20)
(1.20553 0.252746 -8.55584e-21)
(1.19764 0.244268 9.79145e-21)
(1.19027 0.235771 -7.62618e-21)
(1.18349 0.227348 -4.1858e-20)
(1.17729 0.21905 2.5668e-20)
(1.17161 0.210908 5.30882e-21)
(1.16636 0.202933 4.7176e-21)
(1.16144 0.195104 4.19737e-21)
(1.15674 0.187474 0)
(1.15211 0.180318 0)
(0.0903473 0.003353 1.16939e-20)
(0.2945 0.026351 -1.16757e-20)
(0.510823 0.0751372 -2.13402e-20)
(0.717555 0.134358 0)
(0.895204 0.191788 -8.90949e-21)
(1.03228 0.239539 -8.07246e-21)
(1.12687 0.273844 -1.38319e-20)
(1.18441 0.294586 0)
(1.21389 0.303996 0)
(1.2246 0.305178 0)
(1.22421 0.30106 0)
(1.21813 0.293894 0)
(1.20969 0.285174 -1.22827e-20)
(1.20069 0.275783 5.59823e-21)
(1.19197 0.266189 9.79682e-21)
(1.18387 0.256624 4.59737e-21)
(1.17648 0.247196 1.14379e-20)
(1.16977 0.237959 0)
(1.16371 0.228942 -2.7887e-21)
(1.15819 0.220161 -2.69911e-21)
(1.15313 0.21161 -4.72515e-21)
(1.14841 0.20327 -4.20411e-21)
(1.14389 0.19527 0)
(1.13942 0.187729 3.08917e-21)
(-0.00155349 -0.000250143 7.04024e-21)
(-0.00765437 -0.000446071 -7.32277e-21)
(-0.0187256 -0.000445864 -1.38864e-20)
(-0.0323755 -0.000261355 0)
(-0.0473143 5.13484e-05 -1.8638e-20)
(-0.0629125 0.000435354 5.85496e-21)
(-0.0787487 0.000854221 -1.10843e-20)
(-0.0945434 0.00129307 0)
(-0.110133 0.0017542 0)
(-0.125428 0.00225092 0)
(-0.140388 0.00280126 0)
(-0.154993 0.00342302 0)
(-0.16924 0.00413095 3.00661e-23)
(-0.183128 0.00493578 -7.43814e-21)
(-0.196654 0.00584432 1.40972e-20)
(-0.209816 0.00686021 2.00217e-20)
(-0.22261 0.00798477 6.31529e-21)
(-0.235031 0.00921861 0)
(-0.247094 0.0105626 5.66103e-21)
(-0.258821 0.012012 -1.59673e-20)
(-0.270228 0.0135606 -1.00734e-20)
(-0.281342 0.0152033 -9.5255e-21)
(-0.292338 0.0169536 0)
(-0.303639 0.0188231 0)
(-0.00189697 0.00437692 -2.11769e-20)
(-0.0082592 0.0103913 3.65788e-20)
(-0.0191538 0.0145037 -1.3802e-20)
(-0.0323674 0.0173794 -2.6302e-20)
(-0.0466933 0.0193966 3.71744e-20)
(-0.0615355 0.0208008 -2.34882e-20)
(-0.0764896 0.0217782 3.31741e-20)
(-0.0912827 0.0224749 2.09362e-20)
(-0.105749 0.0230051 0)
(-0.119795 0.023457 -1.8747e-20)
(-0.133366 0.0238953 -1.88616e-22)
(-0.146432 0.0243645 1.65627e-20)
(-0.158973 0.0248919 2.36271e-20)
(-0.170972 0.0254925 2.98555e-20)
(-0.182409 0.0261731 -1.38987e-20)
(-0.193262 0.026937 -3.98149e-20)
(-0.203503 0.0277881 1.26388e-20)
(-0.213106 0.0287342 -4.7435e-20)
(-0.22205 0.0297904 0)
(-0.230334 0.0309848 1.0638e-20)
(-0.237945 0.0323511 1.00591e-20)
(-0.244824 0.0339334 9.51178e-21)
(-0.251051 0.0358349 0)
(-0.25743 0.0381817 0)
(-0.00265925 0.00847932 0)
(-0.00961938 0.0201201 7.35909e-20)
(-0.0201582 0.0280489 -2.77619e-20)
(-0.0324448 0.0334673 2.6333e-20)
(-0.0454567 0.0371157 -7.4567e-20)
(-0.0586755 0.0395028 0)
(-0.0717388 0.0410132 -4.44311e-20)
(-0.0843926 0.0419392 2.0875e-20)
(-0.0964729 0.0424988 -3.95981e-20)
(-0.107875 0.0428511 1.8728e-20)
(-0.11853 0.0431066 1.06017e-19)
(-0.128386 0.0433364 -4.97982e-20)
(-0.137401 0.0435815 -7.88503e-20)
(-0.145533 0.0438609 -3.00917e-20)
(-0.152737 0.0441799 -3.43792e-22)
(-0.158964 0.0445377 1.06186e-19)
(-0.164157 0.0449346 -5.00112e-20)
(-0.168253 0.0453788 2.68659e-23)
(-0.171189 0.0458953 0)
(-0.172921 0.046536 -4.2318e-20)
(-0.173402 0.0473854 0)
(-0.172444 0.0485728 -3.81548e-20)
(-0.169809 0.0503161 1.43144e-19)
(-0.16674 0.0528957 8.46647e-22)
(-0.00372019 0.0117497 0)
(-0.0115558 0.0280643 2.2682e-22)
(-0.0216497 0.039302 2.8085e-20)
(-0.0326701 0.0469911 -2.65804e-20)
(-0.0438426 0.0521244 2.4766e-20)
(-0.0547606 0.0554117 1.41525e-19)
(-0.0651269 0.0573976 -4.44145e-20)
(-0.0747224 0.058497 -4.2065e-20)
(-0.0833952 0.0590188 7.92569e-20)
(-0.0910376 0.059187 -1.12324e-19)
(-0.0975679 0.0591562 3.51834e-20)
(-0.102918 0.0590258 3.33553e-20)
(-0.107026 0.0588529 0)
(-0.10983 0.0586631 2.97141e-20)
(-0.111268 0.0584611 0)
(-0.111272 0.0582399 5.29922e-20)
(-0.109769 0.0579887 -1.0048e-19)
(-0.106676 0.0577018 2.30844e-20)
(-0.101903 0.0573897 8.91119e-20)
(-0.0953672 0.0570944 4.227e-20)
(-0.0870102 0.0569164 0)
(-0.0766158 0.057075 -1.13344e-19)
(-0.0634465 0.0580226 3.54697e-20)
(-0.0480412 0.0604204 0)
(-0.00493578 0.0140316 0)
(-0.0138463 0.0338288 -8.93787e-20)
(-0.0235102 0.0476831 -2.83961e-20)
(-0.0331077 0.0572306 -5.32623e-20)
(-0.0421324 0.0635978 5.01529e-20)
(-0.0503089 0.067626 -4.72343e-20)
(-0.0574247 0.069974 8.94483e-20)
(-0.0633144 0.0711502 4.22859e-20)
(-0.0678538 0.0715374 -1.19002e-19)
(-0.0709458 0.0714154 7.50887e-20)
(-0.0725087 0.0709798 -1.06047e-19)
(-0.072468 0.0703595 2.33643e-19)
(-0.0707529 0.0696309 -1.25604e-19)
(-0.067293 0.0688318 5.9347e-20)
(-0.0620172 0.067972 1.68392e-19)
(-0.0548526 0.067043 -5.23911e-20)
(-0.0457234 0.0660254 -4.9302e-20)
(-0.0345481 0.0648965 -4.70032e-20)
(-0.0212362 0.0636375 0)
(-0.00569631 0.0622436 -8.43121e-20)
(0.012135 0.0607495 -8.00715e-20)
(0.0323956 0.0593445 1.12101e-19)
(0.0560268 0.058678 1.42071e-19)
(0.0842867 0.0600355 -1.3356e-19)
(-0.0061764 0.0153305 0)
(-0.0162768 0.0373304 -1.20698e-19)
(-0.0256086 0.0529698 -3.57065e-22)
(-0.0337868 0.06382 1.07115e-19)
(-0.0405526 0.0710435 0)
(-0.045766 0.0755498 0)
(-0.0493124 0.078068 0)
(-0.051095 0.0791702 -4.22898e-20)
(-0.0510335 0.0792928 -1.84176e-22)
(-0.0490562 0.0787598 7.4962e-20)
(-0.0450938 0.0778022 -1.06332e-19)
(-0.0390761 0.0765769 -1.62917e-22)
(-0.0309309 0.0751824 0)
(-0.0205836 0.0736733 -5.93168e-20)
(-0.0079579 0.0720718 5.6055e-20)
(0.00702339 0.0703776 -1.57741e-19)
(0.0244386 0.0685741 1.99045e-19)
(0.0443673 0.0666345 4.74796e-20)
(0.0668905 0.0645254 8.97421e-22)
(0.0920829 0.0622068 -1.66549e-19)
(0.120005 0.0596484 -7.8406e-20)
(0.150744 0.0568603 2.60208e-19)
(0.184403 0.0543115 -1.74357e-19)
(0.227578 0.0539545 0)
(-0.0073573 0.0157883 5.92535e-20)
(-0.0186804 0.0387666 6.04724e-20)
(-0.027805 0.0552854 -5.75772e-20)
(-0.0346497 0.0667637 -1.08008e-19)
(-0.0391556 0.0743436 1.01698e-19)
(-0.0413101 0.0789585 -9.57365e-20)
(-0.0410981 0.0813732 1.35197e-19)
(-0.0384981 0.0821966 -4.22661e-20)
(-0.033481 0.0819003 7.97438e-20)
(-0.0260064 0.0808393 0)
(-0.0160202 0.0792728 7.08147e-20)
(-0.0034559 0.0773822 -1.32812e-19)
(0.0117642 0.0752889 1.25519e-19)
(0.0297259 0.0730675 -1.17891e-19)
(0.0505202 0.0707585 0)
(0.0742387 0.068378 1.04752e-19)
(0.100969 0.065924 1.97553e-19)
(0.130794 0.0633815 -1.85793e-19)
(0.16378 0.0607246 -8.73322e-20)
(0.19999 0.0579225 -8.35285e-20)
(0.239332 0.0549209 2.34009e-19)
(0.282437 0.0517102 7.34837e-20)
(0.325729 0.0480531 -6.86273e-20)
(0.387788 0.0466452 6.45194e-20)
(-0.00845129 0.0156308 -5.92616e-20)
(-0.0209484 0.0385285 1.84499e-19)
(-0.029931 0.0550237 -5.81348e-20)
(-0.0354837 0.0663949 1.08803e-19)
(-0.0376887 0.0737509 -1.02446e-19)
(-0.0366434 0.0780311 2.98039e-22)
(-0.0324207 0.0800165 4.53514e-20)
(-0.0250649 0.0803349 1.7009e-19)
(-0.0145878 0.0794777 -4.22791e-23)
(-0.00096799 0.077821 -7.51044e-20)
(0.0158474 0.0756455 0)
(0.0359378 0.0731551 -6.63344e-20)
(0.0594016 0.0704937 1.24735e-19)
(0.0863472 0.0677589 1.17554e-19)
(0.116885 0.0650141 -5.5327e-20)
(0.151112 0.0622967 -3.94003e-22)
(0.189103 0.0596244 -4.91736e-20)
(0.230891 0.0570004 9.18005e-20)
(0.276444 0.054413 8.73135e-20)
(0.325773 0.0518728 -8.22805e-20)
(0.378082 0.0492051 7.66305e-20)
(0.436019 0.0469401 -7.20363e-20)
(0.488002 0.0433648 0)
(0.571916 0.0430077 -6.44404e-20)
(-0.00947855 0.0151008 6.02878e-20)
(-0.0230059 0.0370817 -6.17457e-20)
(-0.0317399 0.0527335 5.87019e-20)
(-0.0358349 0.0632791 0)
(-0.0354651 0.0698265 0)
(-0.0308056 0.0733297 9.71311e-20)
(-0.0219922 0.0745804 -9.09013e-20)
(-0.00910655 0.0742175 8.5077e-20)
(0.00782756 0.0727456 -3.99616e-19)
(0.0288408 0.0705568 1.07557e-22)
(0.0540078 0.0679508 7.03262e-20)
(0.0834326 0.0651532 0)
(0.117229 0.0623308 -1.24266e-19)
(0.1555 0.0596037 2.33519e-19)
(0.198308 0.0570549 -1.64759e-19)
(0.245657 0.0547367 -2.58447e-19)
(0.297462 0.0526776 -4.22289e-22)
(0.353536 0.0508875 1.81568e-19)
(0.41351 0.0493349 0)
(0.477262 0.0481298 0)
(0.542558 0.0467074 -7.66236e-20)
(0.614983 0.0466762 7.20283e-20)
(0.673245 0.0440622 -2.68926e-19)
(0.774443 0.0467962 2.52226e-19)
(-0.0104709 0.0143937 0)
(-0.0247457 0.0348442 0)
(-0.032837 0.0489752 -1.76578e-19)
(-0.0349331 0.0580831 5.61137e-20)
(-0.0312677 0.0633359 4.5472e-22)
(-0.0220618 0.0657236 9.81408e-20)
(-0.00747537 0.0660581 0)
(0.0124113 0.0649928 -8.5528e-20)
(0.0375942 0.0630468 7.99723e-20)
(0.0681273 0.0606293 -1.49731e-19)
(0.104094 0.0580586 1.32793e-22)
(0.145571 0.0555787 1.31759e-19)
(0.192587 0.0533714 -9.35147e-23)
(0.245079 0.0515647 1.16093e-19)
(0.302857 0.0502385 -1.63726e-19)
(0.365573 0.0494295 0)
(0.432697 0.0491335 1.92549e-19)
(0.503531 0.0493164 -2.71634e-19)
(0.577098 0.0498571 8.43208e-20)
(0.652853 0.050899 0)
(0.727481 0.0514926 7.42196e-20)
(0.807358 0.0539295 2.81857e-19)
(0.867953 0.0525624 -2.64511e-19)
(0.970331 0.0583318 -3.10131e-19)
(-0.0114258 0.013613 1.85009e-19)
(-0.025948 0.0320883 -2.54394e-19)
(-0.0326017 0.0442052 5.32881e-22)
(-0.0316413 0.0514581 5.65552e-20)
(-0.0233495 0.055133 -1.05338e-19)
(-0.00796563 0.0562865 -9.77218e-20)
(0.014357 0.0557688 1.82837e-19)
(0.0435563 0.0542579 -1.27982e-21)
(0.0796339 0.0522933 -1.6078e-19)
(0.122605 0.0502992 2.99889e-19)
(0.172436 0.0486028 -4.46425e-22)
(0.22898 0.0474464 -1.31767e-19)
(0.291913 0.0469928 0)
(0.36069 0.0473299 0)
(0.434516 0.0484716 -5.43604e-20)
(0.512344 0.0503616 -1.01139e-19)
(0.592905 0.0528795 -1.90446e-19)
(0.674753 0.0558463 1.78764e-19)
(0.756295 0.0590303 -8.43525e-20)
(0.836186 0.0622804 1.56698e-19)
(0.911739 0.0649293 -7.46096e-20)
(0.986071 0.0682121 1.37397e-19)
(1.04286 0.0678479 -3.21401e-19)
(1.12507 0.0734329 6.10229e-20)
(-0.0122626 0.0127548 6.24035e-20)
(-0.0262099 0.0289047 0)
(-0.0301397 0.0387172 1.20776e-19)
(-0.0244631 0.0439559 -1.13776e-19)
(-0.00952835 0.0460626 1.05435e-19)
(0.0144095 0.0461862 0)
(0.0471896 0.0452302 0)
(0.0887087 0.0439026 -8.58736e-20)
(0.138844 0.042755 1.01767e-21)
(0.197359 0.0422051 7.57582e-20)
(0.263803 0.0425498 -7.00244e-20)
(0.337435 0.0439686 1.31824e-19)
(0.417179 0.0465254 0)
(0.501615 0.0501713 2.29821e-19)
(0.589026 0.0547506 -4.30785e-19)
(0.677471 0.0600134 3.0305e-19)
(0.764897 0.0656403 1.87889e-19)
(0.849248 0.0712353 -1.76369e-19)
(0.928639 0.076478 0)
(1.0013 0.0807564 0)
(1.06607 0.0842456 0)
(1.12234 0.0856626 0)
(1.16669 0.0860056 6.32961e-20)
(1.21498 0.0857664 -2.32939e-19)
(-0.31737 0.0209444 -6.1379e-21)
(-0.334257 0.0220462 6.15813e-21)
(-0.349202 0.0229023 -1.90218e-22)
(-0.362864 0.0232929 0)
(-0.374506 0.0230818 -5.80154e-21)
(-0.38371 0.0221128 1.12566e-20)
(-0.389871 0.0202415 -6.34546e-23)
(-0.39236 0.0173889 -5.24642e-21)
(-0.390498 0.0135943 0)
(-0.383646 0.00897896 0)
(-0.371281 0.00342368 -2.691e-22)
(-0.35293 -0.00297417 -2.44142e-22)
(-0.328114 -0.00999107 -3.4368e-21)
(-0.296344 -0.0173167 3.12957e-21)
(-0.257381 -0.0245004 0)
(-0.211225 -0.0310817 0)
(-0.1583 -0.0364432 1.23613e-21)
(-0.0993579 -0.0400221 -4.14531e-22)
(-0.0351969 -0.0418507 -7.27645e-22)
(0.0328975 -0.0409174 -1.35948e-23)
(0.103227 -0.0378062 0)
(0.174288 -0.0327346 0)
(0.244648 -0.0261934 0)
(0.312921 -0.0187928 0)
(0.378002 -0.0111883 0)
(0.439125 -0.00393214 0)
(0.495817 0.00260025 -2.31371e-22)
(0.5478 0.00819918 3.75584e-22)
(0.595029 0.0128125 0)
(0.637673 0.0164208 0)
(0.675989 0.0190311 2.15153e-22)
(0.71026 0.020882 -2.091e-22)
(0.740911 0.0218508 -8.85595e-23)
(0.768376 0.022392 0)
(0.792962 0.0223468 0)
(0.815072 0.0222461 -1.13701e-22)
(0.835027 0.021655 1.10522e-22)
(0.853169 0.0214851 0)
(0.869746 0.0207084 -7.5423e-23)
(0.885081 0.0208075 1.07994e-22)
(0.899362 0.0200354 -3.02068e-23)
(0.912819 0.0205943 0)
(0.92546 0.0200126 4.32861e-23)
(0.937215 0.0211084 -4.2091e-23)
(0.947898 0.0206992 0)
(0.957312 0.0222017 0)
(0.965368 0.0217449 1.20388e-23)
(0.972085 0.0237104 -3.36851e-23)
(0.977508 0.02314 0)
(0.981939 0.0258239 0)
(0.985348 0.02524 6.34292e-24)
(0.988206 0.0286637 -2.74767e-26)
(0.990311 0.0281532 7.48195e-25)
(0.992243 0.0322477 -3.63022e-24)
(0.993537 0.0317335 0)
(0.995023 0.036616 0)
(0.995787 0.0360856 0)
(0.997111 0.0417815 0)
(0.997487 0.0414414 0)
(0.998853 0.0480181 0)
(-0.266345 0.0409252 -5.92347e-22)
(-0.281432 0.0400468 -2.5002e-20)
(-0.293672 0.0386613 -4.8957e-23)
(-0.304548 0.0364708 2.35069e-20)
(-0.313419 0.0332983 3.68336e-22)
(-0.319869 0.0290107 0)
(-0.323326 0.0234563 -2.15943e-20)
(-0.323128 0.016581 4.22846e-20)
(-0.318592 0.00843677 -2.06866e-20)
(-0.309461 -0.000920927 1.84463e-20)
(-0.295275 -0.011642 -1.76599e-20)
(-0.275443 -0.0233271 1.49629e-20)
(-0.249531 -0.035685 -1.4579e-20)
(-0.217266 -0.0481773 -3.91281e-22)
(-0.178604 -0.0602379 -9.31993e-21)
(-0.133546 -0.0712451 9.05684e-21)
(-0.0825019 -0.0802647 -5.24372e-21)
(-0.026678 -0.0863675 4.95759e-21)
(0.0335106 -0.0892544 -1.75903e-21)
(0.096752 -0.088624 2.01379e-21)
(0.160977 -0.0846791 -3.17498e-22)
(0.225238 -0.0777146 7.24e-23)
(0.288323 -0.0684793 2.14921e-21)
(0.349191 -0.0578699 -4.55417e-21)
(0.407082 -0.046763 2.39602e-21)
(0.461527 -0.0359391 -1.59779e-22)
(0.512281 -0.0259646 -2.56954e-21)
(0.559245 -0.0171211 1.52542e-23)
(0.602408 -0.0095188 4.40277e-21)
(0.641833 -0.00319606 -4.01044e-21)
(0.677738 0.00181167 1.87825e-21)
(0.710272 0.00569258 -2.0031e-22)
(0.739762 0.00874745 8.87394e-23)
(0.766515 0.0110525 -1.56043e-22)
(0.790727 0.0125027 0)
(0.812673 0.0136545 0)
(0.832653 0.0141174 3.98705e-22)
(0.850876 0.0148145 -2.96059e-22)
(0.867628 0.0147602 -2.23161e-22)
(0.883124 0.0154584 -4.19589e-24)
(0.897626 0.0151783 2.8684e-22)
(0.911289 0.0161669 -5.27753e-23)
(0.924186 0.0159999 0)
(0.936194 0.0175347 0)
(0.947145 0.0175997 0)
(0.956809 0.019597 0)
(0.965078 0.0196167 -5.14197e-23)
(0.971978 0.022021 2.19975e-23)
(0.977535 0.0218172 0)
(0.982078 0.0248061 0)
(0.985557 0.0244562 0)
(0.98849 0.0280604 9.927e-24)
(0.990627 0.0276825 -1.5682e-24)
(0.992623 0.0318778 7.95394e-24)
(0.993932 0.0314313 0)
(0.995482 0.0363705 0)
(0.996254 0.0358746 -3.3541e-24)
(0.997649 0.0416033 -7.71063e-24)
(0.998029 0.0412782 0)
(0.999479 0.0478796 0)
(-0.167561 0.0563767 1.27158e-21)
(-0.17864 0.0540526 -4.98981e-20)
(-0.186264 0.0506591 5.05415e-20)
(-0.192275 0.046208 -4.72567e-20)
(-0.196459 0.0404064 -3.70807e-22)
(-0.19842 0.0331365 0)
(-0.197641 0.0243045 -4.53153e-20)
(-0.193486 0.0138017 4.43989e-20)
(-0.18552 0.00181487 3.20204e-22)
(-0.173594 -0.0120379 6.19122e-22)
(-0.156934 -0.0276545 5.76635e-22)
(-0.13519 -0.0438182 5.09173e-22)
(-0.10819 -0.0607502 -2.81222e-20)
(-0.0756866 -0.0777476 2.77227e-20)
(-0.0378912 -0.094069 0)
(0.00508359 -0.10857 5.65659e-22)
(0.0533893 -0.120305 -1.14363e-20)
(0.105544 -0.128527 1.12508e-20)
(0.160279 -0.132122 0)
(0.216653 -0.131551 0)
(0.273087 -0.126471 1.16454e-21)
(0.328505 -0.117471 -4.17518e-21)
(0.381981 -0.105563 6.9062e-21)
(0.432842 -0.0919107 6.75468e-22)
(0.480697 -0.0776237 -9.5742e-21)
(0.525402 -0.0636463 1.02071e-20)
(0.567009 -0.0507005 -9.58687e-21)
(0.605629 -0.0391125 4.53678e-22)
(0.641359 -0.0290727 4.49734e-21)
(0.674299 -0.0205725 0)
(0.704626 -0.0135838 0)
(0.732582 -0.00792866 -1.13642e-21)
(0.758296 -0.00332173 1.49385e-21)
(0.781783 0.000319248 1.03705e-24)
(0.803327 0.00294718 -1.04414e-21)
(0.823054 0.00531153 1.01472e-21)
(0.841221 0.00681949 0)
(0.857895 0.00835581 -9.1866e-23)
(0.87338 0.00898889 -6.87647e-22)
(0.887746 0.0102477 1.25935e-21)
(0.901304 0.0104287 -5.14742e-22)
(0.914119 0.011819 -5.28534e-23)
(0.926331 0.0120401 4.4154e-22)
(0.937764 0.0139889 -3.397e-22)
(0.948284 0.0145085 -6.93859e-23)
(0.957633 0.0169876 -5.99747e-23)
(0.965686 0.0174764 5.15504e-23)
(0.972454 0.0203167 0)
(0.977926 0.0204779 0)
(0.982438 0.0237727 1.25089e-22)
(0.985896 0.0236562 -5.88199e-23)
(0.98885 0.0274428 4.62409e-23)
(0.990986 0.027197 -5.79583e-23)
(0.993028 0.0314949 -6.13792e-23)
(0.994341 0.0311157 1.43775e-23)
(0.99595 0.0361132 -2.06449e-23)
(0.996725 0.0356514 1.56465e-23)
(0.998191 0.0414148 -6.5683e-24)
(0.998573 0.0411044 0)
(1.00011 0.0477325 0)
(-0.0404535 0.063966 -1.03605e-19)
(-0.0459369 0.0618017 -6.74488e-22)
(-0.0480197 0.0571717 9.89123e-20)
(-0.0483385 0.0509714 -7.70883e-22)
(-0.0471465 0.0431741 0)
(-0.0440459 0.0335252 0)
(-0.0386797 0.0219257 -9.3085e-20)
(-0.0303386 0.00840967 2.31445e-22)
(-0.0191286 -0.00711257 1.29345e-19)
(-0.00497586 -0.0246736 -1.98111e-21)
(0.0137023 -0.0435156 -3.92236e-20)
(0.0371446 -0.0634675 -3.23266e-20)
(0.064653 -0.0842249 3.24831e-20)
(0.0967312 -0.104975 0)
(0.133207 -0.12485 -2.13292e-20)
(0.173605 -0.142259 1.95437e-20)
(0.217761 -0.15612 0)
(0.264607 -0.165888 0)
(0.312919 -0.170294 5.01547e-21)
(0.361559 -0.169178 -2.93924e-21)
(0.409246 -0.162636 -1.87237e-21)
(0.455043 -0.151447 2.4583e-21)
(0.498309 -0.136865 -2.50563e-21)
(0.53869 -0.120313 4.59505e-21)
(0.5761 -0.103124 3.58776e-22)
(0.610627 -0.0863665 -4.70459e-21)
(0.642517 -0.0708595 -6.01117e-22)
(0.672059 -0.0570246 -1.18143e-23)
(0.699458 -0.0449914 0)
(0.724854 -0.0347131 -3.81476e-21)
(0.748437 -0.0261193 3.92609e-21)
(0.770365 -0.018954 -2.01123e-22)
(0.790766 -0.0132991 0)
(0.809633 -0.00864924 1.56864e-22)
(0.827241 -0.00508611 -2.08961e-21)
(0.843526 -0.00192457 3.61819e-21)
(0.858624 0.000180166 3.10045e-23)
(0.872584 0.00251954 -1.56839e-22)
(0.88573 0.00381135 -1.19596e-21)
(0.897992 0.00557006 -1.40061e-22)
(0.909701 0.0061373 9.25778e-22)
(0.920829 0.00785916 -7.93281e-22)
(0.931573 0.00839992 -2.48141e-25)
(0.941729 0.0106946 -3.04544e-22)
(0.951205 0.0116048 3.65697e-22)
(0.959733 0.0145097 4.08115e-22)
(0.967169 0.015422 -1.1734e-22)
(0.973509 0.0186642 -1.67509e-22)
(0.978687 0.0191654 3.05824e-22)
(0.983027 0.0227499 -2.03812e-22)
(0.986371 0.0228553 4.77844e-23)
(0.98929 0.0268189 -5.99417e-23)
(0.99139 0.0267009 -4.52526e-23)
(0.993459 0.0311006 9.36676e-23)
(0.994765 0.0307874 -2.65028e-24)
(0.996426 0.0358442 2.06747e-23)
(0.997202 0.035416 0)
(0.998737 0.0412157 6.55988e-24)
(0.999119 0.0409198 -8.68392e-24)
(1.00074 0.0475767 0)
(0.0980844 0.0631244 1.04706e-19)
(0.099584 0.0619981 -2.06178e-19)
(0.102203 0.0571942 1.00259e-19)
(0.107245 0.050197 1.01119e-19)
(0.113717 0.0413564 -1.98476e-19)
(0.121581 0.030316 1.29675e-22)
(0.131294 0.0168552 9.52731e-20)
(0.143291 0.001166 9.12652e-20)
(0.157485 -0.0170494 -8.93853e-20)
(0.174418 -0.0372218 0)
(0.19459 -0.0584586 -7.6591e-20)
(0.218408 -0.0813773 1.44416e-19)
(0.245762 -0.105107 -6.79821e-20)
(0.276671 -0.128773 0)
(0.310901 -0.151315 0)
(0.347911 -0.171252 6.17214e-22)
(0.387226 -0.187184 -2.80759e-20)
(0.427817 -0.197971 2.72735e-20)
(0.468502 -0.202595 0)
(0.508243 -0.200761 6.1239e-21)
(0.546111 -0.192726 -6.24694e-21)
(0.581511 -0.17946 -2.80555e-21)
(0.614188 -0.162453 9.64874e-21)
(0.644148 -0.143345 1.96429e-21)
(0.671574 -0.123648 -1.69292e-20)
(0.6967 -0.104536 8.95018e-21)
(0.719817 -0.0868518 2.96299e-22)
(0.741253 -0.0711193 4.09478e-21)
(0.761229 -0.057452 -1.72071e-22)
(0.779838 -0.0457661 -3.96498e-21)
(0.797219 -0.0359631 -2.22319e-22)
(0.81348 -0.0277703 3.02076e-21)
(0.828749 -0.021145 -5.61599e-21)
(0.84299 -0.0156057 2.91173e-21)
(0.856399 -0.0112647 0)
(0.868861 -0.00759465 2.06773e-21)
(0.880661 -0.00497642 -1.98519e-21)
(0.89166 -0.0022376 1.21102e-21)
(0.902034 -0.000587894 -1.51434e-21)
(0.911754 0.00164205 1.39131e-22)
(0.921173 0.00253331 0)
(0.930184 0.00450557 1.06206e-22)
(0.939016 0.00527745 -2.78088e-22)
(0.947467 0.00782641 0)
(0.955496 0.0090346 -6.69516e-22)
(0.962851 0.0122796 2.72586e-22)
(0.969378 0.013541 -1.04295e-22)
(0.975063 0.0171259 -8.95027e-23)
(0.979778 0.0179221 0)
(0.983827 0.0217655 0)
(0.986979 0.0220711 1.58611e-22)
(0.989811 0.0261995 -2.33899e-22)
(0.991843 0.0262006 1.23362e-22)
(0.99392 0.0306987 -3.74656e-23)
(0.995206 0.0304489 -5.75497e-23)
(0.996913 0.0355647 -2.06943e-23)
(0.997685 0.0351693 3.1383e-23)
(0.999287 0.0410065 0)
(0.999667 0.040725 1.40884e-23)
(1.00137 0.0474123 3.2717e-24)
(0.243551 0.0568141 1.05817e-19)
(0.249983 0.0558623 -1.05113e-19)
(0.255891 0.0512383 8.08174e-22)
(0.264645 0.0442677 -7.90404e-22)
(0.275157 0.0352356 7.86074e-22)
(0.286816 0.0237398 -7.71807e-22)
(0.300012 0.00955733 1.50097e-21)
(0.31497 -0.00731304 0)
(0.331717 -0.026779 -1.4084e-21)
(0.35066 -0.0484676 1.3449e-21)
(0.372054 -0.0719693 1.26833e-21)
(0.39616 -0.097017 -1.16336e-21)
(0.422928 -0.12295 0)
(0.452207 -0.148798 0)
(0.483635 -0.173333 8.31201e-22)
(0.516552 -0.194982 0)
(0.550182 -0.212166 -5.6082e-22)
(0.583457 -0.223512 0)
(0.615285 -0.22802 -1.41881e-20)
(0.644873 -0.225399 2.21692e-20)
(0.671758 -0.216044 -1.03158e-20)
(0.69586 -0.201097 2.55288e-21)
(0.71744 -0.182228 -4.69226e-21)
(0.736931 -0.161213 4.55664e-21)
(0.754787 -0.139657 8.19902e-21)
(0.771351 -0.118801 -7.99128e-21)
(0.786855 -0.0994595 0)
(0.801535 -0.0822156 -2.50755e-22)
(0.81554 -0.0672366 0)
(0.828824 -0.0544172 0)
(0.841394 -0.0436336 -6.1872e-21)
(0.853254 -0.0345918 6.41232e-21)
(0.864474 -0.0272114 -3.39808e-22)
(0.874983 -0.0210304 -3.10675e-22)
(0.884933 -0.016138 2.68272e-22)
(0.894221 -0.0119191 1.81989e-21)
(0.903055 -0.008751 -1.76706e-21)
(0.911293 -0.00579068 1.58099e-21)
(0.919214 -0.00390753 -1.35599e-21)
(0.926599 -0.00151285 -2.79826e-22)
(0.933759 -0.000330872 9.3041e-22)
(0.940647 0.00183673 1.36931e-23)
(0.9475 0.0027556 -6.0137e-22)
(0.95414 0.0054672 0)
(0.960577 0.00687547 2.81124e-22)
(0.966608 0.010365 -3.37939e-22)
(0.972077 0.0118885 4.46501e-22)