/*--------------------------------*- C++ -*----------------------------------*\
| =========                 |                                                 |
| \\      /  F ield         | OpenFOAM: The Open Source CFD Toolbox           |
|  \\    /   O peration     | Version:  2512                                  |
|   \\  /    A nd           | Website:  www.openfoam.com                      |
|    \\/     M anipulation  |                                                 |
\*---------------------------------------------------------------------------*/
FoamFile
{
    version     2.0;
    format      ascii;
    arch        "LSB;label=32;scalar=64";
    class       volScalarField;
    location    "153";
    object      p;
}
// * * * * * * * * * * * * * * * * * * * * * * * * * * * * * * * * * * * * * //

dimensions      [0 2 -2 0 0 0 0];

internalField   nonuniform List<scalar> 
13248
(
-0.475014
-0.471719
-0.468236
-0.464821
-0.461766
-0.459376
-0.457764
-0.456815
-0.456218
-0.455494
-0.454056
-0.451281
-0.446594
-0.439548
-0.429878
-0.417531
-0.402655
-0.385554
-0.366627
-0.346314
-0.324918
-0.302846
-0.279344
-0.255132
-0.483994
-0.480127
-0.475979
-0.471816
-0.467909
-0.464529
-0.461735
-0.459343
-0.45697
-0.454096
-0.450151
-0.444601
-0.437038
-0.427229
-0.415141
-0.400921
-0.384851
-0.367286
-0.348597
-0.329125
-0.309135
-0.288873
-0.268227
-0.247934
-0.494719
-0.49004
-0.485127
-0.480193
-0.475414
-0.470981
-0.466855
-0.462762
-0.458266
-0.452863
-0.446084
-0.437574
-0.427153
-0.41482
-0.400737
-0.38517
-0.36844
-0.350868
-0.332741
-0.314303
-0.29573
-0.277219
-0.258692
-0.240533
-0.507359
-0.501627
-0.495832
-0.490063
-0.484318
-0.478654
-0.472912
-0.466738
-0.459698
-0.451395
-0.441551
-0.430054
-0.416961
-0.402462
-0.386826
-0.370349
-0.35331
-0.335947
-0.318455
-0.300989
-0.283672
-0.266639
-0.249853
-0.233693
-0.521893
-0.514897
-0.508101
-0.501386
-0.494492
-0.487304
-0.479547
-0.470843
-0.460857
-0.449395
-0.436437
-0.422119
-0.406689
-0.390439
-0.373657
-0.356594
-0.339447
-0.322364
-0.305456
-0.288807
-0.27249
-0.256572
-0.241039
-0.226116
-0.53813
-0.529726
-0.521821
-0.514004
-0.50568
-0.496551
-0.486282
-0.474574
-0.461304
-0.446558
-0.430585
-0.413724
-0.396322
-0.378684
-0.36105
-0.343588
-0.326409
-0.309582
-0.293154
-0.277157
-0.261623
-0.246577
-0.232017
-0.218079
-0.555727
-0.545845
-0.536739
-0.527603
-0.517456
-0.505858
-0.492525
-0.477378
-0.460605
-0.442603
-0.423842
-0.404771
-0.385746
-0.367018
-0.348741
-0.330995
-0.313814
-0.297206
-0.28117
-0.2657
-0.250791
-0.23644
-0.222646
-0.209443
-0.57416
-0.562811
-0.552409
-0.541659
-0.529189
-0.514522
-0.497593
-0.478684
-0.458351
-0.43726
-0.416015
-0.395075
-0.374732
-0.355144
-0.33637
-0.318412
-0.301242
-0.284823
-0.269115
-0.254085
-0.239703
-0.225945
-0.212804
-0.200227
-0.5927
-0.579964
-0.568152
-0.555409
-0.540039
-0.521713
-0.500773
-0.477961
-0.454188
-0.430296
-0.406917
-0.384435
-0.363039
-0.34278
-0.32363
-0.305526
-0.288392
-0.272156
-0.256749
-0.242115
-0.228203
-0.214978
-0.202412
-0.190388
-0.610391
-0.596403
-0.583028
-0.567838
-0.548989
-0.526527
-0.501366
-0.474732
-0.447804
-0.421486
-0.396337
-0.372621
-0.350404
-0.329637
-0.310221
-0.292041
-0.274985
-0.258949
-0.243844
-0.229592
-0.216127
-0.203402
-0.19136
-0.179858
-0.626084
-0.610993
-0.59585
-0.577725
-0.554887
-0.527998
-0.498632
-0.46844
-0.438745
-0.410402
-0.383836
-0.359166
-0.33634
-0.315226
-0.295662
-0.277494
-0.260579
-0.24479
-0.230019
-0.21617
-0.203166
-0.190941
-0.179401
-0.168422
-0.638538
-0.622525
-0.605389
-0.58385
-0.556599
-0.525125
-0.491688
-0.458264
-0.4262
-0.396216
-0.368564
-0.343213
-0.320002
-0.298721
-0.27916
-0.261129
-0.24446
-0.229006
-0.214641
-0.201257
-0.188769
-0.177095
-0.166108
-0.155752
-0.350399
-0.353096
-0.354796
-0.35605
-0.35731
-0.358681
-0.360182
-0.361794
-0.363464
-0.365127
-0.36669
-0.368048
-0.369077
-0.36965
-0.369634
-0.368909
-0.367373
-0.364961
-0.361666
-0.357556
-0.352761
-0.347441
-0.341878
-0.336719
-0.363495
-0.365942
-0.367669
-0.369193
-0.370934
-0.372988
-0.375356
-0.378004
-0.380866
-0.38384
-0.386803
-0.389615
-0.392085
-0.394005
-0.395148
-0.395275
-0.394149
-0.391558
-0.387342
-0.381429
-0.373814
-0.364521
-0.353759
-0.342598
-0.377369
-0.379344
-0.380963
-0.382667
-0.384812
-0.387475
-0.390641
-0.394258
-0.398239
-0.402462
-0.406768
-0.410945
-0.414774
-0.417959
-0.420176
-0.421069
-0.420266
-0.417404
-0.412172
-0.404349
-0.393811
-0.380466
-0.364379
-0.346971
-0.391439
-0.392759
-0.394129
-0.395888
-0.398298
-0.40142
-0.405224
-0.409632
-0.414535
-0.419785
-0.425187
-0.43049
-0.435398
-0.439552
-0.442534
-0.443882
-0.443121
-0.439729
-0.43328
-0.423432
-0.409987
-0.392841
-0.37187
-0.347938
-0.405077
-0.405627
-0.406617
-0.408269
-0.410753
-0.414112
-0.418303
-0.42323
-0.428754
-0.434694
-0.440822
-0.446845
-0.452408
-0.457075
-0.460341
-0.461641
-0.460568
-0.456228
-0.448277
-0.436296
-0.420051
-0.399477
-0.374565
-0.345665
-0.417722
-0.417468
-0.417971
-0.419342
-0.421669
-0.424992
-0.429263
-0.434367
-0.440142
-0.446374
-0.452796
-0.459076
-0.464787
-0.469448
-0.472488
-0.473286
-0.471212
-0.465608
-0.455949
-0.441843
-0.423117
-0.399754
-0.372299
-0.339984
-0.42897
-0.42797
-0.427914
-0.428833
-0.430763
-0.433757
-0.437774
-0.442692
-0.448326
-0.454434
-0.46071
-0.46677
-0.472151
-0.476305
-0.478611
-0.478404
-0.475015
-0.467823
-0.456336
-0.440244
-0.419538
-0.394221
-0.365642
-0.33181
-0.43866
-0.437037
-0.43639
-0.436711
-0.438023
-0.440411
-0.443859
-0.448247
-0.453379
-0.458983
-0.464715
-0.470149
-0.474769
-0.477979
-0.479122
-0.477515
-0.472507
-0.463545
-0.45025
-0.432454
-0.410385
-0.384086
-0.355446
-0.321917
-0.446895
-0.444806
-0.443569
-0.443184
-0.443705
-0.445265
-0.447886
-0.451464
-0.455794
-0.460584
-0.465449
-0.469911
-0.473403
-0.475289
-0.47489
-0.471545
-0.464672
-0.453846
-0.438866
-0.419761
-0.396976
-0.370682
-0.34282
-0.310977
-0.454035
-0.451621
-0.449813
-0.448661
-0.448284
-0.448874
-0.450495
-0.453066
-0.45638
-0.460116
-0.463841
-0.467022
-0.469044
-0.469239
-0.466945
-0.461566
-0.45265
-0.439959
-0.423508
-0.403562
-0.380709
-0.355326
-0.329027
-0.29972
-0.460644
-0.457984
-0.45562
-0.453681
-0.452363
-0.451923
-0.452449
-0.453894
-0.456033
-0.458504
-0.460823
-0.462401
-0.462588
-0.460723
-0.456207
-0.448573
-0.437551
-0.423113
-0.405469
-0.385076
-0.362569
-0.338582
-0.314355
-0.288177
-0.467411
-0.464486
-0.461561
-0.458843
-0.456596
-0.455116
-0.454548
-0.454805
-0.455638
-0.456635
-0.457254
-0.456867
-0.454825
-0.450533
-0.443524
-0.433518
-0.420457
-0.404502
-0.385993
-0.365429
-0.343306
-0.320348
-0.297241
-0.274023
-0.33205
-0.328789
-0.328641
-0.331446
-0.336607
-0.342702
-0.347875
-0.348577
-0.342841
-0.328537
-0.304752
-0.272339
-0.234903
-0.197718
-0.165824
-0.142457
-0.128591
-0.123788
-0.127902
-0.141645
-0.164163
-0.189628
-0.207466
-0.207783
-0.189008
-0.158511
-0.126642
-0.100529
-0.0829015
-0.0734831
-0.0707545
-0.0744951
-0.0863448
-0.10506
-0.121977
-0.125663
-0.115249
-0.0957893
-0.0778357
-0.0659125
-0.0597061
-0.0600546
-0.0683471
-0.080728
-0.0868895
-0.0808223
-0.0688496
-0.0563509
-0.0473396
-0.0423505
-0.0408922
-0.0413897
-0.0401292
-0.037229
-0.0337924
-0.0286144
-0.0214836
-0.0194186
-0.0166207
-0.00718091
-0.331034
-0.318197
-0.30821
-0.301424
-0.298055
-0.297389
-0.297523
-0.296039
-0.290789
-0.278654
-0.260057
-0.23442
-0.204749
-0.175501
-0.150938
-0.133829
-0.125089
-0.124722
-0.13329
-0.151771
-0.178649
-0.207005
-0.225478
-0.224238
-0.202401
-0.168196
-0.132867
-0.103837
-0.0836257
-0.0717646
-0.0666858
-0.0678022
-0.0764666
-0.0920415
-0.107119
-0.111625
-0.103148
-0.087022
-0.0724696
-0.0635953
-0.0599603
-0.0629561
-0.0739675
-0.0886318
-0.0958771
-0.0886302
-0.0743324
-0.0590349
-0.0479102
-0.0408395
-0.0374693
-0.03677
-0.0350196
-0.0331786
-0.0307114
-0.0274861
-0.022127
-0.0212426
-0.0192556
-0.00839187
-0.32941
-0.307066
-0.286938
-0.269866
-0.256999
-0.248311
-0.242482
-0.237773
-0.231219
-0.221351
-0.209542
-0.191048
-0.169408
-0.148327
-0.131236
-0.120416
-0.116806
-0.120909
-0.133918
-0.156832
-0.187451
-0.218104
-0.237037
-0.235193
-0.211445
-0.174724
-0.136906
-0.105674
-0.0833879
-0.0694105
-0.0621753
-0.0608239
-0.0663684
-0.078752
-0.0919211
-0.0969479
-0.090509
-0.0776446
-0.0664296
-0.0605875
-0.0595623
-0.0652344
-0.0789075
-0.0957711
-0.104137
-0.0958735
-0.0793786
-0.0613758
-0.0482418
-0.0393091
-0.0342259
-0.0324007
-0.0300466
-0.029112
-0.0275245
-0.0263021
-0.0227425
-0.0230136
-0.0218424
-0.00959063
-0.326565
-0.295806
-0.26638
-0.239551
-0.217364
-0.20031
-0.187677
-0.178751
-0.17166
-0.166366
-0.156605
-0.143724
-0.129693
-0.116498
-0.106588
-0.101804
-0.103109
-0.11157
-0.12884
-0.155811
-0.189719
-0.222314
-0.241561
-0.240406
-0.21595
-0.177935
-0.138703
-0.106092
-0.082333
-0.0666671
-0.0575559
-0.0539597
-0.0565788
-0.0658109
-0.0769472
-0.0821682
-0.0776845
-0.0679192
-0.0598628
-0.0569259
-0.0584267
-0.0666697
-0.0828688
-0.101853
-0.111395
-0.102367
-0.0838945
-0.0633488
-0.0483376
-0.0377715
-0.0311892
-0.0283299
-0.0252675
-0.0250783
-0.0242639
-0.025075
-0.0233288
-0.0247121
-0.0243545
-0.0107641
-0.320653
-0.284214
-0.247388
-0.2126
-0.183028
-0.158198
-0.138179
-0.123269
-0.113347
-0.104543
-0.101348
-0.0935564
-0.0864255
-0.0804583
-0.0772055
-0.0780232
-0.0840746
-0.0968743
-0.118274
-0.148921
-0.185656
-0.220042
-0.238852
-0.240052
-0.215996
-0.177969
-0.138475
-0.10531
-0.0806525
-0.0637393
-0.0530886
-0.047558
-0.0475131
-0.0536899
-0.062687
-0.0678016
-0.0650429
-0.0580928
-0.0528986
-0.0526233
-0.0564595
-0.0670802
-0.0856229
-0.106607
-0.117376
-0.107931
-0.0878004
-0.0649472
-0.048214
-0.0362358
-0.028368
-0.024591
-0.0207373
-0.0211266
-0.0209629
-0.0238161
-0.023884
-0.0263169
-0.0267612
-0.0118985
-0.312179
-0.272999
-0.232441
-0.193216
-0.156839
-0.124862
-0.0980804
-0.0759545
-0.063683
-0.0530462
-0.0485169
-0.0439297
-0.0423388
-0.0422912
-0.0446526
-0.0505216
-0.0611807
-0.0782809
-0.103554
-0.137285
-0.176224
-0.212649
-0.237173
-0.235056
-0.211845
-0.175042
-0.136434
-0.103536
-0.0785268
-0.0607764
-0.0489266
-0.0418071
-0.0394714
-0.0427912
-0.0495882
-0.0543111
-0.052931
-0.0483966
-0.0456676
-0.0477201
-0.0536318
-0.0663701
-0.0870044
-0.109816
-0.121877
-0.112426
-0.091028
-0.0661664
-0.0478852
-0.0347015
-0.0257549
-0.0212024
-0.0165005
-0.0173007
-0.0176529
-0.0225337
-0.0244033
-0.0278049
-0.0290326
-0.0129802
-0.302405
-0.26299
-0.222047
-0.181386
-0.141921
-0.105448
-0.0734209
-0.0468095
-0.0272056
-0.0132084
-0.00522127
-0.000520661
-0.00228504
-0.0059311
-0.012292
-0.0222822
-0.0370365
-0.0580129
-0.0865334
-0.122462
-0.162593
-0.199784
-0.224231
-0.224928
-0.203922
-0.16951
-0.132843
-0.100973
-0.0761162
-0.0578901
-0.0451506
-0.036767
-0.03255
-0.0333291
-0.0379563
-0.042056
-0.0416825
-0.0390698
-0.0383361
-0.0423262
-0.0499833
-0.0645004
-0.0869156
-0.111349
-0.124759
-0.115731
-0.0935147
-0.0669981
-0.0473632
-0.0331668
-0.0233303
-0.0181588
-0.0125874
-0.0136373
-0.0143634
-0.021232
-0.02488
-0.0291547
-0.0311407
-0.0139966
-0.292181
-0.254393
-0.215949
-0.176782
-0.13735
-0.09946
-0.0647076
-0.0343494
-0.00960903
0.00917437
0.0219275
0.0306771
0.0282106
0.0238104
0.0156616
0.00314517
-0.0145258
-0.0383558
-0.0690522
-0.106047
-0.146281
-0.183318
-0.207895
-0.210922
-0.19285
-0.161778
-0.127925
-0.0977477
-0.0735038
-0.0551329
-0.0417881
-0.032443
-0.0267368
-0.0253551
-0.0279401
-0.0312757
-0.0316263
-0.030327
-0.0311062
-0.0365867
-0.045607
-0.061518
-0.0853324
-0.111179
-0.125964
-0.117754
-0.0952119
-0.0674434
-0.0466625
-0.0316398
-0.0210857
-0.0154417
-0.00901197
-0.0101647
-0.0111213
-0.0199125
-0.0253065
-0.0303474
-0.0330596
-0.0149363
-0.281901
-0.247049
-0.212924
-0.177298
-0.140128
-0.103301
-0.0683138
-0.0362744
-0.00835845
0.0143941
0.0309934
0.0400857
0.0450056
0.0432944
0.0358888
0.0229591
0.00415746
-0.0209676
-0.0524504
-0.0892922
-0.128601
-0.164654
-0.189082
-0.194068
-0.179399
-0.15239
-0.122028
-0.0940866
-0.0708672
-0.0526553
-0.0389563
-0.0289115
-0.0220642
-0.0189126
-0.0196256
-0.0220695
-0.0227997
-0.0223221
-0.0241834
-0.0306904
-0.0406141
-0.0574507
-0.082319
-0.109392
-0.125502
-0.118468
-0.0961281
-0.0675682
-0.045843
-0.0301563
-0.0190391
-0.0130674
-0.00578331
-0.00690081
-0.00795084
-0.0185741
-0.0256747
-0.0313658
-0.0347642
-0.0157892
-0.272029
-0.241114
-0.211951
-0.180462
-0.146664
-0.112555
-0.0791795
-0.0473244
-0.0182546
0.00671103
0.0264442
0.0393468
0.0495386
0.0514946
0.0468293
0.0355756
0.0176281
-0.00698786
-0.0376747
-0.0730636
-0.11047
-0.144665
-0.168581
-0.175465
-0.164613
-0.142233
-0.115872
-0.0905875
-0.0687251
-0.0509019
-0.0370046
-0.0264228
-0.0186684
-0.0140602
-0.0130722
-0.0145183
-0.0151438
-0.0152045
-0.0177374
-0.024779
-0.0352053
-0.0525659
-0.0780074
-0.106039
-0.123421
-0.117937
-0.0963018
-0.0674819
-0.0450219
-0.0287686
-0.0171856
-0.011068
-0.00295494
-0.00386366
-0.00487183
-0.0172148
-0.0259753
-0.0321935
-0.0362285
-0.0165435
-0.263224
-0.23735
-0.212845
-0.184885
-0.15453
-0.123766
-0.0928596
-0.0621842
-0.0328571
-0.00624606
0.0165007
0.0344457
0.0455268
0.050518
0.049686
0.0417285
0.0264494
0.00393321
-0.0247802
-0.0579683
-0.0927938
-0.124775
-0.147158
-0.155518
-0.148627
-0.13133
-0.109435
-0.0871851
-0.0669722
-0.0497387
-0.0357596
-0.0247617
-0.0163013
-0.0104893
-0.00795933
-0.0084468
-0.00895519
-0.00922779
-0.0120649
-0.0190839
-0.0293797
-0.04669
-0.0726249
-0.101559
-0.11981
-0.116047
-0.0954966
-0.0669669
-0.0441096
-0.0273799
-0.0153963
-0.00927223
-0.000557854
-0.00112184
-0.0019121
-0.0158123
-0.0262005
-0.0328208
-0.0374234
-0.0171784
-0.254565
-0.236123
-0.215994
-0.191112
-0.164431
-0.137365
-0.10974
-0.0818703
-0.0544858
-0.0285635
-0.00491514
0.0147543
0.0315814
0.0412471
0.0439414
0.0402139
0.0292298
0.0110164
-0.013482
-0.0424582
-0.0732817
-0.102381
-0.123391
-0.132203
-0.129156
-0.11699
-0.0996659
-0.0807084
-0.0625825
-0.0464834
-0.0329454
-0.0220006
-0.0133534
-0.00686605
-0.00314704
-0.00278665
-0.0033983
-0.00470439
-0.00719768
-0.0139536
-0.0239231
-0.040668
-0.0663281
-0.0954887
-0.114658
-0.112105
-0.0931445
-0.0651397
-0.0423935
-0.0255234
-0.0134167
-0.00724867
0.00181585
0.00147299
0.000869687
-0.0144017
-0.0263335
-0.0332187
-0.0383502
-0.0176758
-0.233607
-0.228055
-0.208259
-0.183492
-0.158575
-0.133781
-0.10842
-0.0825672
-0.056955
-0.0324483
-0.00985095
0.0091704
0.0246433
0.034614
0.0391009
0.0374231
0.0286654
0.0126209
-0.00977576
-0.0366609
-0.0654732
-0.0920124
-0.111346
-0.118626
-0.11543
-0.10431
-0.0887838
-0.0718109
-0.0554677
-0.040762
-0.0281657
-0.0177648
-0.00938078
-0.00281158
0.00149838
0.00270036
0.00249291
0.00144002
-0.000990951
-0.00692218
-0.0160829
-0.0325686
-0.0592873
-0.0905548
-0.111917
-0.110755
-0.0908173
-0.0623778
-0.039766
-0.0231912
-0.0113797
-0.00508966
0.00454249
0.00446457
0.00406264
-0.0127556
-0.0264983
-0.0334706
-0.0391149
-0.0180506
-0.214168
-0.211831
-0.193692
-0.17036
-0.147575
-0.12558
-0.103295
-0.0804879
-0.0577617
-0.0359292
-0.0157723
0.00142956
0.0155052
0.0252775
0.0300913
0.0292512
0.0221017
0.0084861
-0.0107744
-0.0339372
-0.0585
-0.0805961
-0.0959453
-0.101895
-0.0990916
-0.0898667
-0.0769539
-0.0625903
-0.0484421
-0.0353892
-0.0238965
-0.0141828
-0.00619965
0.000278837
0.00486361
0.00647741
0.00631487
0.00487406
0.00307066
-0.00197884
-0.0101604
-0.0259883
-0.0530498
-0.0852545
-0.107138
-0.105603
-0.0863338
-0.0587093
-0.036828
-0.0207682
-0.00931912
-0.00306786
0.00659316
0.00661569
0.00660425
-0.0114151
-0.0267159
-0.0335378
-0.0394402
-0.0182196
-0.196356
-0.194539
-0.179107
-0.158387
-0.137998
-0.118595
-0.099126
-0.0791601
-0.0591568
-0.039883
-0.0221271
-0.00646804
0.00627371
0.0152802
0.0199077
0.0196228
0.0139734
0.00293215
-0.0127319
-0.0314315
-0.0509509
-0.0684114
-0.0807023
-0.0857532
-0.0839425
-0.07686
-0.0664344
-0.0543781
-0.0421108
-0.0304825
-0.0199776
-0.0108786
-0.00327007
0.00302213
0.00772663
0.00968132
0.00967703
0.00842476
0.00669408
0.00199385
-0.00571927
-0.0211324
-0.0477434
-0.0789473
-0.100262
-0.0989674
-0.0808803
-0.0546043
-0.0336558
-0.0182455
-0.00721865
-0.00106648
0.00847449
0.00851169
0.00870907
-0.0103355
-0.0269149
-0.0333619
-0.0393374
-0.0182329
-0.17846
-0.177824
-0.165271
-0.147364
-0.129333
-0.11224
-0.0952694
-0.0778988
-0.0604093
-0.0434545
-0.0277218
-0.0138309
-0.00244083
0.00579776
0.0103542
0.0107917
0.00679787
-0.0015735
-0.0136587
-0.0281766
-0.0434197
-0.0571872
-0.0670892
-0.0715599
-0.0705961
-0.0651851
-0.0567627
-0.0466707
-0.0360892
-0.0257957
-0.0162657
-0.00780126
-0.000592171
0.00544338
0.0101679
0.0124393
0.0127668
0.0117944
0.0102547
0.00591135
-0.00148045
-0.0163393
-0.0417025
-0.0713206
-0.0921786
-0.0912925
-0.0745086
-0.049937
-0.030219
-0.015617
-0.00507443
0.000920354
0.0102209
0.0102814
0.0106251
-0.00926867
-0.0269436
-0.0329063
-0.0388129
-0.01807
-0.161629
-0.162275
-0.152134
-0.136794
-0.121025
-0.106075
-0.0913661
-0.0763634
-0.0612
-0.0464216
-0.0326365
-0.0204003
-0.0102338
-0.00264939
0.00190564
0.00307244
0.000634086
-0.00533552
-0.0143199
-0.0253319
-0.0370072
-0.0477277
-0.0555952
-0.0594028
-0.0589448
-0.0548163
-0.048045
-0.0396357
-0.0305382
-0.0214478
-0.0128349
-0.00499912
0.00181226
0.0075615
0.0122227
0.0147425
0.0154543
0.0148492
0.0137082
0.00991309
0.00309173
-0.0107008
-0.0344787
-0.0626678
-0.0829447
-0.0824775
-0.0672212
-0.0447538
-0.0265592
-0.0129141
-0.00290592
0.00289202
0.0118049
0.0118908
0.0124261
-0.0080762
-0.026714
-0.0321409
-0.0378003
-0.0176877
-0.146542
-0.147754
-0.139536
-0.126539
-0.112945
-0.100023
-0.0873857
-0.0745361
-0.0615059
-0.0487318
-0.0367308
-0.0259809
-0.0169133
-0.00994437
-0.00544158
-0.00369001
-0.00484511
-0.00883382
-0.0152474
-0.0233024
-0.0318715
-0.0400687
-0.0461521
-0.0492291
-0.0490224
-0.0458285
-0.0403416
-0.0333054
-0.0254769
-0.0174565
-0.00969716
-0.00248447
0.00392802
0.00938513
0.0139177
0.0166071
0.0177172
0.017601
0.0170123
0.0139526
0.00799743
-0.00438713
-0.0264951
-0.0531262
-0.0725812
-0.0726509
-0.0591732
-0.0391331
-0.0227174
-0.0101674
-0.000734721
0.00484086
0.0132185
0.0133136
0.0140781
-0.00673174
-0.0261304
-0.0309923
-0.0362227
-0.0170488
-0.132463
-0.134013
-0.127508
-0.116668
-0.105109
-0.0940669
-0.0833038
-0.0723864
-0.0612731
-0.0502939
-0.0399078
-0.0305075
-0.022458
-0.0160944
-0.0117097
-0.00952791
-0.00966214
-0.0120463
-0.0163618
-0.0219708
-0.0277306
-0.0340577
-0.0385892
-0.0409041
-0.0407197
-0.0381389
-0.0336132
-0.027681
-0.0209295
-0.0138544
-0.00687605
-0.000269922
0.00574063
0.0109172
0.01529
0.0180837
0.0195639
0.0200146
0.0201097
0.0179391
0.0130071
0.00216212
-0.0180648
-0.0428793
-0.0613707
-0.0620755
-0.0505736
-0.0331892
-0.0187495
-0.00741061
0.00141533
0.00676223
0.0144741
0.0145393
0.0155317
-0.00519908
-0.0250414
-0.0293723
-0.0340265
-0.0161208
-0.11917
-0.12118
-0.116182
-0.10724
-0.0975039
-0.0881578
-0.0790685
-0.0698834
-0.0604473
-0.0510955
-0.0421609
-0.0339868
-0.0268764
-0.0210957
-0.016876
-0.0143936
-0.013733
-0.0148462
-0.0175202
-0.0213553
-0.026043
-0.0296065
-0.032632
-0.0341663
-0.0338395
-0.0316315
-0.0278128
-0.0227552
-0.0169046
-0.0106565
-0.00438336
0.00164518
0.00724947
0.0121574
0.0163695
0.0192246
0.021012
0.0220298
0.0228987
0.0217529
0.0179813
0.00876782
-0.00945269
-0.0323573
-0.0497322
-0.0511009
-0.0416962
-0.0270746
-0.0147218
-0.00467666
0.00352086
0.00865146
0.0156014
0.0155809
0.0167759
-0.0033798
-0.0232596
-0.0272013
-0.0311927
-0.0148808
-0.107058
-0.109357
-0.10557
-0.0982302
-0.0900983
-0.0822591
-0.0746367
-0.0668961
-0.0590347
-0.0511379
-0.0435098
-0.0364443
-0.0301915
-0.024966
-0.020951
-0.0182853
-0.0170362
-0.0171717
-0.0185352
-0.0208154
-0.023613
-0.0260294
-0.0279135
-0.0287354
-0.0281871
-0.0261845
-0.0228732
-0.0184993
-0.0133935
-0.00786423
-0.00222423
0.00326665
0.00846528
0.0131057
0.0171654
0.0200637
0.0220993
0.023621
0.0252222
0.0252226
0.0228013
0.0152166
-0.00115466
-0.0221212
-0.038135
-0.0401311
-0.032856
-0.0209713
-0.0107103
-0.00199541
0.00555961
0.0104996
0.0166506
0.0164932
0.0178468
-0.00114525
-0.0206002
-0.0244088
-0.0277469
-0.0133338
-0.096022
-0.0983632
-0.0955416
-0.0896117
-0.0829048
-0.0764035
-0.0700884
-0.0636887
-0.0571173
-0.0504815
-0.0440089
-0.0379349
-0.0324637
-0.0277683
-0.0239935
-0.0212485
-0.0195887
-0.0189919
-0.0193391
-0.0203963
-0.0218556
-0.0232148
-0.0241738
-0.0243756
-0.0235757
-0.0216663
-0.0187135
-0.0148711
-0.0103774
-0.00546826
-0.000394789
0.00460303
0.00940585
0.013774
0.0176795
0.0206106
0.0228499
0.0246964
0.0269516
0.0280516
0.0269979
0.0208926
0.00621651
-0.0126233
-0.0270067
-0.0295795
-0.0243802
-0.0150761
-0.00680058
0.000605633
0.00751247
0.0122917
0.0176863
0.0173746
0.018812
0.00161627
-0.0169286
-0.0209608
-0.0237828
-0.0115166
-0.0857754
-0.0881467
-0.0861494
-0.081422
-0.0759456
-0.0706055
-0.0654205
-0.0601618
-0.0547265
-0.049192
-0.0437342
-0.0385423
-0.0337816
-0.0295904
-0.0260828
-0.0233444
-0.0214215
-0.0202984
-0.0198886
-0.0200418
-0.0205074
-0.0209844
-0.0211971
-0.0208771
-0.0198306
-0.0179483
-0.0152483
-0.0118193
-0.00782732
-0.00345016
0.00111793
0.00566602
0.0100905
0.014184
0.0179207
0.0208694
0.0232771
0.0254023
0.0280256
0.0299111
0.0298757
0.0250414
0.0122197
-0.00414392
-0.0167482
-0.0198538
-0.016575
-0.00957915
-0.00308344
0.00309564
0.00936086
0.0140056
0.0187667
0.0183492
0.0197578
0.00495781
-0.0122354
-0.0169006
-0.0194671
-0.00950107
-0.0763325
-0.0787311
-0.0773984
-0.0736676
-0.0692331
-0.0648866
-0.0606692
-0.0563854
-0.0519292
-0.0473476
-0.0427757
-0.0383643
-0.034246
-0.0305309
-0.0273088
-0.0246471
-0.0225826
-0.0211056
-0.020165
-0.0196488
-0.0193912
-0.0191801
-0.0188051
-0.0180617
-0.0167966
-0.0149091
-0.0123902
-0.00928536
-0.00570641
-0.00178439
0.00233392
0.00647203
0.0105387
0.0143593
0.0179083
0.0208464
0.0233647
0.0256642
0.0283994
0.0306184
0.0310878
0.0273381
0.0166726
0.00303459
-0.00779514
-0.011322
-0.00967964
-0.00463312
0.000356449
0.00543743
0.0110783
0.0156033
0.019914
0.0195308
0.0207786
0.00881999
-0.00672262
-0.0123757
-0.0150277
-0.00740282
-0.067747
-0.0700785
-0.0692462
-0.0663346
-0.062779
-0.0592759
-0.0558788
-0.0524213
-0.0487991
-0.0450352
-0.0412312
-0.0375062
-0.0339658
-0.0306972
-0.0277711
-0.0252421
-0.0231413
-0.0214459
-0.0201473
-0.0191674
-0.0183908
-0.0176699
-0.0168509
-0.01578
-0.0143372
-0.0124354
-0.0100529
-0.00720742
-0.00397199
-0.000439894
0.00327833
0.00704227
0.0107716
0.0143225
0.0176663
0.0205492
0.0231085
0.0254753
0.0281166
0.0302935
0.0308717
0.0280006
0.0195594
0.0086125
-0.000518901
-0.00422944
-0.00382259
-0.00032908
0.00345351
0.00759352
0.0126284
0.0170228
0.0210756
0.0209684
0.0219575
0.0129909
-0.000850814
-0.00767209
-0.0107235
-0.00535683
-0.0599007
-0.0621056
-0.0616575
-0.0594211
-0.0566017
-0.053807
-0.0510978
-0.0483337
-0.0454149
-0.0423467
-0.0392035
-0.036078
-0.0330537
-0.0301992
-0.0275707
-0.0252174
-0.023193
-0.0213566
-0.0198384
-0.0185575
-0.0174296
-0.0163523
-0.0152157
-0.0139066
-0.0123337
-0.0104248
-0.00815402
-0.00552272
-0.00257748
0.00061803
0.00397992
0.00740203
0.0108132
0.0140964
0.0172212
0.020002
0.0225299
0.0248596
0.0272735
0.0292059
0.0297031
0.0274862
0.0210335
0.0125049
0.00498719
0.0013859
0.000989903
0.00330775
0.00616453
0.00953151
0.0139754
0.0181918
0.0221095
0.0225499
0.0233076
0.0171051
0.00472778
-0.00317855
-0.00679595
-0.00348975
-0.0526929
-0.0547707
-0.0546214
-0.0529333
-0.0507205
-0.0485128
-0.0463742
-0.0441864
-0.0418555
-0.0393742
-0.0367953
-0.0341899
-0.0316229
-0.0291462
-0.0267986
-0.0246062
-0.0225667
-0.0208321
-0.0192441
-0.0177995
-0.0164571
-0.0151505
-0.0138048
-0.0123387
-0.0106848
-0.00878547
-0.00661625
-0.00416954
-0.00147478
0.00142627
0.00447025
0.00757877
0.0106892
0.0137087
0.0166046
0.0192434
0.0216675
0.0238753
0.0260024
0.0276269
0.0279963
0.02626
0.0214307
0.0149432
0.00891786
0.00565799
0.00483348
0.00630182
0.00846666
0.0112221
0.0150902
0.0190596
0.0228433
0.023907
0.0246306
0.0206513
0.00940592
0.000762033
-0.00341555
-0.00190002
-0.0461123
-0.0480507
-0.0481178
-0.0468657
-0.0451472
-0.0434212
-0.0417517
-0.0400384
-0.0381948
-0.0362049
-0.0341048
-0.0319487
-0.0297865
-0.027658
-0.0255953
-0.0236261
-0.0217591
-0.020032
-0.0184182
-0.0168992
-0.0154446
-0.0140099
-0.012545
-0.0109928
-0.00930511
-0.00743726
-0.00536904
-0.00308901
-0.000616183
0.00202341
0.00478137
0.00760126
0.010428
0.0131899
0.0158505
0.0183131
0.0205796
0.0226147
0.0244516
0.025783
0.0260487
0.0246911
0.0211307
0.0162902
0.0115937
0.00879789
0.0078202
0.00870218
0.0103559
0.0126354
0.0159449
0.0196033
0.0231627
0.0247343
0.0255111
0.0230709
0.0128467
0.00395899
-0.000664132
-0.000634948
-0.0401217
-0.0418994
-0.0421144
-0.0412067
-0.0398891
-0.038556
-0.0372686
-0.0359428
-0.0345
-0.0329187
-0.0312227
-0.0294523
-0.0276459
-0.0258339
-0.0240406
-0.0222839
-0.0205877
-0.0189535
-0.0173816
-0.0158617
-0.0143748
-0.0128922
-0.0113813
-0.00980291
-0.00812402
-0.0063112
-0.00434936
-0.00222642
4.42995e-05
0.00244778
0.00494587
0.0074992
0.0100594
0.0125708
0.0149942
0.0172578
0.0193389
0.0211802
0.0227551
0.0238442
0.024053
0.0230149
0.0204291
0.0168832
0.0133179
0.0110232
0.0100671
0.0105678
0.0118412
0.0137475
0.0165226
0.0198061
0.0230118
0.0248013
0.0255581
0.0240229
0.0150079
0.00635836
0.00145321
0.000306078
-0.0346554
-0.0362697
-0.0365846
-0.0359477
-0.0349526
-0.033937
-0.0329583
-0.0319462
-0.0308304
-0.0295866
-0.0282292
-0.0267882
-0.0252923
-0.0237651
-0.0222245
-0.0206843
-0.0191575
-0.0176504
-0.0161661
-0.0146999
-0.0132412
-0.0117724
-0.0102734
-0.00871794
-0.00708467
-0.00534944
-0.00350226
-0.00153232
0.000550019
0.00273645
0.00499638
0.00730239
0.00961195
0.0118831
0.0140751
0.0161308
0.0180132
0.01966
0.0210165
0.0219236
0.0221196
0.0213619
0.0195235
0.0169725
0.0143381
0.0125236
0.0116857
0.0119591
0.0129429
0.0145469
0.0168254
0.0196778
0.0224199
0.0241546
0.0247271
0.0236014
0.0160271
0.00798654
0.00298068
0.00095473
-0.0296732
-0.0311294
-0.0315063
-0.0310787
-0.0303403
-0.0295788
-0.0288472
-0.0280871
-0.0272361
-0.0262691
-0.0251938
-0.0240317
-0.0228046
-0.0215296
-0.0202203
-0.0188862
-0.0175352
-0.0161739
-0.0148067
-0.0134324
-0.0120458
-0.0106367
-0.00919353
-0.00769973
-0.00614231
-0.00450457
-0.00278104
-0.000963059
0.000940391
0.00292455
0.00496417
0.00704009
0.00911538
0.0111584
0.0131281
0.0149784
0.0166651
0.0181296
0.0193115
0.0200912
0.0203071
0.0197964
0.0185289
0.0167341
0.0148421
0.0134611
0.0127806
0.0129343
0.0136942
0.0150383
0.0168699
0.0192594
0.0214862
0.02299
0.0232772
0.0222246
0.0161196
0.00892495
0.00399527
0.00136172
-0.0251439
-0.0264452
-0.0268536
-0.0265854
-0.0260499
-0.0254907
-0.0249556
-0.0243963
-0.0237581
-0.0230166
-0.0221745
-0.0212473
-0.0202508
-0.0191975
-0.0180971
-0.0169563
-0.0157796
-0.0145723
-0.0133392
-0.0120813
-0.0107966
-0.00947956
-0.0081244
-0.00672119
-0.00526299
-0.00373895
-0.00214705
-0.000481205
0.00125002
0.00304374
0.00487865
0.00674081
0.00859801
0.0104259
0.0121851
0.0138396
0.0153447
0.0166465
0.017691
0.0183862
0.0186415
0.0183424
0.017511
0.016287
0.0149736
0.013964
0.0134477
0.0135493
0.0141335
0.0152433
0.0166838
0.0186055
0.0203284
0.0215147
0.021509
0.0203597
0.0155436
0.00930059
0.00459134
0.00158389
-0.0210294
-0.0221825
-0.0226006
-0.022453
-0.0220769
-0.0216776
-0.0212976
-0.0208971
-0.0204289
-0.0198698
-0.0192195
-0.0184888
-0.017689
-0.0168286
-0.0159145
-0.0149516
-0.0139425
-0.0128901
-0.0117987
-0.0106707
-0.00950623
-0.00830235
-0.00705687
-0.00576441
-0.00442219
-0.00302369
-0.00156949
-5.59543e-05
0.00150871
0.00312209
0.00476581
0.00642957
0.00808501
0.00971256
0.0112772
0.0127494
0.0140888
0.0152487
0.016186
0.0168276
0.0171275
0.0170052
0.0165068
0.0157112
0.0148372
0.0141358
0.0137701
0.0138566
0.0143034
0.0151975
0.0163012
0.0177834
0.0190396
0.0198837
0.0196357
0.0183537
0.0145531
0.00925329
0.00486394
0.00167438
-0.0172967
-0.0183116
-0.0187242
-0.0186663
-0.0184146
-0.0181408
-0.0178824
-0.0176066
-0.0172732
-0.0168608
-0.0163673
-0.0157998
-0.0151665
-0.0144732
-0.0137234
-0.0129212
-0.0120688
-0.0111668
-0.0102179
-0.00922507
-0.00818981
-0.00711099
-0.00598824
-0.00481907
-0.0036034
-0.00233788
-0.0010248
0.000337472
0.00174095
0.00318319
0.00464821
0.00612767
0.00759727
0.00904101
0.0104277
0.0117333
0.0129236
0.0139606
0.0148127
0.0154196
0.0157623
0.015783
0.0155334
0.0150565
0.0145127
0.0140575
0.0138196
0.0139067
0.0142455
0.014944
0.0157607
0.0168495
0.0176734
0.0182078
0.0177856
0.0164074
0.0133531
0.0089111
0.00489759
0.00167638
-0.0139181
-0.0148051
-0.0152015
-0.0152092
-0.0150539
-0.0148781
-0.0147143
-0.0145359
-0.0143087
-0.0140137
-0.0136477
-0.0132152
-0.0127219
-0.0121715
-0.0115658
-0.0109072
-0.0101979
-0.00943759
-0.00862687
-0.00776825
-0.00686422
-0.0059149
-0.00492075
-0.00388093
-0.0027969
-0.00166748
-0.000496
0.000717709
0.00196596
0.0032459
0.00454386
0.00585247
0.00715101
0.00842692
0.00965327
0.0108086
0.011866
0.012796
0.0135781
0.0141595
0.0145365
0.0146674
0.0146008
0.0143589
0.0140565
0.0137911
0.0136559
0.0137474
0.0139998
0.0145256
0.0151012
0.0158544
0.0163466
0.0165763
0.0160314
0.0146154
0.0120878
0.00838005
0.00476283
0.0016206
-0.0108668
-0.011637
-0.0120105
-0.0120653
-0.0119843
-0.0118848
-0.0117942
-0.0116913
-0.0115474
-0.0113459
-0.011083
-0.0107615
-0.0103851
-0.0099564
-0.0094758
-0.00894394
-0.00836254
-0.00773228
-0.00705197
-0.00632255
-0.00554668
-0.00472554
-0.00386014
-0.00295039
-0.00199837
-0.00100434
2.79638e-05
0.00109758
0.00219734
0.00332419
0.00446612
0.00561682
0.00675899
0.00788152
0.00896315
0.00998582
0.0109267
0.0117666
0.0124797
0.013038
0.0134384
0.0136504
0.013715
0.0136419
0.0135111
0.0133867
0.0133298
0.0134228
0.0136056
0.0139816
0.0143565
0.0148308
0.0150601
0.0150374
0.0144077
0.0130088
0.010849
0.00774325
0.00451765
0.00153172
-0.00811914
-0.00878387
-0.00913072
-0.0092188
-0.00919468
-0.00915393
-0.00911973
-0.00907501
-0.00899607
-0.00886864
-0.00868883
-0.00845826
-0.00817922
-0.00785302
-0.00747979
-0.00705865
-0.00659033
-0.00607632
-0.00551586
-0.00490788
-0.00425388
-0.0035556
-0.00281466
-0.00203142
-0.001208
-0.000345321
0.000552759
0.00148462
0.00244381