/*--------------------------------*- C++ -*----------------------------------*\
| =========                 |                                                 |
| \\      /  F ield         | OpenFOAM: The Open Source CFD Toolbox           |
|  \\    /   O peration     | Version:  2512                                  |
|   \\  /    A nd           | Website:  www.openfoam.com                      |
|    \\/     M anipulation  |                                                 |
\*---------------------------------------------------------------------------*/
FoamFile
{
    version     2.0;
    format      ascii;
    arch        "LSB;label=32;scalar=64";
    class       volScalarField;
    location    "182";
    object      p;
}
// * * * * * * * * * * * * * * * * * * * * * * * * * * * * * * * * * * * * * //

dimensions      [0 2 -2 0 0 0 0];

internalField   nonuniform List<scalar> 
13248
(
-0.317109
-0.316109
-0.313863
-0.310626
-0.306659
-0.302177
-0.297387
-0.292508
-0.287745
-0.283278
-0.27925
-0.275751
-0.272805
-0.270371
-0.268345
-0.26657
-0.264854
-0.262997
-0.2608
-0.258124
-0.254729
-0.250675
-0.245002
-0.238365
-0.32503
-0.323153
-0.320243
-0.316512
-0.312175
-0.307436
-0.302474
-0.297448
-0.292497
-0.287727
-0.283206
-0.278954
-0.274947
-0.271115
-0.267358
-0.263556
-0.25959
-0.255352
-0.25075
-0.245706
-0.240121
-0.233939
-0.226851
-0.219514
-0.334956
-0.331974
-0.328222
-0.323865
-0.319048
-0.313948
-0.308687
-0.303344
-0.297967
-0.292578
-0.287181
-0.28176
-0.276286
-0.270726
-0.265044
-0.259212
-0.253207
-0.247016
-0.240619
-0.233996
-0.227076
-0.219865
-0.212148
-0.204454
-0.346796
-0.342524
-0.337788
-0.332688
-0.327272
-0.321659
-0.315889
-0.309938
-0.303757
-0.297308
-0.290573
-0.283562
-0.276309
-0.268866
-0.261293
-0.253649
-0.245979
-0.23831
-0.230648
-0.222972
-0.215242
-0.207457
-0.199482
-0.191829
-0.360497
-0.354799
-0.348981
-0.343046
-0.336896
-0.330558
-0.323964
-0.316984
-0.309511
-0.301503
-0.292998
-0.284095
-0.274933
-0.265658
-0.256401
-0.247262
-0.238303
-0.229546
-0.220985
-0.212596
-0.20434
-0.196199
-0.188091
-0.18035
-0.376005
-0.368792
-0.361838
-0.354986
-0.347926
-0.340553
-0.332687
-0.324139
-0.314819
-0.304775
-0.294169
-0.283226
-0.272183
-0.261242
-0.250553
-0.240209
-0.230247
-0.220667
-0.211444
-0.202538
-0.193909
-0.185522
-0.177322
-0.16953
-0.39318
-0.384412
-0.376295
-0.368422
-0.36019
-0.351341
-0.341632
-0.330911
-0.319216
-0.306769
-0.293891
-0.280916
-0.26813
-0.255736
-0.243855
-0.232538
-0.221787
-0.211571
-0.201844
-0.192556
-0.183657
-0.175103
-0.16686
-0.159017
-0.411706
-0.4014
-0.3921
-0.383037
-0.37325
-0.36236
-0.350169
-0.336699
-0.322223
-0.307176
-0.292017
-0.277134
-0.262796
-0.249159
-0.236286
-0.224177
-0.212792
-0.202074
-0.191961
-0.18239
-0.173306
-0.164656
-0.156413
-0.148562
-0.431035
-0.41927
-0.408749
-0.398232
-0.386388
-0.372819
-0.357537
-0.340877
-0.323407
-0.305751
-0.288441
-0.271843
-0.256163
-0.241479
-0.227786
-0.215031
-0.203142
-0.192037
-0.18164
-0.171877
-0.162683
-0.154005
-0.145806
-0.137993
-0.450359
-0.43727
-0.425448
-0.413106
-0.398624
-0.381764
-0.362928
-0.342856
-0.322395
-0.302286
-0.283048
-0.264969
-0.248156
-0.232603
-0.218241
-0.204974
-0.192698
-0.181313
-0.170727
-0.160856
-0.151626
-0.142981
-0.13486
-0.127134
-0.46863
-0.45438
-0.441109
-0.426487
-0.40878
-0.388136
-0.365495
-0.342013
-0.31874
-0.296438
-0.27554
-0.256218
-0.238476
-0.222227
-0.207346
-0.193699
-0.181158
-0.169606
-0.158935
-0.149051
-0.139874
-0.131334
-0.123339
-0.115768
-0.484655
-0.469446
-0.454547
-0.437152
-0.415673
-0.390878
-0.364333
-0.337567
-0.311737
-0.287533
-0.265254
-0.244938
-0.226485
-0.209731
-0.194505
-0.180638
-0.16798
-0.156397
-0.14577
-0.135994
-0.126984
-0.118658
-0.110896
-0.103627
-0.334393
-0.336891
-0.338283
-0.33904
-0.339573
-0.340003
-0.340387
-0.340757
-0.341123
-0.341483
-0.341832
-0.342176
-0.342532
-0.342942
-0.343466
-0.344193
-0.345235
-0.346728
-0.348822
-0.351679
-0.355438
-0.360176
-0.365916
-0.372821
-0.328279
-0.33018
-0.331135
-0.331483
-0.331553
-0.331463
-0.331282
-0.331065
-0.330848
-0.330663
-0.330545
-0.330547
-0.330743
-0.331233
-0.332147
-0.333636
-0.335873
-0.339039
-0.343315
-0.348856
-0.355774
-0.36409
-0.373698
-0.384671
-0.323287
-0.324577
-0.32508
-0.325023
-0.324651
-0.324069
-0.323362
-0.322601
-0.321851
-0.321172
-0.320634
-0.320329
-0.320371
-0.320908
-0.32211
-0.324169
-0.327291
-0.331667
-0.337491
-0.344887
-0.353921
-0.364551
-0.376544
-0.389806
-0.319176
-0.319869
-0.319933
-0.319485
-0.318684
-0.317624
-0.3164
-0.315104
-0.313824
-0.31265
-0.311683
-0.311041
-0.310869
-0.311342
-0.312652
-0.315011
-0.318628
-0.323701
-0.33039
-0.338794
-0.348929
-0.360702
-0.37389
-0.387858
-0.315654
-0.315861
-0.31554
-0.314723
-0.313501
-0.311958
-0.310202
-0.308345
-0.306502
-0.304791
-0.303339
-0.30229
-0.301807
-0.302075
-0.303298
-0.305684
-0.309437
-0.314734
-0.321707
-0.330421
-0.340849
-0.352789
-0.366277
-0.37979
-0.312541
-0.312432
-0.311807
-0.310648
-0.309005
-0.306966
-0.304648
-0.302189
-0.299732
-0.297424
-0.295421
-0.293885
-0.292995
-0.292944
-0.29393
-0.296154
-0.299799
-0.305018
-0.311913
-0.320515
-0.330826
-0.342212
-0.355385
-0.367578
-0.30981
-0.309576
-0.308733
-0.307257
-0.305198
-0.30265
-0.299749
-0.29666
-0.293556
-0.290618
-0.288026
-0.285967
-0.284632
-0.284218
-0.28492
-0.286922
-0.290384
-0.295421
-0.302079
-0.310297
-0.320052
-0.330788
-0.343353
-0.353573
-0.30761
-0.307406
-0.306414
-0.304644
-0.302179
-0.299133
-0.295664
-0.291964
-0.28824
-0.284704
-0.281565
-0.279033
-0.277313
-0.276604
-0.277093
-0.278941
-0.282275
-0.287161
-0.293604
-0.301413
-0.310629
-0.320074
-0.331343
-0.339038
-0.306246
-0.306151
-0.305043
-0.302992
-0.300149
-0.29665
-0.29268
-0.288459
-0.284224
-0.280216
-0.27667
-0.273813
-0.271859
-0.271
-0.271402
-0.273186
-0.276411
-0.281064
-0.287061
-0.294097
-0.302158
-0.309904
-0.31893
-0.323945
-0.306138
-0.306118
-0.304873
-0.302557
-0.299378
-0.295508
-0.291158
-0.286569
-0.282001
-0.277713
-0.273955
-0.270956
-0.268919
-0.268006
-0.26833
-0.269937
-0.272802
-0.276813
-0.281788
-0.287391
-0.293487
-0.299048
-0.305016
-0.307229
-0.30772
-0.307627
-0.306176
-0.303585
-0.300119
-0.295977
-0.291384
-0.286594
-0.281872
-0.277477
-0.273651
-0.270602
-0.268492
-0.267425
-0.267436
-0.268482
-0.27044
-0.273112
-0.276243
-0.279557
-0.282851
-0.285724
-0.288607
-0.288807
-0.311329
-0.310923
-0.309144
-0.306247
-0.302519
-0.298171
-0.293439
-0.288565
-0.283798
-0.279375
-0.275502
-0.272336
-0.269979
-0.268457
-0.267723
-0.267651
-0.268049
-0.26868
-0.269272
-0.269618
-0.269468
-0.268919
-0.268132
-0.266964
-0.382685
-0.395202
-0.40755
-0.418108
-0.424811
-0.425345
-0.417543
-0.399857
-0.371644
-0.334002
-0.290304
-0.245573
-0.204958
-0.172261
-0.149313
-0.13635
-0.133216
-0.140089
-0.156026
-0.176359
-0.192337
-0.194911
-0.1809
-0.155304
-0.126819
-0.10256
-0.0860163
-0.077632
-0.0761704
-0.0810361
-0.0938875
-0.115166
-0.13818
-0.150687
-0.144255
-0.123311
-0.0986503
-0.0788032
-0.0663167
-0.0599285
-0.0606025
-0.0693713
-0.0803809
-0.0844874
-0.0779861
-0.0661765
-0.0561863
-0.0490562
-0.046903
-0.0495909
-0.0519581
-0.0514525
-0.0477897
-0.0408571
-0.0351896
-0.0286611
-0.0230759
-0.0225032
-0.0189011
-0.00650401
-0.399999
-0.417267
-0.433435
-0.446986
-0.455732
-0.457265
-0.449272
-0.429999
-0.398781
-0.356908
-0.3081
-0.257855
-0.211737
-0.173785
-0.145904
-0.128211
-0.12025
-0.121904
-0.132576
-0.148819
-0.163277
-0.167484
-0.157488
-0.137407
-0.114193
-0.0943095
-0.0813763
-0.0760838
-0.0773387
-0.0849421
-0.100921
-0.12542
-0.150834
-0.163884
-0.155826
-0.131993
-0.10415
-0.0812958
-0.0662536
-0.057566
-0.0558524
-0.0619832
-0.0709797
-0.0745003
-0.0693584
-0.0602302
-0.0528495
-0.0482859
-0.0483771
-0.0536485
-0.057532
-0.0569257
-0.0521989
-0.043344
-0.036295
-0.0277186
-0.0209002
-0.019429
-0.0157703
-0.00541825
-0.408867
-0.42916
-0.447539
-0.462862
-0.472991
-0.475423
-0.467551
-0.447523
-0.414633
-0.370214
-0.318204
-0.264386
-0.214545
-0.172841
-0.141087
-0.119291
-0.106785
-0.103242
-0.108446
-0.12012
-0.132445
-0.13783
-0.131559
-0.117187
-0.0993919
-0.0840619
-0.0749401
-0.0728692
-0.0768876
-0.087174
-0.106003
-0.133287
-0.16078
-0.174524
-0.165309
-0.139125
-0.108563
-0.0830585
-0.0657079
-0.0549355
-0.0510243
-0.05465
-0.0617199
-0.0646577
-0.0607445
-0.0541056
-0.049199
-0.0472212
-0.0496667
-0.0576532
-0.0631154
-0.0623006
-0.0563953
-0.0456072
-0.0372392
-0.0267722
-0.0187519
-0.0163757
-0.0126598
-0.00434279
-0.408684
-0.430393
-0.449848
-0.466243
-0.47724
-0.480208
-0.472563
-0.452446
-0.41909
-0.373833
-0.320678
-0.265465
-0.213975
-0.170226
-0.135898
-0.110916
-0.094542
-0.0862711
-0.0860149
-0.0926778
-0.102079
-0.1077
-0.104213
-0.0955949
-0.0830114
-0.0721603
-0.0668242
-0.0678795
-0.0744928
-0.0871589
-0.108371
-0.137993
-0.167401
-0.182133
-0.17237
-0.144502
-0.111785
-0.0840902
-0.0647613
-0.0521657
-0.0463113
-0.0476425
-0.0529021
-0.0552287
-0.05234
-0.0479209
-0.0452895
-0.0458479
-0.0506877
-0.0614879
-0.0685911
-0.0674964
-0.0603175
-0.0476126
-0.0380028
-0.0258234
-0.0166466
-0.0133784
-0.00959697
-0.00328653
-0.400538
-0.422174
-0.441727
-0.458871
-0.470281
-0.473267
-0.465792
-0.446098
-0.413329
-0.368856
-0.316638
-0.262262
-0.211132
-0.166941
-0.131242
-0.103987
-0.0844638
-0.0721256
-0.0668871
-0.0683948
-0.0741848
-0.0791277
-0.0763462
-0.0736186
-0.0656502
-0.0589527
-0.0571197
-0.0610128
-0.0699128
-0.0845406
-0.107611
-0.139106
-0.170299
-0.186302
-0.176746
-0.148027
-0.113813
-0.0844444
-0.0635113
-0.0493809
-0.0418616
-0.0411425
-0.0447418
-0.0464437
-0.0443213
-0.0417905
-0.0411694
-0.0441416
-0.0513505
-0.0650193
-0.0738055
-0.0724079
-0.0639068
-0.0493309
-0.0385703
-0.0248721
-0.014598
-0.0104686
-0.00660768
-0.00225794
-0.38707
-0.407417
-0.426648
-0.4429
-0.45406
-0.456649
-0.449311
-0.430378
-0.399081
-0.356857
-0.307441
-0.255862
-0.206864
-0.163661
-0.127682
-0.0990132
-0.0770915
-0.0613978
-0.0518347
-0.0484685
-0.0502737
-0.0543266
-0.0588797
-0.0526741
-0.0480014
-0.0448856
-0.0460581
-0.0523818
-0.0631929
-0.0793317
-0.103667
-0.136483
-0.16926
-0.186801
-0.17836
-0.149672
-0.114663
-0.0841722
-0.062032
-0.0466633
-0.0377591
-0.0352655
-0.0373828
-0.0384727
-0.0368347
-0.0358224
-0.0368892
-0.0420838
-0.0515668
-0.0680956
-0.078591
-0.0769375
-0.0671144
-0.050739
-0.0389265
-0.0239109
-0.0126168
-0.00767437
-0.00371356
-0.00126416
-0.370806
-0.388287
-0.405694
-0.421278
-0.43082
-0.43247
-0.425235
-0.40744
-0.378498
-0.339851
-0.294787
-0.247527
-0.201996
-0.160892
-0.125523
-0.0961746
-0.0725497
-0.0542376
-0.0411217
-0.0334217
-0.031024
-0.0323575
-0.0346349
-0.0317669
-0.0307128
-0.0305276
-0.0340961
-0.0423399
-0.0546104
-0.071748
-0.0967073
-0.130234
-0.164307
-0.183668
-0.17717
-0.149419
-0.114373
-0.083318
-0.0603737
-0.0440637
-0.0340428
-0.0300502
-0.0308822
-0.0314127
-0.0299967
-0.0301188
-0.0325135
-0.0396675
-0.0512535
-0.0705724
-0.0827938
-0.080979
-0.0698872
-0.0518174
-0.0390632
-0.0229296
-0.0107076
-0.00501884
-0.000931018
-0.000311239
-0.352991
-0.366667
-0.381152
-0.394547
-0.401883
-0.402606
-0.395675
-0.379557
-0.353855
-0.319873
-0.280249
-0.238274
-0.197041
-0.158778
-0.124708
-0.0953111
-0.0706061
-0.0503826
-0.0345267
-0.023243
-0.0168442
-0.0148147
-0.0150319
-0.0122396
-0.0146341
-0.0165277
-0.021794
-0.0313453
-0.0445522
-0.0621883
-0.0871883
-0.120786
-0.155807
-0.177193
-0.173225
-0.14729
-0.112987
-0.0819169
-0.0585675
-0.041613
-0.0307291
-0.0255001
-0.0252336
-0.0252822
-0.0238909
-0.0247793
-0.0281143
-0.036904
-0.0503469
-0.0723328
-0.086271
-0.0844102
-0.0721759
-0.0525541
-0.0389838
-0.0219346
-0.00887603
-0.00251767
0.00172899
0.000595843
-0.333367
-0.341712
-0.353182
-0.363776
-0.3692
-0.36925
-0.363086
-0.349282
-0.327534
-0.29886
-0.265162
-0.228826
-0.192203
-0.15714
-0.124828
-0.0959165
-0.0706969
-0.0492044
-0.0313891
-0.0173813
-0.00758005
-0.00219795
-0.000630812
-0.00277289
-0.000704659
-0.00343757
-0.00967618
-0.0198695
-0.0334531
-0.0510824
-0.0756409
-0.108873
-0.144432
-0.167808
-0.166821
-0.143474
-0.110669
-0.0801262
-0.0567461
-0.0394186
-0.0278783
-0.0216321
-0.0204247
-0.020067
-0.0185465
-0.0198877
-0.0237736
-0.0338039
-0.0488035
-0.0732973
-0.0888833
-0.0871346
-0.0739667
-0.0529617
-0.0387017
-0.0209555
-0.00714643
-0.000190333
0.00426089
0.00145355
-0.310636
-0.315056
-0.32425
-0.33208
-0.335646
-0.335497
-0.330654
-0.319637
-0.302174
-0.278902
-0.251025
-0.220171
-0.188085
-0.156308
-0.126018
-0.0980046
-0.0727507
-0.0505003
-0.0313261
-0.0153203
-0.00281473
0.00571057
0.0101257
0.0110367
0.0120961
0.00851905
0.00192012
-0.00833551
-0.0218073
-0.0391076
-0.0629354
-0.0952493
-0.130896
-0.15613
-0.158378
-0.138317
-0.107791
-0.0783127
-0.0552019
-0.0376992
-0.0256193
-0.018469
-0.0164179
-0.0157719
-0.014021
-0.015511
-0.0195424
-0.0304345
-0.0466438
-0.0733789
-0.0905111
-0.0891002
-0.0752561
-0.0530742
-0.0382263
-0.0199919
-0.00554838
0.0019195
0.00665994
0.00225943
-0.287756
-0.289585
-0.296956
-0.302125
-0.30429
-0.304478
-0.301231
-0.293144
-0.279913
-0.261773
-0.239361
-0.213701
-0.186021
-0.157568
-0.12946
-0.102587
-0.0775948
-0.0549034
-0.0347344
-0.0172084
-0.00256276
0.00875548
0.0162927
0.0202367
0.0228562
0.0188633
0.0126719
0.00298191
-0.00982293
-0.026348
-0.0492268
-0.080948
-0.116596
-0.142612
-0.148205
-0.131571
-0.104095
-0.0762675
-0.05371
-0.0362343
-0.0237816
-0.0158166
-0.012959
-0.0121857
-0.0103394
-0.0118568
-0.0155427
-0.026733
-0.0438067
-0.0726527
-0.0911018
-0.0901976
-0.0759368
-0.0528373
-0.0375136
-0.0189151
-0.00402909
0.00380211
0.00891457
0.00301007
-0.266958
-0.268982
-0.27325
-0.274714
-0.275303
-0.275249
-0.272808
-0.266844
-0.256932
-0.242972
-0.225192
-0.204134
-0.180593
-0.155517
-0.129901
-0.104659
-0.0805376
-0.0580952
-0.0377048
-0.019599
-0.00396868
0.00897342
0.0189099
0.0253661
0.0272107
0.0270891
0.0219018
0.0131932
0.00134528
-0.014293
-0.0359432
-0.066126
-0.100536
-0.126792
-0.133863
-0.121421
-0.0974947
-0.0718639
-0.0504189
-0.0335209
-0.0212803
-0.012964
-0.00954794
-0.00864247
-0.00690015
-0.00859298
-0.011928
-0.0230876
-0.040515
-0.070888
-0.0905635
-0.0903303
-0.0758085
-0.0519842
-0.0364331
-0.0175008
-0.00243284
0.00562227
0.0110537
0.00369898
-0.24867
-0.259195
-0.260155
-0.258658
-0.25749
-0.256192
-0.253152
-0.247124
-0.237549
-0.224359
-0.2078
-0.188351
-0.166673
-0.143567
-0.119882
-0.0964099
-0.0738069
-0.0525595
-0.0330098
-0.0153899
0.000113918
0.0133297
0.024041
0.0318059
0.0362387
0.0363972
0.0324594
0.0251529
0.0148295
0.000378378
-0.0211422
-0.053277
-0.0909648
-0.119873
-0.127962
-0.113506
-0.0898231
-0.0654248
-0.0453102
-0.0294361
-0.0178778
-0.00979413
-0.00631952
-0.00513155
-0.00301733
-0.00368485
-0.00688107
-0.0180442
-0.0360472
-0.0685578
-0.0905233
-0.0910989
-0.0755739
-0.050624
-0.0350772
-0.0159131
-0.000868542
0.00747296
0.013055
0.00432621
-0.227446
-0.240902
-0.242661
-0.239506
-0.236478
-0.233978
-0.230412
-0.224353
-0.2152
-0.202963
-0.187931
-0.170508
-0.151196
-0.130594
-0.109363
-0.0881436
-0.0674949
-0.0478609
-0.0295723
-0.0128765
0.00204678
0.0150808
0.0260582
0.0344406
0.0386949
0.0408823
0.0385889
0.0329687
0.0243682
0.0112444
-0.0100395
-0.0432663
-0.0818557
-0.109729
-0.115602
-0.101754
-0.0801008
-0.0581855
-0.0400505
-0.0255903
-0.0149054
-0.00713324
-0.00361832
-0.00232831
-0.000305549
-0.00096528
-0.003417
-0.0141839
-0.0322483
-0.0658772
-0.089376
-0.0899385
-0.0742286
-0.0487015
-0.0332185
-0.0142213
0.000511841
0.00911594
0.0146043
0.004835
-0.207691
-0.221833
-0.224009
-0.220291
-0.216213
-0.212924
-0.209115
-0.203332
-0.194922
-0.183886
-0.170485
-0.155038
-0.137906
-0.119533
-0.100437
-0.0811606
-0.0622027
-0.0439799
-0.026819
-0.0109701
0.0033699
0.0160497
0.0269216
0.035612
0.0410723
0.0437641
0.0426075
0.0383223
0.0309882
0.0185756
-0.00281436
-0.0355942
-0.071876
-0.0968701
-0.101566
-0.0892571
-0.0703271
-0.0510787
-0.0349094
-0.0218027
-0.0119888
-0.00460905
-0.00110205
0.000266072
0.00219246
0.00153741
-0.000709257
-0.011326
-0.0292977
-0.0627892
-0.0867911
-0.0876334
-0.0720818
-0.0463678
-0.0310459
-0.0124476
0.00189961
0.0106514
0.0159146
0.00529361
-0.189758
-0.202698
-0.205082
-0.201593
-0.197231
-0.193532
-0.189611
-0.184154
-0.176472
-0.166515
-0.15451
-0.140734
-0.125473
-0.109065
-0.0919217
-0.074488
-0.0571905
-0.0404003
-0.0244256
-0.00951075
0.00413956
0.0163351
0.026928
0.0356538
0.0417767
0.0450845
0.0450309
0.0420218
0.0358868
0.0242001
0.00324436
-0.0278245
-0.0609705
-0.0830438
-0.0867932
-0.0763084
-0.0603078
-0.043848
-0.0297228
-0.0180114
-0.00912636
-0.00222227
0.00123989
0.00270301
0.0045956
0.00402601
0.00185016
-0.00864784
-0.0261669
-0.0587008
-0.0829369
-0.0842877
-0.0691036
-0.0436275
-0.0285712
-0.0105455
0.0032909
0.0120382
0.0170368
0.00571424
-0.172075
-0.184027
-0.186651
-0.183597
-0.179307
-0.175458
-0.171527
-0.166405
-0.159424
-0.15048
-0.139761
-0.12751
-0.11396
-0.0993676
-0.0840445
-0.0683467
-0.0526354
-0.0372421
-0.0224566
-0.0085193
0.00436371
0.0159833
0.0261591
0.0346186
0.041063
0.0448708
0.0457119
0.0438151
0.0388588
0.028238
0.008565
-0.01997
-0.0494212
-0.0682413
-0.0714983
-0.0632333
-0.0503628
-0.0367316
-0.0246412
-0.0142975
-0.00634466
2.53139e-05
0.00340616
0.00497384
0.00686291
0.00640476
0.00437647
-0.00572424
-0.0223286
-0.0535228
-0.0777858
-0.0797003
-0.0652096
-0.0404622
-0.0258146
-0.00852061
0.00467041
0.0132436
0.0179444
0.00608346
-0.155115
-0.166313
-0.169024
-0.166368
-0.162325
-0.158544
-0.154737
-0.149997
-0.143709
-0.135735
-0.126216
-0.115361
-0.103361
-0.0904118
-0.0767531
-0.0626698
-0.0484663
-0.0344355
-0.0208433
-0.00792133
0.00412667
0.0150892
0.0247709
0.0329274
0.0393286
0.0433947
0.0448322
0.0437348
0.0397033
0.0302673
0.0126326
-0.0123082
-0.0372821
-0.0529148
-0.0564204
-0.0506335
-0.0408275
-0.0298813
-0.0197397
-0.0107091
-0.00366131
0.00213349
0.00539636
0.00706742
0.00899336
0.00865445
0.00686215
-0.00253146
-0.0178943
-0.0473483
-0.071236
-0.0737983
-0.0603785
-0.0368851
-0.0228188
-0.00638234
0.0060265
0.0142407
0.0185901
0.00638517
-0.139475
-0.149616
-0.152235
-0.149973
-0.146297
-0.142748
-0.139183
-0.134865
-0.129251
-0.122186
-0.113774
-0.104187
-0.0935882
-0.0821314
-0.0700017
-0.0574255
-0.0446556
-0.0319466
-0.0195382
-0.0076507
0.00351729
0.0137598
0.0228805
0.0306462
0.036841
0.0409793
0.0427771
0.0421925
0.0388016
0.0306149
0.0156908
-0.00486641
-0.0252731
-0.0384907
-0.0424496
-0.0390274
-0.0319736
-0.0234389
-0.0150978
-0.00730197
-0.00110025
0.00410305
0.00722289
0.0089884
0.0109985
0.0107958
0.00928077
0.000795184
-0.0130579
-0.0402422
-0.0633378
-0.0665993
-0.0546439
-0.0329302
-0.0196384
-0.00415181
0.00734793
0.0150083
0.018935
0.00661074
-0.124814
-0.13387
-0.1364
-0.134533
-0.131274
-0.128041
-0.124788
-0.120914
-0.115942
-0.109722
-0.102327
-0.0938995
-0.0845759
-0.0744804
-0.0637564
-0.0525827
-0.0411673
-0.0297293
-0.0184829
-0.00763365
0.00262884
0.0121078
0.0206099
0.0279112
0.0338064
0.0378945
0.0398991
0.0396777
0.0368528
0.0300504
0.0180576
0.00179094
-0.0145545
-0.0258211
-0.0302513
-0.0287775
-0.0239991
-0.0175147
-0.0107754
-0.00412035
0.00131389
0.00593626
0.00890372
0.0107481
0.0128899
0.0128538
0.0116258
0.00420227
-0.00787855
-0.0323526
-0.0543047
-0.0581969
-0.0481093
-0.028656
-0.0163383
-0.00186231
0.00862599
0.0155376
0.0189598
0.00675945
-0.111012
-0.11918
-0.121632
-0.120118
-0.11727
-0.114385
-0.111477
-0.108049
-0.103689
-0.0982521
-0.0917912
-0.084424
-0.0762631
-0.0674092
-0.0579746
-0.0481009
-0.0379585
-0.0277343
-0.0176175
-0.00779539
0.00155334
0.0102422
0.0180869
0.0248747
0.0304104
0.0343645
0.0364824
0.0365759
0.0343458
0.0289221
0.0195599
0.00694359
-0.00597949
-0.0155221
-0.0201204
-0.0200334
-0.0170008
-0.012179
-0.00681581
-0.00119801
0.00355409
0.00763315
0.0104505
0.0123566
0.0146754
0.0148727
0.013954
0.00773826
-0.00242219
-0.0239622
-0.0444916
-0.0489638
-0.040965
-0.024146
-0.0129882
0.000438749
0.00985818
0.0158424
0.0186748
0.00683864
-0.0982958
-0.105611
-0.107926
-0.106715
-0.104262
-0.101734
-0.0991813
-0.0961924
-0.0924086
-0.0876963
-0.0820914
-0.0756907
-0.0685881
-0.0608655
-0.0526116
-0.043939
-0.0349867
-0.0259125
-0.016882
-0.00806294
0.000379212
0.00827006
0.0154388
0.0216858
0.0268256
0.0305906
0.0327578
0.0331287
0.0314718
0.027256
0.0200525
0.0103922
0.000317719
-0.00760552
-0.0120086
-0.0127697
-0.0109922
-0.00746768
-0.00324833
0.00144322
0.00559301
0.00919068
0.0118643
0.0138175
0.0163472
0.0169096
0.0163696
0.011444
0.00314672
-0.0154675
-0.0343783
-0.0394964
-0.0334841
-0.0195059
-0.00965646
0.00268888
0.0110487
0.0159702
0.0181293
0.00686557
-0.0866478
-0.0930926
-0.0952423
-0.0943028
-0.092228
-0.0900506
-0.0878472
-0.0852779
-0.0820313
-0.0779837
-0.0731588
-0.0676362
-0.0614945
-0.0548006
-0.0476249
-0.0400571
-0.0322102
-0.0242165
-0.0162188
-0.00836647
-0.000809491
0.00629379
0.0127845
0.0184786
0.0232061
0.0267481
0.0289119
0.0295098
0.0283684
0.025175
0.019717
0.0124223
0.00468064
-0.00173865
-0.00568747
-0.00686404
-0.00593283
-0.00338799
-8.96895e-05
0.00379277
0.0074077
0.0105996
0.0131381
0.0151264
0.0178739
0.018976
0.0189383
0.0152964
0.00857614
-0.0073453
-0.0245179
-0.0301763
-0.0259787
-0.0148573
-0.00640579
0.00481336
0.0121998
0.0160059
0.0174192
0.00686874
-0.0759062
-0.0815588
-0.0835761
-0.0828803
-0.0811497
-0.0793013
-0.0774277
-0.0752488
-0.0724947
-0.0690514
-0.0649329
-0.0602044
-0.0549316
-0.0491695
-0.0429742
-0.0364168
-0.0295893
-0.0226017
-0.0155759
-0.00864259
-0.00193598
0.00440191
0.0102265
0.0153722
0.0196863
0.022986
0.0251087
0.0258916
0.0252078
0.0228819
0.0188346
0.0134135
0.00756056
0.00249743
-0.000863338
-0.00215527
-0.001752
7.54468e-05
0.00265363
0.00584859
0.00898599
0.0118415
0.0142575
0.0162744
0.0191958
0.020975
0.0215678
0.0191107
0.0135158
-8.24745e-05
-0.0154407
-0.0213432
-0.0187562
-0.0103303
-0.00329488
0.00673427
0.0132986
0.016056
0.0166782
0.00688437
-0.0661103
-0.0711224
-0.0729387
-0.072423
-0.0709919
-0.0694426
-0.0678729
-0.0660504
-0.0637418
-0.0608427
-0.0573593
-0.0533446
-0.0488536
-0.0439311
-0.0386221
-0.032983
-0.0270883
-0.0210288
-0.0149079
-0.0088383
-0.00293687
0.00266963
0.00785194
0.012466
0.0163766
0.0194285
0.0214885
0.0224222
0.0221367
0.0205419
0.0176345
0.01369
0.00935928
0.00547893
0.00274426
0.00152511
0.00163612
0.00295602
0.00498504
0.00761279
0.0103268
0.0128951
0.0151979
0.0172431
0.0202375
0.0227344
0.0238934
0.0224082
0.017517
0.00593825
-0.00749691
-0.0133583
-0.0121172
-0.00606048
-0.000382437
0.00838243
0.0143063
0.0162176
0.0160397
0.00694212
-0.0571783
-0.0615312
-0.0631976
-0.0628505
-0.0616953
-0.060423
-0.0591313
-0.0576304
-0.0557201
-0.0533061
-0.0503893
-0.047012
-0.0432196
-0.0390491
-0.0345363
-0.0297258
-0.0246775
-0.019466
-0.014178
-0.00890939
-0.00376138
0.00115692
0.00573248
0.00983918
0.0133625
0.01617
0.0181532
0.0192047
0.0192583
0.018272
0.0162798
0.0135024
0.0103867
0.00750551
0.00537627
0.00433876
0.00432318
0.00529947
0.00691829
0.00908967
0.0114332
0.0137482
0.0159332
0.017981
0.0209083
0.0241198
0.0254201
0.0246033
0.0202116
0.010526
-0.000858272
-0.00646892
-0.00630566
-0.00217553
0.00226836
0.00970696
0.015146
0.0165394
0.0155816
0.00704317
-0.0490703
-0.0528343
-0.0543269
-0.054138
-0.0532262
-0.0521992
-0.0511559
-0.0499402
-0.0483816
-0.046396
-0.0439799
-0.0411669
-0.0379942
-0.0344921
-0.0306891
-0.0266203
-0.0223335
-0.0178892
-0.0133593
-0.00882416
-0.004371
-9.17776e-05
0.00391677
0.00754706
0.0107037
0.0132742
0.0151695
0.0163067
0.0166397
0.0161495
0.0148864
0.0130221
0.0108763
0.00881562
0.00723942
0.00643445
0.006401
0.00715853
0.00847626
0.0102868
0.0123104
0.0143954
0.0164448
0.0184344
0.0210489
0.0231554
0.0257439
0.0254271
0.0215528
0.0136899
0.00437724
-0.000827336
-0.00145522
0.00122415
0.00459652
0.010686
0.0157079
0.0169654
0.0152785
0.00714527
-0.0417471
-0.045028
-0.0464172
-0.0462835
-0.0455543
-0.044734
-0.0439038
-0.0429348
-0.0416817
-0.0400696
-0.0380915
-0.0357736
-0.0331461
-0.0302335
-0.0270582
-0.0236475
-0.0200395
-0.0162825
-0.0124355
-0.00856461
-0.00474306
-0.00104995
0.00243449
0.00562198
0.0084371
0.010778
0.0125756
0.0137666
0.0143173
0.0142222
0.0135328
0.0123748
0.0109836
0.00959179
0.00850219
0.00794502
0.00795933
0.00858863
0.00968874
0.0112166
0.0129655
0.0148355
0.0167272
0.0186168
0.0209545
0.0231454
0.025233
0.0251086
0.0218054
0.0155987
0.00820824
0.00354835
0.00241237
0.00407082
0.00655744
0.0113391
0.0158957
0.0173014
0.01499
0.007164
-0.0351119
-0.0379363
-0.0391665
-0.0391429
-0.0385921
-0.037957
-0.0373157
-0.0365622
-0.0355738
-0.0342851
-0.0326872
-0.0308
-0.0286481
-0.026251
-0.0236261
-0.0207944
-0.0177858
-0.0146384
-0.0113999
-0.00812417
-0.00487178
-0.00170795
0.00130159
0.00409279
0.00657654
0.00869469
0.0103851
0.0115979
0.0123099
0.0125181
0.0122676
0.0116489
0.0108106
0.00997476
0.0093032
0.00898653
0.00908257
0.00964547
0.0105897
0.0118966
0.0134103
0.0150744
0.0167885
0.0185419
0.0205821
0.0225534
0.0241434
0.0240619
0.0213368
0.0165243
0.0107897
0.00676519
0.00537197
0.0063328
0.0081209
0.0117135
0.0156791
0.0172834
0.0145052
0.00699096
-0.0291404
-0.0315644
-0.032663
-0.0327091
-0.0323014
-0.031824
-0.0313454
-0.0307777
-0.0300164
-0.0290047
-0.0277335
-0.0262177
-0.024477
-0.0225266
-0.0203799
-0.018053
-0.0155687
-0.0129569
-0.0102558
-0.00750814
-0.00476272
-0.00207296
0.000506016
0.00292241
0.00510666
0.00701501
0.008592
0.00979836
0.0106184
0.0110483
0.0111267
0.0109206
0.0105229
0.0100945
0.00976118
0.00965917
0.00984792
0.0103829
0.0112162
0.0123486
0.0136602
0.015127
0.016652
0.0182325
0.0199581
0.0215965
0.0227543
0.0226504
0.0204632
0.0167641
0.0123779
0.00901412
0.0075563
0.00802237
0.00927352
0.0118444
0.0150793
0.0167203
0.0136478
0.00654798
-0.0237726
-0.0258488
-0.0268301
-0.0269332
-0.026652
-0.0262984
-0.0259511
-0.0255385
-0.0249691
-0.0241927
-0.0231996
-0.0220011
-0.0206125
-0.0190458
-0.0173111
-0.0154201
-0.0133903
-0.0112447
-0.00901295
-0.00672884
-0.00443145
-0.00216313
2.98371e-05
0.00210141
0.00400778
0.0057189
0.00717726
0.00835173
0.00923162
0.00981292
0.0101259
0.0102106
0.0101519
0.0100369
0.00996949
0.0100475
0.0103246
0.0108527
0.0116057
0.0125972
0.0137355
0.0150168
0.0163469
0.0177305
0.0191474
0.0204479
0.0212584
0.0211181
0.0193982
0.0165682
0.0132393
0.0104903
0.00909346
0.00919036
0.0100232
0.0117533
0.0141645
0.0155913
0.0124009
0.00585325
-0.0189576
-0.0207323
-0.0216063
-0.0217503
-0.0215707
-0.0213296
-0.0210884
-0.0208027
-0.0203933
-0.0198147
-0.0190567
-0.0181269
-0.0170373
-0.0157972
-0.0144139
-0.0128963
-0.0112569
-0.00951305
-0.0076875
-0.00580672
-0.00390141
-0.00200389
-0.000150707
0.00162059
0.00328312
0.00478245
0.00611051
0.00722943
0.00813004
0.0088057
0.009278
0.0095723
0.00974946
0.00986699
0.0100015
0.010222
0.0105741
0.0111031
0.011795
0.0126707
0.0136596
0.0147689
0.015907
0.017084
0.0182017
0.0192219
0.0197732
0.0196045
0.0182706
0.0161085
0.0135888
0.0113684
0.0100994
0.00991431
0.010404
0.0114663
0.0130417
0.0140736
0.0109109
0.00501522
-0.0146516
-0.0161645
-0.0169413
-0.017116
-0.0170215
-0.0168761
-0.0167316
-0.0165421
-0.0162579
-0.0158399
-0.015278
-0.0145741
-0.0137363
-0.0127716
-0.0116856
-0.0104842
-0.00917694
-0.00777648
-0.00629993
-0.00476736
-0.00320219
-0.00162975
-7.80536e-05
0.00142457
0.00284943
0.00416824
0.00535597
0.00639656
0.00728849
0.00801183
0.00858176
0.00901478
0.00935283
0.00963441
0.00991431
0.0102405
0.0106495
0.0111787
0.0118206
0.0125988
0.013457
0.014409
0.0153692
0.0163514
0.0172334
0.0180012
0.0183626
0.0181783
0.0171509
0.015495
0.0135817
0.0117968
0.0106801
0.01028
0.010473
0.0110164
0.011821
0.0124254
0.00935403
0.00416159
-0.0108078
-0.0120947
-0.0127845
-0.0129809
-0.0129544
-0.0128849
-0.0128168
-0.0127148
-0.0125284
-0.0122279
-0.011837
-0.0113234
-0.0106962
-0.00996188
-0.00912483
-0.0081893
-0.00716201
-0.00605225
-0.00487266
-0.00363813
-0.00236627
-0.00107628
0.000210585
0.00147284
0.0026885
0.00383636
0.00489902
0.00585912
0.00669831
0.00742155
0.00803651
0.00854904
0.00898753
0.00937596
0.00975265
0.0101503
0.0105963
0.0111201
0.0117173
0.0124103
0.0131541
0.0139655
0.0147657
0.0155718
0.0162592
0.0168274
0.0170551
0.0168657
0.0160736
0.0147976
0.0133335
0.0118902
0.0109253
0.0103645
0.010298
0.0104415
0.0105659
0.0102963
0.00784111
0.0033835
-0.00738426
-0.00847764
-0.00909047
-0.0093024
-0.00933161
-0.00932587
-0.00932387
-0.00929986
-0.00921498
-0.00904514
-0.00875256
-0.0083752
-0.0079124
-0.00736434
-0.00673195
-0.00601701
-0.00522352
-0.00435785
-0.00342913
-0.00244793
-0.00142722
-0.000381258
0.000674216
0.00172295
0.00274813
0.00373272
0.00466225
0.00552276
0.00630612
0.00700682
0.00762972
0.00817756
0.00866884
0.00911797
0.00955098
0.00998952
0.0104529
0.0109634
0.0115172
0.0121338
0.0127772
0.0134644
0.0141255
0.0147776
0.0153078
0.0157228
0.0158585
0.0156718
0.0150548
0.0140608
0.0129231
0.0117303
0.0107962
0.0102294
0.00995059
0.00979308
0.00943433
0.00884756
0.00653956
0.00273045
-0.00434258
-0.00527033
-0.00581453
-0.00603546
-0.00610747
-0.00615035
-0.00619642
-0.00622513
-0.00620413
-0.00611138
-0.00593792
-0.0056853
-0.00535966
-0.00496548
-0.00450217
-0.00396976
-0.00337137
-0.00271015
-0.00199221
-0.00122504
-0.00041796
0.000418617
0.00127302
0.00213312
0.00298616
0.00381905
0.00462065
0.00538006
0.00609082
0.00674638
0.0073487
0.00789786
0.00840518
0.00887862
0.00933511
0.00978852
0.0102513
0.0107396
0.0112495
0.0117966
0.0123514
0.0129299
0.0134718
0.0139929
0.0143995
0.0146976
0.0147699
0.0145901
0.0141003
0.0133141
0.0124125
0.011419
0.0106077
0.00995856
0.00949193
0.00910547
0.00842839
0.00757498
0.00545543
0.00220773
-0.00164763
-0.00243404
-0.00291741
-0.0031426
-0.00324755
-0.00332839
-0.00341196
-0.00348247
-0.00351425
-0.00348957
-0.00340173
-0.00325099
-0.00303965
-0.00276809
-0.00243791
-0.0020486
-0.0016164
-0.00112639
-0.000584331
3.55939e-06
0.000630225
0.00128818
0.00196893
0.00266362
0.00336285
0.00405679
0.0047367
0.00539395
0.0060232
0.00661838
0.00717938
0.00770455
0.00820014
0.00866992
0.00912402
0.00957084
0.0100177
0.0104755
0.0109396
0.0114223
0.0118987
0.0123822
0.0128236
0.0132358
0.0135449
0.0137538
0.013782