/*--------------------------------*- C++ -*----------------------------------*\
| =========                 |                                                 |
| \\      /  F ield         | OpenFOAM: The Open Source CFD Toolbox           |
|  \\    /   O peration     | Version:  2512                                  |
|   \\  /    A nd           | Website:  www.openfoam.com                      |
|    \\/     M anipulation  |                                                 |
\*---------------------------------------------------------------------------*/
FoamFile
{
    version     2.0;
    format      ascii;
    arch        "LSB;label=32;scalar=64";
    class       volScalarField;
    location    "154";
    object      p;
}
// * * * * * * * * * * * * * * * * * * * * * * * * * * * * * * * * * * * * * //

dimensions      [0 2 -2 0 0 0 0];

internalField   nonuniform List<scalar> 
13248
(
-0.465962
-0.462855
-0.459129
-0.455113
-0.451232
-0.447943
-0.445548
-0.444138
-0.443587
-0.443561
-0.443559
-0.44297
-0.441156
-0.437537
-0.431664
-0.423276
-0.412318
-0.398922
-0.383349
-0.365954
-0.346968
-0.326783
-0.304437
-0.280825
-0.475017
-0.47133
-0.467027
-0.462432
-0.457924
-0.453906
-0.450598
-0.447993
-0.445863
-0.443802
-0.441284
-0.437755
-0.432715
-0.425796
-0.416802
-0.405719
-0.392684
-0.377941
-0.361777
-0.344472
-0.326251
-0.30732
-0.287539
-0.267738
-0.486217
-0.481662
-0.476638
-0.471406
-0.466226
-0.461394
-0.457007
-0.45293
-0.448845
-0.44432
-0.438896
-0.432174
-0.423882
-0.413902
-0.402269
-0.38914
-0.37474
-0.359317
-0.343104
-0.326306
-0.309065
-0.291565
-0.273699
-0.255975
-0.49959
-0.493902
-0.488011
-0.482044
-0.476065
-0.470213
-0.464431
-0.458462
-0.451951
-0.444533
-0.43592
-0.425948
-0.414595
-0.401963
-0.388236
-0.373635
-0.358378
-0.342654
-0.326623
-0.310409
-0.294121
-0.277883
-0.261657
-0.245926
-0.515015
-0.507988
-0.501095
-0.494259
-0.487268
-0.480066
-0.472442
-0.464078
-0.454676
-0.44405
-0.43216
-0.4191
-0.405057
-0.390264
-0.374955
-0.359328
-0.343543
-0.327714
-0.311927
-0.296248
-0.280735
-0.265451
-0.250385
-0.235816
-0.532261
-0.523762
-0.51576
-0.507884
-0.499571
-0.490558
-0.480538
-0.469236
-0.45654
-0.442535
-0.427451
-0.411594
-0.395275
-0.378761
-0.362253
-0.345888
-0.329748
-0.313881
-0.298314
-0.283069
-0.268166
-0.25363
-0.239459
-0.225823
-0.550968
-0.540946
-0.531747
-0.522603
-0.512546
-0.501142
-0.488107
-0.473363
-0.457102
-0.439713
-0.421658
-0.403366
-0.385171
-0.367297
-0.349874
-0.33296
-0.316569
-0.300694
-0.285319
-0.270431
-0.256019
-0.242075
-0.228601
-0.215641
-0.570611
-0.559091
-0.548604
-0.537884
-0.525545
-0.511093
-0.494448
-0.475883
-0.455959
-0.43534
-0.414629
-0.394271
-0.374548
-0.355597
-0.337461
-0.320126
-0.303551
-0.287686
-0.272484
-0.257902
-0.243908
-0.230474
-0.217594
-0.205216
-0.590448
-0.577522
-0.565635
-0.552938
-0.537701
-0.519557
-0.498832
-0.476265
-0.452776
-0.429214
-0.40621
-0.384144
-0.363192
-0.343393
-0.324708
-0.307062
-0.290369
-0.274546
-0.259521
-0.245229
-0.231616
-0.218646
-0.206289
-0.194423
-0.609506
-0.595316
-0.581869
-0.566718
-0.547959
-0.525601
-0.500549
-0.474039
-0.447264
-0.421138
-0.396223
-0.372777
-0.350858
-0.330407
-0.311316
-0.29346
-0.276719
-0.260984
-0.24616
-0.232164
-0.218927
-0.2064
-0.194522
-0.183145
-0.626604
-0.611306
-0.596083
-0.57796
-0.555132
-0.528234
-0.498849
-0.46865
-0.438979
-0.410702
-0.384243
-0.359718
-0.337066
-0.316147
-0.296792
-0.278839
-0.262139
-0.246561
-0.231989
-0.218326
-0.20549
-0.193414
-0.181998
-0.171117
-0.640471
-0.624248
-0.607011
-0.585406
-0.558054
-0.526436
-0.492841
-0.459279
-0.427117
-0.397084
-0.369427
-0.344114
-0.320972
-0.299786
-0.280339
-0.262435
-0.245898
-0.230579
-0.216347
-0.203091
-0.190722
-0.179155
-0.168261
-0.157981
-0.362372
-0.364346
-0.365625
-0.36671
-0.368047
-0.369776
-0.371927
-0.374485
-0.377399
-0.380597
-0.383988
-0.387456
-0.390867
-0.394066
-0.396584
-0.398487
-0.399412
-0.399084
-0.397252
-0.393706
-0.388315
-0.381039
-0.371962
-0.361378
-0.376304
-0.377623
-0.378664
-0.379832
-0.381496
-0.383798
-0.38677
-0.390391
-0.394609
-0.399344
-0.404495
-0.40993
-0.415474
-0.420901
-0.425904
-0.430103
-0.433221
-0.434823
-0.434491
-0.43184
-0.426558
-0.418409
-0.407231
-0.393333
-0.390037
-0.390572
-0.391267
-0.392408
-0.394274
-0.397002
-0.400626
-0.405118
-0.41042
-0.416444
-0.423072
-0.430151
-0.437469
-0.444755
-0.451654
-0.457749
-0.462564
-0.465567
-0.466193
-0.463894
-0.458202
-0.448739
-0.435148
-0.417294
-0.402929
-0.40262
-0.402877
-0.403857
-0.405748
-0.408682
-0.412698
-0.417766
-0.423814
-0.430743
-0.438415
-0.44665
-0.455201
-0.463764
-0.471901
-0.479143
-0.484908
-0.488556
-0.489396
-0.486756
-0.480042
-0.468772
-0.452548
-0.431225
-0.414452
-0.413331
-0.413083
-0.413755
-0.415454
-0.418321
-0.422406
-0.42768
-0.434063
-0.441439
-0.449649
-0.458483
-0.467662
-0.476821
-0.485495
-0.49313
-0.499075
-0.502599
-0.502931
-0.49932
-0.491115
-0.477775
-0.459238
-0.434492
-0.424274
-0.422459
-0.421679
-0.421901
-0.423184
-0.425692
-0.4295
-0.434589
-0.440878
-0.448235
-0.456479
-0.465372
-0.474596
-0.483742
-0.492299
-0.49965
-0.505081
-0.507804
-0.507009
-0.501921
-0.491938
-0.476457
-0.456075
-0.428651
-0.432308
-0.429981
-0.428681
-0.42834
-0.429009
-0.43089
-0.434098
-0.43864
-0.444443
-0.451366
-0.459211
-0.467706
-0.476485
-0.485102
-0.492992
-0.49948
-0.503805
-0.505152
-0.502716
-0.495756
-0.483842
-0.466347
-0.444561
-0.415568
-0.438723
-0.436094
-0.43432
-0.433344
-0.433251
-0.434297
-0.436652
-0.440361
-0.44537
-0.45154
-0.458648
-0.466381
-0.474345
-0.482016
-0.488771
-0.49389
-0.496581
-0.496036
-0.491522
-0.482413
-0.468521
-0.449351
-0.426599
-0.397255
-0.44393
-0.44119
-0.438999
-0.437359
-0.436424
-0.436518
-0.437869
-0.44057
-0.444591
-0.449789
-0.455921
-0.462636
-0.469459
-0.475802
-0.480981
-0.484232
-0.484772
-0.481869
-0.474947
-0.463608
-0.447921
-0.427671
-0.404578
-0.375989
-0.448531
-0.445799
-0.443239
-0.440944
-0.439162
-0.438282
-0.43859
-0.44022
-0.443161
-0.447267
-0.45225
-0.45769
-0.463037
-0.467633
-0.470738
-0.471592
-0.46949
-0.463866
-0.454385
-0.440969
-0.423942
-0.403444
-0.380964
-0.354121
-0.453254
-0.45054
-0.447626
-0.444705
-0.442124
-0.440323
-0.439629
-0.440201
-0.442031
-0.444933
-0.448561
-0.452416
-0.455874
-0.458222
-0.458727
-0.456709
-0.451624
-0.443141
-0.431184
-0.41598
-0.398016
-0.377858
-0.356755
-0.332671
-0.45885
-0.456042
-0.452743
-0.449235
-0.445931
-0.443306
-0.441696
-0.441252
-0.441928
-0.443478
-0.445477
-0.447352
-0.448432
-0.44802
-0.445475
-0.440288
-0.432148
-0.420971
-0.406889
-0.390263
-0.371492
-0.351333
-0.330487
-0.309068
-0.347944
-0.330918
-0.314654
-0.300628
-0.290411
-0.285246
-0.285447
-0.290192
-0.297282
-0.303584
-0.30487
-0.297646
-0.279558
-0.25092
-0.215411
-0.179046
-0.147676
-0.124967
-0.1119
-0.107621
-0.11126
-0.123439
-0.144714
-0.171207
-0.192856
-0.198149
-0.183137
-0.154864
-0.123858
-0.0979103
-0.080256
-0.0707158
-0.0676872
-0.0713305
-0.083299
-0.100993
-0.114553
-0.113773
-0.100794
-0.0828511
-0.068114
-0.0590519
-0.0553425
-0.0591879
-0.069019
-0.0765788
-0.0748951
-0.0654756
-0.0545841
-0.0457991
-0.0392987
-0.0376395
-0.0364042
-0.0350836
-0.0335953
-0.0296948
-0.0212215
-0.0158389
-0.0108016
-0.00487592
-0.376119
-0.351877
-0.3271
-0.303246
-0.282234
-0.266046
-0.256064
-0.252179
-0.252527
-0.256204
-0.256879
-0.251171
-0.237082
-0.214512
-0.186307
-0.157424
-0.132898
-0.116044
-0.107816
-0.107583
-0.115046
-0.131361
-0.156877
-0.186803
-0.209999
-0.214237
-0.196539
-0.164606
-0.130106
-0.101213
-0.080977
-0.069058
-0.0637651
-0.0648444
-0.073763
-0.0887116
-0.100891
-0.100501
-0.0904627
-0.0757786
-0.0642075
-0.0579057
-0.0567577
-0.0632377
-0.0757158
-0.084723
-0.082733
-0.0712896
-0.0578868
-0.0469246
-0.0383517
-0.0350374
-0.0320415
-0.0306051
-0.0292621
-0.0265287
-0.0198994
-0.0157969
-0.0122725
-0.00592325
-0.397909
-0.366833
-0.334689
-0.30212
-0.271217
-0.244557
-0.224636
-0.211488
-0.204737
-0.202199
-0.203308
-0.199201
-0.189171
-0.173174
-0.152668
-0.13164
-0.114307
-0.103546
-0.100224
-0.103975
-0.115112
-0.135197
-0.16434
-0.197083
-0.221623
-0.225538
-0.206043
-0.171498
-0.134362
-0.103164
-0.0808094
-0.0668103
-0.0594471
-0.0581191
-0.0640405
-0.0762022
-0.0870414
-0.0866498
-0.0797851
-0.0682057
-0.0597138
-0.0561739
-0.0576473
-0.0667745
-0.0818703
-0.0923422
-0.0901338
-0.0767556
-0.0608533
-0.0478061
-0.0373376
-0.0325553
-0.0278953
-0.0262462
-0.0249012
-0.0233
-0.0185307
-0.0157222
-0.0137308
-0.00698016
-0.408694
-0.374216
-0.335857
-0.296427
-0.257553
-0.221726
-0.193853
-0.171641
-0.156622
-0.149959
-0.146399
-0.144817
-0.1385
-0.128858
-0.115958
-0.102661
-0.0923587
-0.0874597
-0.0886896
-0.0960406
-0.110424
-0.133753
-0.165994
-0.201193
-0.227195
-0.231583
-0.211364
-0.175338
-0.136534
-0.103784
-0.0798709
-0.0641831
-0.0550153
-0.0515048
-0.0546013
-0.0640181
-0.0736495
-0.077706
-0.0691719
-0.060317
-0.0547226
-0.0538428
-0.0578759
-0.0695588
-0.0872054
-0.099179
-0.0968719
-0.08177
-0.0634485
-0.0484341
-0.0362613
-0.0302091
-0.0240029
-0.0220515
-0.0205642
-0.0200414
-0.0171297
-0.0156126
-0.0151627
-0.00803724
-0.409645
-0.372554
-0.330787
-0.287137
-0.243331
-0.202003
-0.165942
-0.135584
-0.110558
-0.102841
-0.0944205
-0.0908956
-0.0880703
-0.0833435
-0.0774767
-0.0712468
-0.0673622
-0.0676984
-0.0729058
-0.0834217
-0.100668
-0.126809
-0.161693
-0.199067
-0.226654
-0.232241
-0.212439
-0.176163
-0.136765
-0.103241
-0.078321
-0.0613613
-0.0507014
-0.045308
-0.0458064
-0.0525404
-0.0606252
-0.0641704
-0.0584558
-0.052262
-0.0493016
-0.0508799
-0.0573138
-0.0713918
-0.0914758
-0.10497
-0.102708
-0.0862311
-0.0656509
-0.0488141
-0.0351289
-0.028002
-0.0203908
-0.0180617
-0.0163029
-0.0167866
-0.0157097
-0.0154661
-0.0165519
-0.00908338
-0.40173
-0.363631
-0.321546
-0.276818
-0.230874
-0.186244
-0.14524
-0.109407
-0.0805377
-0.0618468
-0.0491691
-0.0427444
-0.040514
-0.0392644
-0.0386224
-0.0381973
-0.0397832
-0.0445395
-0.0532169
-0.0666046
-0.0864671
-0.115041
-0.152051
-0.191232
-0.220481
-0.22771
-0.209347
-0.174076
-0.13521
-0.101702
-0.0763086
-0.0584773
-0.0466461
-0.0397036
-0.0379312
-0.0421088
-0.0485004
-0.0516643
-0.0480504
-0.0442114
-0.0435302
-0.0472868
-0.0558919
-0.072131
-0.0944762
-0.109487
-0.107467
-0.0900555
-0.0674451
-0.0489519
-0.0339412
-0.0259235
-0.0170745
-0.0143089
-0.0121658
-0.0135642
-0.0142819
-0.0152793
-0.0178794
-0.0101072
-0.387066
-0.349469
-0.309866
-0.267143
-0.221951
-0.176849
-0.134032
-0.0951191
-0.0619258
-0.036209
-0.0176446
-0.00620069
-0.000970765
-0.000178961
-0.00170748
-0.0052464
-0.0108115
-0.0190848
-0.0307659
-0.0468047
-0.069077
-0.0996966
-0.13824
-0.178697
-0.209449
-0.218616
-0.202497
-0.169355
-0.132072
-0.0993354
-0.0739665
-0.0556251
-0.0429246
-0.0347503
-0.0310843
-0.0329256
-0.0376117
-0.04042
-0.0382881
-0.0363617
-0.0375339
-0.0431237
-0.0535888
-0.0716848
-0.0960706
-0.11259
-0.11101
-0.0931696
-0.0688152
-0.0488531
-0.0327006
-0.0239536
-0.0140517
-0.0108149
-0.00819701
-0.0103964
-0.0128559
-0.0150479
-0.0191273
-0.0110978
-0.367909
-0.33209
-0.296927
-0.258443
-0.216388
-0.173395
-0.131465
-0.091929
-0.0562661
-0.0259657
-0.00183596
0.0155166
0.0259587
0.0301059
0.0293046
0.0247039
0.0171733
0.00661381
-0.00741515
-0.0257735
-0.0501516
-0.0823258
-0.121732
-0.162805
-0.194641
-0.205753
-0.192432
-0.162328
-0.127531
-0.0962533
-0.0713719
-0.0528531
-0.0395664
-0.0304621
-0.0252737
-0.0250685
-0.0281268
-0.030544
-0.0294057
-0.0289041
-0.0314699
-0.0384845
-0.0504488
-0.0700327
-0.0962099
-0.114222
-0.113228
-0.0955195
-0.0697535
-0.0485303
-0.0314168
-0.0220869
-0.0113121
-0.00758922
-0.00443513
-0.00729884
-0.0114403
-0.014768
-0.0202783
-0.0120448
-0.346662
-0.313822
-0.284009
-0.250622
-0.212988
-0.173803
-0.134679
-0.0965504
-0.0606293
-0.0282484
-0.000441877
0.0219493
0.038142
0.0477016
0.0507788
0.0479701
0.0409324
0.0298297
0.0145584
-0.00542236
-0.0313313
-0.064422
-0.103966
-0.144873
-0.177142
-0.189963
-0.179816
-0.15347
-0.121903
-0.0926792
-0.0687084
-0.0503123
-0.0366877
-0.0269141
-0.0205428
-0.0185996
-0.0201303
-0.0220769
-0.021541
-0.0220024
-0.0255166
-0.0334963
-0.0465022
-0.0672093
-0.0949278
-0.114391
-0.114095
-0.0971066
-0.0703012
-0.048043
-0.0301209
-0.0203452
-0.00887986
-0.00463636
-0.000910183
-0.00427986
-0.0100434
-0.0144363
-0.0213161
-0.0129384
-0.325893
-0.297154
-0.272527
-0.24378
-0.210727
-0.176002
-0.140594
-0.105115
-0.0704748
-0.0378827
-0.00851042
0.0167041
0.0369607
0.0515293
0.0597441
0.061424
0.0573713
0.0477691
0.0327619
0.0122963
-0.0141482
-0.0471625
-0.0859031
-0.125835
-0.157888
-0.172119
-0.165539
-0.14357
-0.11585
-0.0891764
-0.0664649
-0.0484061
-0.0345914
-0.0243112
-0.01699
-0.013563
-0.0136762
-0.015073
-0.0150872
-0.0158016
-0.0198028
-0.0282919
-0.0419599
-0.0633676
-0.0922252
-0.113219
-0.113995
-0.0979278
-0.070536
-0.0474942
-0.0288628
-0.01872
-0.00679871
-0.00199763
0.00234107
-0.00133916
-0.00867496
-0.0140481
-0.0222248
-0.013768
-0.307661
-0.284374
-0.264106
-0.238921
-0.210082
-0.17977
-0.148229
-0.11584
-0.083236
-0.0514326
-0.021451
0.00574083
0.0290336
0.04742
0.0600802
0.0652212
0.0653296
0.0591458
0.0462219
0.0266746
0.000717252
-0.0314891
-0.0688705
-0.106962
-0.137706
-0.153119
-0.149808
-0.132586
-0.109286
-0.0856231
-0.0644984
-0.0469684
-0.0330717
-0.0224264
-0.0143578
-0.0096509
-0.00846986
-0.00937033
-0.00952388
-0.0105105
-0.0146023
-0.0229572
-0.0366909
-0.0585135
-0.0884628
-0.110899
-0.120763
-0.0977878
-0.0702881
-0.0467711
-0.0275726
-0.0170739
-0.00492549
0.000317358
0.00521435
0.0015297
-0.00733724
-0.013601
-0.0229917
-0.0145185
-0.290723
-0.27508
-0.257956
-0.235297
-0.210474
-0.184571
-0.156983
-0.127895
-0.0980787
-0.0684385
-0.0398407
-0.0130244
0.0111908
0.0323309
0.04858
0.0599545
0.0639959
0.0616789
0.0525336
0.036052
0.0127082
-0.0167812
-0.0509774
-0.0859913
-0.114843
-0.13023
-0.13001
-0.117858
-0.0992926
-0.0790117
-0.0599944
-0.0435712
-0.0301083
-0.0195843
-0.0112944
-0.00578257
-0.00354194
-0.0040582
-0.00456698
-0.00583952
-0.0100098
-0.0180336
-0.0314723
-0.0530569
-0.0832875
-0.106645
-0.11569
-0.0957849
-0.0688552
-0.0452071
-0.0258444
-0.0151688
-0.00283182
0.00262744
0.00785977
0.00428539
-0.00606129
-0.0130871
-0.0235966
-0.0151854
-0.264862
-0.263313
-0.245699
-0.222379
-0.198665
-0.174677
-0.149388
-0.122663
-0.0950945
-0.0674737
-0.0405807
-0.0151014
0.00838222
0.0291154
0.0452176
0.0564489
0.0623183
0.0624002
0.0554641
0.0407861
0.0188221
-0.00950156
-0.0427546
-0.0767668
-0.104118
-0.117874
-0.116637
-0.105177
-0.0883298
-0.0700952
-0.0529469
-0.0379645
-0.0254554
-0.0155057
-0.00747103
-0.00177872
0.0011332
0.00118189
0.000846252
0.000274101
-0.00378353
-0.0110045
-0.0241566
-0.0462541
-0.0783045
-0.103804
-0.113621
-0.0940752
-0.0666281
-0.0428008
-0.0236457
-0.0131854
-0.000568644
0.00509068
0.0111442
0.00719599
-0.00476763
-0.0125118
-0.024084
-0.015796
-0.240188
-0.24229
-0.226335
-0.203965
-0.181854
-0.160348
-0.138028
-0.114344
-0.0897353
-0.0649648
-0.0407389
-0.0176795
0.00364366
0.0225005
0.0377789
0.0489291
0.0552977
0.0561856
0.0505436
0.0377131
0.0180162
-0.00759637
-0.0373927
-0.0671302
-0.0899699
-0.100974
-0.0997533
-0.0901307
-0.0761125
-0.0607321
-0.0459459
-0.0326805
-0.0212807
-0.0120297
-0.00438688
0.00130092
0.00453937
0.00483516
0.00445509
0.00350614
0.000407001
-0.00592917
-0.0183836
-0.0404062
-0.0732925
-0.0994542
-0.108344
-0.0903206
-0.0632555
-0.0399696
-0.0212928
-0.011055
0.00147056
0.00698137
0.0135877
0.00942476
-0.00370368
-0.0120256
-0.0243272
-0.0161765
-0.218145
-0.220539
-0.207181
-0.187202
-0.167181
-0.148003
-0.128342
-0.10744
-0.0855697
-0.0634362
-0.0417143
-0.0209772
-0.00172021
0.0154563
0.0296299
0.0400785
0.0461631
0.0472533
0.042535
0.0315158
0.0145268
-0.00734122
-0.032127
-0.0561584
-0.0746315
-0.083851
-0.083427
-0.0761838
-0.0650246
-0.0522491
-0.0395289
-0.0277831
-0.0173902
-0.00877054
-0.00153281
0.00403149
0.00747994
0.00803456
0.00770359
0.00664253
0.00389395
-0.0020681
-0.0141493
-0.0358043
-0.0679363
-0.0932546
-0.101896
-0.0854179
-0.0593159
-0.0368479
-0.0187921
-0.0088491
0.00345743
0.0087679
0.0157554
0.0112562
-0.0028045
-0.0115561
-0.0242903
-0.0163727
-0.197024
-0.199798
-0.189045
-0.171744
-0.153872
-0.136761
-0.11943
-0.101071
-0.0817828
-0.0621606
-0.0428268
-0.0242908
-0.0070071
0.00843589
0.0213128
0.0309595
0.0367748
0.0382061
0.0346335
0.0257304
0.0118599
-0.00588956
-0.0257918
-0.0450856
-0.0601346
-0.0680932
-0.0686322
-0.0634509
-0.0547035
-0.0442053
-0.0333681
-0.0230701
-0.0136815
-0.00570417
0.0010954
0.00645309
0.0100305
0.0108993
0.0107558
0.00984079
0.00732107
0.00164324
-0.0100994
-0.0308519
-0.0613992
-0.0858334
-0.0944527
-0.0794007
-0.0547331
-0.0333885
-0.0161465
-0.00655774
0.00540054
0.0104681
0.0177205
0.012916
-0.00193195
-0.0109889
-0.0239698
-0.0163857
-0.177225
-0.180628
-0.172011
-0.157154
-0.141397
-0.126255
-0.111059
-0.095045
-0.0781769
-0.060924
-0.0438449
-0.0274155
-0.0120695
0.00170407
0.0133173
0.0221981
0.027813
0.0296872
0.0273668
0.0206445
0.00983518
-0.00415441
-0.0199146
-0.0352648
-0.0474498
-0.0543657
-0.0555619
-0.0520334
-0.0453198
-0.0368014
-0.0276338
-0.0186548
-0.0102247
-0.00287495
0.00348873
0.00858779
0.0122134
0.013389
0.013524
0.0128748
0.0107119
0.00553219
-0.00548745
-0.0248504
-0.0537698
-0.0773287
-0.08563
-0.0722893
-0.0495211
-0.0296297
-0.0133831
-0.00420891
0.00730123
0.0120483
0.0194313
0.0144553
-0.00101762
-0.0102841
-0.0233379
-0.0161786
-0.15947
-0.162987
-0.156012
-0.143352
-0.129652
-0.116413
-0.103195
-0.0893244
-0.0746883
-0.0596432
-0.044681
-0.0302451
-0.0167352
-0.00448263
0.00595576
0.0141032
0.0195065
0.021774
0.020577
0.0157851
0.00764938
-0.00309941
-0.0152931
-0.0272464
-0.0369701
-0.0428573
-0.0444001
-0.0420976
-0.0369846
-0.0300972
-0.0223638
-0.0145633
-0.00703786
-0.000303663
0.00563688
0.0104494
0.0140497
0.0154984
0.0159918
0.0157325
0.0140345
0.0095989
-0.000336281
-0.0181037
-0.0452846
-0.06774
-0.0757276
-0.0642222
-0.043748
-0.0256164
-0.0105328
-0.00183178
0.00915398
0.0134976
0.0208413
0.0158345
-4.51957e-05
-0.00941805
-0.022327
-0.0157056
-0.14323
-0.146608
-0.141041
-0.130382
-0.118617
-0.107174
-0.095774
-0.0838469
-0.0712435
-0.0582282
-0.0452195
-0.0326267
-0.0208822
-0.00995517
-0.000622383
0.00680288
0.0119555
0.0145185
0.0142495
0.0110743
0.00520548
-0.00277661
-0.0119487
-0.021039
-0.0286529
-0.0335166
-0.035109
-0.0336107
-0.0296911
-0.024115
-0.0175985
-0.0108348
-0.00414598
0.00198995
0.00752546
0.0120539
0.0155744
0.0172567
0.0181491
0.0183972
0.0172623
0.0137225
0.00504312
-0.0109488
-0.0360785
-0.0572653
-0.0650505
-0.0554056
-0.037522
-0.0214088
-0.00763383
0.000543226
0.0109535
0.0148217
0.0219147
0.0170117
0.00102483
-0.00833003
-0.0208649
-0.0149223
-0.128097
-0.13149
-0.12717
-0.118277
-0.108267
-0.0984711
-0.0887254
-0.0785479
-0.0677756
-0.0565994
-0.0453573
-0.0343747
-0.02389
-0.0145588
-0.00632788
0.00039081
0.00526463
0.00803426
0.00851897
0.00667821
0.00268787
-0.0030114
-0.00972236
-0.0164499
-0.0222287
-0.0260806
-0.0274968
-0.0264691
-0.0234085
-0.0188611
-0.013359
-0.00749359
-0.00156259
0.00399971
0.0091437
0.013413
0.0168257
0.0186961
0.0199763
0.0208155
0.0203582
0.0178167
0.0105194
-0.00353019
-0.0264292
-0.0462684
-0.0538689
-0.0461162
-0.0309994
-0.0170823
-0.00472881
0.00288714
0.0126929
0.0160434
0.0226386
0.0179926
0.00228302
-0.00693413
-0.0188935
-0.0137898
-0.114314
-0.117678
-0.114362
-0.106989
-0.0985441
-0.0902394
-0.0819846
-0.0733734
-0.0642417
-0.0547237
-0.045097
-0.0356508
-0.0266477
-0.0184195
-0.0111381
-0.00507524
-0.000491351
0.00240621
0.00348094
0.002709
0.000224771
-0.00363519
-0.00834553
-0.013189
-0.0173779
-0.020253
-0.0213446
-0.0205456
-0.0180773
-0.014317
-0.00964722
-0.00455199
0.000704248
0.00572818
0.0104881
0.014524
0.0178305
0.0198536
0.0214644
0.0229011
0.0232597
0.021869
0.0160741
0.00389632
-0.0168303
-0.0352249
-0.0425898
-0.0366911
-0.0243764
-0.0127244
-0.00186114
0.0051727
0.0143603
0.0172091
0.0230441
0.0188459
0.0038522
-0.00513915
-0.0163761
-0.0122872
-0.10189
-0.105025
-0.102502
-0.0964551
-0.0894079
-0.0824396
-0.0755152
-0.0682956
-0.060622
-0.0525853
-0.04441
-0.0363557
-0.0286165
-0.0214449
-0.0150277
-0.00957676
-0.00529453
-0.00234521
-0.000834773
-0.000778298
-0.00207341
-0.00446482
-0.00756064
-0.0108623
-0.0137558
-0.0157401
-0.0164365
-0.015698
-0.013619
-0.0104484
-0.00645176
-0.00201051
0.00265207
0.00718301
0.0115667
0.0153814
0.0185935
0.0207549
0.0226303
0.0245833
0.0258205
0.0257084
0.0214165
0.0108271
-0.00785145
-0.0246129
-0.0316352
-0.0274903
-0.0178744
-0.00843354
0.000926857
0.00737505
0.0159369
0.0183835
0.023221
0.0196967
0.00585964
-0.00286511
-0.013323
-0.010428
-0.0904814
-0.0934259
-0.0915811
-0.0866781
-0.0808462
-0.0750485
-0.0692956
-0.0632999
-0.0569101
-0.0501833
-0.0432865
-0.0364386
-0.0298365
-0.0236365
-0.0180122
-0.0131356
-0.00916558
-0.00623242
-0.00441943
-0.00373834
-0.00411845
-0.00536567
-0.00717472
-0.00922963
-0.0110624
-0.0122759
-0.0125652
-0.0117827
-0.00994598
-0.00720918
-0.00374964
0.000141676
0.00428521
0.00837349
0.012395
0.01599
0.0191099
0.0213946
0.0234864
0.025811
0.0278028
0.0288255
0.0258458
0.0166367
8.37583e-05
-0.0147882
-0.0214029
-0.0188718
-0.0117205
-0.00431647
0.00359226
0.00946948
0.0173979
0.0196256
0.0233241
0.0207079
0.00840116
-8.07003e-05
-0.00982053
-0.00827631
-0.0800467
-0.0828616
-0.0816002
-0.0776442
-0.072838
-0.0680406
-0.0633147
-0.0583827
-0.053112
-0.0475571
-0.0417607
-0.0359821
-0.0303648
-0.0250368
-0.0201362
-0.0157976
-0.0121468
-0.00928703
-0.00728624
-0.00615696
-0.00584766
-0.00621853
-0.00707106
-0.00812226
-0.00908398
-0.0096388
-0.00954431
-0.00866144
-0.00696552
-0.00454359
-0.00150878
0.00192398
0.00561568
0.00930994
0.0129896
0.0163632
0.0193802
0.0217579
0.0240128
0.0265506
0.0289946
0.0306925
0.0286928
0.0208727
0.00672987
-0.00606095
-0.0122535
-0.0111519
-0.00611606
-0.000477926
0.00608933
0.0114241
0.0187133
0.0209523
0.0235351
0.0220344
0.0114768
0.0031464
-0.00604614
-0.00595923
-0.0706242
-0.0732496
-0.0724217
-0.0692786
-0.0653761
-0.061474
-0.0575852
-0.0535406
-0.0491967
-0.0445514
-0.0398071
-0.0349955
-0.0302571
-0.0257106
-0.0214657
-0.0176289
-0.0143
-0.0115614
-0.00946903
-0.00803737
-0.00722988
-0.00694965
-0.0070633
-0.00736315
-0.00763387
-0.00764559
-0.00721076
-0.00620519
-0.00458453
-0.00239002
0.00031
0.00336216
0.00666237
0.0100052
0.0133668
0.0165169
0.0194103
0.0218397
0.0241805
0.0267694
0.0293001
0.0311517
0.0298108
0.023443
0.0118992
0.00122322
-0.00450394
-0.00455388
-0.00120246
0.00299557
0.00837356
0.0131967
0.0198431
0.0223051
0.0240374
0.0237406
0.0149209
0.00660156
-0.00227267
-0.00365823
-0.0620862
-0.0644862
-0.0639958
-0.0615277
-0.0583826
-0.055216
-0.052081
-0.0488132
-0.0452915
-0.041517
-0.037581
-0.0335756
-0.0295988
-0.0257395
-0.0220827
-0.0187111
-0.0157028
-0.0131232
-0.0110182
-0.00940383
-0.00825706
-0.00751896
-0.00708498
-0.00681779
-0.00655922
-0.00614147
-0.00542206
-0.00429559
-0.0027124
-0.000684038
0.00175082
0.00448689
0.00744874
0.0104768
0.0135425
0.0164686
0.0192171
0.0216405
0.0239788
0.026471
0.0288287
0.0304901
0.0295537
0.0245556
0.0154942
0.00682409
0.00166906
0.000841614
0.00295737
0.00604662
0.0104082
0.0147448
0.0207372
0.0235328
0.0249175
0.0257169
0.0183812
0.00991785
0.00117516
-0.00157193
-0.0543072
-0.0565048
-0.0562854
-0.0543759
-0.051867
-0.0493284
-0.0468216
-0.0442077
-0.0413771
-0.0383195
-0.0350955
-0.031786
-0.0284679
-0.0252102
-0.0220781
-0.019135
-0.0164408
-0.0140469
-0.0119926
-0.010296
-0.00893807
-0.00788604
-0.00707044
-0.00639309
-0.00574368
-0.00500015
-0.00405652
-0.00282658
-0.00126336
0.000638936
0.00286059
0.0053327
0.0080008
0.0107457
0.0135363
0.0162394
0.0188213
0.0211755
0.0234312
0.0257219
0.0277777
0.0291201
0.0284161
0.0245811
0.0176607
0.0107839
0.00608113
0.00509158
0.00637185
0.00864741
0.0121642
0.0160365
0.0213603
0.0244476
0.0260289
0.0276143
0.0213847
0.0126902
0.00402406
0.000145185
-0.0472549
-0.0492624
-0.0492462
-0.04779
-0.0458086
-0.0437942
-0.0418097
-0.0397396
-0.037485
-0.0350277
-0.0324102
-0.0296957
-0.0269451
-0.0242119
-0.0215456
-0.0189942
-0.0166032
-0.0144125
-0.0124555
-0.0107422
-0.00928411
-0.00804244
-0.00697608
-0.00601916
-0.00509605
-0.00411904
-0.00301135
-0.0017045
-0.00015838
0.00164177
0.00368728
0.00593562
0.00834715
0.010836
0.0133706
0.0158518
0.0182477
0.0204771
0.0226004
0.0246289
0.0263532
0.0273798
0.0268187
0.0239224
0.0187495
0.0134356
0.00955029
0.00838075
0.00909662
0.0107942
0.0136169
0.0170449
0.0217027
0.0249265
0.0269594
0.0288917
0.0234795
0.0146506
0.00613748
0.00139027
-0.040884
-0.0426953
-0.0428222
-0.0417311
-0.0401846
-0.0386041
-0.0370508
-0.0354292
-0.0336511
-0.0316938
-0.0295861
-0.0273764
-0.0251118
-0.0228333
-0.0205784
-0.0183829
-0.0162804
-0.0143029
-0.0124777
-0.0108206
-0.00932953
-0.00799
-0.00677732
-0.00564642
-0.00454679
-0.00341638
-0.00220122
-0.000848289
0.000673953
0.00238382
0.00427815
0.00633251
0.00851794
0.0107739
0.0130698
0.0153306
0.0175274
0.0195967
0.0215638
0.0233047
0.0247268
0.0255004
0.0250522
0.0229008
0.0191123
0.0151003
0.0120356
0.0108486
0.0112017
0.0124972
0.0147526
0.0177489
0.0217468
0.0249178
0.0272725
0.0290834
0.0243899
0.0157423
0.00752621
0.00224459
-0.0351145
-0.036737
-0.0369648
-0.0361669
-0.0349761
-0.0337514
-0.0325509
-0.0312959
-0.0299089
-0.0283648
-0.0266823
-0.0248974
-0.0230463
-0.02116
-0.0192664
-0.0173916
-0.0155619
-0.0138052
-0.0121336
-0.0105649
-0.00910172
-0.00773907
-0.00646203
-0.00524119
-0.00404429
-0.00282827
-0.00155654
-0.000189224
0.00129684
0.0029198
0.00467858
0.00656064
0.0085438
0.0105862
0.0126597
0.0147059
0.0166969
0.0185801
0.0203916
0.0218427
0.0230238
0.0236237
0.0232891
0.0217249
0.0190033
0.0160397
0.013697
0.0126304
0.012762
0.0137763
0.0155698
0.0181407
0.0214865
0.0244249
0.0267494
0.0280874
0.0241344
0.0160567
0.00828094
0.00273849
-0.0298896
-0.0313384
-0.0316344
-0.0310686
-0.0301652
-0.0292293
-0.0283147
-0.027357
-0.0262883
-0.0250831
-0.0237524
-0.0223227
-0.0208213
-0.0192715
-0.0176933
-0.016106
-0.0145293
-0.0129802
-0.0114774
-0.010027
-0.00863743
-0.00730687
-0.00602798
-0.00478275
-0.00355181
-0.00230604
-0.00102182
0.000329888
0.00176484
0.00329898
0.00493127
0.00665609
0.00845565
0.0103017
0.0121682
0.0140081
0.0157904
0.0174468
0.0188962
0.0203053
0.0213317
0.0218308
0.0216147
0.020511
0.0185983
0.0164637
0.0147174
0.0138396
0.0138513
0.0146617
0.0160789
0.0182319
0.0209492
0.0234877
0.0254114
0.0262073
0.0229584
0.0157396
0.00852536
0.00294345
-0.0251693
-0.0264548
-0.0267905
-0.0264056
-0.0257329
-0.0250296
-0.024345
-0.0236262
-0.0228146
-0.0218854
-0.0208439
-0.0197095
-0.0185022
-0.0172393
-0.0159351
-0.0146035
-0.013259
-0.0119126
-0.0105778
-0.00926288
-0.00797546
-0.00671569
-0.00548095
-0.00426087
-0.00304487
-0.00181399
-0.00055401
0.000755494
0.00212409
0.0035645
0.00507488
0.00665323
0.00828458
0.00994932
0.0116239
0.0132704
0.014861
0.0163369
0.0176661
0.0188393
0.0197219
0.0201642
0.0200638
0.0193206
0.0180158
0.0165214
0.0152509
0.0145799
0.01454
0.0151916
0.0163008
0.0180511
0.0201808
0.0221899
0.0236151
0.0238702
0.0211923
0.0149588
0.00839108
0.00294237
-0.0209073
-0.0220399
-0.0223943
-0.0221494
-0.0216604
-0.0211435
-0.0206423
-0.0201141
-0.0195087
-0.0188025
-0.0179974
-0.0171069
-0.0161457
-0.0151262
-0.0140581
-0.0129513
-0.0118161
-0.0106605
-0.00949333
-0.0083221
-0.00715409
-0.00599088
-0.00483251
-0.00367347
-0.00250894
-0.00132727
-0.000120784
0.00112418
0.0024124
0.00375333
0.00514387
0.00658343
0.00805915
0.00955632
0.0110545
0.0125234
0.0139394
0.0152531
0.0164442
0.0174519
0.0182241
0.018638
0.0186443
0.0181833
0.0173278
0.0163187
0.0154249
0.0149457
0.0148934
0.0154122
0.0162651
0.0176402
0.0192411
0.0207429
0.0216446
0.0214231
0.0191452
0.013879
0.00799904
0.00281167
-0.0170608
-0.0180536
-0.0184117
-0.0182738
-0.0179303
-0.0175612
-0.0172054
-0.0168281
-0.0163867
-0.0158597
-0.0152464
-0.0145563
-0.0137998
-0.0129855
-0.01212
-0.0112096
-0.0102616
-0.00928194
-0.00827623
-0.00725016
-0.00621021
-0.00515898
-0.00409797
-0.00302455
-0.00193743
-0.000830035
0.000300818
0.00146374
0.00266008
0.0038961
0.00516773
0.00647437
0.00780463
0.00914723
0.0104844
0.0117912
0.0130487
0.0142145
0.015272
0.0161581
0.0168495
0.0172539
0.0173518
0.0171073
0.0165809
0.0159344
0.015333
0.0150143
0.0149686
0.0153726
0.0160083
0.0170419
0.0181796
0.0192043
0.0196707
0.0190785
0.0170488
0.0126412
0.00744962
0.00261002
-0.0135954
-0.0144609
-0.0148116
-0.0147542
-0.0145248
-0.0142724
-0.0140308
-0.0137721
-0.0134604
-0.0130764
-0.012618
-0.0120915
-0.0115043
-0.0108621
-0.0101693
-0.0094293
-0.00864712
-0.00782725
-0.00697332
-0.00608876
-0.00517888
-0.00424689
-0.00329513
-0.0023226
-0.0013299
-0.000313803
0.000725941
0.00179423
0.00289019
0.00401729
0.00517072
0.00634946
0.00754314
0.00874254
0.00993315
0.0110935
0.0122074
0.0132397
0.0141795
0.0149707
0.0156014
0.0160042
0.0161753
0.0160944
0.0158068
0.0154247
0.0150422
0.0148488
0.0148164
0.0151193
0.01557
0.0163016
0.0170481
0.0176504
0.0177709
0.016927
0.0150479
0.0113535
0.00681727
0.0023769
-0.0104791
-0.0112294
-0.011565
-0.0115674
-0.0114269
-0.011266
-0.0111136
-0.0109474
-0.0107375
-0.010467
-0.010133
-0.00973943
-0.00929153
-0.00879293
-0.00824617
-0.00765314
-0.00701635
-0.00633929
-0.00562491
-0.00487487
-0.00409246
-0.00328084
-0.00244304
-0.00157911
-0.000690454
0.000224135
0.00116318
0.00212901
0.00311923
0.00413529
0.00517201
0.00622745
0.00729272
0.00835962
0.00941581
0.010444
0.0114305
0.0123447
0.0131795
0.0138921
0.014475
0.014878
0.0151042
0.0151429
0.0150247
0.01483
0.0146061
0.0145035
0.0144832
0.0146971
0.0149901
0.0154608
0.0158893
0.0161394
0.0159902
0.0149972
0.0132187
0.0100924
0.00615546
0.00213657
-0.007683
-0.00832996
-0.00864576
-0.0086918
-0.00862023
-0.00853061
-0.00844735
-0.00835281
-0.00822239
-0.00804153
-0.00780687
-0.00752086
-0.007187
-0.00680753
-0.00638361
-0.00591613
-0.00540596
-0.00485507
-0.0042663
-0.00364079
-0.00297983
-0.00228555
-0.00156113
-0.000807572
-2.66193e-05
0.000781917
0.00161578
0.00247547
0.00335788
0.00426296
0.00518545