/*--------------------------------*- C++ -*----------------------------------*\
| =========                 |                                                 |
| \\      /  F ield         | OpenFOAM: The Open Source CFD Toolbox           |
|  \\    /   O peration     | Version:  2512                                  |
|   \\  /    A nd           | Website:  www.openfoam.com                      |
|    \\/     M anipulation  |                                                 |
\*---------------------------------------------------------------------------*/
FoamFile
{
    version     2.0;
    format      ascii;
    arch        "LSB;label=32;scalar=64";
    class       surfaceScalarField;
    location    "154";
    object      phi;
}
// * * * * * * * * * * * * * * * * * * * * * * * * * * * * * * * * * * * * * //

dimensions      [0 3 -1 0 0 0 0];

oriented        oriented;

internalField   nonuniform List<scalar> 
26232
(
0.000127476
0.000999471
-0.00112695
0.000754767
0.00170439
-0.00233168
0.00207556
0.00123687
-0.00255766
0.00425889
-0.000380877
-0.00180245
0.00746554
-0.00314302
-6.36329e-05
0.0118474
-0.00704411
0.00266229
0.0175317
-0.0120631
0.00637876
0.024598
-0.0181444
0.011078
0.0330491
-0.0251813
0.0167303
0.0427862
-0.033007
0.0232698
0.0535973
-0.0413956
0.0305845
0.0651626
-0.0500765
0.0385111
0.0770803
-0.0587575
0.0468397
0.088908
-0.0671538
0.0553262
0.100214
-0.0750173
0.0637116
0.110627
-0.0821605
0.0717467
0.119885
-0.0884726
0.0792154
0.127851
-0.0939239
0.0859572
0.134531
-0.0985571
0.0918778
0.140035
-0.102474
0.0969695
0.144556
-0.10578
0.10126
0.148257
-0.108664
0.104963
0.15108
-0.110899
0.108076
-0.113359
0.111431
0.153008
0.000165264
0.000834207
0.000942418
0.000927235
0.0025671
-0.000387807
0.00524635
-0.00306013
0.00916492
-0.00706159
0.0144705
-0.0123497
0.0212453
-0.0188379
0.0294739
-0.026373
0.0390177
-0.0347251
0.0496075
-0.0435967
0.0608601
-0.0526483
0.0723194
-0.0615357
0.0835118
-0.0699499
0.0940081
-0.0776502
0.103477
-0.0844863
0.111722
-0.0904053
0.118692
-0.0954428
0.124471
-0.0997027
0.129242
-0.103328
0.133237
-0.10647
0.136721
-0.109264
0.139888
-0.111832
0.143154
-0.114165
-0.116739
0.146534
0.000239681
0.000594526
0.00125286
-8.59433e-05
0.00330203
-0.00243698
0.00661314
-0.00637124
0.0113642
-0.0118126
0.0176529
-0.0186384
0.0254587
-0.0266437
0.0346139
-0.0355281
0.0448005
-0.0449117
0.0555793
-0.0543756
0.0664474
-0.0635163
0.0769101
-0.0719984
0.0865515
-0.0795913
0.0950873
-0.086186
0.10239
-0.0917894
0.108485
-0.0965003
0.113518
-0.100475
0.117705
-0.10389
0.12129
-0.106913
0.1245
-0.109679
0.127519
-0.112283
0.130491
-0.114804
0.133535
-0.117209
-0.119806
0.136602
0.000345494
0.000249033
0.00166753
-0.00140798
0.00423526
-0.00500471
0.00826378
-0.0103998
0.0138803
-0.0174291
0.0210772
-0.0258353
0.0296765
-0.0352429
0.0393265
-0.0451782
0.0495422
-0.0551274
0.05978
-0.0646134
0.0695273
-0.0732636
0.0783812
-0.0808523
0.0860986
-0.0873086
0.0926082
-0.0926957
0.0979884
-0.0971695
0.10242
-0.100932
0.10613
-0.104185
0.109347
-0.107108
0.112267
-0.109833
0.115042
-0.112453
0.117785
-0.115026
0.120573
-0.117592
0.123501
-0.120137
-0.12287
0.126566
0.000475002
-0.000225969
0.00215761
-0.00309058
0.00529781
-0.00814491
0.0100609
-0.0151628
0.0164715
-0.0238397
0.0243643
-0.0337281
0.0333732
-0.0442518
0.0429777
-0.0547827
0.0525952
-0.0647449
0.0616889
-0.0737071
0.0698576
-0.0814323
0.0768832
-0.0878779
0.0827315
-0.0931569
0.0875139
-0.0974782
0.09143
-0.101086
0.0947078
-0.104209
0.09756
-0.107038
0.10016
-0.109708
0.102636
-0.112309
0.105079
-0.114896
0.107551
-0.117499
0.110093
-0.120134
0.112752
-0.122795
-0.125596
0.115477
0.000621037
-0.000847006
0.00269229
-0.00516183
0.00641266
-0.0118653
0.0118519
-0.0206021
0.0188817
-0.0308695
0.0271459
-0.0419922
0.0361019
-0.0532079
0.0451271
-0.0638079
0.0536486
-0.0732663
0.0612475
-0.0813061
0.06771
-0.0878948
0.073019
-0.0931869
0.0773039
-0.0974419
0.080774
-0.100948
0.0836558
-0.103967
0.0861519
-0.106705
0.0884207
-0.109307
0.0905759
-0.111863
0.0926939
-0.114427
0.0948259
-0.117028
0.0970067
-0.11968
0.0992606
-0.122388
0.101616
-0.125151
-0.128029
0.10405
0.000777124
-0.00162413
0.00324029
-0.007625
0.00749957
-0.0161246
0.0134825
-0.026585
0.0208711
-0.0382581
0.0291213
-0.0502424
0.0375721
-0.0616587
0.0455989
-0.0718347
0.0527411
-0.0804085
0.0587631
-0.0873281
0.063644
-0.0927758
0.0675181
-0.0970609
0.0705989
-0.100523
0.0731131
-0.103462
0.0752583
-0.106113
0.0771854
-0.108632
0.0789992
-0.11112
0.0807679
-0.113632
0.0825354
-0.116195
0.0843304
-0.118823
0.086173
-0.121522
0.0880774
-0.124293
0.09006
-0.127134
-0.130067
0.0920982
0.000936157
-0.00256029
0.0037682
-0.010457
0.00847646
-0.0208328
0.0148074
-0.032916
0.0222446
-0.0456954
0.0300999
-0.0580977
0.0376838
-0.0692426
0.0444658
-0.0786167
0.0501586
-0.0861013
0.0547137
-0.0918831
0.0582559
-0.096318
0.0609991
-0.0998042
0.0631727
-0.102696
0.0649752
-0.105265
0.0665562
-0.107694
0.0680174
-0.110094
0.0694231
-0.112526
0.0708132
-0.115022
0.0722132
-0.117595
0.0736404
-0.12025
0.0751079
-0.12299
0.0766267
-0.125811
0.0782074
-0.128715
-0.131698
0.0798389
0.00108959
-0.00364988
0.00424
-0.0136075
0.00926392
-0.0258567
0.0157063
-0.0393584
0.0228777
-0.0528667
0.0300212
-0.0652412
0.0365098
-0.0757311
0.0419693
-0.0840763
0.046294
-0.0904261
0.0495822
-0.0951713
0.0520416
-0.0987774
0.0539056
-0.101668
0.0553793
-0.10417
0.0566168
-0.106502
0.0577217
-0.108799
0.0587581
-0.11113
0.0597642
-0.113532
0.0607634
-0.116021
0.0617714
-0.118603
0.0627996
-0.121278
0.0638571
-0.124047
0.0649519
-0.126906
0.0660904
-0.129853
-0.132876
0.0672677
0.00122732
-0.0048772
0.00461936
-0.0169995
0.00979371
-0.0310311
0.016099
-0.0456637
0.0227286
-0.0594963
0.028941
-0.0714536
0.0342381
-0.0810282
0.03842
-0.0882582
0.041533
-0.093539
0.0437673
-0.0974055
0.045359
-0.100369
0.0465238
-0.102833
0.0474262
-0.105072
0.0481767
-0.107253
0.0488427
-0.109465
0.0494634
-0.111751
0.0500613
-0.11413
0.0506511
-0.116611
0.0512432
-0.119195
0.0518458
-0.121881
0.052466
-0.124667
0.0531099
-0.12755
0.0537822
-0.130525
-0.133578
0.0544843
0.00133926
-0.00621646
0.00487519
-0.0205354
0.010019
-0.0361749
0.0159549
-0.0515996
0.0218316
-0.065373
0.0269945
-0.0766165
0.0311058
-0.0851395
0.0341234
-0.0912758
0.0361992
-0.0956148
0.0375655
-0.0987718
0.0384502
-0.101254
0.0390333
-0.103416
0.0394377
-0.105477
0.0397382
-0.107553
0.0399772
-0.109704
0.0401783
-0.111952
0.0403556
-0.114307
0.0405188
-0.116774
0.0406754
-0.119351
0.0408318
-0.122037
0.0409932
-0.124829
0.0411639
-0.127721
0.0413462
-0.130708
-0.133775
0.0415433
0.00141968
-0.00763614
0.0049891
-0.0241049
0.00992173
-0.0411075
0.0152922
-0.0569701
0.0202784
-0.0703591
0.0243592
-0.0806973
0.0273558
-0.0881361
0.0293478
-0.0932678
0.0305471
-0.0968141
0.0311907
-0.0994154
0.0314782
-0.101541
0.0315504
-0.103488
0.0314945
-0.105421
0.0313593
-0.107418
0.0311711
-0.109515
0.0309442
-0.111725
0.0306879
-0.114051
0.030409
-0.116495
0.0301136
-0.119056
0.029807
-0.121731
0.0294939
-0.124516
0.0291777
-0.127405
0.0288593
-0.130389
0.0285442
-0.13346
-0.000221732
0.00277753
-0.0025558
-0.000810179
0.00647236
-0.00588391
-0.00171408
0.00886541
-0.0079615
-0.00288454
0.0102602
-0.00908974
-0.00427599
0.0109206
-0.00952915
-0.00584887
0.0110658
-0.00949293
-0.00757048
0.0108581
-0.00913645
-0.0094141
0.0103986
-0.00855494
-0.0113574
0.00973315
-0.00778985
-0.0133806
0.00886391
-0.00684073
-0.0154645
0.00776289
-0.00567896
-0.0175896
0.00638472
-0.00425958
-0.019734
0.00467565
-0.00253129
-0.0218814
0.00258109
-0.000433687
-0.0239761
5.79043e-05
0.00203682
-0.0260079
-0.0029283
0.00496006
-0.027932
-0.00642149
0.00834562
-0.0297052
-0.0104286
0.0122018
-0.0312823
-0.0149397
0.0165168
-0.0326187
-0.0199185
0.0212548
-0.0336738
-0.0252977
0.0263528
-0.0344162
-0.0309789
0.0317213
-0.0348396
-0.036827
0.0372505
-0.0426311
-0.0350065
0.042798
-0.000129911
0.00290744
-0.00052254
0.00686499
-0.00117184
0.00951471
-0.00205435
0.0111427
-0.00313565
0.0120019
-0.00437753
0.0123077
-0.00574297
0.0122235
-0.00719869
0.0118543
-0.008716
0.0112505
-0.0102703
0.0104182
-0.01184
0.00933258
-0.0134049
0.00794965
-0.0149456
0.00621633
-0.0164424
0.00407785
-0.0178549
0.00147039
-0.0191796
-0.00160356
-0.0203794
-0.0052217
-0.0214254
-0.00938255
-0.02229
-0.0140752
-0.0229481
-0.0192603
-0.0233823
-0.0248634
-0.0235909
-0.0307704
-0.0235938
-0.036824
-0.0427984
-0.0234266
-2.5094e-05
0.00293253
-0.000184802
0.00702469
-0.000518606
0.00984852
-0.00102922
0.0116533
-0.00169465
0.0126673
-0.00247902
0.0130921
-0.00334087
0.0130854
-0.00423907
0.0127525
-0.00513598
0.0121474
-0.00599854
0.0112808
-0.0067979
0.0101319
-0.00750819
0.00865994
-0.00810518
0.00681331
-0.00856401
0.00453668
-0.00887245
0.00177883
-0.00898582
-0.00149018
-0.00889085
-0.00531667
-0.00856449
-0.00970892
-0.00798782
-0.0146519
-0.00714765
-0.0201005
-0.00603905
-0.025972
-0.00467173
-0.0321377
-0.00307946
-0.0384163
-0.0445809
-0.00129702
8.00862e-05
0.00285245
0.000165915
0.00693886
0.000178799
0.00983563
9.14298e-05
0.0117407
-8.73952e-05
0.0128461
-0.000325723
0.0133304
-0.000579491
0.0133391
-0.000800599
0.0129736
-0.000942275
0.012289
-0.000961788
0.0113003
-0.000821107
0.00999126
-0.000486266
0.0083251
7.35853e-05
0.00625346
0.000886464
0.0037238
0.00198803
0.00067726
0.00340351
-0.00290567
0.00516115
-0.00707431
0.00728171
-0.0118295
0.00978162
-0.0171518
0.0126678
-0.0229867
0.0159352
-0.0292394
0.0195671
-0.0357696
0.0235095
-0.0423587
-0.0487918
0.0277204
0.000172292
0.00268016
0.000487835
0.00662332
0.000841212
0.00948225
0.00118637
0.0113955
0.0015197
0.0125128
0.00186718
0.0129829
0.00227283
0.0129335
0.00278918
0.0124573
0.00347046
0.0116078
0.00436866
0.0104021
0.00553185
0.00882807
0.00700435
0.0068526
0.00882769
0.00443012
0.011042
0.00150951
0.0136771
-0.00195787
0.0167812
-0.00600972
0.0203798
-0.010673
0.0244986
-0.0159483
0.0291506
-0.0218038
0.0343321
-0.0281682
0.0400165
-0.0349238
0.04616
-0.0419131
0.0526776
-0.0488763
-0.0557283
0.0596142
0.000240235
0.00243992
0.000743259
0.0061203
0.00139407
0.00883145
0.00213675
0.0106528
0.00295879
0.0116908
0.00388
0.0120617
0.00494211
0.0118714
0.00619934
0.0112
0.00771128
0.0100958
0.00953817
0.0085752
0.0117385
0.00662777
0.0143677
0.00422338
0.0174801
0.00131774
0.0211294
-0.00213981
0.0253619
-0.0061904
0.0302226
-0.0108704
0.0357444
-0.0161947
0.0419443
-0.0221482
0.0488163
-0.0286758
0.0563241
-0.035676
0.0643971
-0.0429967
0.0729297
-0.0504457
0.0817936
-0.0577401
-0.0649203
0.0909855
0.000276584
0.00216334
0.000905401
0.00549148
0.00178099
0.00795586
0.00284911
0.00958472
0.00409443
0.0104455
0.00553302
0.0106231
0.00720446
0.0101999
0.00916402
0.00924046
0.0114763
0.00778357
0.0142105
0.00584097
0.0174383
0.00339996
0.0212226
0.000439077
0.0256483
-0.0031079
0.0307695
-0.00726102
0.0366452
-0.0120661
0.0433171
-0.0175423
0.0508026
-0.0236803
0.0590859
-0.0304314
0.0681093
-0.0376992
0.0777671
-0.0453338
0.0879169
-0.0531466
0.0983561
-0.0608849
0.108907
-0.0682911
-0.0754167
0.119404
0.000279528
0.00188381
0.000964859
0.00480615
0.00197827
0.00694244
0.00327951
0.00828349
0.00485901
0.00886597
0.00673486
0.00874725
0.0089485
0.00798629
0.0115595
0.00662948
0.0146403
0.00470273
0.0182723
0.00220897
0.0225406
-0.000868327
0.0275407
-0.00456105
0.0333399
-0.00890707
0.0400142
-0.0139353
0.0476082
-0.0196602
0.0561327
-0.0260668
0.0655511
-0.0330987
0.0757705
-0.0406508
0.0866392
-0.048568
0.0979463
-0.0566409
0.109454
-0.0646546
0.120867
-0.072298
0.132009
-0.0794324
-0.0858998
0.142492
0.000253506
0.0016303
0.000933293
0.00412636
0.00200434
0.00587139
0.00345212
0.0068357
0.00528313
0.00703496
0.0075267
0.00650368
0.0102345
0.00527845
0.0134781
0.00338591
0.0173435
0.000837316
0.0219296
-0.00237713
0.0273358
-0.00627453
0.033655
-0.0108802
0.0409594
-0.0162114
0.0492897
-0.0222656
0.0586372
-0.0290077
0.0689305
-0.03636
0.080028
-0.0441961
0.0917177
-0.0523406
0.103728
-0.0605784
0.115748
-0.0686603
0.127459
-0.076366
0.138549
-0.083388
0.148876
-0.0897593
-0.0950192
0.157995
0.000209231
0.00142107
0.000844127
0.00349147
0.0019227
0.00479282
0.00346642
0.00529199
0.00550892
0.00499245
0.00810222
0.00391038
0.011319
0.00206171
0.0152502
-0.000545369
0.0200018
-0.00391422
0.025679
-0.00805438
0.032379
-0.0129745
0.0401695
-0.0186707
0.0490709
-0.0251129
0.0590391
-0.0322338
0.0699523
-0.0399209
0.0816067
-0.0480144
0.0937236
-0.0563131
0.10597
-0.0645866
0.117985
-0.0725939
0.12943
-0.0801053
0.14
-0.0869361
0.149505
-0.0928925
0.157837
-0.0980917
-0.101988
0.164806
0.000162537
0.00125854
0.000748489
0.00290552
0.00183397
0.00370734
0.00348443
0.00364153
0.00577086
0.00270602
0.00877797
0.000903281
0.0126066
-0.00176692
0.0173684
-0.00530717
0.0231733
-0.0097191
0.0301124
-0.0149935
0.0382362
-0.0210984
0.0475322
-0.0279667
0.0579068
-0.0354874
0.0691757
-0.0435028
0.0810673
-0.0518124
0.0932382
-0.0601853
0.105303
-0.0683779
0.116874
-0.0761579
0.127605
-0.0833243
0.137241
-0.0897416
0.145627
-0.0953226
0.152826
-0.100091
0.158826
-0.104092
-0.107037
0.163875
0.000131588
0.000705425
0.0018551
0.00369417
0.00633656
0.00990213
0.014514
0.0202848
0.027296
0.0355723
0.0450585
0.0556029
0.0669552
0.0787786
0.0906778
0.102239
0.113077
0.122876
0.131429
0.138657
0.144594
0.149467
0.153451
0.157846
-0.0339513
-0.0671275
0.0660722
-0.0322314
-0.0768802
0.0751602
-0.0295394
-0.0857201
0.0830281
-0.0255757
-0.0928314
0.0888677
-0.0200014
-0.0973461
0.0917717
-0.0125628
-0.0982165
0.0907779
-0.00315368
-0.094406
0.0849969
0.00832676
-0.0851446
0.0736642
0.0210822
-0.0695246
0.0567691
0.0345123
-0.047746
0.0343159
0.0481062
-0.0205362
0.00694239
0.0615905
0.0106953
-0.0241796
0.0747936
0.0446098
-0.057813
0.0873347
0.0783038
-0.0908448
0.0984738
0.108275
-0.119414
0.107373
0.131517
-0.140415
0.113567
0.146729
-0.152924
0.116949
0.154694
-0.158076
0.117238
0.158516
-0.158804
0.11419
0.16281
-0.159762
0.108839
0.169619
-0.164268
0.104095
0.173539
-0.168795
0.103331
0.162372
-0.161608
0.107953
0.125854
-0.130476
0.116899
0.0642838
-0.0732298
0.127995
-0.0103651
-0.000731716
0.138894
-0.0814142
0.0705159
0.147585
-0.135426
0.126735
0.152983
-0.168423
0.163024
0.155392
-0.184402
0.181993
0.155504
-0.188648
0.188536
0.152861
-0.18956
0.192204
0.146653
-0.195543
0.20175
0.1381
-0.206933
0.215487
0.130839
-0.204178
0.211439
0.128298
-0.165181
0.167722
0.131263
-0.0856554
0.08269
0.138043
0.0128266
-0.0196065
0.14617
0.0996439
-0.107771
0.153238
0.162672
-0.16974
0.156794
0.198078
-0.201634
0.154897
0.229617
-0.22772
0.148144
0.251071
-0.244318
0.140458
0.259812
-0.252127
0.136172
0.214643
-0.210356
0.137585
0.117979
-0.119391
0.143449
0.000402105
-0.00626652
0.149798
-0.114439
0.108091
0.151996
-0.172189
0.169991
0.148513
-0.24382
0.247302
0.142687
-0.256056
0.261882
0.139782
-0.264069
0.266974
0.141563
-0.18741
0.185629
0.145008
-0.0491955
0.0457497
0.14623
0.0405674
-0.0417894
0.144414
0.237516
-0.2357
0.142631
0.24958
-0.247798
0.141748
0.314878
-0.313995
0.14069
0.239473
-0.238415
-0.0290791
0.0309226
-0.0244879
-0.0660661
-0.0254683
-0.0758998
-0.0260763
-0.0851121
-0.0259897
-0.092918
-0.0246982
-0.0986376
-0.0215926
-0.101322
-0.0160761
-0.0999225
-0.00800738
-0.0932133
0.00280897
-0.0803409
0.0161089
-0.0610459
0.0303486
-0.0347759
0.0455232
-0.00447929
0.0607523
0.0293807
0.0756274
0.0634287
0.089325
0.0945774
0.100931
0.119911
0.109766
0.137894
0.115359
0.149101
0.117312
0.156563
0.115859
0.164263
0.112699
0.172779
0.11079
0.175448
0.112578
0.160583
0.118406
0.120026
0.126999
0.0556913
0.136473
-0.0198396
0.14512
-0.0900609
0.151441
-0.141747
0.154664
-0.171646
0.155191
-0.184928
0.15389
-0.187348
0.150418
-0.186087
0.143666
-0.188791
0.134435
-0.197702
0.126426
-0.19617
0.123587
-0.162342
0.127008
-0.0890764
0.134986
0.00484876
0.144659
0.0899708
0.153192
0.154139
0.157854
0.193416
0.156761
0.230711
0.150727
0.257105
0.14361
0.266929
0.139279
0.218973
0.139936
0.117322
0.144696
-0.00435828
0.150257
-0.120001
0.152055
-0.173988
0.148341
-0.240105
0.142426
-0.25014
0.139491
-0.261134
0.141368
-0.189287
0.144663
-0.05249
0.145899
0.0393305
0.144196
0.23922
0.142488
0.251288
0.141822
0.315544
0.140985
0.24031
-0.0273351
-0.00364161
-0.0637215
-0.00660859
-0.0729329
-0.00992179
-0.0817989
-0.0133925
-0.0894473
-0.0165088
-0.0955212
-0.0185857
-0.0992451
-0.0184731
-0.100035
-0.015247
-0.0964394
-0.00854142
-0.0870465
0.00159592
-0.0711833
0.0154692
-0.0486492
0.030944
-0.0199541
0.0477345
0.0125902
0.0645505
0.0466127
0.0805139
0.078614
0.0945896
0.105835
0.105854
0.12663
0.113567
0.141388
0.117405
0.152725
0.118077
0.163591
0.117641
0.173215
0.118712
0.174377
0.122731
0.156565
0.129276
0.113481
0.137019
0.0479484
0.144642
-0.0274624
0.150892
-0.0963106
0.154799
-0.145655
0.155929
-0.172776
0.154729
-0.183729
0.152162
-0.184781
0.148055
-0.18198
0.14107
-0.181806
0.13144
-0.188072
0.122728
-0.187458
0.119394
-0.159008
0.123025
-0.0927069
0.13198
-0.0041063
0.143046
0.0789047
0.152993
0.144191
0.158836
0.187573
0.158736
0.23081
0.153609
0.262233
0.147145
0.273393
0.142749
0.223369
0.142549
0.117522
0.146081
-0.00788997
0.150765
-0.124685
0.152187
-0.175409
0.148281
-0.236199
0.142259
-0.244119
0.139248
-0.258123
0.141218
-0.191257
0.14442
-0.0556913
0.145704
0.0380455
0.144093
0.240832
0.142437
0.252944
0.142021
0.31596
0.141458
0.240874
-0.0257143
0.0245581
-0.0605592
0.0207025
-0.0690773
0.0158704
-0.0769668
0.0100147
-0.0835916
0.00338291
-0.0888895
-0.00295953
-0.0929027
-0.00825399
-0.0947407
-0.0110462
-0.0936473
-0.0100528
-0.0880398
-0.0047675
-0.0764685
0.00530761
-0.0587243
0.0194077
-0.0340542
0.0364361
-0.00443821
0.0542947
0.0287542
0.0719395
0.0609692
0.088051
0.0897238
0.10144
0.113241
0.111216
0.131612
0.117232
0.146709
0.120519
0.160304
0.123162
0.170572
0.12717
0.170368
0.133075
0.15066
0.139904
0.106651
0.146531
0.041321
0.152229
-0.0331598
0.156108
-0.10019
0.157648
-0.147195
0.156786
-0.171913
0.154025
-0.180968
0.150316
-0.181072
0.145694
-0.177358
0.138739
-0.174852
0.129062
-0.178394
0.119794
-0.17819
0.115779
-0.154993
0.119359
-0.0962863
0.128938
-0.0136859
0.141266
0.0665766
0.152568
0.132889
0.159675
0.180467
0.160754
0.229731
0.156707
0.26628
0.150971
0.279128
0.146494
0.227846
0.145378
0.118638
0.14758
-0.0100921
0.151304
-0.128408
0.15236
-0.176465
0.148299
-0.232138
0.142152
-0.237972
0.139007
-0.254978
0.141075
-0.193325
0.144259
-0.0588756
0.145634
0.0366708
0.1441
0.242365
0.14248
0.254565
0.142349
0.316091
0.142113
0.24111
-0.0242405
0.056064
-0.057009
0.0519025
-0.0649158
0.0467781
-0.0718424
0.0404651
-0.0772786
0.0328573
-0.0812817
0.0238988
-0.0839441
0.0143318
-0.0851737
0.00545308
-0.0847685
-0.000421911
-0.0821648
-0.00146135
-0.0754291
0.00295999
-0.0631457
0.0132626
-0.0443568
0.0277523
-0.0189279
0.0452602
0.0112463
0.0635339
0.0426955
0.0809795
0.0722783
0.0960953
0.0981249
0.107909
0.119798
0.116389
0.138229
0.122653
0.154041
0.128539
0.164686
0.135354
0.163553
0.142821
0.143193
0.149706
0.0997663
0.155216
0.0358119
0.159024
-0.0369685
0.160635
-0.101801
0.159888
-0.146448
0.157154
-0.169179
0.153021
-0.176835
0.14833
-0.176381
0.143297
-0.172325
0.136576
-0.168131
0.127196
-0.169015
0.117616
-0.16861
0.112828
-0.150205
0.115976
-0.0994342
0.125922
-0.0236319
0.139251
0.0532476
0.151824
0.120317
0.160272
0.172018
0.162711
0.227293
0.159902
0.269088
0.154957
0.284073
0.150408
0.232396
0.148345
0.120701
0.149162
-0.0109087
0.151845
-0.131091
0.152542
-0.177162
0.148365
-0.227962
0.142075
-0.231682
0.138733
-0.251636
0.1409
-0.195492
0.144156
-0.0621318
0.145673
0.035154
0.144214
0.243824
0.142615
0.256164
0.142808
0.315898
0.142953
0.240964
-0.0229378
0.086965
-0.0529885
0.0823805
-0.0603314
0.0770243
-0.0664862
0.0707427
-0.070997
0.0634093
-0.0739483
0.0547757
-0.0753105
0.0447847
-0.0751827
0.0339282
-0.073912
0.0234446
-0.0716812
0.0155341
-0.0675187
0.0124511
-0.0600627
0.0155204
-0.0474261
0.0248169
-0.0282245
0.0392552
-0.00319204
0.0562494
0.0257013
0.0738034
0.0547242
0.0900112
0.0819172
0.103713
0.106096
0.114771
0.127171
0.124123
0.144688
0.133163
0.155647
0.142492
0.154224
0.151255
0.13443
0.158183
0.092838
0.162728
0.0312667
0.164839
-0.0390794
0.164321
-0.101283
0.161431
-0.143558
0.156978
-0.164727
0.151671
-0.171527
0.146169
-0.170879
0.140798
-0.166953
0.134437
-0.16177
0.125671
-0.160248
0.116109
-0.159048
0.110562
-0.144658
0.112985
-0.101857
0.122862
-0.0335093
0.13692
0.039189
0.150646
0.106592
0.160503
0.162161
0.164463
0.223333
0.163039
0.270512
0.158953
0.288159
0.154356
0.236993
0.151368
0.123689
0.15078
-0.0103209
0.152358
-0.132669
0.152692
-0.177496
0.148446
-0.223715
0.142007
-0.225243
0.138394
-0.248023
0.140653
-0.197751
0.144079
-0.0655575
0.145803
0.0334297
0.144428
0.245199
0.142844
0.257748
0.143397
0.315345
0.143978
0.240382
-0.0218308
0.114708
-0.0482933
0.109454
-0.0550771
0.103514
-0.060546
0.0969439
-0.064427
0.0898545
-0.0668589
0.082161
-0.0676169
0.0735735
-0.0665952
0.0637754
-0.0641139
0.0528438
-0.0607496
0.0419673
-0.0566422
0.0332072
-0.0513026
0.0289481
-0.043167
0.0309741
-0.0302504
0.0393295
-0.0115474
0.0525901
0.0124406
0.0683738
0.0389405
0.0845218
0.0657692
0.0995051
0.0911125
0.11282
0.113856
0.124974
0.132534
0.136775
0.143846
0.148169
0.14283
0.157939
0.124661
0.164909
0.085868
0.168739
0.0274366
0.169426
-0.0397671
0.167014
-0.09887
0.16219
-0.138734
0.1562
-0.158737
0.149915
-0.165242
0.14379
-0.164754
0.138145
-0.161308
0.132188
-0.155814
0.124273
-0.152333
0.115095
-0.149869
0.108937
-0.138501
0.110377
-0.103296
0.119798
-0.0429307
0.134209
0.0247784
0.148925
0.0918755
0.160226
0.150859
0.165854
0.217705
0.165953
0.270414
0.162789
0.291323
0.158179
0.241602
0.154353
0.127514
0.152379
-0.00834608
0.152806
-0.133096
0.152767
-0.177457
0.148504
-0.219453
0.141928
-0.218667
0.137971
-0.244066
0.140296
-0.200075
0.143991
-0.0692527
0.146001
0.0314193
0.144737
0.246463
0.143165
0.25932
0.144116
0.314394
0.145187
0.239311
-0.0209445
0.137069
-0.0428705
0.131094
-0.0491017
0.124462
-0.0539144
0.117402
-0.0573667
0.110189
-0.0596466
0.102944
-0.0603711
0.0956116
-0.0592633
0.087907
-0.0564092
0.0793543
-0.052197
0.0698038
-0.0470916
0.0599358
-0.0414346
0.0515807
-0.0348119
0.0471878
-0.0258575
0.0485147
-0.0128743
0.0557488
0.00520656
0.0675361
0.0271532
0.0818501
0.0514552
0.0968401
0.0761226
0.111473
0.0992236
0.125635
0.118373
0.139465
0.130015
0.152332
0.129963
0.162807
0.114185
0.169849
0.0788261
0.173162
0.0241234
0.172668
-0.0392724
0.168597
-0.0947994
0.162087
-0.132224
0.154769
-0.151419
0.147695
-0.158169
0.141135
-0.158193
0.135286
-0.15546
0.129708
-0.150236
0.122774
-0.145399
0.114332
-0.141427
0.10784
-0.132008
0.108172
-0.103629
0.116725
-0.0514838
0.131075
0.0104286
0.146566
0.0763851
0.159304
0.138121
0.166708
0.210302
0.168444
0.268678
0.166284
0.293483
0.161744
0.246142
0.157179
0.132079
0.153897
-0.00506375
0.153148
-0.132347
0.152719
-0.177028
0.148501
-0.215235
0.141824
-0.21199
0.137451
-0.239694
0.139794
-0.202419
0.143855
-0.0733132
0.146243
0.0290309
0.145133
0.247573
0.143578
0.260875
0.144964
0.313008
0.146579
0.237696
-0.0203045
0.152071
-0.0369464
0.145573
-0.0426038
0.138454
-0.0467948
0.131088
-0.0500014
0.1238
-0.052358
0.116757
-0.0533282
0.110084
-0.0525907
0.103802
-0.0501266
0.0976696
-0.0460649
0.0912042
-0.0406262
0.0839939
-0.0342243
0.07635
-0.027168
0.0696984
-0.0192059
0.0661998
-0.00937571
0.0672889
0.00411746
0.073592
0.0208501
0.0841681
0.0408791
0.0974013
0.0628894
0.111874
0.0847513
0.126802
0.103444
0.141624
0.115194
0.155213
0.116374
0.166037
0.10336
0.173134
0.0717292
0.176047
0.0212108
0.174516
-0.037742
0.168966
-0.0892486
0.16101
-0.124269
0.152592
-0.143
0.144909
-0.150486
0.138093
-0.151376
0.132131
-0.149498
0.126875
-0.144979
0.12095
-0.139474
0.113526
-0.134004
0.107043
-0.125526
0.106316
-0.102902
0.113667
-0.0588353
0.12752
-0.00342379
0.143499
0.0604061
0.157605
0.124015
0.166878
0.201028
0.170377
0.265179
0.169287
0.294573
0.164908
0.250521
0.159753
0.137235
0.155268
-0.0005787
0.153338
-0.130417
0.152496
-0.176186
0.14839
-0.21113
0.141678
-0.205278
0.136827
-0.234842
0.13912
-0.204712
0.143633
-0.0778259
0.146502
0.0261621
0.14561
0.248465
0.144082
0.262403
0.145939
0.311151
0.148149
0.235487
-0.0199356
0.158915
-0.0310558
0.152326
-0.0360153
0.145146
-0.0396145
0.137879
-0.0427338
0.130793
-0.0452727
0.124052
-0.0465872
0.117875
-0.0464141
0.112472
-0.0447227
0.107852
-0.0414454
0.103766
-0.0365399
0.0997483
-0.0302068
0.0953868
-0.0228065
0.0907172
-0.0145363
0.0865849
-0.00524333
0.0845789
0.00612338
0.08626
0.0191691
0.0923367
0.0348024
0.102265
0.0529611
0.114906
0.0721104
0.129108
0.0892419
0.143722
0.10058
0.157214
0.102882
0.167985
0.0925889
0.175051
0.0646627
0.177551
0.0187115
0.174992
-0.0351833
0.168053
-0.0823096
0.158874
-0.11509
0.149593
-0.133719
0.141464
-0.142357
0.134553
-0.144466
0.128594
-0.14354
0.1236
-0.139986
0.11862
-0.134494
0.112406
-0.127789
0.106287
-0.119407
0.104677
-0.101292
0.110644
-0.0648016
0.123576
-0.0163563
0.139703
0.0442796
0.155031
0.108686
0.166175
0.189884
0.171511
0.259843
0.1716
0.294484
0.167532
0.25459
0.161984
0.142782
0.156432
0.00497367
0.153346
-0.127332
0.152057
-0.174896
0.148131
-0.207204
0.141477
-0.198623
0.13611
-0.229476
0.138255
-0.206857
0.143291
-0.0828614
0.146747
0.0227056
0.146159
0.249052
0.144677
0.263886
0.147041
0.308786
0.149895
0.232633
-0.0198624
0.158584
-0.0257653
0.152332
-0.0297634
0.145524
-0.0328062
0.138723
-0.0359329
0.132077
-0.0386265
0.125781
-0.0402911
0.120151
-0.0407839
0.11545
-0.0400221
0.111791
-0.0377863
0.109147
-0.0338959
0.107285
-0.0283444
0.105793
-0.0213152
0.104304
-0.0130473
0.10299
-0.003929
0.101749
0.00736471
0.101893
0.0190245
0.104932
0.0317634
0.111417
0.0464765
0.12113
0.0623969
0.133199
0.0771735
0.146314
0.0874645
0.158805
0.0903917
0.169118
0.0822757
0.176041
0.0577403
0.177911
0.0168409
0.17433
-0.0316019
0.166144
-0.0741242
0.156008
-0.104953
0.146126
-0.123837
0.137692
-0.133923
0.130774
-0.137548
0.124898
-0.137663
0.120071
-0.135159
0.115854
-0.130277
0.110894
-0.12283
0.105427
-0.113939
0.103157
-0.0990227
0.10764
-0.069285
0.119308
-0.0280238
0.135161
0.0284268
0.151516
0.0923304
0.164626
0.176775
0.171927
0.252542
0.1732
0.293211
0.169526
0.258263
0.163897
0.148411
0.157352
0.0115187
0.153225
-0.123204
0.151426
-0.173098
0.147731
-0.203509
0.14122
-0.192112
0.135347
-0.223603
0.137228
-0.208737
0.142798
-0.0884315
0.146942
0.018562
0.146771
0.249223
0.145362
0.265295
0.148269
0.305879
0.151811
0.229092
-0.0201087
0.153688
-0.0216068
0.148079
-0.0241551
0.14228
-0.0270065
0.136415
-0.0300679
0.130613
-0.0328251
0.125162
-0.03484
0.120276
-0.0358976
0.116111
-0.0358573
0.112865
-0.0345408
0.110742
-0.0317723
0.109802
-0.0274047
0.109887
-0.0214002
0.110652
-0.0138119
0.111507
-0.00478367
0.112916
0.00595484
0.114798
0.0171425
0.11771
0.0288517
0.122654
0.0415329
0.130036
0.0550144
0.139633
0.0675764
0.150561
0.0765368
0.161461
0.0794919
0.170838
0.0728986
0.17688
0.0516986
0.177948
0.015773
0.172664
-0.026318
0.163291
-0.0647515
0.152597
-0.0942595
0.142539
-0.113779
0.134024
-0.125408
0.127156
-0.130681
0.121397
-0.131904
0.116624
-0.130386
0.112885
-0.126537
0.109064
-0.119009
0.104439
-0.109313
0.101753
-0.0963368
0.104835
-0.0723671
0.114919
-0.038108
0.130104
0.0132421
0.146892
0.075542
0.161644
0.162023
0.171016
0.24317
0.173737
0.290489
0.170698
0.261302
0.165168
0.153942
0.158103
0.0185835
0.152956
-0.118057
0.150636
-0.170779
0.147208
-0.200081
0.1409
-0.185804
0.134579
-0.217282
0.136108
-0.210266
0.142187
-0.0945114
0.147074
0.013675
0.147426
0.248872
0.146128
0.266593
0.14962
0.302386
0.153896
0.224816
-0.0207001
0.193677
-0.0171857
-0.198098
0.190123
-0.020601
0.186351
-0.0232341
0.182115
-0.0258319
0.177445
-0.028155
0.172481
-0.0298761
0.167353
-0.0307693
0.162158
-0.0306631
0.157018
-0.0294003
0.15207
-0.0268243
0.147446
-0.0227811
0.143233
-0.0171871
0.139481
-0.0100593
0.136219
-0.00152204
0.13339
0.0087837
0.13091
0.0196222
0.129045
0.030717
0.128581
0.0419966
0.130546
0.05305
0.135725
0.062397
0.144226
0.0680354
0.155771
0.0679471
0.169786
0.0588836
0.184076
0.0374092
0.19446
0.00538832
0.199081
-0.0309391
0.197736
-0.0634057
0.192279
-0.0888029
0.184537
-0.106037
0.17595
-0.116821
0.167482
-0.122212
0.159298
-0.12372
0.151436
-0.122524
0.144269
-0.119371
0.137211
-0.111951
0.128987
-0.101089
0.120909
-0.0882591
0.116627
-0.0680845
0.1183
-0.039781
0.124434
0.00710821
0.131651
0.068325
0.137532
0.156142
0.141794
0.238907
0.146104
0.28618
0.152047
0.25536
0.158559
0.147429
0.161712
0.0154308
0.161779
-0.118124
0.159707
-0.168707
0.154699
-0.195073
0.146877
-0.177981
0.138643
-0.209048
0.13512
-0.206743
0.135699
-0.0950905
0.135193
0.014181
0.133124
0.250942
0.132035
0.267681
0.136321
0.2981
0.14179
0.219348
-0.020753
0.20279
-0.0138567
-0.206119
0.199267
-0.0170786
0.195714
-0.019681
0.191803
-0.0219208
0.187514
-0.0238654
0.182965
-0.0253272
0.178276
-0.0260809
0.173557
-0.0259438
0.168928
-0.0247709
0.164528
-0.0224243
0.160519
-0.0187726
0.157064
-0.0137318
0.154274
-0.00726913
0.152129
0.000622472
0.150923
0.00999012
0.150443
0.0201019
0.150746
0.0304144
0.152223
0.0405191
0.155564
0.049709
0.161356
0.0566054
0.169744
0.0596477
0.180523
0.057168
0.192724
0.0466819
0.203868
0.0262659
0.211185
-0.00192882
0.212915
-0.0326692
0.209733
-0.0602236
0.20316
-0.0822299
0.194803
-0.09768
0.18587
-0.107888
0.177203
-0.113545
0.168957
-0.115474
0.160962
-0.114528
0.15359
-0.112
0.146716
-0.105076
0.138985
-0.0933582
0.130897
-0.0801713
0.125781
-0.0629688
0.126415
-0.0404144
0.1321
0.00142286
0.139658
0.0607666
0.146399
0.149402
0.151712
0.233594
0.157238
0.280654
0.164313
0.248284
0.171529
0.140213
0.174896
0.0120639
0.17418
-0.117408
0.171168
-0.165696
0.165474
-0.189379
0.157108
-0.169616
0.148001
-0.199941
0.143855
-0.202597
0.144391
-0.0956259
0.144178
0.0143939
0.142201
0.252919
0.141113
0.268769
0.146111
0.293103
0.152302
0.213157
-0.0208071
0.211965
-0.0112131
-0.214608
0.208781
-0.0138945
0.205388
-0.0162877
0.201758
-0.0182916
0.197836
-0.0199426
0.193676
-0.0211673
0.189389
-0.021794
0.185093
-0.0216484
0.180914
-0.0205912
0.176994