/*--------------------------------*- C++ -*----------------------------------*\
| =========                 |                                                 |
| \\      /  F ield         | OpenFOAM: The Open Source CFD Toolbox           |
|  \\    /   O peration     | Version:  2512                                  |
|   \\  /    A nd           | Website:  www.openfoam.com                      |
|    \\/     M anipulation  |                                                 |
\*---------------------------------------------------------------------------*/
FoamFile
{
    version     2.0;
    format      ascii;
    arch        "LSB;label=32;scalar=64";
    class       volVectorField;
    location    "112";
    object      U;
}
// * * * * * * * * * * * * * * * * * * * * * * * * * * * * * * * * * * * * * //

dimensions      [0 1 -1 0 0 0 0];

internalField   nonuniform List<vector> 
13248
(
(-0.0113161 0.00978759 6.52445e-20)
(-0.0203624 0.0181545 0)
(-0.0175879 0.0197188 -1.23844e-19)
(-0.00320427 0.0175258 1.16666e-19)
(0.0228562 0.0136153 1.09191e-19)
(0.0606915 0.00938039 0)
(0.110304 0.00579893 0)
(0.17143 0.00355694 2.5793e-19)
(0.243386 0.00312134 -3.32059e-21)
(0.324948 0.00477112 -2.21539e-19)
(0.414319 0.00860322 1.9975e-19)
(0.509179 0.0145305 -1.2434e-19)
(0.606816 0.022286 0)
(0.704316 0.0314405 -2.00832e-19)
(0.798786 0.0414385 3.7134e-19)
(0.887568 0.0516453 -8.71513e-20)
(0.968412 0.0614064 -1.51434e-19)
(1.03962 0.0700874 1.42157e-19)
(1.1001 0.0771945 0)
(1.14944 0.0821286 0)
(1.18783 0.0851612 0)
(1.21591 0.0844023 0)
(1.23511 0.0842257 4.36162e-20)
(1.24672 0.0735073 1.61655e-19)
(-0.0116649 0.00933288 -1.97214e-19)
(-0.0171326 0.0163983 1.34829e-19)
(-0.0064156 0.0172526 -1.08358e-21)
(0.0195395 0.0148219 -1.78339e-19)
(0.0602908 0.0112098 -1.09069e-19)
(0.115444 0.00793855 -1.02893e-19)
(0.184338 0.00607014 -1.8736e-19)
(0.265797 0.00630342 1.77297e-19)
(0.357944 0.0090271 0)
(0.458148 0.014339 1.83863e-21)
(0.563124 0.0220584 4.24572e-21)
(0.669172 0.0317531 1.25271e-19)
(0.772497 0.042789 0)
(0.869565 0.0544044 0)
(0.957402 0.0657956 1.36415e-19)
(1.03382 0.0762037 -2.55983e-19)
(1.09755 0.0849902 1.50455e-19)
(1.14824 0.0916865 -1.4125e-19)
(1.18641 0.0960265 -6.23349e-20)
(1.21328 0.097912 -1.12359e-19)
(1.2305 0.0975127 -4.75685e-20)
(1.24031 0.0947123 -8.93006e-20)
(1.24393 0.0911047 1.30125e-19)
(1.2451 0.0832999 3.79367e-20)
(-0.0107253 0.00798015 0)
(-0.00996145 0.0126909 0)
(0.0115105 0.0125804 6.30905e-20)
(0.0519859 0.0102952 5.80742e-20)
(0.110343 0.00788148 -1.60244e-21)
(0.185359 0.00687899 -1.06301e-19)
(0.275217 0.00829497 0)
(0.377228 0.0126575 -8.77784e-20)
(0.487753 0.0200538 8.1809e-20)
(0.602366 0.0301638 7.83973e-22)
(0.716232 0.0423233 -1.36171e-19)
(0.824617 0.0556267 -1.22199e-19)
(0.923392 0.0690598 3.8133e-21)
(1.00944 0.0816393 -9.68792e-20)
(1.0809 0.0925341 2.35179e-19)
(1.1372 0.101151 0)
(1.17896 0.107173 -1.4849e-19)
(1.20777 0.110547 7.18129e-20)
(1.22583 0.111465 6.22809e-20)
(1.2356 0.110192 0)
(1.23952 0.107323 5.10293e-20)
(1.23967 0.102713 -1.78018e-19)
(1.23738 0.0983894 1.67112e-19)
(1.23532 0.0904585 1.07234e-19)
(-0.00822469 0.00593325 -7.0067e-20)
(0.00195058 0.00758022 -7.24669e-20)
(0.037374 0.00659049 6.54808e-20)
(0.0954531 0.00517931 0)
(0.174062 0.00518986 0)
(0.270621 0.00800453 -2.17971e-21)
(0.381504 0.0143386 0)
(0.501897 0.0242596 -2.67622e-19)
(0.626039 0.037258 2.47191e-19)
(0.747792 0.0523647 -3.02933e-19)
(0.861379 0.0683309 6.82909e-20)
(0.962097 0.0838454 0)
(1.0468 0.0977408 1.10609e-19)
(1.11412 0.109149 -2.03699e-19)
(1.16435 0.117583 4.81734e-20)
(1.19916 0.122932 1.20948e-19)
(1.22113 0.125406 -6.40222e-21)
(1.23322 0.125423 -1.35133e-19)
(1.23833 0.123494 0)
(1.23896 0.120124 0)
(1.23699 0.115791 -4.76931e-20)
(1.2337 0.110611 4.28017e-20)
(1.22977 0.105772 1.53709e-19)
(1.22618 0.0983075 -1.4429e-19)
(-0.00386578 0.0034391 -7.40112e-20)
(0.0193871 0.00180905 -7.36102e-20)
(0.0722168 0.000518507 2.07014e-19)
(0.150855 0.00115984 -1.25327e-19)
(0.251643 0.00515738 1.17968e-19)
(0.369945 0.013456 2.13391e-19)
(0.499651 0.0261284 -1.50529e-19)
(0.633463 0.0424262 -1.81262e-19)
(0.763708 0.0609861 4.89517e-21)
(0.883378 0.0801223 2.29631e-19)
(0.987096 0.0981576 0)
(1.0717 0.113715 6.20346e-20)
(1.13636 0.125905 0)
(1.18228 0.134379 -9.85894e-20)
(1.21214 0.139269 1.38142e-19)
(1.22934 0.141047 8.57972e-22)
(1.23739 0.140352 -3.58363e-20)
(1.23942 0.137844 6.59654e-20)
(1.23785 0.134095 5.73152e-20)
(1.23438 0.129532 -5.12594e-20)
(1.23003 0.124479 4.76826e-20)
(1.22537 0.118991 -4.27919e-20)
(1.22059 0.113798 0)
(1.21635 0.106651 -3.2799e-20)
(0.00267589 0.000779698 7.40006e-20)
(0.0430497 -0.00373106 7.76935e-20)
(0.11674 -0.00416509 -6.93604e-20)
(0.218335 0.000157118 1.28962e-19)
(0.341935 0.00990138 -1.21382e-19)
(0.480103 0.0251654 1.09164e-19)
(0.623855 0.0449596 -5.25185e-20)
(0.763686 0.0674278 1.36292e-19)
(0.891045 0.090314 -8.56681e-20)
(0.999627 0.11146 1.49628e-19)
(1.0861 0.12921 -3.4405e-19)
(1.15011 0.14263 1.2615e-19)
(1.19372 0.151518 -1.08354e-19)
(1.22051 0.156256 1.01776e-19)
(1.23463 0.157579 8.65465e-20)
(1.24003 0.156338 7.50865e-20)
(1.23997 0.153324 -2.09443e-19)
(1.23686 0.149163 1.29532e-19)
(1.23224 0.144299 -5.73179e-20)
(1.22705 0.139013 1.49423e-19)
(1.22175 0.133472 -4.82782e-20)
(1.21654 0.127739 -1.17376e-19)
(1.21149 0.122187 1.08334e-19)
(1.20682 0.115279 3.27891e-20)
(0.0117177 -0.00171764 0)
(0.0734322 -0.00803363 6.58942e-22)
(0.171062 -0.00589043 1.45121e-19)
(0.296942 0.0040501 -1.36108e-19)
(0.442154 0.0212069 -1.22217e-19)
(0.595984 0.0443355 2.26794e-19)
(0.746822 0.0710367 -1.05154e-19)
(0.884106 0.0983148 1.38993e-19)
(1.00015 0.123342 -3.49517e-21)
(1.0911 0.144039 -7.82712e-20)
(1.15688 0.159346 1.68455e-19)
(1.20028 0.169176 -2.48197e-19)
(1.22572 0.17416 0)
(1.23806 0.1753 -4.80097e-20)
(1.24172 0.173667 -1.26882e-19)
(1.24016 0.170196 4.01079e-20)
(1.23582 0.165589 1.6896e-21)
(1.23023 0.160323 -8.57834e-20)
(1.22425 0.154687 5.83336e-21)
(1.21831 0.148848 9.90441e-20)
(1.21259 0.142898 -4.38874e-20)
(1.20713 0.136892 -1.66895e-20)
(1.20189 0.130964 5.14173e-20)
(1.19694 0.124233 0)
(0.0235071 -0.00366605 0)
(0.110666 -0.0100068 3.94089e-20)
(0.234513 -0.0031157 -1.89824e-19)
(0.384468 0.0144315 6.88065e-20)
(0.548025 0.0402095 -6.47579e-20)
(0.711313 0.071189 -5.89867e-20)
(0.861238 0.103489 -1.03625e-19)
(0.988039 0.133337 5.2075e-20)
(1.08676 0.157977 4.48574e-20)
(1.15718 0.17605 0)
(1.20266 0.187508 1.00349e-19)
(1.22844 0.193208 -1.48666e-19)
(1.24016 0.194445 1.10336e-19)
(1.24279 0.192546 4.80346e-20)
(1.24014 0.188628 -3.89896e-20)
(1.23478 0.183511 -3.20642e-20)
(1.2283 0.177732 -2.97377e-20)
(1.22157 0.17161 8.99463e-20)
(1.215 0.165324 0)
(1.20876 0.158969 4.46182e-20)
(1.20288 0.152598 3.72628e-20)
(1.1973 0.146249 -9.28627e-20)
(1.19197 0.139926 -6.33262e-20)
(1.18685 0.133278 5.84451e-20)
(0.038151 -0.00461865 -4.28323e-20)
(0.154385 -0.00852519 -1.69986e-21)
(0.305528 0.00553873 3.86582e-20)
(0.477563 0.0324112 1.0787e-19)
(0.654343 0.0672424 3.11714e-20)
(0.819821 0.105031 -6.03799e-20)
(0.961309 0.140764 5.50162e-20)
(1.07184 0.170611 -4.79226e-20)
(1.15045 0.192614 8.55367e-20)
(1.20074 0.206598 3.60067e-20)
(1.22876 0.213615 -1.02455e-19)
(1.24105 0.215282 2.99014e-20)
(1.24332 0.213249 5.05742e-20)
(1.2399 0.208885 -2.49693e-20)
(1.23366 0.203179 0)
(1.22633 0.196765 3.6458e-20)
(1.21884 0.190015 6.11401e-20)
(1.2116 0.183129 1.00663e-20)
(1.20479 0.176213 -5.06703e-20)
(1.19843 0.169321 2.09792e-20)
(1.19248 0.162488 0)
(1.18686 0.155726 -1.63178e-20)
(1.1815 0.148999 -1.549e-20)
(1.17629 0.142329 0)
(0.055551 -0.00409136 0)
(0.203634 -0.00251875 2.24692e-20)
(0.381676 0.021147 4.14869e-20)
(0.572082 0.0584878 -1.10142e-19)
(0.75578 0.101862 3.56544e-20)
(0.91634 0.144543 0)
(1.04361 0.18114 5.29611e-20)
(1.13488 0.208612 -7.38938e-20)
(1.19348 0.226356 -4.27466e-20)
(1.22615 0.235517 1.92038e-20)
(1.24047 0.238071 -3.0351e-20)
(1.24318 0.236082 7.38834e-20)
(1.23936 0.231272 3.64708e-20)
(1.23237 0.224875 -2.56218e-20)
(1.22421 0.217676 -2.65622e-21)
(1.21592 0.210127 -6.8238e-20)
(1.20797 0.202466 3.09575e-20)
(1.20054 0.194815 -8.26461e-22)
(1.19367 0.187236 0)
(1.18731 0.179762 -2.10012e-20)
(1.18138 0.172412 0)
(1.17581 0.165174 4.68365e-20)
(1.17048 0.158038 -5.54851e-20)
(1.16527 0.151217 2.52159e-20)
(0.0753595 -0.00160216 -1.17731e-20)
(0.256856 0.00892174 -5.65924e-20)
(0.459838 0.0443548 6.44111e-20)
(0.663587 0.0925113 3.76799e-20)
(0.847649 0.143014 -1.80038e-20)
(0.997411 0.188134 3.00477e-20)
(1.10701 0.223086 -1.46159e-20)
(1.17857 0.246329 2.41161e-20)
(1.21918 0.258863 0)
(1.2376 0.263017 5.39122e-20)
(1.24187 0.261381 -2.44099e-21)
(1.23817 0.256167 -4.31052e-20)
(1.23063 0.248973 1.82681e-20)
(1.22167 0.240812 -2.03753e-20)
(1.21255 0.232261 -7.54631e-21)
(1.20384 0.223621 8.9462e-21)
(1.19574 0.215039 -6.75203e-21)
(1.18831 0.206587 -3.64419e-20)
(1.18149 0.198299 2.22803e-20)
(1.17523 0.190197 4.48256e-21)
(1.16942 0.182281 3.91528e-21)
(1.16395 0.174528 3.42153e-21)
(1.15872 0.16699 0)
(1.15357 0.159877 0)
(0.097038 0.0032929 1.17812e-20)
(0.3121 0.0264571 -1.17565e-20)
(0.53665 0.0752995 -2.14622e-20)
(0.748013 0.133732 0)
(0.92648 0.189259 -8.93934e-21)
(1.06133 0.234241 -8.03637e-21)
(1.15199 0.265428 -1.36648e-20)
(1.20516 0.283207 0)
(1.23068 0.290133 0)
(1.23824 0.289423 0)
(1.23552 0.283964 0)
(1.22777 0.27589 0)
(1.21811 0.266567 -1.14239e-20)
(1.20816 0.256774 5.18669e-21)
(1.19865 0.246908 8.91975e-21)
(1.18986 0.23716 4.16207e-21)
(1.18183 0.227612 1.01446e-20)
(1.17454 0.218304 0)
(1.16791 0.209256 -2.367e-21)
(1.16186 0.200475 -2.26744e-21)
(1.15627 0.191947 -3.92153e-21)
(1.15103 0.183656 -3.42701e-21)
(1.14601 0.175716 0)
(1.14105 0.168175 2.38396e-21)
(-0.000394148 -0.0374688 8.81036e-21)
(-0.005275 -0.0822882 -9.15131e-21)
(-0.0161451 -0.10624 -1.73255e-20)
(-0.0302329 -0.11544 0)
(-0.0459254 -0.114798 -2.33017e-20)
(-0.0623874 -0.108015 7.40329e-21)
(-0.0790643 -0.0976006 -1.37228e-20)
(-0.0955832 -0.0850219 0)
(-0.111701 -0.0709304 0)
(-0.127249 -0.0554265 0)
(-0.142092 -0.0382996 0)
(-0.156093 -0.0192141 0)
(-0.169052 0.00216073 3.13137e-22)
(-0.180877 0.0261163 -9.22543e-21)
(-0.191452 0.0527351 1.66668e-20)
(-0.200525 0.0820449 2.36481e-20)
(-0.207885 0.113915 6.8997e-21)
(-0.21331 0.148046 0)
(-0.216574 0.18397 6.52243e-21)
(-0.217468 0.221043 -1.76819e-20)
(-0.215807 0.258464 -1.06763e-20)
(-0.211413 0.295318 -9.8487e-21)
(-0.204263 0.330666 0)
(-0.194923 0.363636 0)
(0.00132628 -0.0321456 -2.6177e-20)
(-0.00193266 -0.0699256 4.53728e-20)
(-0.0124658 -0.089416 -1.66536e-20)
(-0.0268255 -0.0959003 -3.21543e-20)
(-0.0430084 -0.0937252 4.57023e-20)
(-0.0599672 -0.0861993 -2.85571e-20)
(-0.0770342 -0.0755676 4.05801e-20)
(-0.0937853 -0.0631354 2.4798e-20)
(-0.109961 -0.0494738 0)
(-0.125383 -0.0346539 -2.28095e-20)
(-0.139898 -0.0184646 9.49355e-23)
(-0.153353 -0.000587607 2.02351e-20)
(-0.165576 0.0192742 2.73101e-20)
(-0.176378 0.0413041 3.41945e-20)
(-0.185551 0.0656443 -1.69125e-20)
(-0.192833 0.0922691 -4.54499e-20)
(-0.197946 0.121011 1.29852e-20)
(-0.20059 0.151557 -5.02587e-20)
(-0.200462 0.18345 0)
(-0.197274 0.216091 1.15426e-20)
(-0.190758 0.248773 1.06608e-20)
(-0.180599 0.280722 9.83394e-21)
(-0.166524 0.311191 0)
(-0.149465 0.339679 0)
(0.00243291 -0.0264295 0)
(0.000298616 -0.056963 8.69521e-20)
(-0.00972241 -0.0721508 -3.28992e-20)
(-0.0237927 -0.0762719 3.15458e-20)
(-0.0396552 -0.0729834 -8.74626e-20)
(-0.0561036 -0.065128 0)
(-0.0723774 -0.0546533 -5.17055e-20)
(-0.0880057 -0.0427024 2.38584e-20)
(-0.102708 -0.0297826 -4.46323e-20)
(-0.116295 -0.0159605 1.98763e-20)
(-0.12861 -0.00105327 1.18033e-19)
(-0.139485 0.0152132 -5.53447e-20)
(-0.14873 0.0331013 -8.63572e-20)
(-0.156122 0.052789 -3.02316e-20)
(-0.161407 0.0743554 8.62972e-22)
(-0.1643 0.0977477 1.09654e-19)
(-0.164489 0.122781 -5.1057e-20)
(-0.161647 0.149137 2.0703e-21)
(-0.155437 0.176371 0)
(-0.145543 0.20393 -3.77933e-20)
(-0.131689 0.231187 0)
(-0.113587 0.257524 -3.45246e-20)
(-0.0906939 0.282479 1.24386e-19)
(-0.0627474 0.306214 3.88089e-22)
(0.00290346 -0.0207263 0)
(0.00132034 -0.0442258 -8.57544e-22)
(-0.00816154 -0.055462 3.16772e-20)
(-0.0215601 -0.0576592 -2.97593e-20)
(-0.0364916 -0.0537274 2.89463e-20)
(-0.0516461 -0.0460036 1.59459e-19)
(-0.0661951 -0.0361161 -5.01504e-20)
(-0.0796289 -0.0250402 -4.61145e-20)
(-0.0916477 -0.0132248 8.75998e-20)
(-0.102058 -0.000745798 -1.22722e-19)
(-0.110698 0.012538 3.73939e-20)
(-0.117401 0.0268551 3.43721e-20)
(-0.12197 0.0424246 0)
(-0.124178 0.0593957 3.10109e-20)
(-0.123766 0.0778174 0)
(-0.120447 0.0976226 4.93006e-20)
(-0.113919 0.118622 -9.23524e-20)
(-0.103866 0.140508 2.43667e-20)
(-0.0899791 0.162864 7.94968e-20)
(-0.0719677 0.185171 3.77505e-20)
(-0.0495815 0.206857 0)
(-0.0225652 0.227386 -9.3109e-20)
(0.00991843 0.246537 2.97602e-20)
(0.0482575 0.264893 0)
(0.00275898 -0.015307 0)
(0.00110989 -0.0322755 -9.97525e-20)
(-0.00795534 -0.0400549 -3.11863e-20)
(-0.0204951 -0.0408419 -5.89167e-20)
(-0.0341087 -0.0367917 5.54789e-20)
(-0.0474411 -0.0297191 -5.26732e-20)
(-0.0596268 -0.0209189 9.68714e-20)
(-0.0701319 -0.0111876 4.52942e-20)
(-0.0786447 -0.000909284 -1.27899e-19)
(-0.0849706 0.00983267 7.79141e-20)
(-0.0889576 0.0211374 -1.09588e-19)
(-0.0904516 0.0331817 2.32255e-19)
(-0.0892758 0.0461394 -1.24952e-19)
(-0.0852245 0.0601286 5.55493e-20)
(-0.078065 0.0751812 1.53741e-19)
(-0.0675476 0.0912288 -5.17823e-20)
(-0.053414 0.108096 -4.47221e-20)
(-0.0353969 0.125505 -4.20857e-20)
(-0.0132494 0.143078 0)
(0.0132473 0.16035 -6.60651e-20)
(0.0442752 0.176789 -5.99424e-20)
(0.0799326 0.191844 8.68632e-20)
(0.120715 0.205247 1.07868e-19)
(0.170135 0.217434 -9.97873e-20)
(0.00203568 -0.0103015 0)
(-0.000303601 -0.0214004 -1.29554e-19)
(-0.00917514 -0.0263039 5.26026e-22)
(-0.0208095 -0.0262381 1.15658e-19)
(-0.0328829 -0.0226222 0)
(-0.0440583 -0.0167508 0)
(-0.0534709 -0.00957856 0)
(-0.0605836 -0.00170993 -4.41154e-20)
(-0.0650838 0.00655048 1.13209e-21)
(-0.0667842 0.0151252 7.65974e-20)
(-0.0655497 0.0240803 -1.05438e-19)
(-0.0612532 0.0335467 1.10263e-21)
(-0.0537536 0.0436576 0)
(-0.0428889 0.0545045 -5.55234e-20)
(-0.028476 0.0661101 4.68343e-20)
(-0.010321 0.0784137 -1.35873e-19)
(0.0117709 0.0912661 1.636e-19)
(0.0379906 0.104431 3.31126e-20)
(0.0685142 0.11758 -3.61273e-21)
(0.103489 0.130316 -1.26842e-19)
(0.143024 0.142172 -5.6397e-20)
(0.187372 0.152601 1.86738e-19)
(0.235186 0.16128 -1.23602e-19)
(0.296902 0.167441 0)
(0.000771197 -0.00573674 6.15345e-20)
(-0.00283588 -0.0116791 6.45135e-20)
(-0.0117334 -0.0143076 -6.02744e-20)
(-0.022428 -0.0139309 -1.13722e-19)
(-0.032758 -0.0112643 1.07084e-19)
(-0.0414656 -0.00709785 -9.95042e-20)
(-0.0477278 -0.00204654 1.39904e-19)
(-0.0510259 0.00348741 -4.37675e-20)
(-0.051056 0.00929711 8.08409e-20)
(-0.0476391 0.0153321 0)
(-0.0406547 0.021645 6.56559e-20)
(-0.0299994 0.028338 -1.24962e-19)
(-0.015564 0.0355178 1.12888e-19)
(0.00277347 0.0432591 -1.06024e-19)
(0.0251473 0.0515842 0)
(0.0516995 0.0604479 8.67766e-20)
(0.0825692 0.0697325 1.53325e-19)
(0.117887 0.0792458 -1.45336e-19)
(0.157768 0.0887194 -6.42859e-20)
(0.202322 0.0978196 -5.95579e-20)
(0.251384 0.106125 1.67597e-19)
(0.306332 0.113208 5.01615e-20)
(0.361042 0.118782 -4.70914e-20)
(0.439271 0.12035 4.47899e-20)
(-0.000985878 -0.00160173 -6.15429e-20)
(-0.00631213 -0.00309539 1.90709e-19)
(-0.0153084 -0.00400735 -5.96447e-20)
(-0.0248621 -0.00377364 1.12598e-19)
(-0.0330497 -0.00244583 -1.06024e-19)
(-0.038746 -0.000333781 1.92502e-22)
(-0.0411994 0.0022783 4.61798e-20)
(-0.0399209 0.00519733 1.68274e-19)
(-0.0346102 0.0083325 -2.87179e-21)
(-0.025082 0.0116858 -7.46186e-20)
(-0.0112079 0.0153227 0)
(0.00711855 0.0193423 -5.87322e-20)
(0.0299978 0.0238432 1.13272e-19)
(0.0575303 0.0288997 1.00043e-19)
(0.0898163 0.034543 -4.81229e-20)
(0.126946 0.0407476 -9.71176e-22)
(0.168991 0.0474247 -3.86994e-20)
(0.215988 0.0544177 6.89029e-20)
(0.267919 0.0614957 6.42754e-20)
(0.32487 0.0684073 -5.89414e-20)
(0.385775 0.0746317 5.35837e-20)
(0.454556 0.0801903 -4.98697e-20)
(0.516253 0.0843228 0)
(0.614949 0.0846243 -4.47533e-20)
(-0.00314578 0.002084 6.12026e-20)
(-0.0104114 0.00433355 -6.34979e-20)
(-0.0192807 0.00466212 5.98781e-20)
(-0.0271376 0.00444824 0)
(-0.0323613 0.00425254 0)
(-0.0339909 0.00421297 9.72814e-20)
(-0.0313554 0.00436183 -9.18631e-20)
(-0.0239872 0.00471783 8.27579e-20)
(-0.0115689 0.00532297 -3.90365e-19)
(0.0061178 0.00625218 1.30457e-21)
(0.0292288 0.00761264 6.57863e-20)
(0.057882 0.00952405 0)
(0.0921602 0.0120969 -1.08278e-19)
(0.132104 0.0154143 2.00155e-19)
(0.177702 0.0195129 -1.38286e-19)
(0.228873 0.0243728 -2.04261e-19)
(0.285456 0.0299083 4.60893e-21)
(0.347199 0.035966 1.38581e-19)
(0.413676 0.0422959 0)
(0.484804 0.0487511 0)
(0.558016 0.0544952 -5.35793e-20)
(0.639888 0.0603709 4.9865e-20)
(0.706673 0.0640885 -1.87981e-19)
(0.819285 0.0664492 1.76234e-19)
(-0.00554375 0.00522747 0)
(-0.0146235 0.0104655 0)
(-0.0227214 0.0116415 -1.79621e-19)
(-0.0278351 0.0108459 5.70223e-20)
(-0.0286911 0.00917979 8.45692e-22)
(-0.0245023 0.00718768 9.87975e-20)
(-0.0146716 0.00519775 0)
(0.00125867 0.00343599 -8.45555e-20)
(0.0236216 0.0020826 7.80327e-20)
(0.0526513 0.00130614 -1.41488e-19)
(0.0884845 0.00127275 1.45635e-21)
(0.131151 0.00213162 1.18313e-19)
(0.180559 0.00400397 -3.32889e-21)
(0.236478 0.00696355 9.49397e-20)
(0.298521 0.0110221 -1.38782e-19)
(0.366137 0.0161171 0)
(0.438608 0.0221051 1.48139e-19)
(0.515078 0.0287665 -2.07555e-19)
(0.594444 0.0357614 6.31551e-20)
(0.676057 0.0429218 0)
(0.756619 0.0492191 5.39382e-20)
(0.842051 0.0558666 2.00797e-19)
(0.909047 0.0593358 -1.88435e-19)
(1.01486 0.0639444 -2.24324e-19)
(-0.00792584 0.0076678 1.86025e-19)
(-0.0182516 0.0150225 -2.56487e-19)
(-0.0244621 0.0166978 3.65422e-22)
(-0.02526 0.0153306 5.70937e-20)
(-0.0197462 0.0124629 -1.06373e-19)
(-0.00731019 0.00899242 -9.84285e-20)
(0.0125594 0.00551125 1.81703e-19)
(0.0402717 0.00243833 -3.42299e-21)
(0.0761012 9.19108e-05 -1.57845e-19)
(0.120154 -0.00126821 2.85826e-19)
(0.172335 -0.00143178 -3.73568e-21)
(0.232307 -0.000240814 -1.22104e-19)
(0.299468 0.00239613 0)
(0.372946 0.00648747 0)
(0.451608 0.0119459 -4.54299e-20)
(0.5341 0.0185817 -8.33495e-20)
(0.6189 0.0261073 -1.49404e-19)
(0.704386 0.0341404 1.40235e-19)
(0.788867 0.0422462 -6.31764e-20)
(0.870896 0.0499514 1.16163e-19)
(0.948098 0.0566371 -5.52047e-20)
(1.02242 0.0624703 1.00138e-19)
(1.08126 0.0652525 -2.35678e-19)
(1.1581 0.0688525 4.42588e-20)
(-0.00996543 0.00922653 6.26416e-20)
(-0.0204621 0.0176698 0)
(-0.0232051 0.0194927 1.22002e-19)
(-0.0176487 0.0176575 -1.14934e-19)
(-0.00328736 0.0140221 1.06466e-19)
(0.0202834 0.00976786 0)
(0.0534145 0.00570824 0)
(0.0963265 0.00242443 -8.41256e-20)
(0.149009 0.000341409 3.26167e-21)
(0.211134 -0.000230651 7.43122e-20)
(0.281992 0.000914381 -6.48873e-20)
(0.360458 0.00387272 1.23079e-19)
(0.445007 0.0086188 0)
(0.533774 0.0149968 1.98989e-19)
(0.624654 0.0227218 -3.68109e-19)
(0.715422 0.0313914 2.53582e-19)
(0.803869 0.0405161 1.50811e-19)
(0.887917 0.0495239 -1.41563e-19)
(0.965756 0.057914 0)
(1.03586 0.0649186 0)
(1.09719 0.0705975 0)
(1.14938 0.0734012 0)
(1.19037 0.0749731 4.68193e-20)
(1.23062 0.0732242 -1.74522e-19)
(-0.182443 0.398276 -6.03878e-21)
(-0.163997 0.432111 6.06232e-21)
(-0.138107 0.455061 -1.77017e-22)
(-0.104968 0.463775 0)
(-0.0636317 0.454859 -5.54879e-21)
(-0.0139183 0.425485 1.09459e-20)
(0.0436156 0.373923 1.92553e-22)
(0.107158 0.29972 -5.43336e-21)
(0.174306 0.205002 0)
(0.242659 0.0925286 0)
(0.309752 -0.0335978 -3.47381e-22)
(0.374729 -0.168029 -3.25869e-22)
(0.437061 -0.302174 -4.56346e-21)
(0.494657 -0.422965 4.1497e-21)
(0.543774 -0.51594 0)
(0.580552 -0.572451 0)
(0.603133 -0.593482 1.8525e-21)
(0.612709 -0.587164 -2.73015e-22)
(0.610255 -0.567307 -1.39861e-21)
(0.592386 -0.551723 -7.63378e-23)
(0.557017 -0.549028 0)
(0.514038 -0.542181 0)
(0.485782 -0.492275 0)
(0.491292 -0.369285 0)
(0.530847 -0.18057 0)
(0.5908 0.0330205 0)
(0.655739 0.223751 5.33917e-22)
(0.713519 0.360735 -8.47375e-22)
(0.755934 0.439075 0)
(0.782436 0.470454 0)
(0.796879 0.471815 -3.15865e-22)
(0.796505 0.471359 3.0699e-22)
(0.773669 0.486997 1.48233e-22)
(0.73183 0.502372 0)
(0.694241 0.462396 0)
(0.682659 0.330255 4.62517e-22)
(0.70193 0.126729 -4.49581e-22)
(0.739631 -0.0869748 0)
(0.779958 -0.248026 3.34024e-22)
(0.816447 -0.345965 -4.73116e-22)
(0.839852 -0.383136 1.14023e-22)
(0.839659 -0.410666 0)
(0.806726 -0.422274 -1.66651e-22)
(0.755483 -0.414295 1.62055e-22)
(0.720602 -0.327582 0)
(0.717711 -0.16598 0)
(0.748642 0.00842324 -8.61819e-23)
(0.793479 0.176166 2.32533e-22)
(0.822958 0.257181 0)
(0.817465 0.356533 0)
(0.786254 0.365373 -4.90569e-23)
(0.755415 0.346753 -3.58351e-24)
(0.762831 0.228219 -6.06091e-25)
(0.789088 0.0384989 4.85974e-23)
(0.813152 -0.061431 0)
(0.812274 -0.278164 0)
(0.798497 -0.284721 0)
(0.789753 -0.340628 0)
(0.793778 -0.25578 0)
(0.781514 0.0290075 0)
(-0.129923 0.370586 -5.41054e-22)
(-0.101589 0.39821 -2.28544e-20)
(-0.0649117 0.414838 -2.31502e-22)
(-0.0204493 0.417333 2.1666e-20)
(0.0317843 0.402686 3.52626e-22)
(0.0911305 0.368596 0)
(0.156203 0.313894 -2.35669e-20)
(0.224909 0.23875 4.75552e-20)
(0.294801 0.144995 -2.39898e-20)
(0.363523 0.0350227 2.38564e-20)
(0.429451 -0.088167 -2.28385e-20)
(0.492047 -0.21966 2.05568e-20)
(0.550236 -0.350497 -2.00405e-20)
(0.600797 -0.465957 -5.35031e-22)
(0.639151 -0.550354 -1.24747e-20)
(0.662135 -0.595573 1.21233e-20)
(0.669451 -0.604997 -7.65638e-21)
(0.663886 -0.588775 7.23247e-21)
(0.649218 -0.559332 -5.26841e-21)
(0.624323 -0.532595 9.80285e-21)
(0.584331 -0.52081 -4.55768e-21)
(0.532524 -0.514806 -2.658e-22)
(0.487326 -0.479442 -5.40821e-21)
(0.471967 -0.378451 1.12214e-20)
(0.494814 -0.208629 -5.79738e-21)
(0.54628 -0.00516795 3.50355e-22)
(0.610166 0.184891 5.29438e-21)
(0.671953 0.328799 -6.36733e-22)
(0.721991 0.417058 -7.41272e-21)
(0.75825 0.45743 6.04037e-21)
(0.782069 0.467026 -2.70457e-21)
(0.788007 0.476068 2.95014e-22)
(0.76977 0.500656 -1.48545e-22)
(0.733988 0.51906 3.46244e-22)
(0.705447 0.473697 0)
(0.702852 0.331204 0)
(0.728312 0.117919 -2.03129e-21)
(0.76836 -0.100974 1.47459e-21)
(0.805728 -0.262132 1.01889e-21)
(0.835943 -0.356496 -1.50953e-22)
(0.852168 -0.386917 -1.17453e-21)
(0.848605 -0.404958 1.82156e-22)
(0.812827 -0.408619 0)
(0.758841 -0.400178 0)
(0.718574 -0.321296 0)
(0.712188 -0.170602 0)
(0.742769 -0.0035293 3.00723e-22)
(0.787484 0.164875 -1.4886e-22)
(0.818523 0.253208 0)
(0.811895 0.360943 0)
(0.783329 0.37287 0)
(0.752634 0.349859 -1.13183e-22)
(0.762773 0.224788 -1.76552e-23)
(0.792259 0.0324992 -9.38979e-23)
(0.818418 -0.0639546 0)
(0.820097 -0.276208 0)
(0.803123 -0.282882 3.99829e-23)
(0.794829 -0.339887 8.44896e-23)
(0.795839 -0.254887 0)
(0.781429 0.0303276 0)
(-0.035594 0.332227 1.4041e-21)
(-0.00123476 0.354558 -4.29912e-20)
(0.0422822 0.366251 4.52861e-20)
(0.0933267 0.364309 -4.23498e-20)
(0.151149 0.346228 -3.55001e-22)
(0.214625 0.310188 0)
(0.282096 0.255345 -5.0333e-20)
(0.351463 0.182017 4.93461e-20)
(0.420524 0.091623 3.86588e-22)
(0.487272 -0.0140078 7.90172e-22)
(0.550723 -0.13241 7.65977e-22)
(0.61031 -0.259404 6.98056e-22)
(0.663964 -0.385351 -3.86362e-20)
(0.706909 -0.494247 3.80842e-20)
(0.733719 -0.569965 0)
(0.74234 -0.60529 7.08076e-22)
(0.734757 -0.605479 -1.56165e-20)
(0.715208 -0.58252 1.53854e-20)
(0.688986 -0.547609 0)
(0.657471 -0.512928 0)
(0.615002 -0.491781 -8.35488e-21)
(0.558698 -0.483328 1.66506e-20)
(0.500927 -0.459756 -1.70342e-20)
(0.466145 -0.381653 -9.02066e-22)
(0.470694 -0.234426 1.97377e-20)
(0.510771 -0.0443838 -2.04775e-20)
(0.570879 0.142319 1.80706e-20)
(0.634657 0.29184 -1.69036e-21)
(0.691083 0.389619 -7.18042e-21)
(0.736356 0.439559 0)
(0.768961 0.458627 0)
(0.781179 0.47804 1.86772e-21)
(0.76834 0.511614 -2.38389e-21)
(0.739569 0.53313 1.29754e-23)
(0.720198 0.483505 3.85838e-21)
(0.726261 0.33249 -3.74947e-21)
(0.757507 0.111624 0)
(0.799502 -0.111475 5.01788e-22)
(0.833796 -0.272417 3.44117e-21)
(0.857532 -0.363793 -5.86712e-21)
(0.866284 -0.38876 2.20606e-21)
(0.85929 -0.398423 1.77639e-22)
(0.821285 -0.394564 -1.43888e-21)
(0.765384 -0.3857 1.12097e-21)
(0.720235 -0.315137 2.66605e-22)
(0.710219 -0.175926 2.75367e-22)
(0.739836 -0.0165572 -3.01487e-22)
(0.783691 0.152781 0)
(0.815984 0.248625 0)
(0.808199 0.364864 -8.20916e-22)
(0.782459 0.380209 4.06185e-22)
(0.751973 0.352962 -4.59501e-22)
(0.764673 0.221472 7.22185e-22)
(0.797067 0.0263136 8.84275e-22)
(0.825275 -0.0665214 -1.81812e-22)
(0.82922 -0.273887 3.08829e-22)
(0.808702 -0.280738 -2.10868e-22)
(0.80061 -0.338841 7.96692e-23)
(0.798833 -0.253729 0)
(0.78233 0.0317426 0)
(0.0804818 0.286311 -8.36734e-20)
(0.119612 0.304626 -3.02981e-21)
(0.16605 0.312816 8.23664e-20)
(0.21944 0.308267 -6.94123e-22)
(0.278714 0.288949 0)
(0.342456 0.253337 0)
(0.408957 0.200634 -1.02624e-19)
(0.476345 0.131002 -5.8691e-21)
(0.54279 0.0452266 1.5425e-19)
(0.606979 -0.0546437 -2.45253e-22)
(0.668232 -0.167496 -5.06968e-20)
(0.725439 -0.289368 -4.35758e-20)
(0.775092 -0.409579 4.37548e-20)
(0.810467 -0.510986 0)
(0.825563 -0.577704 -2.65522e-20)
(0.819808 -0.604106 2.4369e-20)
(0.79787 -0.596974 0)
(0.765711 -0.569482 0)
(0.729057 -0.532312 9.64335e-21)
(0.691184 -0.493498 -1.35059e-21)
(0.647677 -0.463961 -7.55041e-21)
(0.591145 -0.449433 -7.14008e-21)
(0.52615 -0.432815 7.09801e-21)
(0.47463 -0.376659 -8.2023e-21)
(0.45981 -0.255465 -4.06454e-22)
(0.485463 -0.0834072 8.16869e-21)
(0.538674 0.0972517 9.82013e-22)
(0.60225 0.250646 8.0956e-23)
(0.663596 0.357161 0)
(0.716785 0.416998 4.74539e-21)
(0.757369 0.446376 -4.87727e-21)
(0.775814 0.476544 2.91177e-22)
(0.769013 0.518937 0)
(0.747871 0.543939 -3.6353e-22)
(0.737637 0.491802 8.126e-21)
(0.752179 0.334673 -1.59947e-20)
(0.788744 0.10782 -1.46801e-21)
(0.832319 -0.118594 8.85013e-22)
(0.863686 -0.279208 6.93124e-21)
(0.881011 -0.368124 6.5812e-22)
(0.882097 -0.388917 -3.42887e-21)
(0.871445 -0.391439 2.96988e-21)
(0.831702 -0.380424 1.69619e-23)
(0.774748 -0.370811 1.00588e-21)
(0.725389 -0.308757 -1.24551e-21)
(0.711611 -0.181591 -1.74737e-21)
(0.739656 -0.0304415 5.3481e-22)
(0.781961 0.139968 8.53944e-22)
(0.815283 0.243365 -1.64055e-21)
(0.806414 0.368189 1.19238e-21)
(0.783735 0.387343 -4.84778e-22)
(0.753632 0.356139 3.33494e-22)
(0.768688 0.218429 4.84756e-22)
(0.803518 0.019992 -1.42541e-21)
(0.833648 -0.0691401 3.68167e-23)
(0.839582 -0.271192 -3.51841e-22)
(0.815205 -0.278236 0)
(0.807056 -0.337487 -8.27151e-23)
(0.802672 -0.252327 2.36077e-23)
(0.784154 0.0332468 0)
(0.205012 0.236592 8.04748e-20)
(0.246082 0.25205 -1.61851e-19)
(0.292662 0.257928 8.01901e-20)
(0.345523 0.252225 8.99836e-20)
(0.403638 0.233374 -1.82376e-19)
(0.465453 0.199894 -6.0526e-21)
(0.529399 0.150818 9.63735e-20)
(0.593825 0.0859429 1.04261e-19)
(0.658107 0.00597406 -1.02136e-19)
(0.720784 -0.0878347 0)
(0.780584 -0.194883 -9.83321e-20)
(0.835963 -0.310459 1.85878e-19)
(0.881324 -0.422994 -8.78001e-20)
(0.908274 -0.515115 0)
(0.911187 -0.572342 0)
(0.891555 -0.59126 7.26642e-22)
(0.856614 -0.579608 -3.17072e-20)
(0.814034 -0.550259 3.08058e-20)
(0.769163 -0.51341 0)
(0.725566 -0.474202 1.54487e-20)
(0.681257 -0.439333 -2.71215e-20)
(0.627437 -0.41716 2.36923e-20)
(0.560942 -0.40166 -2.29755e-20)
(0.497234 -0.3632 -1.10385e-21)
(0.462963 -0.269398 2.52346e-20)
(0.4714 -0.119912 -1.29964e-20)
(0.514666 0.0510827 -4.43719e-22)
(0.575448 0.205928 -4.85113e-21)
(0.639832 0.319963 5.42834e-22)
(0.699431 0.389663 4.417e-21)
(0.746969 0.429804 2.69934e-22)
(0.771507 0.470782 -4.69534e-21)
(0.771229 0.521896 1.00736e-20)
(0.758093 0.551145 -6.08919e-21)
(0.756853 0.498694 0)
(0.779474 0.338092 -1.06854e-20)
(0.821052 0.106732 1.04992e-20)
(0.866217 -0.122198 -7.25923e-21)
(0.894852 -0.282409 9.08654e-21)
(0.905975 -0.369328 -6.96914e-22)
(0.899377 -0.387245 0)
(0.884867 -0.384053 -3.50492e-22)
(0.843787 -0.366471 7.83658e-22)
(0.786526 -0.355755 0)
(0.733701 -0.302077 2.14207e-21)
(0.716046 -0.187314 -8.28417e-22)
(0.741958 -0.0449381 4.4115e-22)
(0.782099 0.126476 3.48709e-22)
(0.816301 0.237305 0)
(0.806521 0.370763 0)
(0.78719 0.394189 -1.37345e-21)
(0.75775 0.359442 2.53018e-21)
(0.774907 0.215784 -1.65052e-21)
(0.811601 0.0137322 5.91241e-22)
(0.843457 -0.0718072 9.68247e-22)
(0.851108 -0.268065 3.52171e-22)
(0.822601 -0.275302 -4.39869e-22)
(0.814127 -0.335817 0)
(0.807269 -0.250703 -6.58939e-23)
(0.786831 0.0348358 1.3077e-23)
(0.332099 0.185416 7.84377e-20)
(0.372282 0.199471 -7.80234e-20)
(0.416574 0.204118 6.50747e-22)
(0.466946 0.198302 -6.53579e-22)
(0.522509 0.18097 7.10617e-22)
(0.581596 0.150529 -7.44281e-22)
(0.642856 0.105719 1.49237e-21)
(0.705225 0.0457357 0)
(0.76803 -0.0278398 -1.56118e-21)
(0.829691 -0.115807 1.55264e-21)
(0.888669 -0.216301 1.50424e-21)
(0.941585 -0.323828 -1.46893e-21)
(0.980882 -0.426399 0)
(0.997667 -0.507646 0)
(0.987935 -0.5555 9.00385e-22)
(0.955655 -0.56872 0)
(0.909897 -0.555316 -5.52907e-22)
(0.859332 -0.526665 0)
(0.808797 -0.491876 -1.77084e-20)
(0.760775 -0.454702 3.14676e-20)
(0.715212 -0.417888 -2.46519e-20)
(0.665147 -0.388681 1.09497e-20)
(0.602161 -0.369461 8.84586e-21)
(0.532488 -0.342097 -8.591e-21)
(0.481 -0.273947 -9.88554e-21)
(0.469868 -0.15044 9.6267e-21)
(0.499791 0.0062699 0)
(0.554929 0.158715 2.29527e-22)
(0.620022 0.278437 0)
(0.684127 0.357562 0)
(0.73742 0.408582 7.28644e-21)
(0.767812 0.460186 -7.47092e-21)
(0.774285 0.519941 5.65217e-22)
(0.769296 0.55449 7.4387e-22)
(0.776756 0.504162 -9.27564e-22)
(0.806985 0.342862 -9.78025e-21)
(0.853419 0.109221 9.49414e-21)
(0.900306 -0.122114 -9.83582e-21)
(0.926662 -0.282116 8.41776e-21)
(0.932004 -0.367472 1.41533e-21)
(0.917855 -0.383749 -3.44384e-21)
(0.899284 -0.376363 5.74112e-22)
(0.857183 -0.352905 1.8471e-21)
(0.800209 -0.34065 0)
(0.744692 -0.29497 -7.38498e-22)
(0.723105 -0.192815 1.01098e-21)
(0.746398 -0.0597899 -1.36896e-21)
(0.783843 0.1123 -3.5093e-22)
(0.818865 0.230289 0)
(0.808445 0.372404 4.58652e-22)
(0.792778 0.400624 -7.79135e-22)
(0.764386 0.362893 2.54151e-23)
(0.783403 0.213662 -6.80038e-22)
(0.821293 0.00753553 1.13873e-21)