/*--------------------------------*- C++ -*----------------------------------*\
| =========                 |                                                 |
| \\      /  F ield         | OpenFOAM: The Open Source CFD Toolbox           |
|  \\    /   O peration     | Version:  2512                                  |
|   \\  /    A nd           | Website:  www.openfoam.com                      |
|    \\/     M anipulation  |                                                 |
\*---------------------------------------------------------------------------*/
FoamFile
{
    version     2.0;
    format      ascii;
    arch        "LSB;label=32;scalar=64";
    class       surfaceScalarField;
    location    "33";
    object      phi;
}
// * * * * * * * * * * * * * * * * * * * * * * * * * * * * * * * * * * * * * //

dimensions      [0 3 -1 0 0 0 0];

oriented        oriented;

internalField   nonuniform List<scalar> 
26232
(
2.62193e-05
0.000958675
-0.000984894
0.000270485
0.00191465
-0.00215892
0.000879277
0.00206091
-0.0026697
0.00199099
0.00145234
-0.00256405
0.00374333
0.000120928
-0.00187327
0.0062754
-0.00191717
-0.00061491
0.00972413
-0.00465359
0.00120486
0.0142173
-0.00808039
0.0035872
0.0198623
-0.0121798
0.00653485
0.0267327
-0.016916
0.0100456
0.0348556
-0.0222295
0.0141066
0.044201
-0.0280351
0.0186898
0.0546763
-0.0342246
0.0237493
0.0661276
-0.0406723
0.029221
0.0783463
-0.0472432
0.0350244
0.0910825
-0.0538028
0.0410667
0.104061
-0.0602263
0.0472475
0.117003
-0.0664076
0.0534662
0.129641
-0.0722624
0.0596236
0.141748
-0.0777484
0.0656418
0.153129
-0.0828153
0.0714341
0.163662
-0.0875524
0.0770196
0.173233
-0.0917868
0.0822162
-0.096031
0.0878411
0.181422
6.91014e-05
0.000889573
0.000467478
0.00151628
0.00136873
0.00115966
0.0029377
-0.00011663
0.00533623
-0.00227761
0.00871913
-0.00530006
0.0132249
-0.00915938
0.0189604
-0.0138159
0.0259835
-0.0192029
0.0342873
-0.0252198
0.0437898
-0.031732
0.0543324
-0.0385777
0.0656872
-0.0455795
0.0775744
-0.0525595
0.0896851
-0.0593538
0.101708
-0.0658255
0.113356
-0.0718741
0.124389
-0.0774414
0.134638
-0.0825113
0.144001
-0.0871111
0.152471
-0.0912857
0.160079
-0.0951605
0.16697
-0.0986773
-0.10235
0.173288
0.000129503
0.00076007
0.000729795
0.000915986
0.0019997
-0.000110249
0.00412684
-0.00224376
0.00728699
-0.00543776
0.0116321
-0.00964519
0.0172708
-0.0147981
0.0242463
-0.0207913
0.0325172
-0.0274738
0.0419483
-0.0346509
0.0523142
-0.0420979
0.0633173
-0.0495808
0.074617
-0.0568791
0.0858644
-0.0638069
0.0967388
-0.0702282
0.106979
-0.0760654
0.116405
-0.0813
0.12493
-0.0859669
0.132561
-0.0901423
0.139381
-0.0939308
0.145536
-0.0974411
0.15118
-0.100804
0.156531
-0.104028
-0.107488
0.161669
0.000208881
0.00055119
0.00106055
6.43164e-05
0.00277303
-0.00182273
0.00554574
-0.00501647
0.00954848
-0.00944051
0.0148976
-0.0149943
0.0216278
-0.0215283
0.0296688
-0.0288323
0.0388367
-0.0366417
0.0488448
-0.044659
0.0593337
-0.0525868
0.0699148
-0.0601619
0.0802178
-0.0671822
0.0899344
-0.0735235
0.0988491
-0.0791429
0.106855
-0.0840712
0.113951
-0.0883965
0.120227
-0.0922427
0.125832
-0.0957471
0.130943
-0.0990417
0.135737
-0.102235
0.140356
-0.105424
0.144943
-0.108614
-0.112047
0.149501
0.000307342
0.000243847
0.00145655
-0.0010849
0.00367319
-0.00403937
0.00714882
-0.00849209
0.0120154
-0.0143071
0.01831
-0.0212889
0.0259447
-0.0291629
0.0346965
-0.0375842
0.0442254
-0.0461706
0.0541181
-0.0545516
0.0639471
-0.0624159
0.0733315
-0.0695463
0.0819845
-0.0758352
0.0897409
-0.0812799
0.0965609
-0.0859628
0.102512
-0.0900221
0.107736
-0.0936206
0.112412
-0.0969184
0.116718
-0.100054
0.120809
-0.103133
0.124804
-0.10623
0.128775
-0.109395
0.132784
-0.112624
-0.116073
0.136811
0.000423797
-0.000179949
0.00190861
-0.00256971
0.00466863
-0.00679939
0.00885804
-0.0126815
0.0145293
-0.0199784
0.0215929
-0.0283525
0.0298016
-0.0373716
0.0387722
-0.0465547
0.0480433
-0.0554418
0.057152
-0.0636604
0.0657072
-0.0709711
0.0734413
-0.0772804
0.0802314
-0.0826253
0.0860892
-0.0871377
0.0911284
-0.091002
0.0955202
-0.0944139
0.0994508
-0.0975511
0.103088
-0.100556
0.106565
-0.10353
0.109973
-0.106542
0.113373
-0.109629
0.116795
-0.112816
0.120271
-0.116101
-0.119566
0.123764
0.000555687
-0.000735636
0.0024007
-0.00441472
0.00571084
-0.0101095
0.0105648
-0.0175354
0.0168903
-0.0263039
0.0244352
-0.0358975
0.0327868
-0.0457231
0.0414401
-0.055208
0.0498935
-0.0638952
0.0577374
-0.0715042
0.0647108
-0.0779446
0.0707173
-0.0832868
0.0758019
-0.0877099
0.0801063
-0.0914421
0.083816
-0.0947117
0.0871164
-0.0977144
0.0901642
-0.100599
0.0930763
-0.103468
0.0959307
-0.106385
0.0987756
-0.109386
0.101638
-0.112492
0.104533
-0.115711
0.107472
-0.11904
-0.122519
0.110426
0.000698602
-0.00143424
0.00290918
-0.0066253
0.00673516
-0.0139355
0.0121376
-0.0229378
0.0188827
-0.033049
0.0265464
-0.0435612
0.0345862
-0.0537629
0.0424545
-0.0630764
0.0497072
-0.0711479
0.0560704
-0.0778674
0.0614537
-0.0833279
0.0659183
-0.0877514
0.0696205
-0.0914122
0.0727536
-0.0945751
0.0755016
-0.0974597
0.0780143
-0.100227
0.0803993
-0.102984
0.0827265
-0.105795
0.0850377
-0.108696
0.0873566
-0.111705
0.0896954
-0.114831
0.0920591
-0.118074
0.0944529
-0.121434
-0.124919
0.0968525
0.000845777
-0.00228001
0.00340319
-0.00918272
0.00766538
-0.0181977
0.0134384
-0.0287109
0.0203113
-0.0399219
0.0277152
-0.0509651
0.0350499
-0.0610976
0.0418164
-0.0698429
0.0477026
-0.0770341
0.0526013
-0.0827661
0.0565722
-0.0872988
0.0597773
-0.0909565
0.0624145
-0.0940494
0.0646695
-0.0968301
0.06669
-0.0994802
0.0685796
-0.102117
0.0704044
-0.104809
0.0722028
-0.107593
0.0739959
-0.110489
0.0757949
-0.113504
0.0776049
-0.116641
0.079428
-0.119898
0.0812646
-0.12327
-0.126753
0.083099
0.00098823
-0.00326824
0.00384687
-0.0120414
0.00842286
-0.0227737
0.0143443
-0.0346323
0.0210374
-0.0466149
0.0278485
-0.0577763
0.0342039
-0.0674529
0.039724
-0.075363
0.0442574
-0.0815676
0.0478439
-0.0863525
0.0506412
-0.0900961
0.0528507
-0.093166
0.0546627
-0.0958613
0.0562277
-0.0983951
0.0576504
-0.100903
0.0589962
-0.103463
0.0603025
-0.106115
0.0615895
-0.10888
0.062868
-0.111768
0.0641433
-0.11478
0.0654178
-0.117916
0.0666918
-0.121172
0.0679635
-0.124542
-0.128013
0.0692237
0.00111602
-0.00438427
0.00420477
-0.0151301
0.00893923
-0.0275081
0.0147689
-0.040462
0.0210009
-0.0528469
0.026973
-0.0637483
0.0322078
-0.0726878
0.0364778
-0.079633
0.0397784
-0.0848681
0.0422506
-0.0888248
0.044096
-0.0919415
0.0455118
-0.0945818
0.0466562
-0.0970058
0.0476395
-0.0993784
0.0485299
-0.101793
0.049366
-0.104299
0.0501683
-0.106917
0.0509476
-0.10966
0.0517095
-0.112529
0.0524572
-0.115527
0.0531914
-0.11865
0.0539117
-0.121892
0.0546144
-0.125245
-0.128693
0.0552947
0.00122209
-0.00560636
0.00444975
-0.0183578
0.00916841
-0.0322268
0.0146745
-0.0459681
0.020221
-0.0583935
0.0252078
-0.0687351
0.0292941
-0.0767741
0.0323993
-0.0827382
0.0346279
-0.0870967
0.0361736
-0.0903705
0.0372411
-0.093009
0.0380005
-0.0953412
0.0385721
-0.0975774
0.0390308
-0.0998372
0.0394189
-0.102181
0.0397583
-0.104638
0.0400602
-0.107219
0.0403306
-0.10993
0.0405729
-0.112772
0.0407892
-0.115744
0.0409801
-0.118841
0.0411447
-0.122056
0.0412795
-0.12538
0.0413835
-0.128797
-0.000206639
0.000133707
7.29322e-05
-0.000721324
0.00038761
0.000127075
-0.00147812
0.000640937
0.000115855
-0.00242677
0.000890754
5.79005e-05
-0.00352819
0.00113304
-3.16159e-05
-0.00475225
0.00136583
-0.000141768
-0.00607604
0.00158967
-0.000265879
-0.00748224
0.00180726
-0.000401057
-0.00895774
0.00202289
-0.000547394
-0.0104924
0.00224167
-0.000707011
-0.012078
0.00246871
-0.00088312
-0.0137073
0.00270858
-0.00107925
-0.0153735
0.00296491
-0.00129871
-0.0170696
0.00324028
-0.00154421
-0.0187882
0.00353627
-0.00181767
-0.0205218
0.00385366
-0.00212008
-0.022263
0.0041927
-0.00245146
-0.0240059
0.0045535
-0.00281063
-0.0257473
0.00493662
-0.00319518
-0.0274895
0.00534368
-0.00360146
-0.0292424
0.00577753
-0.00402468
-0.031026
0.00624263
-0.00445896
-0.032878
0.00674923
-0.00489726
0.00731593
-0.0348612
-0.0053327
-0.000193083
0.000326791
-0.000675431
0.000869958
-0.00138483
0.00135034
-0.00227282
0.00177874
-0.00330105
0.00216126
-0.00443935
0.00250413
-0.00566413
0.00281445
-0.00695685
0.00309998
-0.00830273
0.00336877
-0.00968957
0.00362851
-0.0111068
0.00388594
-0.0125446
0.00414639
-0.0139933
0.00441362
-0.0154429
0.00468981
-0.0168824
0.0049758
-0.0183002
0.00527151
-0.019684
0.00557647
-0.0210211
0.00589063
-0.0223
0.00621551
-0.0235121
0.00655571
-0.0246547
0.0069202
-0.0257349
0.00732284
-0.0267753
0.00778955
0.00838122
-0.0278405
-0.000170102
0.000496893
-0.000597515
0.00129737
-0.00122636
0.00197918
-0.00201122
0.00256361
-0.00291494
0.00306498
-0.00390717
0.00349637
-0.00496311
0.00387039
-0.00606221
0.00419908
-0.007187
0.00449356
-0.00832207
0.00476359
-0.00945321
0.00501708
-0.0105666
0.00525983
-0.0116484
0.00549539
-0.0126838
0.00572517
-0.0136567
0.00594877
-0.0145497
0.00616442
-0.0153427
0.00636954
-0.0160138
0.00656172
-0.0165384
0.00674005
-0.0168901
0.00690749
-0.0170443
0.00707441
-0.0169838
0.00726229
-0.016703
0.00750873
0.00788702
-0.0162088
-0.000141108
0.000638001
-0.000498139
0.0016544
-0.00102253
0.00250357
-0.00167229
0.00321337
-0.00241139
0.00380408
-0.00320904
0.00429401
-0.00403869
0.00470004
-0.00487707
0.00503746
-0.00570317
0.00531966
-0.00649737
0.00555779
-0.00724069
0.00576041
-0.00791415
0.00593329
-0.0084982
0.00607943
-0.0089722
0.00619917
-0.00931393
0.0062905
-0.00949894
0.00634943
-0.00949985
0.00637045
-0.0092854
0.00634726
-0.00881921
0.00627387
-0.00805844
0.00614672
-0.00695308
0.00596906
-0.00544921
0.00575842
-0.00350651
0.00556604
0.00555917
-0.00117866
-0.00011012
0.000748121
-0.000389814
0.0019341
-0.000796947
0.0029107
-0.00129225
0.00370867
-0.00184025
0.00435209
-0.00240909
0.00486285
-0.0029699
0.00526085
-0.00349596
0.00556352
-0.00396189
0.00578558
-0.00434283
0.00593873
-0.00461383
0.00603141
-0.00474926
0.00606872
-0.00472236
0.00605253
-0.0045048
0.00598161
-0.00406626
0.00585197
-0.00337399
0.00565715
-0.00239208
0.00538855
-0.00108065
0.00503583
0.000605784
0.00458744
0.00272076
0.00403174
0.00532934
0.00336047
0.00850882
0.00257894
0.0123523
0.00172252
0.000918217
0.0169933
-8.10896e-05
0.000829211
-0.000284845
0.00213785
-0.00057287
0.00319872
-0.000906875
0.00404268
-0.00125071
0.00469592
-0.00157048
0.00518263
-0.00183408
0.00552444
-0.00201041
0.00573984
-0.00206859
0.00584376
-0.0019772
0.00584734
-0.00170365
0.00575786
-0.00121362
0.00557869
-0.000470635
0.00530954
0.000564261
0.00494671
0.00193281
0.00448342
0.00367976
0.0039102
0.00585312
0.00321519
0.00850445
0.0023845
0.0116893
0.00140257
0.0154685
0.000252602
0.0199114
-0.00108245
0.0251062
-0.00261586
0.0311328
-0.00430415
-0.00626837
0.0383194
-5.71327e-05
0.000886344
-0.000192865
0.00227358
-0.000368396
0.00337426
-0.000543766
0.00421805
-0.000680227
0.00483238
-0.00074028
0.00524268
-0.000687064
0.00547123
-0.0004835
0.00553628
-9.13602e-05
0.00545162
0.000529529
0.00522645
0.00142206
0.00486533
0.00263233
0.00436842
0.00421002
0.00373185
0.00620866
0.00294808
0.00868562
0.00200647
0.0117019
0.00089391
0.0153217
-0.000404618
0.0196118
-0.0019056
0.0246403
-0.00362587
0.0304754
-0.00558253
0.0371805
-0.00778752
0.0448515
-0.0102868
0.0534512
-0.0129039
-0.0163897
0.0635725
-3.98217e-05
0.000926165
-0.000118498
0.00235226
-0.000191772
0.00344753
-0.000214588
0.00424087
-0.00014295
0.00476074
6.67161e-05
0.00503302
0.000458551
0.00507939
0.00107845
0.00491638
0.00197516
0.00455491
0.00320126
0.00400036
0.00481379
0.00325279
0.0068747
0.00230751
0.00945083
0.00115572
0.0126135
-0.000214551
0.0164379
-0.00181795
0.0210015
-0.00366976
0.0263827
-0.00578579
0.0326577
-0.00818061
0.0398982
-0.0108664
0.0481701
-0.0138544
0.0575108
-0.0171283
0.06802
-0.020796
0.0794888
-0.0243727
-0.0295638
0.0926629
-2.86678e-05
0.000954833
-5.966e-05
0.00238325
-3.76523e-05
0.00342552
9.10244e-05
0.00411219
0.000379481
0.00447229
0.000881041
0.00453146
0.00165104
0.0043094
0.00274845
0.00381897
0.00423718
0.00306619
0.00618675
0.00205078
0.00867258
0.000766968
0.0117754
-0.000795312
0.0155801
-0.00264899
0.0201738
-0.00480823
0.0256427
-0.00728682
0.0320692
-0.0100963
0.0395279
-0.0132444
0.048081
-0.0167337
0.0577736
-0.020559
0.0686337
-0.0247145
0.0806447
-0.0291393
0.0938463
-0.0339976
0.10795
-0.0384768
-0.0451196
0.123506
-2.09713e-05
0.000975804
-6.62989e-06
0.00236891
0.000113477
0.00330541
0.000407324
0.00381834
0.000941158
0.00393845
0.00178278
0.00368984
0.00300386
0.00308831
0.00468163
0.0021412
0.00689969
0.000848131
0.00974764
-0.000797168
0.0133196
-0.00280501
0.0177115
-0.00518722
0.0230171
-0.00795456
0.029323
-0.0111142
0.0367035
-0.0146673
0.0452145
-0.0186073
0.0548887
-0.0229187
0.0657312
-0.0275762
0.0777161
-0.032544
0.0907846
-0.0377829
0.104845
-0.0432
0.119778
-0.0489302
0.135402
-0.0541012
-0.0613525
0.151635
-1.23478e-05
0.000988152
5.51128e-05
0.00230145
0.000293775
0.00306675
0.000788979
0.00332314
0.0016255
0.00310194
0.00289097
0.00242436
0.00467831
0.00130097
0.00708635
-0.000266834
0.0102193
-0.00228478
0.0141828
-0.0047607
0.0190798
-0.007702
0.0250034
-0.0111109
0.0320299
-0.014981
0.0402105
-0.0192948
0.0495648
-0.0240217
0.0600757
-0.0291182
0.0716859
-0.0345289
0.0842981
-0.0401883
0.0977779
-0.0460237
0.111958
-0.0519628
0.126667
-0.0579095
0.141641
-0.0639039
0.156903
-0.0693633
-0.0760479
0.171598
3.25843e-06
0.000145789
0.000542843
0.00130193
0.0025306
0.00434005
0.00684588
0.0101663
0.0144163
0.0197012
0.0261058
0.0336847
0.042453
0.0523793
0.063382
0.0753305
0.0880491
0.101327
0.114927
0.128606
0.14213
0.155246
0.168099
0.179892
-0.0360404
0.00902716
-0.00784803
-0.0372445
0.00972928
-0.0085252
-0.0384576
0.0103164
-0.00910328
-0.0396863
0.0107544
-0.00952563
-0.0409333
0.0109814
-0.00973447
-0.0421966
0.0109248
-0.00966155
-0.04347
0.0105064
-0.009233
-0.0447425
0.00964363
-0.00837106
-0.0459986
0.00825397
-0.00699792
-0.0472207
0.0062592
-0.00503703
-0.0483949
0.00359172
-0.00241757
-0.0494263
0.000192362
0.000838997
-0.0503567
-0.00379913
0.00472962
-0.0511062
-0.00850493
0.00925442
-0.0516247
-0.0137649
0.0142833
-0.0518497
-0.0194082
0.0196333
-0.0517046
-0.0251876
0.0250425
-0.0510927
-0.0307756
0.0301637
-0.0498887
-0.0357695
0.0345656
-0.0479308
-0.0397084
0.0377505
-0.0450335
-0.0420964
0.0391991
-0.0409936
-0.0424607
0.0384208
-0.0356077
-0.0404206
0.0350347
-0.0287666
-0.0357879
0.0289467
-0.0204356
-0.0286265
0.0202955
-0.0107707
-0.0193853
0.00972039
1.50086e-06
-0.00880267
-0.00196958
0.0114081
0.00210916
-0.0135157
0.0230831
0.012057
-0.023732
0.0345517
0.0202091
-0.0316777
0.0455145
0.025723
-0.0366858
0.0558462
0.0283251
-0.0386568
0.0655798
0.0279589
-0.0376924
0.0748252
0.0251011
-0.0343465
0.0836842
0.0201722
-0.0290312
0.0921948
0.0140375
-0.022548
0.100308
0.00719841
-0.0153119
0.10791
0.000628509
-0.00822979
0.114874
-0.00542971
-0.00153451
0.121116
-0.0101555
0.00391312
0.126616
-0.0137902
0.00829069
0.131419
-0.0156765
0.0108732
0.135632
-0.0164914
0.0122779
0.139394
-0.0155459
0.0117847
0.142838
-0.0138657
0.0104217
0.146066
-0.0106182
0.00738982
0.149137
-0.00722752
0.00415696
0.152048
-0.00263946
-0.000271433
0.154775
0.00126524
-0.00399284
0.157267
0.00587557
-0.00836773
0.159516
0.00895425
-0.0112027
0.161482
0.0125095
-0.0144758
0.163216
0.0141083
-0.0158424
0.164674
0.0163955
-0.017853
0.165997
0.0166474
-0.0179707
0.1671
0.0180124
-0.0191157
0.168243
0.0176201
-0.0187627
0.169184
0.0187985
-0.019739
0.170251
0.0186806
-0.0197478
0.0202072
-0.0209746
-0.0286245
0.00981109
-0.029431
0.0105358
-0.0302371
0.0111224
-0.0310428
0.0115601
-0.0318515
0.0117902
-0.0326631
0.0117364
-0.033474
0.0113172
-0.0342776
0.0104472
-0.0350655
0.00904192
-0.035829
0.00702273
-0.0365593
0.00432196
-0.0372305
0.000863584
-0.0378081
-0.00322152
-0.0382864
-0.0080266
-0.0386361
-0.0134152
-0.0388241
-0.0192202
-0.038809
-0.0252027
-0.0385347
-0.0310499
-0.0379211
-0.0363831
-0.0368494
-0.0407801
-0.0351558
-0.0437901
-0.0326296
-0.0449868
-0.0290303
-0.0440199
-0.0241433
-0.0406749
-0.0178145
-0.0349552
-0.0100352
-0.0271646
-0.000991463
-0.0178464
0.00933796
-0.00822026
0.020321
0.00107397
0.0315948
0.00893537
0.0428759
0.0144418
0.0539794
0.0172216
0.0648132
0.0171251
0.075323
0.0145913
0.0854303
0.0100649
0.0950249
0.00444298
0.103954
-0.00173072
0.112057
-0.00747495
0.119215
-0.0125873
0.125378
-0.0163188
0.130575
-0.0189865
0.134905
-0.0200065
0.138523
-0.0201093
0.141613
-0.0186366
0.14436
-0.0166124
0.146915
-0.0131728
0.149382
-0.00969487
0.151798
-0.00505577
0.154157
-0.0010932
0.156411
0.00362175
0.158538
0.00682661
0.160477
0.0105704
0.162253
0.0123324
0.163791
0.0148573
0.16522
0.0152182
0.166432
0.0168006
0.167693
0.0163589
0.168741
0.0177514
0.169924
0.0174973
0.0193442
-0.0164861
0.0100884
-0.0167168
0.0107665
-0.0169828
0.0113884
-0.0172138
0.0117911
-0.0174363
0.0120127
-0.0176497
0.0119498
-0.0178533
0.0115209
-0.0180449
0.0106387
-0.0182217
0.00921869
-0.0183794
0.0071805
-0.0185145
0.00445705
-0.018645
0.000994089
-0.0187081
-0.00315847
-0.0187218
-0.00801292
-0.0186748
-0.0134622
-0.0185529
-0.019342
-0.0183378
-0.0254179
-0.0180034
-0.0313842
-0.0175133
-0.0368733
-0.0168088
-0.0414845
-0.0157829
-0.044816
-0.0142679
-0.0465018
-0.0120378
-0.04625
-0.00883202
-0.0438807
-0.00440774
-0.0393795
0.00142725
-0.0329995
0.00888434
-0.0253035
0.0175376
-0.0168735
0.0272662
-0.00865461
0.0378772
-0.00167571
0.0488842
0.00343483
0.0601102
0.00599559
0.071316
0.00591924
0.0822925
0.00361485
0.0928037
-0.000446345
0.102642
-0.00539496
0.111596
-0.0106853
0.119507
-0.0153856
0.126286
-0.0193664
0.131933
-0.0219655
0.136518
-0.0235716
0.140174
-0.0236632
0.143076
-0.0230108
0.145421
-0.0209818
0.14741
-0.0186011
0.14922
-0.0149827
0.150989
-0.0114644
0.152789
-0.00685558
0.154645
-0.00294935
0.156513
0.0017534
0.158379
0.0049607
0.160163
0.00878713
0.161868
0.0106274
0.163393
0.0133316
0.164849
0.0137623
0.166107
0.0155431
0.167428
0.0150375
0.168538
0.0166411
0.169793
0.0162424
0.0184085
-0.000582535
0.00949228
-0.000327524
0.0105115
1.60159e-05
0.0110449
0.000372893
0.0114343
0.000764927
0.0116207
0.00117187
0.0115428
0.00159195
0.0111008
0.00202349
0.0102072
0.00246324
0.00877894
0.00290782
0.00673592
0.00335655
0.00400832
0.00379929
0.000551351
0.0042645
-0.00362368
0.0047446
-0.00849302
0.00524408
-0.0139617
0.00576863
-0.0198666
0.00632533
-0.0259746
0.00692662
-0.0319855
0.00759785
-0.0375445
0.00836753
-0.0422542
0.00927836
-0.0457268
0.0104385
-0.047662
0.0120182
-0.0478297
0.0142544
-0.0461169
0.0174204
-0.0425455
0.0217546
-0.0373337
0.0273777
-0.0309267
0.0343581
-0.0238539
0.0426198
-0.0169163
0.0519078
-0.0109637
0.0620569
-0.00671431
0.0726535
-0.00460098
0.0833688
-0.00479604
0.0938813
-0.00689765
0.103902
-0.0104667
0.113145
-0.0146384
0.121395
-0.0189352
0.128521
-0.0225119
0.134481
-0.0253262
0.139317
-0.0268013
0.143127
-0.0273817
0.146054
-0.0265904
0.148264
-0.0252203
0.149938
-0.0226559
0.151262
-0.0199249
0.152409
-0.0161306
0.153533
-0.0125876
0.154727
-0.00804945
0.156048
-0.00427125
0.15747
0.000332178
0.158991
0.00343949
0.160527
0.00725099
0.16207
0.00908426
0.163501
0.0119009
0.164908
0.0123547
0.166149
0.0143025
0.16747
0.0137162
0.168598
0.0155131
0.169877
0.0149641
0.0174265
0.0177593
0.00872627
0.0184969
0.00977389
0.0192273
0.0103145
0.0200484
0.0106131
0.020917
0.0107521
0.0218123
0.0106475
0.0227285
0.0101846
0.0236624
0.00927332
0.0246062
0.00783511
0.0255517
0.00579044
0.02649
0.00307001
0.0274318
-0.000390406
0.0283671
-0.00455895
0.0293034
-0.0094294
0.0302449
-0.0149032
0.031197
-0.0208187
0.0321643
-0.0269419
0.0331473
-0.0329684
0.0341419
-0.0385392
0.035158
-0.0432703
0.0362323
-0.0468011
0.0374195
-0.0488492
0.0388163
-0.0492265
0.0405877
-0.0478882
0.0429665
-0.0449244
0.0462005
-0.0405677
0.0504975
-0.0352237
0.0560183
-0.0293747
0.062788
-0.0236859
0.0706693
-0.018845
0.0794297
-0.0154748
0.0887452
-0.0139165
0.0982515
-0.0143023
0.107578
-0.016224
0.116389
-0.0192781
0.124408
-0.0226566
0.131443
-0.0259712
0.13741
-0.0284789
0.142306
-0.0302222
0.146204
-0.0306985
0.149211
-0.0303891
0.151463
-0.0288422
0.153099
-0.0268564
0.154266
-0.023823
0.155113
-0.0207716
0.155785
-0.0168031
0.156426
-0.0132278
0.157137
-0.00876109
0.157998
-0.00513254
0.159004
-0.000673705
0.160172
0.00227132
0.161428
0.00599556
0.16276
0.00775172
0.164044
0.0106176
0.165349
0.0110496
0.166525
0.0131262
0.167797
0.0124439
0.168905
0.0144051
0.170166
0.0137039
0.016421
0.0390727
0.00797301
0.0398647
0.00898183
0.0407442
0.00943503
0.0417581
0.00959927
0.0428653
0.00964484
0.0440336
0.00947928
0.0452518
0.00896639
0.0465086
0.0080165
0.0477881
0.00655568
0.0490759
0.00450255
0.0503474
0.00179857
0.051624
-0.00166698
0.0528745
-0.00580953
0.054102
-0.0106569
0.055305
-0.0161061
0.0564835
-0.0219972
0.0576385
-0.028097
0.0587724
-0.0341023
0.0598912
-0.039658
0.0610103
-0.0443894
0.0621568
-0.0479476
0.0633662
-0.0500585
0.0646982
-0.0505585
0.0662652
-0.0494552
0.0682461
-0.0469053
0.0708491
-0.0431707
0.0742691
-0.0386437
0.0786648
-0.0337704
0.0841007
-0.0291218
0.0905092
-0.0252535
0.0977132
-0.0226788
0.105427
-0.0216305
0.113309
-0.0221843
0.121009
-0.0239236
0.128211
-0.02648
0.134678
-0.0291237
0.140267
-0.031561
0.144939
-0.0331501
0.148719
-0.0340024
0.151694
-0.0336738
0.15397
-0.0326651
0.155662
-0.0305337
0.156877
-0.0280718
0.157721
-0.0246673
0.158299
-0.0213495
0.158716
-0.0172196
0.159085
-0.0135973
0.159502
-0.0091778
0.160049
-0.00567971
0.16075
-0.0013746
0.161626
0.00139564
0.162628
0.00499268
0.163753
0.00662756
0.164877
0.00949335
0.166058
0.00986838
0.167149
0.0120358
0.168344
0.011248
0.169412
0.0133374
0.170628
0.0124878
0.0154052
0.063772
0.00777358
0.0641531
0.00860072
0.0647443
0.00884381
0.0655543
0.00878928
0.0665198
0.00867931
0.067613
0.00838605
0.0688186
0.00776082
0.0701085
0.00672664
0.0714518
0.00521229
0.0728295
0.0031249
0.0741981
0.000430006
0.075566
-0.00303496
0.0768923
-0.00713584
0.0781659
-0.0119305
0.0793776
-0.0173179
0.080524
-0.0231436
0.0816073
-0.0291802
0.0826343
-0.0351293
0.0836182
-0.0406418
0.0845809
-0.0453521
0.0855558
-0.0489226
0.0865857
-0.0510884
0.08773
-0.0517028
0.0890838
-0.050809
0.0907733
-0.0485948
0.0929393
-0.0453367
0.0957219
-0.0414263
0.0992404
-0.0372889
0.103552
-0.0334334
0.108614
-0.0303155
0.114291
-0.0283556
0.120349
-0.0276891
0.126501
-0.0283362
0.132455
-0.029877
0.137956
-0.0319815
0.14283
-0.0339979
0.146988
-0.0357184
0.150425
-0.0365873
0.153187
-0.0367646
0.15536
-0.0358465
0.157036
-0.0343407
0.158305
-0.0318028
0.159246
-0.0290129
0.159927
-0.0253485
0.160413
-0.0218353
0.160765
-0.0175722
0.161065
-0.0138963
0.161381
-0.00949463
0.161792
-0.00609032
0.162331
-0.00191354
0.163026
0.000700047
0.163854
0.00416501
0.164819
0.0056631
0.165813
0.00849875
0.166885
0.00879658
0.167898
0.0110225
0.169018
0.0101283
0.170046
0.0123089
0.171213
0.011321
0.0143784
0.0918946
0.00854185
0.0914431
0.0090523
0.0913214
0.00896545
0.0914802
0.00863046
0.0918653
0.00829421
0.0924667
0.00778465
0.093257
0.00697058
0.0941916
0.00579204
0.0952264
0.00417742
0.096317
0.00203435
0.097501
-0.000753958
0.0986197
-0.0041537
0.0997137
-0.00822979
0.100742
-0.0129584
0.101681
-0.0182569
0.102518
-0.0239808
0.103251
-0.0299133
0.103888
-0.0357661
0.104448
-0.0412022
0.104966
-0.0458695
0.10549
-0.0494469
0.106085
-0.0516835
0.106832
-0.0524496
0.107817
-0.0517937
0.109131
-0.0499096
0.110865
-0.0470704
0.113099
-0.0436599
0.115894
-0.0400842
0.11927
-0.0368098
0.123178
-0.0342229
0.127499
-0.0326764
0.132047
-0.0322371
0.136598
-0.0328876
0.140937
-0.0342157
0.144887
-0.0359312
0.148339
-0.0374499
0.151253
-0.0386325
0.153652
-0.0389867
0.155588
-0.038701
0.157136
-0.0373939
0.158369
-0.035574
0.159355
-0.0327882
0.160146
-0.0298044
0.160784
-0.025986
0.161302
-0.0223537
0.161729
-0.0179991
0.16211
-0.0142774
0.162489
-0.00987331
0.162925
-0.00652652
0.163449
-0.00243732
0.164094
5.44798e-05
0.164851
0.00340834
0.165736
0.00477805
0.166662
0.00757256
0.16767
0.00778886
0.168642
0.0100503
0.169712
0.00905797
0.170725
0.0112958
0.17186
0.010186
0.0133243
0.121674
0.0103743
0.120253
0.0104731
0.119185
0.0100335
0.118397
0.00941822
0.117895
0.00879637
0.117683
0.00799654
0.117716
0.00693794
0.117942
0.00556528
0.118331
0.00378928
0.118835
0.00152992
0.119399
-0.00131844
0.119974
-0.00472869
0.12052
-0.00877547
0.120996
-0.0134347
0.121367
-0.0186277
0.12161
-0.0242234
0.121716
-0.0300198
0.121694
-0.035744
0.121571
-0.0410786
0.121393
-0.0456922
0.121233
-0.0492865
0.121177
-0.0516278
0.121331
-0.0526039
0.12179
-0.052252
0.122625
-0.050745
0.123886
-0.0483317
0.125603
-0.0453765
0.12778
-0.0422613
0.13039
-0.0394193
0.133357
-0.0371906
0.136568
-0.0358869
0.139869
-0.0355388
0.143098
-0.0361166
0.146111
-0.0372286
0.148806
-0.0386259
0.151132
-0.0397761
0.153088
-0.0405883
0.154711
-0.0406101
0.156054
-0.0400439
0.157173
-0.0385127
0.158124
-0.0365252
0.158953
-0.0336172
0.159696
-0.0305472
0.160374
-0.0266638
0.161003
-0.022983
0.161588
-0.0185835
0.162147
-0.014837
0.162699
-0.010425
0.163283
-0.00711052
0.163915
-0.00306975
0.164633
-0.000663363
0.165426
0.00261554
0.166325
0.00387924
0.167261
0.00663612
0.168271
0.00677955
0.169258
0.00906263
0.170327
0.00798893
0.171367
0.010256
0.172508
0.00904547
0.0122122
0.149079
0.012931
0.14694
0.0126119
0.145039
0.0119342
0.143356
0.0111013
0.141979
0.0101731
0.140902
0.00907349
0.140074
0.00776645
0.139453
0.00618598
0.138994
0.00424867
0.138686
0.00183742
0.138479
-0.00111116
0.138285
-0.00453506
0.138063
-0.0085531
0.137764
-0.0131355
0.137344
-0.0182082
0.136776
-0.0236555
0.13605
-0.0292933
0.135175
-0.0348694
0.134191
-0.040094
0.133162
-0.0446631
0.132182
-0.0483067
0.131364
-0.0508094
0.130836
-0.0520763
0.130702
-0.0521179
0.131022
-0.0510655
0.131816
-0.0491258
0.133071
-0.0466313
0.134743
-0.0439333
0.136761
-0.0414369
0.139022
-0.0394516
0.141406
-0.0382709
0.143784
-0.0379173
0.146041
-0.0383733
0.148091
-0.0392787
0.149891
-0.0404257
0.151434
-0.0413189
0.152743
-0.0418972
0.15386
-0.0417277
0.154838
-0.0410211
0.155714
-0.0393893
0.156529
-0.0373405
0.157313
-0.0344006
0.158089
-0.0313229
0.158866
-0.0274414
0.159653
-0.02377
0.160439
-0.0193699
0.161229
-0.0156262
0.162017
-0.0112137
0.162827
-0.00792057
0.163658
-0.0039
0.164544
-0.00154964
0.165467
0.00169245
0.166469
0.0028769
0.167498
0.00560783
0.168582
0.00569482
0.169652
0.00799306
0.170781
0.00685977
0.171902
0.0091349
0.1731
0.00784737
0.0109998
0.169063
0.0154662
0.166756
0.0149187
0.164507
0.0141836
0.162407
0.0132009
0.160544
0.0120364
0.158896
0.0107213
0.157435
0.00922799
0.156151
0.00746987
0.155026
0.00537328
0.15401
0.00285315
0.153028
-0.000128448
0.152039
-0.00354678
0.150997
-0.00751109
0.14986
-0.0119979
0.148578
-0.0169268
0.147125
-0.0222024
0.145494
-0.0276623
0.143707
-0.0330825
0.14182
-0.0382069
0.139921
-0.0427639
0.138125
-0.0465112
0.136566
-0.0492504
0.135385
-0.0508951
0.134698
-0.0514306
0.134553
-0.0509209
0.134947
-0.0495193
0.135836
-0.0475203
0.137141
-0.0452382
0.138755
-0.0430513
0.140552
-0.0412489
0.142404
-0.040123
0.144195
-0.0397082
0.14584
-0.0400185
0.147294
-0.0407327
0.148552
-0.0416836
0.149635
-0.0424018
0.150581
-0.0428432
0.151433
-0.0425793
0.152236
-0.0418238
0.153022
-0.0401759
0.15382
-0.0381388
0.154648
-0.0352279
0.155521
-0.0321961
0.156443
-0.0283632
0.157417
-0.0247443
0.158428
-0.0203805
0.159469
-0.0166677
0.160526
-0.0122699
0.161604
-0.00899896
0.162691
-0.00498683
0.163808
-0.00266686
0.164936
0.000564498
0.166117
0.0016956
0.167311
0.00441376
0.168543
0.00446301
0.169762
0.0067741
0.171017
0.00560435
0.17228
0.00787263
0.173596
0.00653149
0.00963756
0.178234
0.0171243
0.176395
0.0167578
0.174581
0.0159977
0.172779
0.0150036
0.171015
0.0138
0.169326
0.0124105
0.167716
0.0108381
0.16617
0.00901576
0.164647
0.00689623
0.163126
0.00437385
0.161656
0.00134163
0.160111
-0.00200182
0.15843
-0.00583042
0.156588
-0.0101557
0.154566
-0.0149041
0.152356
-0.0199929
0.149974
-0.0252802
0.147465
-0.0305736
0.144908
-0.0356495
0.142409
-0.0402648
0.140092
-0.0441948
0.138085
-0.0472435
0.136489
-0.0492986
0.135377
-0.050319
0.134806
-0.0503501
0.134807
-0.0495199
0.135343
-0.0480566
0.13632
-0.0462146
0.137613
-0.0443443
0.139081
-0.0427176
0.140592
-0.0416332
0.142031
-0.0411475
0.14333
-0.0413174
0.144461
-0.0418635
0.145438
-0.0426611
0.146295
-0.0432593
0.147079
-0.043627
0.147831
-0.0433307
0.148592
-0.0425853
0.149389
-0.0409729
0.150247
-0.038997
0.151177
-0.0361572
0.152189
-0.0332089
0.153284
-0.0294575
0.154462
-0.025923
0.155707
-0.0216246
0.157007
-0.0179684
0.158341
-0.0136035
0.159705
-0.0103635
0.161078
-0.00635995
0.162467
-0.00405592
0.163853
-0.000820928
0.16527
0.000278736
0.16669
0.0029937
0.168132
0.00302105
0.169562
0.00534408
0.171008
0.00415835
0.172471
0.00640965
0.173967
0.00503529
0.0080734
0.193892
0.0183708
-0.195139
0.193092
0.0175581
0.192271
0.0168181
0.191476
0.0157992
0.190748
0.0145278
0.190097
0.0130615
0.189538
0.0113972
0.189071
0.00948304
0.188709
0.00725806
0.188418
0.00466472
0.188038
0.00172139
0.187712
-0.00167542
0.187342
-0.00546123
0.186843
-0.00965627
0.186166
-0.0142274
0.185248
-0.0190744
0.184037
-0.0240693
0.182509
-0.0290463
0.180673
-0.0338128
0.178567
-0.0381593
0.176265
-0.041893
0.173867
-0.0448453
0.171484
-0.0469154
0.169227
-0.0480617
0.167202
-0.0483251
0.16549
-0.0478076
0.164145
-0.0467122
0.163185
-0.0452547
0.162585
-0.0437436
0.162275
-0.0424083
0.16216
-0.0415176
0.162125
-0.0411126
0.162066
-0.0412586
0.161904
-0.0417014
0.161597
-0.0423536
0.161136
-0.042799
0.160543
-0.043034
0.159855
-0.0426424
0.159119
-0.0418492
0.158383
-0.0402373
0.157692
-0.038306
0.15708
-0.0355452
0.156574
-0.0327023
0.156189
-0.0290725
0.155935
-0.0256693
0.155808
-0.0214981
0.155801
-0.0179608
0.155893
-0.013696
0.156072
-0.0105419
0.15631
-0.00659803
0.15659
-0.00433601
0.156891
-0.001122
0.157209
-3.96035e-05
0.157522
0.00268099
0.157829
0.00271455
0.158105
0.00506801
0.158348
0.00391542
0.158571
0.00618658
0.15877
0.00483579
0.00784229
0.207212
0.0185069
-0.207348
0.207106
0.0176642
0.207081
0.0168428
0.207011
0.0158692
0.206878
0.0146611
0.206712