/*--------------------------------*- C++ -*----------------------------------*\
| =========                 |                                                 |
| \\      /  F ield         | OpenFOAM: The Open Source CFD Toolbox           |
|  \\    /   O peration     | Version:  2512                                  |
|   \\  /    A nd           | Website:  www.openfoam.com                      |
|    \\/     M anipulation  |                                                 |
\*---------------------------------------------------------------------------*/
FoamFile
{
    version     2.0;
    format      ascii;
    arch        "LSB;label=32;scalar=64";
    class       surfaceScalarField;
    location    "113";
    object      phi;
}
// * * * * * * * * * * * * * * * * * * * * * * * * * * * * * * * * * * * * * //

dimensions      [0 3 -1 0 0 0 0];

oriented        oriented;

internalField   nonuniform List<scalar> 
26232
(
5.80612e-06
0.000815455
-0.000821261
0.000182894
0.00132134
-0.00149843
0.000705869
0.000912156
-0.00143513
0.00175529
-0.00032741
-0.000722016
0.0035123
-0.00235911
0.000602103
0.00615279
-0.0051672
0.00252672
0.00983781
-0.00874184
0.00505682
0.014701
-0.0130628
0.00819957
0.0208339
-0.0180853
0.0119524
0.0282712
-0.023731
0.0162937
0.0369805
-0.0298863
0.021177
0.0468577
-0.0364071
0.0265299
0.0577308
-0.0431294
0.0322563
0.0693714
-0.0498836
0.0382429
0.081513
-0.0565095
0.0443679
0.0938718
-0.0628689
0.0505101
0.10617
-0.068856
0.0565581
0.118155
-0.0744038
0.0624183
0.129621
-0.079483
0.0680172
0.140415
-0.0841109
0.0733169
0.150446
-0.0883112
0.0782797
0.159681
-0.0922135
0.0829784
0.16812
-0.0957379
0.0872996
-0.099367
0.0919282
0.175559
8.86882e-05
0.000726767
0.000520813
0.000889214
0.00148273
-4.97644e-05
0.00316768
-0.00201235
0.00576587
-0.0049573
0.00945197
-0.0088533
0.0143667
-0.0136565
0.020596
-0.0192921
0.0281517
-0.0256411
0.0369591
-0.0325384
0.0468542
-0.0397814
0.0575946
-0.0471475
0.0688816
-0.0544164
0.0803893
-0.0613913
0.0917969
-0.0679171
0.10282
-0.0738916
0.113233
-0.0792692
0.122888
-0.084059
0.131721
-0.0883157
0.13974
-0.0921304
0.147033
-0.0956043
0.153704
-0.0988845
0.15993
-0.101963
-0.10528
0.165843
0.000173396
0.000553371
0.000876331
0.000186278
0.00231166
-0.0014851
0.00468183
-0.00438252
0.00817491
-0.00845038
0.0129406
-0.013619
0.0190624
-0.0197784
0.0265322
-0.0267619
0.0352343
-0.0343432
0.0449465
-0.0422506
0.0553597
-0.0501946
0.0661127
-0.0579005
0.0768354
-0.0651391
0.0871921
-0.0717479
0.0969172
-0.0776423
0.105839
-0.0828134
0.113888
-0.0873181
0.12109
-0.0912611
0.127549
-0.0947742
0.133415
-0.0979971
0.138865
-0.101055
0.144052
-0.104071
0.149142
-0.107054
-0.110315
0.154177
0.000265527
0.000287845
0.00126264
-0.000810839
0.00320806
-0.00343051
0.00630386
-0.00747832
0.0107127
-0.0128592
0.0165226
-0.0194288
0.023713
-0.0269689
0.0321349
-0.0351838
0.0415141
-0.0437223
0.0514812
-0.0522177
0.0616218
-0.0603352
0.0715346
-0.0678133
0.0808841
-0.0744885
0.0894386
-0.0803025
0.0970874
-0.085291
0.103836
-0.0895617
0.109783
-0.0932653
0.115089
-0.0965668
0.119936
-0.0996215
0.124499
-0.10256
0.128923
-0.105479
0.133306
-0.108454
0.137734
-0.111482
-0.114766
0.142185
0.000370588
-8.27436e-05
0.00169077
-0.00213102
0.00418011
-0.00591985
0.00801894
-0.0113171
0.0133094
-0.0181497
0.0200318
-0.0261512
0.0280162
-0.0349533
0.0369465
-0.0441141
0.0464004
-0.0531762
0.0559157
-0.061733
0.0650649
-0.0694844
0.0735166
-0.076265
0.081073
-0.082045
0.0876768
-0.0869062
0.0933914
-0.0910056
0.098364
-0.0945343
0.102781
-0.0976825
0.10683
-0.100616
0.11067
-0.103462
0.114421
-0.106311
0.118162
-0.10922
0.121934
-0.112225
0.125774
-0.115322
-0.118637
0.129645
0.000491638
-0.000574381
0.00216273
-0.00380212
0.00521408
-0.0089712
0.00977133
-0.0158744
0.0158319
-0.0242103
0.023224
-0.0335433
0.0316044
-0.0433336
0.0405055
-0.0530152
0.0494192
-0.0620899
0.0578884
-0.0702023
0.0655795
-0.0771755
0.0723177
-0.0830032
0.0780838
-0.0878111
0.0829805
-0.0918029
0.0871823
-0.0952075
0.0908867
-0.0982386
0.0942754
-0.101071
0.0974931
-0.103833
0.100642
-0.106611
0.103786
-0.109455
0.106963
-0.112397
0.110189
-0.115451
0.113481
-0.118614
-0.121954
0.116798
0.00062783
-0.00120221
0.00266698
-0.00584127
0.00626795
-0.0125722
0.0114602
-0.0210666
0.0180927
-0.0308428
0.0258162
-0.0412668
0.034129
-0.0516464
0.042476
-0.0613622
0.0503607
-0.0699745
0.0574312
-0.0772728
0.0635179
-0.0832622
0.0686213
-0.0881066
0.0728661
-0.0920559
0.0764419
-0.0953787
0.07955
-0.0983156
0.0823667
-0.101055
0.0850263
-0.103731
0.0876208
-0.106428
0.0902067
-0.109196
0.0928157
-0.112064
0.0954637
-0.115045
0.0981558
-0.118143
0.100898
-0.121356
-0.124713
0.103657
0.00077425
-0.00197646
0.00317877
-0.00824579
0.00727529
-0.0166687
0.0129544
-0.0267457
0.0198872
-0.0377757
0.0275557
-0.0489352
0.0353579
-0.0594487
0.0427436
-0.068748
0.049321
-0.0765519
0.0549022
-0.0828539
0.0594873
-0.0878473
0.0632093
-0.0918286
0.0662655
-0.0951121
0.0688599
-0.0979732
0.071167
-0.100623
0.0733164
-0.103205
0.0753945
-0.105809
0.0774538
-0.108487
0.0795234
-0.111266
0.0816178
-0.114159
0.0837434
-0.11717
0.0859009
-0.1203
0.0880914
-0.123547
-0.126913
0.090291
0.000922832
-0.00289929
0.00366408
-0.010987
0.00815663
-0.0211612
0.0141187
-0.0327077
0.0210414
-0.0446984
0.0282843
-0.056178
0.0352297
-0.0663941
0.0414197
-0.0749379
0.0466203
-0.0817525
0.0508095
-0.0870431
0.0541147
-0.0911526
0.0567362
-0.09445
0.058882
-0.097258
0.0607289
-0.0998201
0.0624067
-0.1023
0.0640006
-0.104799
0.0655615
-0.10737
0.0671173
-0.110043
0.0686825
-0.112831
0.0702638
-0.11574
0.0718633
-0.11877
0.0734808
-0.121918
0.0751149
-0.125181
-0.128548
0.0767506
0.00106335
-0.00396265
0.00408473
-0.0140084
0.00883352
-0.02591
0.0148413
-0.0387155
0.0214492
-0.0513063
0.0279667
-0.0626956
0.0338435
-0.0722708
0.0387672
-0.0798617
0.0426669
-0.0856522
0.0456488
-0.090025
0.0479097
-0.0934135
0.0496631
-0.0962034
0.051092
-0.0986869
0.0523314
-0.101059
0.0534692
-0.103438
0.0545571
-0.105886
0.0556237
-0.108436
0.0566835
-0.111103
0.057744
-0.113892
0.0588083
-0.116804
0.059877
-0.119839
0.0609493
-0.12299
0.0620225
-0.126254
-0.129615
0.063089
0.00118522
-0.00514787
0.00440518
-0.0172284
0.00924286
-0.0307477
0.015054
-0.0445267
0.0210863
-0.0573386
0.0266772
-0.0682865
0.0314014
-0.076995
0.0351053
-0.0835656
0.0378513
-0.0883983
0.0398231
-0.0919967
0.041238
-0.0948284
0.0422894
-0.0972548
0.0431217
-0.0995193
0.0438299
-0.101768
0.0444694
-0.104078
0.0450706
-0.106488
0.045649
-0.109015
0.0462126
-0.111666
0.0467656
-0.114445
0.0473097
-0.117348
0.0478448
-0.120374
0.0483695
-0.123515
0.0488801
-0.126764
-0.130108
0.0493736
0.00128147
-0.00642934
0.00460047
-0.0205474
0.00934764
-0.0354949
0.0147401
-0.0499192
0.0200027
-0.0626011
0.0245648
-0.0728486
0.0281501
-0.0805803
0.0307448
-0.0861603
0.032501
-0.0901545
0.0336343
-0.09313
0.03435
-0.0955441
0.034807
-0.0977118
0.0351115
-0.0998238
0.0353262
-0.101982
0.035485
-0.104236
0.0356049
-0.106608
0.0356948
-0.109105
0.0357594
-0.111731
0.0358015
-0.114487
0.0358224
-0.117369
0.0358223
-0.120374
0.0357997
-0.123492
0.0357508
-0.126715
0.0356753
-0.130033
-0.000229105
-0.00247721
0.00270632
-0.000833503
-0.00594898
0.00655338
-0.00175974
-0.00835463
0.00928087
-0.00295804
-0.00991319
0.0111115
-0.00438198
-0.0108315
0.0122555
-0.00599139
-0.0112954
0.0129049
-0.00775384
-0.0114545
0.0132169
-0.00964422
-0.0114131
0.0133035
-0.0116431
-0.0112305
0.0132294
-0.0137342
-0.0109256
0.0130168
-0.0159022
-0.0104864
0.0126543
-0.01813
-0.0098792
0.012107
-0.0203975
-0.00905762
0.0113251
-0.0226797
-0.00796859
0.0102508
-0.0249458
-0.00655696
0.00882302
-0.027159
-0.00476765
0.00698084
-0.0292775
-0.00254548
0.00466403
-0.031221
0.000133278
0.00181017
-0.0329742
0.00330291
-0.00154968
-0.034466
0.00699319
-0.00550135
-0.0356363
0.0111992
-0.010029
-0.0364367
0.0158996
-0.0150992
-0.0368496
0.0210714
-0.0206586
0.0266856
-0.0369385
-0.0265966
-0.000303521
-0.00217369
-0.00106315
-0.00518935
-0.00218229
-0.00723549
-0.00358386
-0.00851162
-0.00520632
-0.00920907
-0.00700302
-0.00949875
-0.00894036
-0.00951711
-0.0109947
-0.00935884
-0.0131483
-0.00907689
-0.0153859
-0.008688
-0.0176912
-0.0081811
-0.0200441
-0.00752626
-0.0224192
-0.00668259
-0.0247838
-0.00560399
-0.0270974
-0.00424327
-0.0293108
-0.00255431
-0.0313633
-0.000492926
-0.033179
0.00194896
-0.0346985
0.00482236
-0.0358383
0.008133
-0.0365221
0.011883
-0.0366819
0.0160594
-0.0362563
0.0206459
0.0256788
-0.0352496
-0.000356067
-0.00181763
-0.00121982
-0.0043256
-0.00245903
-0.00599628
-0.00397301
-0.00699764
-0.00568594
-0.00749614
-0.0075431
-0.00764159
-0.00950644
-0.00755377
-0.0115493
-0.00731601
-0.0136509
-0.00697526
-0.0157919
-0.00654703
-0.0179502
-0.0060228
-0.0200984
-0.005378
-0.0222021
-0.0045789
-0.0242181
-0.00358804
-0.0260937
-0.00236765
-0.0277668
-0.00088125
-0.0291528
0.000893135
-0.0301863
0.00298239
-0.0307648
0.00540094
-0.0307866
0.00815476
-0.0301482
0.0112446
-0.028757
0.0146683
-0.0265245
0.0184134
0.0224845
-0.0233302
-0.00038673
-0.0014309
-0.00130575
-0.00340658
-0.002598
-0.00470404
-0.0041437
-0.00545194
-0.00585397
-0.00578587
-0.00766491
-0.00583065
-0.00953117
-0.0056875
-0.0114194
-0.00542782
-0.0133017
-0.00509292
-0.0151508
-0.00469792
-0.0169356
-0.004238
-0.0186186
-0.00369502
-0.0201541
-0.00304343
-0.0214871
-0.00225496
-0.0225528
-0.00130194
-0.0232735
-0.00016055
-0.0235675
0.0011871
-0.0233383
0.00275319
-0.0224789
0.00454157
-0.0208722
0.00654807
-0.0183912
0.00876359
-0.0149048
0.0111819
-0.0103132
0.0138217
0.0168515
-0.00468015
-0.000397974
-0.00103292
-0.0013295
-0.00247505
-0.00261772
-0.00341582
-0.00412879
-0.00394087
-0.00576271
-0.00415194
-0.00744614
-0.00414723
-0.00912487
-0.00400878
-0.0107565
-0.00379618
-0.0123039
-0.00354553
-0.0137296
-0.00327218
-0.0149921
-0.00297549
-0.016043
-0.00264414
-0.0168255
-0.00226099
-0.0172737
-0.00180676
-0.0173122
-0.0012634
-0.0168566
-0.000616196
-0.0158138
0.000144328
-0.0140813
0.00102074
-0.0115469
0.0020071
-0.00808774
0.00308893
-0.00356731
0.00424317
0.00216559
0.00544897
0.00928335
0.00670396
0.00804463
0.0180902
-0.000392739
-0.000640183
-0.00130039
-0.0015674
-0.00253663
-0.00217958
-0.00395857
-0.00251893
-0.0054575
-0.002653
-0.00695121
-0.00265353
-0.00837613
-0.00258385
-0.00967994
-0.00249237
-0.010815
-0.00241048
-0.0117332
-0.00235399
-0.0123822
-0.00232652
-0.012703
-0.00232333
-0.0126289
-0.00233503
-0.0120851
-0.00235062
-0.0109885
-0.00236001
-0.00924861
-0.00235604
-0.00676808
-0.00233621
-0.00344366
-0.00230368
0.000834796
-0.00227135
0.00618287
-0.00225914
0.0127246
-0.00229859
0.0206122
-0.00243863
0.029972
-0.0026558
-0.00334516
0.0413618
-0.000372973
-0.000267209
-0.00122396
-0.00071641
-0.00236429
-0.00103925
-0.00364634
-0.00123689
-0.00495473
-0.00134461
-0.00619891
-0.00140935
-0.00730547
-0.00147729
-0.00821099
-0.00158685
-0.00885596
-0.0017655
-0.00918006
-0.0020299
-0.00911885
-0.00238773
-0.00860186
-0.00284031
-0.00755181
-0.00338507
-0.00588459
-0.00401784
-0.00350997
-0.00473463
-0.000332725
-0.00553328
0.00374624
-0.00641517
0.00882916
-0.00738661
0.0150185
-0.00846071
0.0224179
-0.00965856
0.0311254
-0.011006
0.0412828
-0.012596
0.0528306
-0.0142036
-0.017132
0.0666175
-0.000339123
7.19135e-05
-0.00110052
4.49917e-05
-0.0020986
-4.11706e-05
-0.0031839
-0.00015159
-0.00423509
-0.000293418
-0.00515225
-0.000492191
-0.00585041
-0.000779129
-0.00625207
-0.00118519
-0.00628233
-0.00173524
-0.00586488
-0.00244735
-0.0049194
-0.00333321
-0.00336051
-0.0043992
-0.00109782
-0.00564777
0.00196304
-0.0070787
0.00591876
-0.00869036
0.0108664
-0.010481
0.0169012
-0.0124499
0.0241139
-0.0145993
0.0325883
-0.0169352
0.0424024
-0.0194726
0.0536009
-0.0222045
0.066309
-0.0253041
0.0802649
-0.0281596
-0.0331656
0.0962985
-0.000290776
0.000362689
-0.000927452
0.000681668
-0.00173082
0.0007622
-0.00255018
0.000667768
-0.00325744
0.000413844
-0.00373958
-1.00551e-05
-0.00389793
-0.000620779
-0.00363543
-0.00144769
-0.00285729
-0.00251338
-0.00146709
-0.00383755
0.000634052
-0.00543434
0.00354677
-0.00731192
0.00737145
-0.00947244
0.0122052
-0.0119125
0.0181387
-0.0146238
0.0252522
-0.0175944
0.0336126
-0.0208104
0.0432706
-0.0242573
0.0542566
-0.0279212
0.0665833
-0.0317993
0.0802195
-0.0358407
0.0951805
-0.0402651
0.111202
-0.0441807
-0.0505757
0.128612
-0.000228626
0.000591315
-0.000704222
0.00115726
-0.00125497
0.00131295
-0.001728
0.00114079
-0.00198546
0.000671312
-0.00190043
-9.50898e-05
-0.00135243
-0.00116878
-0.00022397
-0.00257614
0.00160105
-0.0043384
0.00423739
-0.00647389
0.00779619
-0.00899314
0.0123811
-0.0118968
0.0180832
-0.0151746
0.0249761
-0.0188054
0.0331109
-0.0227585
0.0425121
-0.0269957
0.0531758
-0.031474
0.0650677
-0.0361492
0.0781242
-0.0409777
0.0922513
-0.0459264
0.107333
-0.0509229
0.123193
-0.0561245
0.139756
-0.0607437
-0.067355
0.156535
-0.000155209
0.000746524
-0.000436408
0.00143846
-0.000677562
0.00155411
-0.000721188
0.00118442
-0.000417196
0.000367321
0.000377569
-0.000889855
0.00180592
-0.00259713
0.00400301
-0.00477324
0.00709916
-0.00743455
0.0112137
-0.0105884
0.0164485
-0.0142279
0.0228806
-0.0183289
0.030555
-0.022849
0.0394791
-0.0277295
0.0496194
-0.0328989
0.0609014
-0.0382777
0.0732118
-0.0437843
0.0864036
-0.0493411
0.100303
-0.054877
0.114716
-0.0603395
0.129456
-0.0656634
0.144247
-0.0709149
0.159181
-0.0756774
-0.081386
0.173212
-7.47366e-05
-0.000134699
-1.57232e-05
0.000446678
0.0014161
0.00305296
0.00551265
0.00893898
0.0134568
0.0191621
0.0261112
0.0343122
0.0437195
0.0542329
0.0657019
0.0779344
0.0907081
0.103785
0.116926
0.129903
0.142519
0.154583
0.166205
0.176747
-0.0348666
0.0433844
-0.0454564
-0.0322069
0.0546261
-0.0572859
-0.0288446
0.0660531
-0.0694154
-0.0246746
0.0770082
-0.0811781
-0.0194783
0.0866788
-0.0918752
-0.0129861
0.09417
-0.100662
-0.00487784
0.0984111
-0.106519
0.00510509
0.0982564
-0.108239
0.0169047
0.0926566
-0.104456
0.0302137
0.0808463
-0.0941553
0.044416
0.0625743
-0.0767766
0.0587239
0.0381574
-0.0524653
0.0726427
0.00818488
-0.0221036
0.0858911
-0.0263538
0.0131054
0.098258
-0.0638029
0.0514359
0.109305
-0.100115
0.0890679
0.118258
-0.130143
0.121189
0.124384
-0.150329
0.144203
0.12752
-0.160583
0.157447
0.128155
-0.163243
0.162608
0.126569
-0.161446
0.163032
0.122258
-0.159621
0.163931
0.115171
-0.162196
0.169284
0.107408
-0.16755
0.175313
0.102842
-0.164042
0.168608
0.104284
-0.136499
0.135057
0.111614
-0.0802217
0.0728914
0.122538
-0.00607279
-0.00485106
0.134084
0.067503
-0.0790493
0.143745
0.126312
-0.135974
0.150423
0.164753
-0.171431
0.154262
0.184825
-0.188664
0.155069
0.193627
-0.194434
0.151919
0.204005
-0.200856
0.145105
0.22156
-0.214745
0.137528
0.231207
-0.223631
0.132999
0.206866
-0.202337
0.133402
0.132509
-0.132912
0.138196
0.0291311
-0.0339251
0.144933
-0.0761719
0.0694343
0.151564
-0.151035
0.144404
0.155648
-0.197788
0.193704
0.15479
-0.220017
0.220875
0.148488
-0.238452
0.244754
0.139949
-0.249655
0.258194
0.134251
-0.219414
0.225112
0.134886
-0.152371
0.151736
0.14071
-0.0261125
0.0202881
0.147546
0.0687186
-0.0755545
0.150126
0.172458
-0.175038
0.147056
0.234276
-0.231206
0.14175
0.276717
-0.271412
0.139297
0.284112
-0.281658
0.141258
0.162795
-0.164755
0.144697
0.0951659
-0.0986053
0.145041
-0.0991403
0.0987968
0.143296
-0.185979
0.187724
0.141564
-0.271259
0.27299
0.140031
-0.346265
0.347798
-0.0947302
0.096417
-0.0318164
0.0399513
-0.0274248
0.0502345
-0.0219297
0.060558
-0.0153139
0.0703924
-0.007359
0.078724
0.00206414
0.0847469
0.0129631
0.0875121
0.0252468
0.0859727
0.0386443
0.0792591
0.0526378
0.0668528
0.0665678
0.0486444
0.0798087
0.0249165
0.0919656
-0.00397207
0.103013
-0.0374015
0.112804
-0.073594
0.120939
-0.10825
0.126801
-0.136005
0.12995
-0.153477
0.130438
-0.161071
0.128904
-0.161709
0.125879
-0.158422
0.120851
-0.154592
0.113103
-0.154449
0.103969
-0.158415
0.0973816
-0.157455
0.0972021
-0.136319
0.104123
-0.0871422
0.115904
-0.0178544
0.129026
0.0543814
0.14059
0.114748
0.149255
0.156088
0.154855
0.179224
0.156961
0.191521
0.154835
0.206132
0.149084
0.22731
0.142523
0.237768
0.138434
0.210955
0.138393
0.13255
0.142049
0.0254757
0.147188
-0.0813113
0.152207
-0.156054
0.155119
-0.200699
0.153685
-0.218583
0.147054
-0.231821
0.138259
-0.24086
0.132484
-0.213639
0.133535
-0.153422
0.139995
-0.0325728
0.147346
0.0613682
0.150283
0.16952
0.147395
0.237165
0.142215
0.281897
0.139629
0.286698
0.141638
0.160786
0.145322
0.0914822
0.145734
-0.0995528
0.143925
-0.18417
0.142067
-0.269401
0.14048
-0.344677
-0.0930009
-0.018729
0.0353501
-0.0129793
0.0444848
-0.00592286
0.0535016
0.00270072
0.0617688
0.0126521
0.0687726
0.0238007
0.0735983
0.0360583
0.0752545
0.0491766
0.0728544
0.0627285
0.0657073
0.076162
0.0534193
0.0888794
0.0359269
0.100408
0.0133882
0.110507
-0.0140712
0.119209
-0.0461035
0.126393
-0.0807784
0.131635
-0.113492
0.134462
-0.138832
0.134771
-0.153786
0.132888
-0.159188
0.129511
-0.158332
0.125298
-0.154208
0.119866
-0.14916
0.112012
-0.146595
0.102091
-0.148495
0.0936732
-0.149037
0.0915058
-0.134152
0.0974455
-0.0930818
0.109512
-0.0299208
0.12385
0.0400437
0.13716
0.101438
0.147788
0.14546
0.155184
0.171828
0.158727
0.187978
0.157877
0.206981
0.153434
0.231754
0.147939
0.243263
0.144173
0.214721
0.143517
0.133205
0.145905
0.0230882
0.149401
-0.0848077
0.152785
-0.159438
0.154536
-0.20245
0.152642
-0.216689
0.145864
-0.225043
0.136936
-0.231932
0.131072
-0.207775
0.132407
-0.154757
0.139371
-0.0395373
0.147193
0.0535467
0.15054
0.166174
0.147892
0.239812
0.142851
0.286937
0.140104
0.289445
0.142129
0.158761
0.146079
0.087532
0.146577
-0.100051
0.144674
-0.182267
0.142675
-0.267402
0.141053
-0.343056
-0.0912546
0.00107707
0.0295929
0.00817202
0.0373898
0.0165287
0.0451448
0.0260412
0.0522564
0.0367128
0.058101
0.0484147
0.0618964
0.0608752
0.062794
0.0737166
0.060013
0.0864674
0.0529565
0.0986109
0.0412758
0.109664
0.0248742
0.119302
0.0037497
0.127395
-0.0221644
0.133932
-0.0526398
0.138698
-0.0855452
0.141209
-0.116002
0.141157
-0.13878
0.138812
-0.151441
0.134837
-0.155213
0.129938
-0.153433
0.124741
-0.149011
0.119092
-0.143511
0.111627
-0.13913
0.101688
-0.138555
0.0919123
-0.139262
0.0874918
-0.129731
0.0917467
-0.0973368
0.103383
-0.0415573
0.118541
0.024886
0.133399
0.0865807
0.145925
0.132933
0.155136
0.162617
0.160255
0.182859
0.160926
0.20631
0.157983
0.234697
0.153609
0.247636
0.15007
0.218261
0.148674
0.134601
0.149646
0.0221157
0.151531
-0.0866926
0.153293
-0.161199
0.153888
-0.203046
0.15161
-0.214411
0.144846
-0.218278
0.135909
-0.222995
0.129952
-0.201818
0.131433
-0.156238
0.138784
-0.0468879
0.147055
0.0452751
0.150878
0.162351
0.148552
0.242139
0.143682
0.291808
0.140753
0.292374
0.14274
0.156773
0.146966
0.0833058
0.147561
-0.100646
0.14554
-0.180246
0.143382
-0.265244
0.141739
-0.341412
-0.0895158
0.024654
0.0230291
0.0320826
0.0299612
0.0406275
0.0365999
0.0503104
0.0425736
0.060997
0.0474143
0.0724485
0.0504449
0.0843417
0.0509008
0.0962691
0.0480856
0.107769
0.0414564
0.118401
0.0306436
0.127766
0.0155093
0.135824
-0.00430747
0.142244
-0.0285851
0.14694
-0.0573355
0.149459
-0.0880643
0.149326
-0.11587
0.146549
-0.136002
0.141819
-0.146711
0.136094
-0.149488
0.130058
-0.147397
0.124153
-0.143106
0.118391
-0.137749
0.111597
-0.132336
0.102362
-0.12932
0.0919976
-0.128898
0.0854102
-0.123144
0.0872994
-0.099226
0.0977339
-0.0519918
0.113158
0.00946204
0.129258
0.070481
0.143536
0.118655
0.154541
0.151612
0.161361
0.17604
0.163768
0.203904
0.162514
0.23595
0.159312
0.250838
0.15593
0.221643
0.15368
0.136851
0.153239
0.0225575
0.153523
-0.0869767
0.153703
-0.16138
0.153149
-0.202492
0.150548
-0.21181
0.143934
-0.211664
0.135105
-0.214167
0.129052
-0.195765
0.130546
-0.157732
0.138174
-0.0545167
0.146888
0.0365612
0.151272
0.157967
0.14937
0.244041
0.144724
0.296453
0.141595
0.295504
0.143481
0.154887
0.14797
0.078817
0.148673
-0.101349
0.146518
-0.178091
0.144185
-0.262911
0.142527
-0.339754
-0.0878085
0.0479077
0.0164832
0.0552143
0.0226545
0.0635002
0.028314
0.0728156
0.0332582
0.0829746
0.0372553
0.0936926
0.0397269
0.10464
0.0399532
0.115424
0.0373023
0.125621
0.0312586
0.134886
0.0213792
0.14289
0.00750525
0.14961
-0.011028
0.154706
-0.0336812
0.157777
-0.0604066
0.158187
-0.0884735
0.155585
-0.113268
0.150387
-0.130804
0.143661
-0.139986
0.136559
-0.142385
0.12974
-0.140578
0.12341
-0.136777
0.117598
-0.131937
0.111539
-0.126277
0.103558
-0.121339
0.093545
-0.118885
0.0853299
-0.114929
0.0844554
-0.0983515
0.0928173
-0.0603537
0.107814
-0.00553424
0.124699
0.0535954
0.140476
0.102878
0.153195
0.138893
0.161803
0.167432
0.166125
0.199582
0.166723
0.235352
0.164787
0.252775
0.161561
0.224868
0.158412
0.14
0.156545
0.0244243
0.155302
-0.0857335
0.153976
-0.160053
0.152286
-0.200803
0.1494
-0.208923
0.14305
-0.205315
0.134436
-0.205553
0.128289
-0.189617
0.129668
-0.159112
0.137477
-0.0623254
0.146637
0.0274014
0.151679
0.152925
0.150326
0.245394
0.145983
0.300796
0.142648
0.298838
0.144354
0.153181
0.149076
0.074095
0.149897
-0.10217
0.1476
-0.175794
0.145077
-0.260388
0.143403
-0.33808
-0.0861568
0.0718077
0.011293
0.0779232
0.016539
0.0851284
0.0211088
0.0933977
0.0249889
0.102475
0.0281785
0.112067
0.0301345
0.121854
0.0301656
0.131451
0.0277054
0.140459
0.022251
0.148541
0.0132971
0.155569
0.000477087
0.161136
-0.0165943
0.164939
-0.0374842
0.166317
-0.0617852
0.164607
-0.0867629
0.159722
-0.108384
0.152483
-0.123564
0.144225
-0.131728
0.136149
-0.13431
0.128858
-0.133286
0.122368
-0.130287
0.116582
-0.126151
0.111135
-0.12083
0.10462
-0.114823
0.0958585
-0.110124
0.086984
-0.106054
0.0834467
-0.0948142
0.0890847
-0.0659917
0.102592
-0.0190418
0.119734
0.0364535
0.136638
0.0859746
0.150913
0.124618
0.161332
0.157012
0.167701
0.193213
0.170313
0.23274
0.169771
0.253317
0.166787
0.227851
0.162768
0.14402
0.159434
0.0277575
0.156794
-0.0830932
0.154065
-0.157324
0.151264
-0.198002
0.148113
-0.205772
0.14212
-0.199322
0.133814
-0.197246
0.127575
-0.183378
0.128723
-0.16026
0.136619
-0.0702217
0.146235
0.0177861
0.152046
0.147114
0.151386
0.246054
0.147446
0.304735
0.143913
0.302371
0.145367
0.151727
0.150269
0.0691933
0.151216
-0.103117
0.148775
-0.173353
0.146048
-0.257661
0.144355
-0.336387
-0.0845852
0.0989505
0.00864104
0.102841
0.0126486
0.108053
0.015897
0.114427
0.0186142
0.121692
0.0209133
0.129601
0.0222264
0.137835
0.0219309
0.146002
0.0195391
0.153718
0.0145344
0.160492
0.00652384
0.166504
-0.00553529
0.170694
-0.0207843
0.172891
-0.0396813
0.172318
-0.0612124
0.168454
-0.0828988
0.161559
-0.101489
0.152759
-0.114764
0.143489
-0.122458
0.134851
-0.125672
0.127342
-0.125776
0.120884
-0.123829
0.11523
-0.120498
0.110223
-0.115823
0.105028
-0.109628
0.0980817
-0.103177
0.0897279
-0.0977006
0.0842388
-0.0893251
0.0867109
-0.0684638
0.0978836
-0.0302145
0.11445
0.0198874
0.131969
0.0684554
0.147558
0.109029
0.159741
0.144828
0.168204
0.18475
0.172911
0.228033
0.173896
0.252332
0.171307
0.23044
0.166541
0.148786
0.161874
0.0324252
0.15792
-0.0791393
0.153916
-0.15332
0.15004
-0.194126
0.146626
-0.202358
0.141069
-0.193765
0.133156
-0.189334
0.126828
-0.17705
0.127637
-0.161068
0.135532
-0.0781172
0.145611
0.00770724
0.152308
0.140418
0.152499
0.245863
0.149085
0.308149
0.145379
0.306077
0.146513
0.150594
0.15153
0.0641759
0.152611
-0.104198
0.150032
-0.170774
0.147086
-0.254716
0.145369
-0.33467
-0.0831208
0.128809
0.00844394
0.130357
0.0111003
0.133227
0.0130269
0.137213
0.0146286
0.142142
0.0159846
0.147839
0.0165291
0.153996
0.0157736
0.160234
0.0133017
0.16618
0.00858807
0.171364
0.00133976
0.175485
-0.00965666
0.17791
-0.0232087
0.178078
-0.0398496
0.175346
-0.0584804
0.169463
-0.077016
0.160998
-0.0930233
0.15121
-0.104976
0.141448
-0.112696
0.132623
-0.116848
0.125095
-0.118247
0.118777
-0.117512
0.113357
-0.115078
0.108686
-0.111152
0.104464
-0.105406
0.0994142
-0.0981278
0.0925929
-0.0908793
0.0863626
-0.0830948
0.0858669
-0.0679681
0.0939963
-0.0383439
0.109021
0.00486311
0.12649
0.0509861
0.143036
0.0924831
0.156842
0.131023
0.167418
0.174174
0.174351
0.221101
0.176979
0.249704
0.17489
0.232529
0.169573
0.154103
0.163716
0.0382829
0.158574
-0.0739973
0.153445
-0.148192
0.148554
-0.189235
0.144865
-0.198669
0.139813
-0.188713
0.132389
-0.181909
0.125974
-0.170636
0.126341
-0.161435
0.134152
-0.0859284
0.144692
-0.00283341
0.152391
0.132719
0.153601
0.244653
0.150856
0.310894
0.147024
0.30991
0.147774
0.149844
0.152846
0.0591043
0.154058
-0.10541
0.151354
-0.16807
0.148177
-0.251539
0.146429
-0.332922
-0.0817943
0.155398
0.0095815
0.155474
0.0110235
0.156552
0.0119494
0.158487
0.0126934
0.161276
0.0131952
0.164771
0.0130341
0.16868
0.0118647
0.172687
0.00929549
0.176404
0.00487111
0.179764
-0.00202017
0.181545
-0.011438
0.181748
-0.0234122
0.1797
-0.0378015
0.17493
-0.0537101
0.167456
-0.0695421
0.158023
-0.0835902
0.147833
-0.0947863
0.138021
-0.102884
0.129289
-0.108116
0.121883
-0.110841
0.115752
-0.111381
0.110633
-0.109958
0.106303
-0.106822
0.102731
-0.101834
0.0992618
-0.0946582
0.0945042
-0.0861216
0.0888908
-0.0774815
0.0863758
-0.0654531
0.0911979
-0.043166
0.103747
-0.00768615
0.12032
0.0344132
0.137331
0.0754717
0.152515
0.11584
0.165069
0.161619
0.174171
0.211998
0.178579
0.245295
0.177266
0.233843
0.171652
0.159717
0.164908
0.045027
0.158699
-0.0677883
0.152598
-0.142091
0.146774
-0.183411
0.142775
-0.19467
0.138283
-0.184221
0.131464
-0.175091
0.124975
-0.164146
0.12478
-0.16124
0.132415
-0.0935634
0.143416
-0.0138347
0.152218
0.123917
0.154609
0.242262
0.152689
0.312814
0.148811
0.313788
0.149145
0.149509
0.154182
0.0540681
0.155537
-0.106765
0.152722
-0.165255
0.149304
-0.248121
0.147522
-0.331141
-0.0806409
0.171953
0.0108401
0.171585
0.011392
0.171751
0.0117829
0.172533
0.0119119
0.173974
0.0117537
0.175903
0.0111047
0.178091
0.00967683
0.180275
0.00711166
0.182017
0.00312949
0.183134
-0.00313733
0.183055
-0.0113588
0.181306
-0.0216633
0.177454
-0.0339501
0.171251
-0.0475067
0.162926
-0.0612175
0.15325
-0.0739137
0.143236
-0.0847728
0.133757
-0.093404
0.125334
-0.0996931
0.118152
-0.103659
0.112202
-0.105432
0.107338
-0.105094
0.10332
-0.102804
0.100131
-0.0986459
0.0976733
-0.0922003
0.0948561
-0.0833044
0.0908206
-0.073446
0.087639
-0.0622715
0.0895918
-0.0451188
0.0989782
-0.0170726
0.113708
0.0196832
0.130495
0.0586848
0.14677
0.099565
0.161334
0.147055
0.172802
0.200531
0.179083
0.239014
0.178514
0.234411
0.172932
0.165299
0.165498
0.0524609
0.158444
-0.0607348
0.151497
-0.135143
0.144853
-0.176767
0.140469
-0.190285
0.136514
-0.180266
0.130401
-0.168978
0.123857
-0.157602
0.122984
-0.160367
0.130292
-0.100871
0.141702
-0.0252451
0.151708
0.113911
0.155456
0.238515
0.15452
0.313749
0.150686
0.317623
0.150613
0.149582
0.155523
0.049158
0.15703
-0.108272
0.15412
-0.162345
0.150453
-0.244454
0.14864
-0.329328
-0.0796988
0.176302
0.0112857
0.176023
0.0116708
0.176099
0.0117067
0.176507
0.0115037
0.177253
0.0110082
0.178253
0.0101047
0.17934
0.00858916
0.180326
0.00612587
0.181076
0.00237958
0.180807
-0.00286776
0.179344
-0.00989578
0.176375
-0.0186945
0.171596
-0.0291711
0.16495
-0.0408606
0.156755
-0.0530231
0.147674
-0.0648321
0.138464
-0.0755636
0.129744
-0.0846838
0.1219
-0.0918484
0.115092
-0.0968515
0.109352
-0.0996923
0.104648
-0.10039
0.100823
-0.0989785
0.0977889
-0.0956116
0.0957261
-0.0901376
0.0941859
-0.0817642
0.0919146
-0.0711748
0.089209
-0.0595659
0.0892613
-0.0451711
0.0951816
-0.0229929
0.107248
0.00761695
0.122738
0.0431942
0.13913
0.083173
0.155002
0.131184
0.168689
0.186844
0.177161
0.230541
0.177984
0.233589
0.173041
0.170242
0.165629
0.0598734
0.157768
-0.0528746
0.15018
-0.127555
0.14293
-0.169517
0.138108
-0.185463
0.134589
-0.176748
0.129235
-0.163624
0.122656
-0.151023
0.121057
-0.158768
0.127978
-0.107792
0.139576
-0.0368434
0.150766
0.102722
0.155995
0.233286
0.15624
0.313504
0.152612
0.321251
0.152151
0.150042
0.156842
0.0444673
0.158513
-0.109942
0.155521
-0.159354
0.151622
-0.240555
0.149776
-0.327482
-0.0790046
0.194032
0.0118544
-0.1946
0.19405
0.0116528
0.194299
0.0114573
0.194829
0.0109743
0.195712
0.0101247
0.196979
0.00883756
0.198639
0.0069289
0.200597
0.00416861
0.202585
0.000391194
0.204529
-0.00481146
0.206038
-0.0114048
0.206779
-0.0194358
0.206372
-0.028764
0.204545
-0.0390333
0.201225
-0.0497035
0.196549
-0.0601559
0.190779
-0.0697938
0.184211
-0.078116
0.177133
-0.0847706
0.1698
-0.0895184
0.162415
-0.0923067
0.155148
-0.0931235
0.148087
-0.0919179
0.141191
-0.088715
0.134611
-0.0835581
0.12847
-0.075623
0.122017
-0.0647219
0.114458
-0.0520069
0.10717
-0.0378831
0.103479
-0.0193015
0.105068
0.00602761
0.110862
0.0374008
0.118225
0.0758101
0.125419
0.123989
0.132309
0.179955
0.139729
0.223121
0.149268
0.224049
0.161029
0.158481
0.170464
0.0504385
0.17486
-0.0572707
0.173202
-0.125897
0.167044
-0.16336
0.159891
-0.17831
0.153038
-0.169894
0.144839
-0.155425
0.135835
-0.142019
0.129858
-0.152791
0.129911
-0.107846
0.133353
-0.0402856
0.136541
0.0995337
0.137484
0.232343
0.137735
0.313253
0.138977
0.320008
0.143081
0.145939
0.149976
0.0375727
0.152344
-0.112311
0.148478
-0.155488
0.143248
-0.235324
0.138518
-0.322752
-0.0763773
0.206294
0.0117539
-0.206193
0.20667
0.0112763
0.207334
0.0107943
0.208222
0.0100863
0.209329
0.00901709
0.210667
0.00749959
0.21219
0.00540607
0.213792
0.00256672
0.215386
-0.00120262
0.216677
-0.00610246
0.217443
-0.0121715
0.217414
-0.0194061
0.216332
-0.0276821
0.214022
-0.0367231
0.210436
-0.0461174
0.205657
-0.055377
0.199872
-0.0640088
0.193327
-0.0715716
0.186294
-0.0777371
0.179031
-0.0822558
0.171743
-0.0850188
0.164575
-0.0859554
0.157641
-0.0849835
0.150919
-0.0819933
0.144436
-0.0770749
0.138441
-0.0696284
0.132688
-0.0589684
0.126199
-0.0455187
0.119143
-0.0308265
0.113949
-0.0141077
0.113396
0.00658054
0.11767
0.0331272
0.124795
0.0686847
0.132866
0.115918
0.141083
0.171737
0.150226
0.213979
0.161874
0.212401
0.175049
0.145307
0.185017
0.0404704
0.188678
-0.0609318
0.186003
-0.123221
0.178691
-0.156049
0.170505
-0.170124
0.163132
-0.162521
0.15484
-0.147132
0.14545
-0.132629
0.138809
-0.14615
0.13831
-0.107347
0.141744
-0.0437199
0.145502
0.0957758
0.14722
0.230626
0.148475
0.311997
0.150366
0.318117
0.154483
0.141822
0.161483
0.0305719
0.163679