/*--------------------------------*- C++ -*----------------------------------*\
| =========                 |                                                 |
| \\      /  F ield         | OpenFOAM: The Open Source CFD Toolbox           |
|  \\    /   O peration     | Version:  2512                                  |
|   \\  /    A nd           | Website:  www.openfoam.com                      |
|    \\/     M anipulation  |                                                 |
\*---------------------------------------------------------------------------*/
FoamFile
{
    version     2.0;
    format      ascii;
    arch        "LSB;label=32;scalar=64";
    class       surfaceScalarField;
    location    "86.25";
    object      phi;
}
// * * * * * * * * * * * * * * * * * * * * * * * * * * * * * * * * * * * * * //

dimensions      [0 3 -1 0 0 0 0];

oriented        oriented;

internalField   nonuniform List<scalar> 
26232
(
-3.70504e-05
0.000976939
-0.000939889
0.000111216
0.00186664
-0.00201491
0.000659998
0.00187284
-0.00242162
0.00180483
0.00104906
-0.00219389
0.00373271
-0.000588528
-0.00133936
0.00662375
-0.00304264
0.000151609
0.010648
-0.00632106
0.00229681
0.0159516
-0.0104231
0.00511943
0.0226425
-0.0153251
0.00863422
0.0307717
-0.0209711
0.0128419
0.0403175
-0.0272679
0.0177221
0.0511751
-0.0340866
0.023229
0.0631552
-0.0412705
0.0292904
0.0759916
-0.0486464
0.03581
0.0893582
-0.0560382
0.0426716
0.102892
-0.063281
0.0497468
0.116224
-0.0702328
0.0569017
0.129002
-0.0767857
0.0640075
0.140931
-0.0828683
0.0709395
0.151777
-0.0884665
0.0776198
0.161416
-0.0935584
0.0839201
0.169742
-0.0983168
0.0899903
0.17668
-0.102404
0.095466
-0.10691
0.10161
0.181981
3.37402e-05
0.000943199
0.000396109
0.00150427
0.00132236
0.000946586
0.00303208
-0.000660665
0.00573378
-0.00329022
0.0096178
-0.00692667
0.0148411
-0.0115443
0.0215053
-0.0170872
0.0296346
-0.0234544
0.0391582
-0.0304948
0.0499036
-0.0380132
0.0616028
-0.0457858
0.0739133
-0.053581
0.0864486
-0.0611817
0.0988156
-0.0684053
0.110653
-0.0751181
0.121664
-0.0812438
0.131643
-0.0867653
0.140494
-0.0917189
0.148213
-0.0961852
0.154916
-0.100261
0.160695
-0.104096
0.165935
-0.107644
-0.111521
0.170545
0.000124
0.000819199
0.000756935
0.000871335
0.00214919
-0.000445672
0.0045359
-0.00304737
0.00812988
-0.00688421
0.0131018
-0.0118986
0.0195523
-0.0179949
0.027484
-0.025019
0.0367818
-0.0327522
0.0472099
-0.0409229
0.0584295
-0.0492329
0.0700342
-0.0573906
0.0815971
-0.0651438
0.0927203
-0.0723049
0.10308
-0.0787645
0.112456
-0.0844943
0.12075
-0.0895382
0.12798
-0.0939957
0.13426
-0.0979984
0.139764
-0.101689
0.144691
-0.105189
0.149223
-0.108628
0.153539
-0.111961
-0.115628
0.157647
0.000230045
0.000589154
0.00117858
-7.72045e-05
0.00310461
-0.0023717
0.0062432
-0.00618597
0.0107835
-0.0114245
0.0168338
-0.0179489
0.0243857
-0.0255468
0.0332902
-0.0339235
0.0432582
-0.0427202
0.05389
-0.0515547
0.0647277
-0.0600705
0.0753187
-0.0679816
0.085277
-0.0751021
0.094328
-0.0813559
0.102332
-0.0867686
0.109282
-0.0914447
0.115282
-0.0955373
0.120502
-0.0992157
0.125142
-0.102639
0.129388
-0.105935
0.133395
-0.109196
0.137257
-0.112489
0.141084
-0.115788
-0.119367
0.144823
0.000349843
0.000239311
0.00164955
-0.00137691
0.00415453
-0.00487668
0.00807541
-0.0101068
0.0135383
-0.0168873
0.0205384
-0.024949
0.0289082
-0.0339165
0.0383179
-0.0433332
0.0483162
-0.0527185
0.0584005
-0.061639
0.0680983
-0.0697683
0.0770373
-0.0769206
0.0849888
-0.0830536
0.0918787
-0.0882458
0.0977673
-0.0926572
0.102808
-0.0964855
0.107198
-0.0999273
0.111133
-0.103151
0.114779
-0.106284
0.118254
-0.109411
0.12164
-0.112582
0.124979
-0.115828
0.128321
-0.11913
-0.122649
0.131602
0.000482976
-0.000243665
0.00216022
-0.00305415
0.00526279
-0.00797925
0.00994234
-0.0147864
0.0162145
-0.0231595
0.023913
-0.0326475
0.032684
-0.0426876
0.0420337
-0.0526829
0.0514167
-0.0621015
0.0603362
-0.0705586
0.0684246
-0.0778567
0.0754844
-0.0839804
0.081487
-0.0890562
0.086536
-0.0932948
0.0908132
-0.0969345
0.094524
-0.100196
0.0978553
-0.103259
0.100954
-0.10625
0.103922
-0.109252
0.106823
-0.112312
0.109695
-0.115454
0.112558
-0.11869
0.115436
-0.122009
-0.125493
0.118281
0.000628324
-0.000871989
0.00269652
-0.00512235
0.00638094
-0.0116637
0.0117314
-0.0201369
0.0186063
-0.0300344
0.0266497
-0.0406909
0.0353368
-0.0513747
0.0440784
-0.0614244
0.0523415
-0.0703646
0.0597448
-0.0779619
0.0661009
-0.0842128
0.0714047
-0.0892842
0.0757842
-0.0934357
0.0794362
-0.0969469
0.0825686
-0.100067
0.0853617
-0.102989
0.0879509
-0.105848
0.0904273
-0.108726
0.0928464
-0.111671
0.0952398
-0.114705
0.0976245
-0.117839
0.100008
-0.121074
0.102403
-0.124403
-0.12786
0.10477
0.000782187
-0.00165418
0.00323552
-0.00757568
0.00744345
-0.0158716
0.0133095
-0.026003
0.0205032
-0.0372281
0.0284872
-0.0486748
0.036628
-0.0595156
0.044341
-0.0691374
0.0512066
-0.0772303
0.0570214
-0.0837767
0.0617818
-0.0889731
0.0656247
-0.0931272
0.068755
-0.096566
0.0713831
-0.0995749
0.0736868
-0.102371
0.075797
-0.105099
0.0777993
-0.10785
0.0797447
-0.110671
0.0816616
-0.113588
0.083565
-0.116609
0.0854626
-0.119737
0.0873583
-0.122969
0.0892575
-0.126302
-0.129739
0.0911365
0.000937537
-0.00259171
0.00374511
-0.0103833
0.00837224
-0.0204987
0.0145409
-0.0321716
0.0217285
-0.0444157
0.0292659
-0.0562122
0.0365018
-0.0667515
0.0429503
-0.0755859
0.0483615
-0.0826415
0.0527096
-0.0881247
0.0561264
-0.09239
0.0588196
-0.0958204
0.0610039
-0.0987503
0.06286
-0.101431
0.064519
-0.10403
0.0660656
-0.106646
0.0675495
-0.109334
0.0689977
-0.11212
0.0704244
-0.115014
0.0718371
-0.118021
0.0732398
-0.12114
0.0746351
-0.124364
0.0760244
-0.127692
-0.13111
0.0773946
0.0010846
-0.00367632
0.00418772
-0.0134864
0.00908859
-0.0253996
0.0153121
-0.0383951
0.0221754
-0.051279
0.0289548
-0.0629917
0.0350702
-0.0728668
0.0401911
-0.0807067
0.0442409
-0.0866913
0.0473293
-0.0912132
0.0496608
-0.0947215
0.0514558
-0.0976153
0.052902
-0.100197
0.0541363
-0.102665
0.0552464
-0.10514
0.0562835
-0.107683
0.0572749
-0.110325
0.0582349
-0.11308
0.059171
-0.115951
0.0600875
-0.118938
0.0609868
-0.122039
0.0618704
-0.125248
0.0627382
-0.128559
-0.131957
0.0635854
0.00121275
-0.00488906
0.00452731
-0.0168009
0.00952812
-0.0304004
0.015554
-0.044421
0.0218216
-0.0575466
0.0276365
-0.0688065
0.0325507
-0.0777811
0.0364019
-0.0845578
0.0392538
-0.0895432
0.0412971
-0.0932565
0.0427566
-0.0961809
0.0438311
-0.0986898
0.0446679
-0.101033
0.0453624
-0.10336
0.0459699
-0.105747
0.0465197
-0.108233
0.0470268
-0.110833
0.0474994
-0.113552
0.0479419
-0.116393
0.0483572
-0.119353
0.048747
-0.122429
0.0491117
-0.125613
0.0494497
-0.128897
-0.132268
0.0497605
0.00131478
-0.00620384
0.0047382
-0.0202244
0.0096529
-0.0353151
0.0152504
-0.0500185
0.0207222
-0.0630184
0.0254703
-0.0735546
0.029204
-0.0815149
0.0319078
-0.0872616
0.0337389
-0.0913744
0.0349207
-0.0944382
0.0356646
-0.0969248
0.0361333
-0.0991586
0.0364344
-0.101334
0.0366307
-0.103556
0.0367556
-0.105872
0.0368257
-0.108303
0.0368497
-0.110856
0.0368323
-0.113535
0.036777
-0.116338
0.0366864
-0.119263
0.0365621
-0.122304
0.0364045
-0.125455
0.0362112
-0.128704
0.0359843
-0.132041
-0.000258795
-2.32642e-05
0.000282059
-0.000886206
0.000447897
0.000179514
-0.00179565
0.00128081
-0.000371359
-0.00292786
0.00233709
-0.00120489
-0.0042396
0.00350921
-0.00219747
-0.00569745
0.00473065
-0.0032728
-0.00727333
0.00597333
-0.00439745
-0.0089415
0.00723923
-0.00557106
-0.0106769
0.00854959
-0.00681419
-0.0124542
0.00993385
-0.00815653
-0.0142472
0.0114207
-0.00962769
-0.0160277
0.013032
-0.0112514
-0.0177651
0.01478
-0.0130427
-0.0194244
0.016666
-0.0150067
-0.0209662
0.01868
-0.0171382
-0.0223456
0.0208001
-0.0194208
-0.023512
0.0229922
-0.0218258
-0.0244101
0.0252087
-0.0243105
-0.0249815
0.0273886
-0.0268173
-0.0251662
0.0294582
-0.0292735
-0.0249059
0.0313331
-0.0315934
-0.0241483
0.0329211
-0.0336786
-0.0228618
0.0341319
-0.0354185
0.0349226
-0.0210672
-0.0367172
-0.000212059
0.000188795
-0.000724681
0.000960518
-0.00146423
0.00202036
-0.00237862
0.00325148
-0.00342921
0.0045598
-0.00458462
0.00588606
-0.00581603
0.00720474
-0.00709413
0.00851733
-0.00838762
0.00984307
-0.00966267
0.0112089
-0.0108829
0.0126409
-0.0120092
0.0141583
-0.0129995
0.0157702
-0.0138077
0.0174743
-0.0143839
0.0192561
-0.0146728
0.0210891
-0.0146148
0.0229342
-0.0141459
0.0247397
-0.0131981
0.0264408
-0.0117023
0.0279625
-0.00958886
0.0292197
-0.0067918
0.030124
-0.0032558
0.0305959
0.0306371
0.00102971
-0.000156646
0.000345441
-0.000534256
0.00133813
-0.00107215
0.00255825
-0.00172499
0.00390433
-0.00245769
0.0052925
-0.00323998
0.00666835
-0.00404189
0.00800664
-0.00483065
0.00930609
-0.00556921
0.0105816
-0.00621596
0.0118556
-0.00672502
0.0131499
-0.0070469
0.0144802
-0.00712882
0.0158522
-0.00691402
0.0172595
-0.00634356
0.0186857
-0.0053545
0.0201
-0.00388088
0.0214606
-0.0018546
0.0227134
0.000793104
0.0237931
0.00413282
0.0246228
0.0082347
0.0251178
0.0131666
0.0251921
0.0189968
0.0247657
0.0238127
0.0258212
-0.000103086
0.000448527
-0.000346985
0.00158203
-0.000680839
0.00289211
-0.00106317
0.00428666
-0.0014601
0.00568943
-0.00184105
0.0070493
-0.00217449
0.00834008
-0.00242469
0.00955629
-0.00255035
0.0107073
-0.00250405
0.0118093
-0.00223274
0.0128786
-0.00167872
0.0139262
-0.000780677
0.0149541
0.000524292
0.0159545
0.00230368
0.0169063
0.00462531
0.0177784
0.00755766
0.0185282
0.011169
0.0191021
0.0155261
0.019436
0.0206926
0.0194563
0.0267293
0.0190811
0.0336984
0.018223
0.0416437
0.0168204
0.014678
0.0507785
-6.03078e-05
0.000508835
-0.000192082
0.0017138
-0.000347886
0.00304791
-0.000485635
0.0044244
-0.000569473
0.00577327
-0.000566547
0.00704638
-0.000442936
0.00821647
-0.000160958
0.00927431
0.000323502
0.0102228
0.00106123
0.0110716
0.00210902
0.0118308
0.00352883
0.0125064
0.00538649
0.0130965
0.00775104
0.01359
0.0106919
0.0139654
0.0142794
0.0141909
0.0185831
0.0142245
0.0236706
0.0140146
0.0296064
0.0135001
0.036451
0.0126117
0.0442575
0.0112747
0.0530986
0.00938183
0.0629533
0.00696571
0.0034059
0.0742253
-3.48557e-05
0.00054369
-9.11874e-05
0.00177013
-0.000116901
0.00307362
-6.42247e-05
0.00437173
0.000107765
0.00560128
0.000436542
0.0067176
0.000959303
0.00769371
0.00171651
0.0085171
0.00275377
0.00918558
0.00412299
0.0097024
0.00588238
0.0100715
0.00809553
0.0102932
0.0108303
0.0103617
0.0141573
0.010263
0.0181489
0.00997378
0.022878
0.00946176
0.0284171
0.0086854
0.0348376
0.00759414
0.0422099
0.00612783
0.0506026
0.00421902
0.060064
0.00181327
0.0707142
-0.00126837
0.0824219
-0.00474192
-0.0100227
0.0958504
-2.94594e-05
0.00057315
-5.35177e-05
0.00179419
-7.26521e-06
0.00302737
0.000167357
0.00419711
0.000519917
0.00524872
0.00109438
0.00614314
0.00193312
0.00685498
0.00308021
0.00737
0.00458404
0.00768175
0.00649872
0.00778772
0.00888466
0.00768551
0.0118083
0.00736954
0.0153415
0.00682859
0.0195603
0.00604412
0.0245448
0.00498932
0.0303774
0.0036291
0.0371424
0.0019204
0.0449222
-0.000185603
0.0538059
-0.00275594
0.0638759
-0.00585096
0.0751892
-0.0095
0.0878895
-0.0139687
0.101727
-0.0185795
-0.0257682
0.117473
-4.19623e-05
0.000615112
-7.20064e-05
0.00182424
-5.44573e-06
0.00296081
0.000230081
0.00396158
0.000695431
0.00478337
0.00144427
0.0053943
0.00252737
0.00577187
0.00399652
0.00590085
0.00590759
0.00577068
0.00832267
0.00537263
0.0113112
0.00469694
0.0149505
0.00373031
0.0193249
0.00245413
0.0245254
0.000843663
0.0306483
-0.00113363
0.037793
-0.00351557
0.0460585
-0.0063451
0.0555426
-0.00966968
0.0663236
-0.0135369
0.0784768
-0.0180042
0.0920213
-0.0230446
0.107036
-0.0289831
0.123233
-0.0347764
-0.0435993
0.141064
-6.50206e-05
0.000680133
-0.000122207
0.00188142
-6.22714e-05
0.00290087
0.000204571
0.00369474
0.000754503
0.00423343
0.00165553
0.00449328
0.00297298
0.00445442
0.00477412
0.00409971
0.00713169
0.00341312
0.0101262
0.00237814
0.0138469
0.000976205
0.0183916
-0.000814394
0.0238647
-0.00301891
0.030374
-0.00566567
0.0380256
-0.00878519
0.046918
-0.012408
0.0571351
-0.0165622
0.0687365
-0.0212711
0.0817465
-0.0265469
0.0961454
-0.0324032
0.111859
-0.0387583
0.128736
-0.0458594
0.146593
-0.0526342
-0.0620942
0.165088
-8.69718e-05
0.000767104
-0.000165702
0.00196015
-0.000100216
0.00283539
0.000220968
0.00337355
0.000893733
0.00356067
0.00200763
0.00337938
0.00365133
0.00281073
0.00591741
0.00183362
0.00890529
0.000425241
0.0127218
-0.0014384
0.0174797
-0.00378167
0.0232933
-0.00662797
0.0302722
-0.00999782
0.0385131
-0.0139066
0.0480899
-0.018362
0.059044
-0.023362
0.071374
-0.0288922
0.0850281
-0.0349252
0.0998962
-0.041415
0.115805
-0.048312
0.132536
-0.0554891
0.149705
-0.0630289
0.167236
-0.0701648
-0.0788927
0.184035
-9.47374e-05
0.000861842
-0.000159218
0.00202463
-3.02134e-05
0.00270638
0.000426448
0.00291689
0.00133461
0.0026525
0.00281224
0.00190176
0.00497827
0.000644696
0.00795588
-0.00114399
0.0118715
-0.00349037
0.0168506
-0.00641752
0.0230103
-0.00994136
0.0304489
-0.0140666
0.0392346
-0.0187835
0.0493931
-0.0240651
0.060898
-0.0298669
0.0736627
-0.0361268
0.087537
-0.0427665
0.102308
-0.0496966
0.117705
-0.0568118
0.133418
-0.0640247
0.149111
-0.0711818
0.164403
-0.0783218
0.179174
-0.0849356
-0.0919804
0.192262
-7.80471e-05
-6.83185e-05
0.000216444
0.00093945
0.0022526
0.00430596
0.00724747
0.0112229
0.0163668
0.0227912
0.0305719
0.0397343
0.0502413
0.0619862
0.0747909
0.0884109
0.102546
0.116857
0.130985
0.14458
0.157318
0.168987
0.179517
0.189147
-0.0171637
0.0467691
-0.0506725
-0.0124296
0.0453259
-0.0500601
-0.00685688
0.0415899
-0.0471626
-0.000463229
0.0352097
-0.0416034
0.0065981
0.0259008
-0.0329621
0.0142557
0.013406
-0.0210636
0.0222653
-0.00221176
-0.00579783
0.0305982
-0.0207278
0.0123949
0.039031
-0.0416507
0.0332179
0.047318
-0.0639975
0.0557105
0.055188
-0.0862348
0.0783648
0.0622711
-0.106448
0.0993652
0.0679759
-0.12287
0.117165
0.0715397
-0.134524
0.130961
0.072171
-0.141769
0.141138
0.0695618
-0.146432
0.149041
0.0647793
-0.150536
0.155318
0.0605719
-0.153472
0.157679
0.060197
-0.150206
0.15058
0.0653451
-0.133484
0.128335
0.0753041
-0.0990619
0.0891029
0.0882598
-0.0488336
0.0358779
0.102326
0.0102151
-0.0242816
0.115811
0.0685654
-0.0820504
0.127047
0.116942
-0.128178
0.134938
0.150842
-0.158733
0.139564
0.170505
-0.175131
0.141418
0.179125
-0.180979
0.140023
0.183683
-0.182287
0.134689
0.193231
-0.187898
0.12689
0.207381
-0.199582
0.12063
0.20913
-0.20287
0.119531
0.175304
-0.174204
0.124278
0.100136
-0.104882
0.132748
0.00231638
-0.0107863
0.141689
-0.0897849
0.0808434
0.148865
-0.156945
0.149769
0.153547
-0.19492
0.190238
0.154899
-0.209192
0.20784
0.151381
-0.219372
0.22289
0.143222
-0.231635
0.239794
0.134155
-0.238343
0.24741
0.129079
-0.202359
0.207435
0.130504
-0.121893
0.120468
0.137084
-0.00816357
0.00158425
0.145527
0.0953172
-0.10376
0.151212
0.169256
-0.174941
0.15067
0.228915
-0.228373
0.14432
0.261861
-0.255511
0.137062
0.291695
-0.284437
0.134471
0.222196
-0.219605
0.138301
0.133048
-0.136878
0.144271
-0.0149728
0.00900303
0.146815
-0.128762
0.126218
0.14405
-0.204554
0.207319
0.140039
-0.329505
0.333515
0.138577
-0.254238
0.2557
0.138672
-0.263936
0.263841
0.137071
-0.0501337
0.0517348
0.160009
-0.15747
0.00618855
0.0416102
0.0118208
0.0396936
0.0179717
0.035439
0.0245741
0.0286073
0.0315043
0.0189706
0.0385933
0.00631697
0.0457019
-0.00932041
0.0527366
-0.0277625
0.0595843
-0.0484984
0.0661034
-0.0705166
0.072071
-0.0922023
0.0771475
-0.111525
0.0808838
-0.126607
0.082744
-0.136385
0.0820477
-0.141073
0.0780968
-0.142481
0.0710273
-0.143466
0.0629156
-0.14536
0.057532
-0.144822
0.0581988
-0.13415
0.0655972
-0.10646
0.0780106
-0.061247
0.0930733
-0.00484756
0.108365
0.0532739
0.12179
0.103517
0.131977
0.140655
0.138758
0.163724
0.142258
0.175626
0.141945
0.183995
0.137633
0.197543
0.131237
0.213777
0.126429
0.213938
0.126027
0.175705
0.130363
0.0957997
0.137632
-0.00495187
0.145
-0.0971536
0.150421
-0.162366
0.153481
-0.19798
0.153777
-0.209488
0.149772
-0.215366
0.141255
-0.223118
0.131706
-0.228795
0.126322
-0.196974
0.128068
-0.123639
0.135603
-0.0156984
0.145065
0.0858546
0.151469
0.162852
0.151319
0.229064
0.145306
0.267875
0.138167
0.298833
0.135375
0.224989
0.138926
0.129497
0.144746
-0.0207924
0.147363
-0.13138
0.144424
-0.201615
0.140317
-0.325397
0.138762
-0.252683
0.138667
-0.263841
0.136936
-0.0484029
0.16263
0.0316196
0.0358118
0.0377772
0.0335361
0.0441656
0.0290506
0.0506722
0.0221007
0.057128
0.0125148
0.0634804
-3.54039e-05
0.0695388
-0.0153788
0.0752399
-0.0334636
0.0805192
-0.0537777
0.0852655
-0.0752629
0.0892719
-0.0962087
0.0922263
-0.114479
0.0937765
-0.128157
0.0936427
-0.136251
0.0915609
-0.138991
0.0869129
-0.137833
0.0790188
-0.135572
0.0686532
-0.134995
0.0590999
-0.135269
0.0548255
-0.129876
0.0584489
-0.110084
0.0691991
-0.0719972
0.0844182
-0.0200666
0.101024
0.0366684
0.116388
0.0881531
0.128827
0.128215
0.137785
0.154766
0.143003
0.170408
0.144006
0.182993
0.14108
0.200468
0.13634
0.218518
0.132962
0.217316
0.133002
0.175666
0.136622
0.0921794
0.142435
-0.0107651
0.148113
-0.102831
0.151792
-0.166045
0.15327
-0.199459
0.15258
-0.208798
0.148264
-0.211051
0.139633
-0.214487
0.129758
-0.218919
0.124034
-0.19125
0.125947
-0.125553
0.134229
-0.0239803
0.144596
0.0754877
0.151727
0.155721
0.152076
0.228716
0.146528
0.273424
0.139581
0.30578
0.136541
0.228029
0.139718
0.12632
0.145326
-0.0264011
0.148028
-0.134081
0.144918
-0.198506
0.14065
-0.321129
0.139001
-0.251035
0.13878
-0.26362
0.136969
-0.0465912
0.165319
0.0568647
0.0297256
0.0631921
0.0272086
0.069582
0.0226607
0.0758477
0.015835
0.0817563
0.00660618
0.0874448
-0.00572392
0.0925659
-0.0204999
0.0971082
-0.0380059
0.100983
-0.0576528
0.104054
-0.078334
0.106101
-0.098255
0.106854
-0.115232
0.106106
-0.127409
0.10383
-0.133975
0.100153
-0.135314
0.0949275
-0.132607
0.0872832
-0.127928
0.0765983
-0.12431
0.0646084
-0.123279
0.055801
-0.121068
0.0546788
-0.108962
0.0624153
-0.0797337
0.0766659
-0.0343172
0.0939157
0.0194186
0.110865
0.0712032
0.125421
0.113659
0.136515
0.143672
0.143521
0.163402
0.14608
0.180434
0.144855
0.201693
0.141948
0.221425
0.139915
0.219349
0.140207
0.175374
0.142877
0.0895094
0.147056
-0.0149441
0.150976
-0.106751
0.152967
-0.168036
0.152923
-0.199415
0.151284
-0.20716
0.146785
-0.206552
0.138277
-0.205979
0.12827
-0.208912
0.122204
-0.185185
0.124097
-0.127446
0.132933
-0.0328162
0.14408
0.0643409
0.151958
0.147842
0.152923
0.227751
0.147982
0.278365
0.141304
0.312457
0.137987
0.231347
0.140681
0.123626
0.146002
-0.0317221
0.148792
-0.136871
0.145522
-0.195236
0.14103
-0.316637
0.139284
-0.249289
0.138998
-0.263334
0.137157
-0.0447506
0.16806
0.0804488
0.0235021
0.0867572
0.0209002
0.0930136
0.0164044
0.0990303
0.00981835
0.10454
0.00109648
0.109656
-0.0108404
0.114046
-0.0248896
0.117604
-0.0415635
0.120174
-0.060223
0.121561
-0.0797211
0.121553
-0.0982467
0.120017
-0.113697
0.116992
-0.124384
0.11268
-0.129663
0.107416
-0.13005
0.101468
-0.126659
0.0943761
-0.120836
0.084861
-0.114795
0.0727172
-0.111135
0.0609747
-0.109326
0.0549679
-0.102955
0.058329
-0.0830947
0.0702555
-0.0462438
0.0872373
0.00243686
0.105254
0.0531866
0.121632
0.0972815
0.134714
0.13059
0.143546
0.15457
0.147884
0.176096
0.148625
0.200953
0.147685
0.222364
0.146949
0.220085
0.147319
0.175004
0.148925
0.0879027
0.151384
-0.0174026
0.153516
-0.108883
0.153889
-0.168408
0.15241
-0.197936
0.149864
-0.204614
0.145283
-0.201971
0.137107
-0.197803
0.127176
-0.198981
0.120801
-0.17881
0.122499
-0.129143
0.131663
-0.0419809
0.143466
0.052538
0.152116
0.139192
0.153825
0.226042
0.14964
0.28255
0.143319
0.318778
0.139707
0.234959
0.141816
0.121517
0.146757
-0.0366631
0.149635
-0.139749
0.146226
-0.191827
0.141453
-0.311863
0.139601
-0.247437
0.139304
-0.263038
0.137488
-0.042934
0.170831
0.101998
0.0173541
0.108128
0.0147705
0.114135
0.0103975
0.119683
0.00426986
0.12522
-0.00444015
0.129656
-0.0152767
0.133324
-0.0285574
0.135907
-0.0441465
0.137156
-0.0614714
0.136821
-0.0793861
0.134738
-0.0961634
0.130947
-0.109906
0.125753
-0.11919
0.119629
-0.123539
0.113048
-0.123468
0.106406
-0.120018
0.0997056
-0.114136
0.0918862
-0.106975
0.0814824
-0.100731
0.0692231
-0.0970668
0.0594898
-0.0932213
0.0576986
-0.0813035
0.0657606
-0.0543058
0.0811801
-0.0129827
0.0995199
0.0348469
0.11726
0.0795416
0.132087
0.115763
0.142736
0.143921
0.149025
0.169807
0.151939
0.198039
0.153078
0.221225
0.153654
0.219509
0.154049
0.174609
0.154538
0.0874141
0.155301
-0.0181657
0.155657
-0.109239
0.154497
-0.167248
0.1517
-0.195139
0.148288
-0.201202
0.143685
-0.197368
0.136021
-0.190139
0.126373
-0.189333
0.11975
-0.172188
0.1211
-0.130492
0.130365
-0.0512458
0.142691
0.0402112
0.152141
0.129742
0.154725
0.223459
0.15145
0.285824
0.14558
0.324648
0.141683
0.238856
0.143112
0.120087
0.147577
-0.0411276
0.150534
-0.142706
0.147017
-0.18831
0.141913
-0.30676
0.139942
-0.245466
0.139684
-0.26278
0.137945
-0.0411951
0.173606
0.123013
0.0118141
0.128603
0.00918026
0.134032
0.00496814
0.139274
-0.000971941
0.143916
-0.0090821
0.147663
-0.0190237
0.150375
-0.0312693
0.151724
-0.0454953
0.151412
-0.0611596
0.149195
-0.0771689
0.145012
-0.0919809
0.139099
-0.103993
0.131985
-0.112075
0.124354
-0.115908
0.1168
-0.115915
0.1097
-0.112918
0.103216
-0.107652
0.0968468
-0.100606
0.08901
-0.0928944
0.0785423
-0.0865992
0.0674598
-0.0821388
0.0610887
-0.0749325
0.0639996
-0.0572168
0.0761115
-0.0250946
0.0936161
0.0173423
0.112057
0.061101
0.128324
0.099495
0.140749
0.131497
0.149109
0.161447
0.154343
0.192804
0.157641
0.217927
0.15953
0.217619
0.160023
0.174116
0.159534
0.0879028
0.158692
-0.0173231
0.157328
-0.107876
0.154727
-0.164647
0.150755
-0.191167
0.146525
-0.196972
0.141925
-0.192767
0.134906
-0.18312
0.125736
-0.180163
0.118951
-0.165403
0.119824
-0.131365
0.128966
-0.0603881
0.141683
0.0274942
0.151961
0.119464
0.155551
0.219869
0.15334
0.288035
0.148019
0.329969
0.143871
0.243005
0.144558
0.1194
0.148443
-0.0450124
0.151461
-0.145724
0.147875
-0.184724
0.142409
-0.301293
0.140303
-0.24336
0.140123
-0.2626
0.138516
-0.0395875
0.176356
0.1452
0.00767804
0.149624
0.00475579
0.1538
0.000792167
0.157962
-0.0051339
0.161193
-0.0123132
0.163617
-0.0214478
0.164819
-0.0324712
0.164466
-0.0451417
0.162259
-0.0589531
0.158022
-0.072932
0.151836
-0.0857944
0.144112
-0.0962688
0.135529
-0.103492
0.126853
-0.107232
0.118715
-0.107777
0.111456
-0.105658
0.105185
-0.101381
0.0997597
-0.0951811
0.0942039
-0.0873385
0.0867434
-0.0791387
0.0769733
-0.0723687
0.0681575
-0.0661167
0.0658111
-0.0548703
0.0729658
-0.0322493
0.0878635
0.00244457
0.105928
0.0430362
0.123165
0.0822581
0.137273
0.117389
0.14778
0.15094
0.155418
0.185166
0.16091
0.212436
0.164139
0.21439
0.164832
0.173423
0.163642
0.0890933
0.161433
-0.015114
0.158442
-0.104886
0.154504
-0.160708
0.149522
-0.186185
0.14454
-0.19199
0.139933
-0.18816
0.133652
-0.176839
0.12513
-0.171641
0.118279
-0.158552
0.11858
-0.131666
0.127393
-0.0692013
0.140367
0.0145203
0.151494
0.108337
0.156216
0.215148
0.155212
0.289038
0.150547
0.334635
0.146206
0.247346
0.146127
0.119479
0.149333
-0.0482183
0.152387
-0.148779
0.148779
-0.181116
0.142934
-0.295448
0.140676
-0.241102
0.140607
-0.262531
0.139183
-0.0381635
0.179044
0.167287
0.00547906
0.169821
0.00222214
0.172513
-0.00190049
0.174461
-0.00708105
0.175788
-0.0136405
0.176257
-0.0219172
0.17545
-0.0316639
0.173057
-0.0427489
0.168834
-0.0547298
0.162708
-0.066806
0.15489
-0.0779764
0.145898
-0.0872772
0.136456
-0.0940504
0.127299
-0.0980754
0.118995
-0.0994727
0.111837
-0.0985
0.105873
-0.095417
0.101045
-0.0903526
0.0969729
-0.0832667
0.092364
-0.0745297
0.0856069
-0.0656116
0.0772501
-0.0577599
0.0714001
-0.0490204
0.0729846
-0.0338338
0.0833392
-0.00790999
0.099352
0.0270233
0.116646
0.064964
0.132122
0.101913
0.144764
0.138297
0.154898
0.175032
0.162639
0.204695
0.167217
0.209812
0.168236
0.172404
0.166592
0.090737
0.163353
-0.0118748
0.1589
-0.100432
0.153728
-0.155536
0.14791
-0.180367
0.142272
-0.186352
0.137629
-0.183517
0.132139
-0.171349
0.124424
-0.163925
0.117604
-0.151733
0.117262
-0.131324
0.125575
-0.077514
0.138671
0.00142448
0.150656
0.0963516
0.156627
0.209177
0.156967
0.288698
0.153058
0.338543
0.14862
0.251784
0.147776
0.120323
0.150224
-0.0506666
0.153279
-0.151833
0.149704
-0.177541
0.143483
-0.289227
0.141061
-0.238681
0.141121
-0.262591
0.139935
-0.0369774
0.181633
0.184541
0.0049728
0.185347
0.00141563
0.185794
-0.00234689
0.185626
-0.00691335
0.184975
-0.0129894
0.183399
-0.0203414
0.180597
-0.028862
0.176327
-0.0384786
0.170429
-0.0488322
0.162935
-0.0593122
0.154137
-0.0691779
0.144571
-0.0777114
0.134909
-0.0843881
0.125784
-0.0889501
0.117657
-0.0913461
0.110774
-0.0916167
0.105182
-0.0898252
0.100827
-0.0859975
0.0975998
-0.0800397
0.0949428
-0.0718728
0.0913995
-0.0620683
0.0857455
-0.0521058
0.0794155
-0.0426904
0.0767862
-0.0312045
0.0816325
-0.0127563
0.0936556
0.0150002
0.109469
0.0491503
0.125513
0.0858695
0.139985
0.123826
0.152486
0.162531
0.162477
0.194705
0.16856
0.203729
0.170101
0.170863
0.168375
0.0924623
0.164416
-0.00791506
0.158664
-0.0946812
0.152329
-0.149201
0.14584
-0.173878
0.13968
-0.180192
0.134959
-0.178796
0.130269
-0.166659
0.123513
-0.157169
0.11683
-0.14505
0.115784
-0.130278
0.12343
-0.0851605
0.136531
-0.0116763
0.14937
0.0835127
0.156675
0.201872
0.158468
0.286906
0.155438
0.341573
0.151024
0.256199
0.149469
0.121877
0.151097
-0.0522942
0.154103
-0.154839
0.150624
-0.174062
0.144056
-0.282659
0.141461
-0.236085
0.141654
-0.262784
0.140759
-0.0360826
0.18408
0.192121
0.00511373
0.19157
0.00196698
0.190464
-0.00124121
0.188946
-0.00539537
0.186809
-0.0108522
0.183762
-0.0172943
0.179602
-0.0247019
0.17416
-0.033037
0.167363
-0.0420349
0.159314
-0.0512637
0.150328
-0.0601912
0.140892
-0.0682758
0.131571
-0.075067
0.122871
-0.0802502
0.115154
-0.0836294
0.108622
-0.0850841
0.103345
-0.0845487
0.0993116
-0.081964
0.0964941
-0.0772222
0.094808
-0.0701866
0.0935502
-0.0608106
0.091204
-0.0497596
0.0870444
-0.0385308
0.083156
-0.0273161
0.0836348
-0.0132351
0.0905776
0.00805734
0.10309
0.0366383
0.118254
0.0707047
0.133835
0.108245
0.148593
0.147773
0.160907
0.182391
0.168362
0.196274
0.170514
0.168712
0.16912
0.0938559
0.164822
-0.00361708
0.157974
-0.0878327
0.15054
-0.141767
0.143507
-0.166845
0.13696
-0.173645
0.132074
-0.17391
0.128079
-0.162665
0.122388
-0.151479
0.115945
-0.138606
0.114123
-0.128456
0.120901
-0.0919388
0.133886
-0.0246609
0.147546
0.069852
0.156307
0.193111
0.159661
0.283552
0.157584
0.343649
0.153336
0.260446
0.15117
0.124044
0.15195
-0.0530742
0.154848
-0.157738
0.151521
-0.170735
0.144659
-0.275797
0.141876
-0.233302
0.142195
-0.263103
0.141641
-0.0355284
0.186339
0.188803
0.00545716
0.187562
0.00320768
0.186185
0.000136073
0.184228
-0.00343834
0.181526
-0.00814967
0.177969
-0.0137382
0.173451
-0.0201831
0.167851
-0.0274375
0.161159
-0.0353424
0.153511
-0.043616
0.145198
-0.0518788
0.136627
-0.0597046
0.128236
-0.0666763
0.120411
-0.0724249
0.113432
-0.0766499
0.107461
-0.0791136
0.102569
-0.0796569
0.0987771
-0.0781717
0.0960901
-0.0745352
0.0945551
-0.0686517
0.0940922
-0.0603477
0.0938668
-0.0495341
0.0924833
-0.0371473
0.0898493
-0.0246821
0.0882685
-0.0116542
0.0910673
0.00525853
0.0992608
0.0284448
0.111689
0.0582765
0.126565
0.0933692
0.142298
0.132039
0.156341
0.168348
0.165531
0.187083
0.169391
0.164852
0.16915
0.0940962
0.164776
0.000757672
0.156853
-0.07991
0.148523
-0.133437
0.14114
-0.159462
0.134353
-0.166858
0.129205
-0.168762
0.125686
-0.159146
0.121082
-0.146874
0.114973
-0.132498
0.112349
-0.125831
0.118178
-0.0977676
0.130808
-0.0372911
0.145122
0.0555381
0.155306
0.182927
0.16031
0.278548
0.159352
0.344607
0.155474
0.264324
0.15283
0.126689
0.15276
-0.0530042
0.155498
-0.160476
0.152377
-0.167614
0.145283
-0.268703
0.142287
-0.230306
0.142752
-0.263568
0.142573
-0.0353496
0.188362
0.207699
0.0055591
-0.2078
0.208087
0.00281876
0.20829
-6.66549e-05
0.20857
-0.00371861
0.208542
-0.0081213
0.208117
-0.0133131
0.207148
-0.0192136
0.205457
-0.0257471
0.202899
-0.0327847
0.199397
-0.0401141
0.194959
-0.0474402
0.18967
-0.0544162
0.183676
-0.0606822
0.177148
-0.0658967
0.170266
-0.0697674
0.163204
-0.0720514
0.15612
-0.072573
0.149156
-0.0712079
0.142425
-0.0678043
0.13603
-0.0622567
0.13014
-0.0544573
0.124673
-0.0440676
0.118824
-0.0312981
0.111698
-0.0175559
0.10397
-0.00392677
0.0975219
0.0117069
0.094584
0.0313827
0.0959146
0.0569459
0.101108
0.0881753
0.109364
0.123783
0.119992
0.157721
0.133844
0.173231
0.151852
0.146844
0.169679
0.0762685
0.180682
-0.0102454
0.183325
-0.0825525
0.179556
-0.129668
0.172515
-0.152422
0.163848
-0.15819
0.155413
-0.160326
0.148246
-0.151979
0.140607
-0.139236
0.131502
-0.123392
0.124385
-0.118715
0.123389
-0.0967714
0.127725
-0.041627
0.13278
0.0504833
0.135592
0.180115
0.13719
0.27695
0.139138
0.342659
0.142826
0.260635
0.147313
0.122202
0.151172
-0.0568637
0.153601
-0.162905
0.150031
-0.164044
0.141516
-0.260188
0.135988
-0.224777
0.13324
-0.26082
0.130418
-0.0325281
0.190711
0.218116
0.00553371
-0.218091
0.218232
0.00270297
0.218521
-0.000355008
0.21865
-0.00384786
0.218445
-0.0079167
0.217782
-0.0126496
0.216554
-0.0179861
0.214643
-0.0238356
0.211943
-0.0300848
0.208394
-0.0365653
0.203996
-0.0430425
0.198812
-0.0492314
0.192954
-0.0548252
0.186578
-0.0595207
0.17986
-0.0630487
0.172982
-0.0651732
0.166113
-0.0657045
0.159405
-0.0644996
0.152985
-0.0613848
0.146939
-0.0562104
0.141386
-0.0489043
0.136456
-0.0391374
0.131816
-0.0266579
0.126515
-0.0122551
0.119901
0.00268719
0.113248
0.0183598
0.108615
0.0360155
0.108001
0.0575598
0.112147
0.0840298
0.120553
0.115377
0.132691
0.145582
0.149299
0.156624
0.169293
0.12685
0.187056
0.0585056
0.196718
-0.0199071
0.197546
-0.0833811
0.192083
-0.124205
0.183837
-0.144175
0.174438
-0.148791
0.165368
-0.151257
0.157828
-0.144438
0.150379
-0.131787
0.141288
-0.114302
0.133486
-0.110912
0.131666
-0.0949511
0.135648
-0.0456098
0.141037
0.0450942
0.144431
0.176721
0.146976
0.274405
0.150125
0.33951
0.154741
0.256019
0.159558
0.117386
0.162891
-0.0601967
0.164919
-0.164934
0.160775
-0.159901
0.151314
-0.250727
0.145013
-0.218476
0.141975
-0.257781
0.139036
-0.0295894
0.193166
0.227788
0.00531733
-0.227572
0.227979
0.0025125
0.228133
-0.000509486
0.228105