/*--------------------------------*- C++ -*----------------------------------*\
| =========                 |                                                 |
| \\      /  F ield         | OpenFOAM: The Open Source CFD Toolbox           |
|  \\    /   O peration     | Version:  2512                                  |
|   \\  /    A nd           | Website:  www.openfoam.com                      |
|    \\/     M anipulation  |                                                 |
\*---------------------------------------------------------------------------*/
FoamFile
{
    version     2.0;
    format      ascii;
    arch        "LSB;label=32;scalar=64";
    class       surfaceScalarField;
    location    "131";
    object      phi;
}
// * * * * * * * * * * * * * * * * * * * * * * * * * * * * * * * * * * * * * //

dimensions      [0 3 -1 0 0 0 0];

oriented        oriented;

internalField   nonuniform List<scalar> 
26232
(
7.22783e-05
0.00105093
-0.00112321
0.000577244
0.00187822
-0.00238319
0.00173945
0.00157528
-0.00273749
0.00375196
0.00016798
-0.00218049
0.006795
-0.00234408
-0.00069896
0.0110364
-0.00596719
0.0017258
0.0166198
-0.0106956
0.00511219
0.0236426
-0.016492
0.00946921
0.032128
-0.0232701
0.0147847
0.042
-0.030885
0.0210131
0.0530674
-0.0391325
0.0280651
0.0650254
-0.0477603
0.0358023
0.0774756
-0.0564891
0.0440388
0.089963
-0.0650382
0.0525509
0.102025
-0.073154
0.0610919
0.113245
-0.0806337
0.0694138
0.1233
-0.0873446
0.0772893
0.131997
-0.0932324
0.0845352
0.139289
-0.0983173
0.0910257
0.145251
-0.102687
0.0967244
0.150063
-0.106433
0.101622
0.153873
-0.109761
0.10595
0.156623
-0.112378
0.109628
-0.115343
0.113693
0.158272
0.000121999
0.000928932
0.000798238
0.00120198
0.00228859
8.49335e-05
0.00482186
-0.00236529
0.00860257
-0.0061248
0.0137977
-0.0111623
0.0205098
-0.0174077
0.0287451
-0.0247273
0.0383869
-0.0329119
0.0491845
-0.0416826
0.0607656
-0.0507136
0.0726727
-0.0596673
0.0844159
-0.0682323
0.0955348
-0.0761571
0.105655
-0.0832744
0.114532
-0.0895108
0.122071
-0.0948835
0.128321
-0.0994818
0.133444
-0.103441
0.137667
-0.10691
0.14126
-0.110026
0.144409
-0.112911
0.147576
-0.115545
-0.118454
0.150687
0.000207662
0.00072127
0.00114256
0.000267089
0.00308574
-0.00185825
0.00628258
-0.00556213
0.0109312
-0.0107734
0.0171511
-0.0173822
0.0249444
-0.025201
0.0341659
-0.0339488
0.0445154
-0.0432614
0.0555625
-0.0527297
0.0668001
-0.0619513
0.0777154
-0.0705827
0.0878619
-0.0783788
0.0969172
-0.0852125
0.104716
-0.0910729
0.11125
-0.0960451
0.116644
-0.100277
0.121107
-0.103945
0.12488
-0.107214
0.128196
-0.110226
0.131245
-0.113074
0.134175
-0.11584
0.137103
-0.118473
-0.121325
0.139973
0.000321608
0.000399662
0.00158404
-0.000995346
0.00407155
-0.00434576
0.00801743
-0.00950801
0.0135699
-0.0163259
0.0207447
-0.024557
0.0293866
-0.0338429
0.0391621
-0.0437242
0.0495942
-0.0536935
0.0601342
-0.0632698
0.070251
-0.0720681
0.079513
-0.0798447
0.0876443
-0.08651
0.0945433
-0.0921115
0.100266
-0.0967953
0.10498
-0.100759
0.10891
-0.104208
0.112286
-0.107321
0.115308
-0.110236
0.118129
-0.113048
0.120867
-0.115812
0.123595
-0.118568
0.126417
-0.121295
-0.124225
0.129317
0.000456016
-5.6354e-05
0.00209274
-0.00263207
0.00517456
-0.00742757
0.00988522
-0.0142187
0.0162715
-0.0227122
0.0241908
-0.0324763
0.0332958
-0.042948
0.0430746
-0.053503
0.0529396
-0.0635585
0.0623363
-0.0726664
0.070837
-0.0805688
0.0781956
-0.0872032
0.0843536
-0.0926681
0.0894068
-0.0971647
0.0935471
-0.100936
0.0970023
-0.104214
0.0999877
-0.107193
0.10268
-0.110013
0.105209
-0.112765
0.107666
-0.115505
0.110114
-0.11826
0.112593
-0.121047
0.115153
-0.123854
-0.126804
0.117733
0.000604734
-0.000661088
0.00264075
-0.00466809
0.00632232
-0.0111091
0.011739
-0.0196353
0.0187844
-0.0297575
0.0271215
-0.0408134
0.0362176
-0.0520441
0.0454465
-0.0627319
0.0542188
-0.0723308
0.0620919
-0.0805395
0.068827
-0.0873039
0.0743873
-0.0927635
0.0788905
-0.0971713
0.0825416
-0.100816
0.0855682
-0.103962
0.0881758
-0.106822
0.0905259
-0.109543
0.0927335
-0.11222
0.0948757
-0.114907
0.0970031
-0.117632
0.0991503
-0.120407
0.101341
-0.123238
0.103605
-0.126119
-0.129114
0.105915
0.000763008
-0.0014241
0.00320054
-0.00710562
0.00744029
-0.0153489
0.0134303
-0.0256254
0.0208722
-0.0371995
0.0292335
-0.0491747
0.037852
-0.0606626
0.0460888
-0.0709687
0.0534612
-0.0797032
0.0597116
-0.0867899
0.0648018
-0.0923941
0.0688565
-0.0968182
0.0720867
-0.100402
0.0747209
-0.10345
0.0769601
-0.106201
0.0789581
-0.10882
0.0808212
-0.111406
0.0826182
-0.114017
0.0843924
-0.116682
0.0861718
-0.119412
0.0879759
-0.122212
0.0898191
-0.125081
0.0917183
-0.128018
-0.131044
0.0936482
0.000924526
-0.00234862
0.00374108
-0.00992218
0.0084495
-0.0200573
0.014816
-0.0319919
0.0223381
-0.0447216
0.0303298
-0.0571663
0.0380901
-0.0684229
0.0450688
-0.0779474
0.0509578
-0.0855922
0.0556922
-0.0915243
0.0593885
-0.0960905
0.0622587
-0.0996884
0.0645341
-0.102677
0.0664169
-0.105333
0.0680599
-0.107844
0.0695663
-0.110326
0.0710012
-0.112841
0.0724041
-0.11542
0.0737996
-0.118077
0.0752047
-0.120817
0.0766322
-0.123639
0.0780929
-0.126542
0.0795981
-0.129523
-0.132582
0.0811361
0.00108111
-0.00342974
0.0042271
-0.0130682
0.0092707
-0.0251009
0.0157734
-0.0384946
0.0230522
-0.0520004
0.0303429
-0.064457
0.037001
-0.075081
0.0426324
-0.0835788
0.0471155
-0.0900753
0.0505396
-0.0949484
0.0531104
-0.0986613
0.0550634
-0.101641
0.0566073
-0.104221
0.0578996
-0.106625
0.0590458
-0.108991
0.0601108
-0.111391
0.0611329
-0.113863
0.0621349
-0.116422
0.0631317
-0.119074
0.0641345
-0.121819
0.0651523
-0.124657
0.066193
-0.127583
0.0672634
-0.130594
-0.133677
0.0683585
0.00122264
-0.00465238
0.00462183
-0.0164674
0.00983388
-0.030313
0.0162187
-0.0448794
0.0229677
-0.0587494
0.0293257
-0.0708149
0.0347754
-0.0805307
0.0391005
-0.087904
0.0423373
-0.093312
0.0446729
-0.097284
0.0463451
-0.100334
0.0475732
-0.102869
0.048525
-0.105173
0.0493135
-0.107414
0.0500072
-0.109684
0.0506455
-0.11203
0.0512507
-0.114468
0.0518369
-0.117008
0.0524139
-0.119651
0.05299
-0.122396
0.0535719
-0.125239
0.0541662
-0.128177
0.0547777
-0.131205
-0.134307
0.0554082
0.0013388
-0.00599118
0.00489319
-0.0200217
0.0100899
-0.0355096
0.0161177
-0.0509072
0.0221165
-0.0647482
0.0274147
-0.0761132
0.0316573
-0.0847733
0.0347905
-0.0910372
0.0369616
-0.0954831
0.0384034
-0.0987258
0.0393469
-0.101277
0.0399759
-0.103498
0.0404159
-0.105613
0.0407433
-0.107741
0.0410009
-0.109942
0.0412123
-0.112241
0.0413912
-0.114647
0.0415468
-0.117164
0.0416865
-0.119791
0.0418165
-0.122526
0.0419422
-0.125364
0.0420679
-0.128303
0.0421959
-0.131333
-0.134442
0.0423303
0.00142357
-0.00741475
0.00502175
-0.0236199
0.0100186
-0.0405065
0.0154868
-0.0563753
0.0205905
-0.0698519
0.0247916
-0.0803143
0.0278978
-0.0878795
0.0299817
-0.0931211
0.0312541
-0.0967555
0.0319545
-0.0994262
0.0322861
-0.101609
0.0323925
-0.103605
0.0323628
-0.105583
0.0322469
-0.107625
0.032071
-0.109766
0.0318495
-0.112019
0.0315911
-0.114389
0.0313026
-0.116875
0.0309898
-0.119478
0.0306579
-0.122194
0.0303118
-0.125018
0.0299552
-0.127946
0.0295891
-0.130967
0.0292196
-0.134072
-0.000143201
0.00295727
-0.00281406
-0.000565528
0.00725644
-0.00683412
-0.00125842
0.0103948
-0.00970194
-0.0021979
0.0125822
-0.0116427
-0.0033493
0.0140226
-0.0128712
-0.00467414
0.0149103
-0.0135854
-0.00613509
0.0154093
-0.0139484
-0.00769853
0.0156401
-0.0140767
-0.00933519
0.0156745
-0.0140379
-0.0110192
0.0155393
-0.0138553
-0.0127267
0.0152245
-0.0135171
-0.0144338
0.0146938
-0.0129867
-0.0161151
0.0138935
-0.0122122
-0.0177429
0.0127608
-0.0111331
-0.0192854
0.0112285
-0.00968587
-0.0207081
0.00922936
-0.00780667
-0.0219731
0.00669887
-0.00543394
-0.0230533
0.00357556
-0.00249529
-0.0238642
-0.000156568
0.000967435
-0.0243786
-0.00452617
0.00504057
-0.0245502
-0.0095459
0.00971752
-0.0243419
-0.0151672
0.0149589
-0.0237487
-0.0213001
0.020707
-0.0277387
-0.0228513
0.0268413
-3.40053e-05
0.00299127
-0.000210465
0.0074329
-0.00056995
0.0107543
-0.00111975
0.013132
-0.00184205
0.0147449
-0.00270448
0.0157727
-0.00366702
0.0163719
-0.00468844
0.0166616
-0.00572975
0.0167158
-0.00675552
0.0165651
-0.0077338
0.0162028
-0.00863509
0.0155951
-0.00943111
0.0146896
-0.0100935
0.0134232
-0.010593
0.0117279
-0.0108993
0.00953568
-0.010982
0.00678157
-0.010809
0.00340256
-0.0103403
-0.000625214
-0.00953246
-0.00533405
-0.00835007
-0.0107283
-0.00675938
-0.0167579
-0.00474141
-0.0233181
-0.0302076
-0.00227247
7.54827e-05
0.00291579
0.000155843
0.00735254
0.000158925
0.0107512
4.9391e-05
0.0132415
-0.000173095
0.0149674
-0.000481989
0.0160816
-0.000836706
0.0167266
-0.0011898
0.0170147
-0.00149298
0.017019
-0.0017007
0.0167728
-0.00177169
0.0162738
-0.001669
0.0154924
-0.00135925
0.0143798
-0.0008117
0.0128757
2.51228e-06
0.0109137
0.00111255
0.00842565
0.00254771
0.00534641
0.00433112
0.00161916
0.00649405
-0.00278814
0.00906948
-0.00790949
0.0120794
-0.0137382
0.0155503
-0.0202288
0.0194941
-0.0272619
-0.0346656
0.0239521
0.00017216
0.00274363
0.000493259
0.00703144
0.000852203
0.0103923
0.00119218
0.0129016
0.0014987
0.0146609
0.00178846
0.0157918
0.00210005
0.016415
0.00248399
0.0166307
0.00299501
0.016508
0.00368681
0.016081
0.00460905
0.0153516
0.00580624
0.0142952
0.00731785
0.0128682
0.00917924
0.0110143
0.0114227
0.00867023
0.0140776
0.0057707
0.0171718
0.00225225
0.0207306
-0.00193961
0.024787
-0.00684458
0.0293613
-0.0124838
0.0344679
-0.0188449
0.0401163
-0.0258772
0.0462761
-0.0334217
-0.0414266
0.0530371
0.000244946
0.00249868
0.000764132
0.00651226
0.0014352
0.00972123
0.00218992
0.0121469
0.00300243
0.0138484
0.00388099
0.0149133
0.004859
0.015437
0.00598574
0.015504
0.00731814
0.0151756
0.00891463
0.0144845
0.0108311
0.0134351
0.013119
0.0120073
0.015825
0.0101622
0.0189918
0.00784751
0.0226589
0.00500308
0.0268622
0.00156741
0.0316432
-0.00252869
0.0370331
-0.0073295
0.0430622
-0.0128737
0.0497491
-0.0191707
0.0570908
-0.0261866
0.0650659
-0.0338523
0.0735865
-0.0419423
-0.0505789
0.0827388
0.00028597
0.00221271
0.000939405
0.00585882
0.00184588
0.00881475
0.00293791
0.0110548
0.00418514
0.0126011
0.00558929
0.0135091
0.00717763
0.0138486
0.00899537
0.0136862
0.0110984
0.0130726
0.0135471
0.0120358
0.0164027
0.0105795
0.0197246
0.00868542
0.0235698
0.00631698
0.0279943
0.00342295
0.0330481
-5.06572e-05
0.0387949
-0.00417942
0.0452738
-0.00900761
0.052528
-0.0145837
0.0605809
-0.0209266
0.0694273
-0.0280171
0.0790249
-0.0357842
0.0892744
-0.0441018
0.10001
-0.0526783
-0.0617747
0.111206
0.00029206
0.00192065
0.00100476
0.00514612
0.00204968
0.00776983
0.00337257
0.00973194
0.00494711
0.0110266
0.00677339
0.0116828
0.00887487
0.0117471
0.0112935
0.0112676
0.0140843
0.0102818
0.0173111
0.008809
0.0210427
0.00684783
0.0253512
0.00437689
0.0303074
0.00136084
0.0359903
-0.00225999
0.0424742
-0.00653458
0.0498164
-0.0115216
0.0580705
-0.0172617
0.067259
-0.0237721
0.0773639
-0.0310315
0.0883074
-0.0389606
0.099962
-0.0474388
0.112094
-0.0562334
0.124476
-0.0650609
-0.0740993
0.136801
0.000265482
0.00165517
0.000964512
0.00444709
0.00204944
0.00668491
0.0034905
0.00829088
0.00527472
0.00924238
0.00740841
0.00954914
0.00991785
0.00923771
0.0128478
0.00833769
0.0162587
0.00687085
0.0202234
0.00484431
0.0248265
0.00224469
0.0301574
-0.000953938
0.0363127
-0.00479446
0.0433761
-0.00932347
0.0514263
-0.0145848
0.0605121
-0.0206074
0.0706423
-0.0273919
0.0817669
-0.0348967
0.093765
-0.0430296
0.10643
-0.0516257
0.1195
-0.0605092
0.132596
-0.0693286
0.145472
-0.0779374
-0.0861243
0.157497
0.000214312
0.00144086
0.000843781
0.00381762
0.0018918
0.00563689
0.00336231
0.00682037
0.00526545
0.00733924
0.00762426
0.00719033
0.010479
0.00638302
0.0138886
0.00492805
0.0179308
0.00282861
0.0226912
8.39245e-05
0.0282843
-0.00334835
0.0348086
-0.00747831
0.0423609
-0.0123467
0.0510144
-0.017977
0.0608022
-0.0243726
0.071698
-0.0315032
0.0836004
-0.0392943
0.0963224
-0.0476187
0.109591
-0.056298
0.123058
-0.065093
0.13633
-0.0737814
0.148977
-0.0819758
0.160758
-0.0897183
-0.0963452
0.170979
0.000152319
0.00128854
0.000687808
0.00328214
0.00166643
0.00465827
0.00313304
0.00535376
0.00513092
0.00534136
0.00771196
0.00460929
0.0109434
0.00315159
0.0149101
0.000961327
0.019713
-0.00197426
0.0254694
-0.00567246
0.0322766
-0.0101556
0.0402318
-0.0154336
0.049387
-0.0215019
0.0597364
-0.0283264
0.0711974
-0.0358335
0.0835977
-0.0439035
0.0966733
-0.0523699
0.11008
-0.061025
0.123412
-0.0696307
0.136258
-0.0779386
0.1482
-0.0857235
0.158944
-0.0927201
0.168257
-0.099031
-0.103908
0.17582
9.74079e-05
0.00119113
0.000555853
0.00282369
0.00149268
0.00372144
0.00299904
0.00384739
0.00516023
0.00318017
0.00806749
0.00170203
0.0118238
-0.000604681
0.0165433
-0.00375824
0.0223428
-0.00777375
0.0293276
-0.0126572
0.0375675
-0.0183955
0.0470793
-0.0249453
0.0578014
-0.032224
0.0695799
-0.0401049
0.0821634
-0.048417
0.0952116
-0.0569517
0.108318
-0.065476
0.121046
-0.0737528
0.132973
-0.0815577
0.143757
-0.0887228
0.153142
-0.0951084
0.161135
-0.100713
0.167624
-0.10552
-0.109185
0.1729
6.79232e-05
0.000508427
0.00149238
0.00315928
0.0056405
0.00906833
0.0135758
0.0192868
0.0262978
0.0346536
0.0443232
0.0551801
0.0669949
0.0794409
0.0921158
0.104578
0.116391
0.127174
0.136642
0.144643
0.151157
0.156394
0.160503
0.165011
-0.0213522
-0.04758
0.0460808
-0.0196888
-0.0599277
0.0582643
-0.0179146
-0.0725195
0.0707453
-0.0160433
-0.0847042
0.0828329
-0.0139867
-0.0958788
0.0938221
-0.0114213
-0.105442
0.102877
-0.00778363
-0.112619
0.108981
-0.00241894
-0.116271
0.110907
0.00542354
-0.115041
0.107199
0.0157241
-0.10714
0.0968394
0.0280942
-0.0915408
0.0791707
0.0418802
-0.0682394
0.0544534
0.0563217
-0.0378652
0.0234237
0.0706934
-0.00192495
-0.0124467
0.0847376
0.0374296
-0.0514739
0.0979014
0.0764609
-0.0896247
0.109293
0.110565
-0.121957
0.118004
0.136168
-0.14488
0.123693
0.152204
-0.157893
0.126582
0.159965
-0.162854
0.126682
0.163003
-0.163103
0.123645
0.166799
-0.163762
0.11802
0.174584
-0.168959
0.112353
0.181031
-0.175363
0.110122
0.171991
-0.16976
0.113198
0.134506
-0.137582
0.120945
0.0684411
-0.0761886
0.131224
-0.0119534
0.00167419
0.141485
-0.0868729
0.0766117
0.14953
-0.142474
0.134429
0.15442
-0.175433
0.170543
0.156565
-0.19038
0.188234
0.156168
-0.193826
0.194223
0.152319
-0.196965
0.200815
0.144839
-0.207159
0.21464
0.13621
-0.215294
0.223923
0.130474
-0.19762
0.203356
0.13011
-0.134894
0.135258
0.13489
-0.0417188
0.036939
0.142418
0.0589655
-0.0664929
0.150225
0.13427
-0.142078
0.155335
0.187597
-0.192707
0.15515
0.220132
-0.219947
0.149471
0.250616
-0.244937
0.141596
0.265152
-0.257277
0.136409
0.230877
-0.225691
0.136963
0.151204
-0.151758
0.142379
0.0159793
-0.0213955
0.148767
-0.0799331
0.0735452
0.15101
-0.177731
0.175488
0.147808
-0.226031
0.229233
0.142581
-0.268262
0.273488
0.140345
-0.276438
0.278675
0.142023
-0.165286
0.163609
0.144777
-0.0996702
0.0969165
0.144763
0.106216
-0.106202
0.143142
0.190951
-0.18933
0.141616
0.28144
-0.279914
0.140228
0.345477
-0.34409
0.0881171
-0.0864026
-0.00119243
-0.04866
-0.000625027
-0.0604951
-0.000410924
-0.0727336
-0.000731859
-0.0843832
-0.00159342
-0.0950172
-0.00279598
-0.10424
-0.00385793
-0.111557
-0.00381796
-0.116311
-0.00159551
-0.117263
0.00402005
-0.112756
0.0132435
-0.100764
0.025548
-0.0805438
0.0400024
-0.0523196
0.0556311
-0.0175537
0.0716038
0.021457
0.0871249
0.0609398
0.101151
0.0965395
0.112629
0.12469
0.121004
0.143829
0.126154
0.154816
0.127896
0.161261
0.126228
0.168467
0.122345
0.178466
0.118954
0.184421
0.118798
0.172147
0.122766
0.130539
0.129982
0.0612248
0.138613
-0.0205844
0.146731
-0.0949902
0.152588
-0.148331
0.155451
-0.178296
0.15587
-0.190799
0.154292
-0.192248
0.149778
-0.192452
0.141751
-0.199132
0.132428
-0.205971
0.126168
-0.191359
0.125898
-0.134624
0.131541
-0.0473612
0.140471
0.0500351
0.149746
0.124995
0.155993
0.18135
0.156575
0.21955
0.151574
0.255618
0.144214
0.272511
0.13911
0.235982
0.13904
0.151274
0.143541
0.0114783
0.149281
-0.085673
0.151182
-0.179632
0.14782
-0.222669
0.142414
-0.262855
0.140232
-0.274257
0.141821
-0.166876
0.144439
-0.102288
0.144414
0.106241
0.142807
0.192558
0.141416
0.282831
0.140161
0.346732
0.0897481
0.0242029
-0.0489108
0.0241228
-0.060415
0.0234655
-0.0720763
0.0220052
-0.082923
0.0194439
-0.0924558
0.0156223
-0.100418
0.0107673
-0.106702
0.00567245
-0.111216
0.00186817
-0.113459
0.00110602
-0.111993
0.005101
-0.104759
0.0138272
-0.08927
0.0265905
-0.065083
0.0421463
-0.0331094
0.0593461
0.00425718
0.0767172
0.0435686
0.0930495
0.0802073
0.107126
0.110614
0.118114
0.132841
0.125526
0.147404
0.129096
0.15769
0.129218
0.168345
0.127524
0.180161
0.126568
0.185377
0.12824
0.170475
0.132706
0.126073
0.139028
0.0549023
0.145771
-0.0273279
0.151593
-0.100812
0.155227
-0.151964
0.156153
-0.179222
0.154976
-0.189623
0.152353
-0.189625
0.147405
-0.187503
0.139134
-0.190861
0.129309
-0.196146
0.122456
-0.184506
0.12208
-0.134249
0.128361
-0.0536423
0.13851
0.0398865
0.149155
0.11435
0.156565
0.17394
0.158069
0.218046
0.153936
0.259751
0.147212
0.279235
0.142193
0.241001
0.1414
0.152066
0.144863
0.00801515
0.149864
-0.0906739
0.151435
-0.181203
0.147938
-0.219173
0.142319
-0.257236
0.140138
-0.272076
0.141673
-0.168411
0.144222
-0.104837
0.144208
0.106255
0.142589
0.194176
0.141329
0.284091
0.140251
0.347811
0.0912627
0.0525799
-0.0484536
0.0519444
-0.0597795
0.0507256
-0.0708574
0.0485675
-0.0807648
0.0452252
-0.0891135
0.0404189
-0.0956119
0.033927
-0.10021
0.0259246
-0.103214
0.0173883
-0.104923
0.0102734
-0.104878
0.00693306
-0.101419
0.00944887
-0.0917858
0.0180554
-0.0736895
0.0316441
-0.0466981
0.0486699
-0.0127686
0.0670396
0.025199
0.0851229
0.0621239
0.101431
0.094306
0.114787
0.119485
0.124383
0.137808
0.129966
0.152108
0.132249
0.166062
0.133071
0.179338
0.134586
0.183862
0.137855
0.167206
0.142515
0.121413
0.147656
0.0497619
0.15247
-0.0321425
0.155993
-0.104335
0.157438
-0.153409
0.156538
-0.178322
0.1539
-0.186985
0.150326
-0.186051
0.145103
-0.182281
0.136892
-0.18265
0.126833
-0.186087
0.119396
-0.177069
0.118686
-0.133538
0.125304
-0.0602611
0.136478
0.0287126
0.148384
0.102443
0.156993
0.165332
0.159578
0.21546
0.156497
0.262832
0.15052
0.285212
0.145591
0.24593
0.144036
0.153622
0.146304
0.00574733
0.150498
-0.0948683
0.15174
-0.182445
0.148135
-0.215568
0.14227
-0.25137
0.140028
-0.269834
0.141552
-0.169934
0.144107
-0.107392
0.144135
0.106227
0.142484
0.195827
0.141358
0.285217
0.140504
0.348665
0.0926271
0.0817511
-0.047466
0.0803306
-0.058359
0.0781881
-0.0687149
0.0751253
-0.0777021
0.0710838
-0.0850721
0.0659221
-0.0904501
0.0593177
-0.0936057
0.0508865
-0.0947827
0.040627
-0.0946634
0.0295919
-0.0938433
0.020072
-0.0918991
0.0151053
-0.0868192
0.0169173
-0.0755015
0.0258523
-0.0556331
0.0403479
-0.0272643
0.0583673
0.00717961
0.0773164
0.0431748
0.0952597
0.0763626
0.110581
0.104163
0.122227
0.126162
0.129972
0.144362
0.134719
0.161315
0.138276
0.175781
0.142269
0.179869
0.146982
0.162493
0.151608
0.116787
0.155597
0.0457724
0.158519
-0.0350639
0.159825
-0.105641
0.159139
-0.152723
0.156537
-0.17572
0.152607
-0.183055
0.148194
-0.181638
0.142818
-0.176904
0.134927
-0.174759
0.124949
-0.176109
0.11701
-0.16913
0.115743
-0.132271
0.122398
-0.0669155
0.134319
0.0167914
0.147352
0.0894103
0.157192
0.155491
0.161016
0.211637
0.159158
0.264691
0.154026
0.290344
0.149221
0.250736
0.146843
0.156
0.147875
0.00471446
0.151158
-0.098151
0.152067
-0.183354
0.148386
-0.211887
0.142247
-0.24523
0.139873
-0.26746
0.141426
-0.171487
0.144071
-0.110038
0.144183
0.106115
0.142485
0.197525
0.1415
0.286202
0.140924
0.34924
0.0938061
0.109555
-0.0458148
0.107217
-0.0560205
0.103956
-0.065454
0.0997215
-0.0734679
0.0946507
-0.0800013
0.0888378
-0.0846372
0.0822301
-0.0869981
0.0745274
-0.08708
0.0651932
-0.0853292
0.0539626
-0.0826127
0.0417491
-0.0796856
0.0310949
-0.076165
0.0253666
-0.0697731
0.0270361
-0.0573027
0.0362959
-0.036524
0.0515355
-0.00806001
0.0697636
0.0249467
0.0883416
0.0577845
0.105078
0.0874272
0.118612
0.112628
0.128639
0.134336
0.136055
0.1539
0.142444
0.169391
0.148846
0.173468
0.15489
0.156449
0.159596
0.112081
0.162522
0.0428463
0.163743
-0.036285
0.162963
-0.104861
0.160257
-0.150018
0.156098
-0.171561
0.151059
-0.178016
0.14592
-0.1765
0.140462
-0.171446
0.133094
-0.167391
0.123519
-0.166535
0.115269
-0.16088
0.113293
-0.130296
0.119626
-0.0732478
0.131974
0.00444343
0.14596
0.0754233
0.157055
0.144397
0.162265
0.206426
0.161787
0.265169
0.157598
0.294533
0.152949
0.255386
0.149795
0.159153
0.149491
0.0050186
0.151813
-0.100472
0.152376
-0.183918
0.148664
-0.208175
0.142234
-0.238801
0.139647
-0.264874
0.141263
-0.173102
0.144087
-0.112862
0.144338
0.105865
0.142588
0.199275
0.141755
0.287035
0.141515
0.34948
0.0947641
0.13421
-0.0432237
0.130768
-0.0525784
0.126243
-0.0609296
0.120731
-0.0679558
0.114509
-0.0737796
0.107793
-0.0779208
0.100744
-0.0799486
0.0934124
-0.0797488
0.085526
-0.0774428
0.0764168
-0.0735035
0.0655471
-0.0688158
0.0535716
-0.0641895
0.0430075
-0.059209
0.0373634
-0.0516586
0.0392146
-0.0383753
0.0486666
-0.0175119
0.063735
0.00987831
0.0812486
0.040271
0.098471
0.0702048
0.113531
0.0975679
0.125805
0.122062
0.135936
0.143768
0.145116
0.160211
0.153779
0.164805
0.161041
0.149187
0.165875
0.107247
0.168147
0.0405739
0.167924
-0.0360615
0.165279
-0.102216
0.160721
-0.145459
0.155161
-0.166002
0.149204
-0.172059
0.14347
-0.170766
0.13796
-0.165936
0.131233
-0.160663
0.122358
-0.15766
0.114057
-0.152579
0.111322
-0.127561
0.116988
-0.0789131
0.129387
-0.00795583
0.144113
0.060697
0.156459
0.132051
0.163188
0.199698
0.164234
0.264122
0.161079
0.297688
0.156654
0.25981
0.152765
0.163042
0.151128
0.00665555
0.152426
-0.10177
0.152628
-0.18412
0.148936
-0.204482
0.14222
-0.232085
0.139336
-0.261989
0.141032
-0.174799
0.144124
-0.115954
0.144582
0.105408
0.142786
0.201071
0.142121
0.287699
0.142277
0.349325
0.0954627
0.153741
-0.0394679
0.149058
-0.0478951
0.143233
-0.0551052
0.136519
-0.0612409
0.129278
-0.0665384
0.121768
-0.0704113
0.114233
-0.0724138
0.106894
-0.0724098
0.0998172
-0.0703658
0.0927135
-0.0663998
0.0848438
-0.0609461
0.075462
-0.0548077
0.0649468
-0.0486938
0.0555559
-0.0422677
0.050677
-0.0334963
0.0527877
-0.0196227
0.0619888
0.000677218
0.0760547
0.0262051
0.0921362
0.0541233
0.107806
0.081898
0.121865
0.108003
0.134436
0.131197
0.146151
0.148496
0.156844
0.154113
0.165259
0.140772
0.170398
0.102108
0.172224
0.0387475
0.170901
-0.0347383
0.166657
-0.0979719
0.160459
-0.139262
0.153668
-0.159211
0.146982
-0.165372
0.140795
-0.164579
0.135243
-0.160385
0.12919
-0.154609
0.121244
-0.149714
0.113197
-0.144532
0.109767
-0.124131
0.114491
-0.0836374
0.126516
-0.0199808
0.14173
0.0454832
0.155287
0.118494
0.163632
0.191352
0.166322
0.261432
0.164301
0.299708
0.160176
0.263935
0.155624
0.167595
0.152753
0.00952706
0.152961
-0.101979
0.152779
-0.183938
0.149167
-0.20087
0.142191
-0.225108
0.138927
-0.258726
0.140705
-0.176577
0.14415
-0.119399
0.144897
0.104661
0.143073
0.202895
0.142597
0.288176
0.143211
0.348711
0.0958631
0.166212
-0.0347005
0.160465
-0.0421478
0.153619
-0.04826
0.146078
-0.0536997
0.138195
-0.0586548
0.130213
-0.06243
0.122424
-0.0646251
0.115113
-0.065098
0.108474
-0.0637272
0.102542
-0.0604678
0.0970161
-0.0554201
0.0911167
-0.0489083
0.084012
-0.0415891
0.0758304
-0.0340861
0.0684373
-0.0261032
0.0648144
-0.0159999
0.0672595
-0.00176786
0.0757124
0.0177522
0.0884994
0.0413363
0.10316
0.0672379
0.117913
0.0932503
0.132166
0.116943
0.14584
0.134822
0.158154
0.141799
0.167567
0.131359
0.173155
0.0965203
0.174802
0.0370999
0.172618
-0.0325534
0.166993
-0.0923471
0.159371
-0.13164
0.151524
-0.151364
0.144287
-0.158135
0.137805
-0.158096
0.132221
-0.154801
0.12681
-0.149198
0.119942
-0.142846
0.112451
-0.137041
0.108496
-0.120176
0.112098
-0.0872398
0.123376
-0.0312589
0.138757
0.0301025
0.153426
0.103825
0.163462
0.181317
0.16792
0.256974
0.167112
0.300516
0.163384
0.267664
0.158302
0.172677
0.154257
0.0135716
0.153372
-0.101093
0.152778
-0.183345
0.149316
-0.197408
0.142133
-0.217926
0.138419
-0.255012
0.14026
-0.178419
0.14413
-0.123269
0.145267
0.103523
0.143445
0.204718
0.14318
0.288441
0.144318
0.347573
0.0959258
0.170662
-0.029542
0.1644
-0.0358861
0.157133
-0.0409936
0.149392
-0.0459583
0.141429
-0.0506913
0.133447
-0.0544485
0.125754
-0.0569322
0.118654
-0.0579977
0.112399
-0.0574724
0.107171
-0.0552402
0.102968
-0.0512164
0.0994547
-0.0453952
0.0959179
-0.0380522
0.0915365
-0.0297048
0.0861988
-0.0207655
0.0812863
-0.0110874
0.0792103
0.000308228
0.0819806
0.0149819
0.0898969
0.03342
0.101628
0.0555067
0.115421
0.0794572
0.130089
0.102276
0.144791
0.120119
0.158124
0.128466
0.168299
0.121184
0.174379
0.0904409
0.176036
0.0354424
0.173105
-0.0296227
0.166224
-0.0854655
0.157375
-0.122791
0.148649
-0.142639
0.14102
-0.150506
0.13441
-0.151486
0.128825
-0.149217
0.123979
-0.144352
0.118256
-0.137123
0.11158
-0.130365
0.107329
-0.115925
0.109758
-0.0896684
0.119979
-0.0414803
0.135174
0.0149073
0.150801
0.0881985
0.162524
0.169594
0.168809
0.250689
0.169317
0.300009
0.166118
0.270862
0.160678
0.178117
0.155613
0.0186363
0.15363
-0.0991101
0.152591
-0.182306
0.149339
-0.194156
0.142039
-0.210626
0.137825
-0.250798
0.139685
-0.180278
0.144027
-0.127611
0.145673
0.101878
0.143893
0.206497
0.143868
0.288466
0.145596
0.345845
0.0956119
0.168088
-0.0247296
0.16194
-0.0297382
0.15491
-0.033964
0.147552
-0.0386001
0.13998
-0.0431196
0.132403
-0.046871
0.125124
-0.0496535
0.118442
-0.0513154
0.112649
-0.0516799
0.107982
-0.0505732
0.104541
-0.0477747
0.102261
-0.0431154
0.100804
-0.0365957
0.099551
-0.0284516
0.097862
-0.0190765
0.0957264
-0.00895175
0.0937901
0.00224449
0.0934972
0.0152748
0.0970459
0.0298713
0.104767
0.0477858
0.115889
0.0683354
0.129297
0.0888669
0.143682
0.105735
0.157125
0.115023
0.167719
0.11059
0.174467
0.0836927
0.176213
0.0336964
0.172634
-0.0260432
0.164632
-0.0774635
0.154782
-0.112941
0.145371
-0.133228
0.137461
-0.142596
0.130839
-0.144864
0.125262
-0.14364
0.120815
-0.139905
0.116175
-0.132484
0.110495
-0.124685
0.106163
-0.111593
0.107433
-0.0909383
0.116348
-0.0503952
0.130963
0.000291952
0.147335
0.071827
0.160792
0.156137
0.169034
0.242447
0.170886
0.298156
0.168264
0.273485
0.162734
0.183647
0.156808
0.0245623
0.15376
-0.0960621
0.152239
-0.180785
0.149228
-0.191145
0.141919
-0.203317
0.137193
-0.246072
0.138998
-0.182084
0.143809
-0.132421
0.146091
0.0995952
0.144412
0.208177
0.144663
0.288215
0.147046
0.343462
0.094882
0.161076
-0.0207949
0.155435
-0.0240964
0.149374
-0.0279036
0.142959
-0.032185
0.136294
-0.0364542
0.129679
-0.040256
0.123362
-0.0433373
0.117559
-0.0455123
0.112468
-0.0465883
0.108258
-0.0463633
0.105106
-0.0446228
0.103169
-0.0411785
0.102477
-0.0359038
0.102801
-0.0287757
0.103614
-0.0198895
0.1042
-0.00953778
0.104438
0.00200716
0.105314
0.0143985
0.107574
0.0276108
0.112513
0.0428473
0.120575
0.060273
0.131441
0.0780012
0.144069
0.0931065
0.156689
0.102404
0.16743
0.0998489
0.174546
0.0765775
0.176293
0.0319492
0.171466
-0.021216
0.162292
-0.0682899
0.151776
-0.102426
0.14203
-0.123481
0.133993
-0.13456
0.127429
-0.1383
0.121849
-0.138059
0.117576
-0.135632
0.113818
-0.128726
0.109207
-0.120074
0.104981
-0.107367
0.105199
-0.0911563
0.112697
-0.0578927
0.126348
-0.0133592
0.14299
0.0551852
0.157848
0.141278
0.168062
0.232234
0.171452
0.294767
0.169663
0.275273
0.164221
0.18909
0.157849
0.0309336
0.153733
-0.0919454
0.151748
-0.178801
0.148986
-0.188383
0.141769
-0.1961
0.136555
-0.240857
0.138236
-0.183764
0.143485
-0.137671
0.146509
0.096571
0.144989
0.209697
0.145558
0.287646
0.148663
0.340357
0.093688
0.199743
-0.0168988
-0.203639
0.196719
-0.0210726
0.193404
-0.0245878
0.189524
-0.0283052
0.185064
-0.0319948
0.180129
-0.0353211
0.174829
-0.038037
0.169254
-0.0399373
0.163504
-0.0408383
0.157699
-0.0405579
0.151982
-0.038906
0.146507
-0.0357032
0.141407
-0.0308039
0.136766
-0.0241348
0.132554
-0.0156774
0.128635
-0.00561879
0.124556
0.00608561
0.120466
0.0184893
0.116787
0.0312892
0.114679
0.0449559
0.115487
0.0594646
0.120189
0.0732993
0.128928
0.0843677
0.14152
0.0898107
0.157778
0.0835915
0.175422
0.0589334
0.189119
0.0182521
0.195822
-0.0279195
0.195419
-0.0678868
0.190105
-0.0971119
0.18217
-0.115545
0.173478
-0.125867
0.164912
-0.129734
0.156546
-0.129692
0.148907
-0.127993
0.141862
-0.121682
0.134003
-0.112215
0.125456
-0.09882
0.119336
-0.0850365
0.118928
-0.0574851
0.123913
-0.0183443
0.130836
0.0482625
0.136644
0.13547
0.140773
0.228105
0.144453
0.291086
0.149825
0.269901
0.155693
0.183222
0.159092
0.0275339
0.160107
-0.0929598
0.15863
-0.177324
0.154302
-0.184055
0.14626
-0.188058
0.138315
-0.232912
0.135682
-0.181131
0.135418
-0.137407
0.13413
0.0978583
0.131253
0.212575
0.131628
0.287271
0.136062
0.335923
0.0923439
0.208596
-0.0139574
-0.211538
0.205428
-0.0179046
0.202217
-0.0213767
0.198557
-0.0246451
0.194374
-0.0278114
0.189753
-0.0307005
0.184792
-0.0330759
0.179583
-0.0347284
0.17423
-0.0354846
0.168853
-0.0351814
0.163597
-0.0336498
0.158617
-0.0307229
0.154071
-0.0262577
0.150103
-0.0201672
0.146812
-0.0123866
0.144097
-0.00290389
0.141939
0.00824387
0.140107
0.020321
0.138647
0.0327494
0.138237
0.0453658
0.140033
0.057669
0.145051
0.0682805
0.15373
0.0756891
0.166163
0.077378
0.181503
0.068251
0.196545
0.0438915
0.207094
0.00770327
0.210698
-0.0315235
0.208154
-0.0653427
0.201477
-0.090435
0.192731
-0.1068
0.183555
-0.116692
0.174771
-0.12095
0.166255
-0.121176
0.158346
-0.120084
0.151262
-0.114597
0.143807
-0.104759
0.135425
-0.0904378
0.128722
-0.0783338
0.127335
-0.0560982
0.131678
-0.0226878
0.138855
0.0410864
0.145389
0.128935
0.150508
0.222986
0.155332
0.286262
0.161896
0.263337
0.168522
0.176596
0.172135
0.0239213
0.17248
-0.0933046
0.170092
-0.174937
0.165155
-0.179117
0.156424
-0.179327
0.147625
-0.224114
0.14437
-0.177876
0.144203
-0.13724
0.143079
0.0989822
0.139997
0.215657
0.140611
0.286658
0.145851
0.330683
0.0907768
0.217342
-0.0116689
-0.219631
0.214483
-0.015045
0.211354
-0.0182482
0.207895
-0.0211857
0.204007
-0.023924
0.199713
-0.0264059
0.195093
-0.0284566
0.190246
-0.0298809
0.185274
-0.0305125
0.180296
-0.0302038
0.175454
-0.0288082
0.17091
-0.0261785
0.16683
-0.0221778
0.163373
-0.0167097
0.160693
-0.00970668