/*--------------------------------*- C++ -*----------------------------------*\
| =========                 |                                                 |
| \\      /  F ield         | OpenFOAM: The Open Source CFD Toolbox           |
|  \\    /   O peration     | Version:  2512                                  |
|   \\  /    A nd           | Website:  www.openfoam.com                      |
|    \\/     M anipulation  |                                                 |
\*---------------------------------------------------------------------------*/
FoamFile
{
    version     2.0;
    format      ascii;
    arch        "LSB;label=32;scalar=64";
    class       volVectorField;
    location    "166";
    object      U;
}
// * * * * * * * * * * * * * * * * * * * * * * * * * * * * * * * * * * * * * //

dimensions      [0 1 -1 0 0 0 0];

internalField   nonuniform List<vector> 
13248
(
(-0.013502 0.0127779 9.85674e-20)
(-0.0222849 0.0267542 0)
(-0.0121526 0.034143 -1.86069e-19)
(0.0159551 0.0364625 1.75269e-19)
(0.0613027 0.035049 1.64055e-19)
(0.123189 0.0310618 0)
(0.200682 0.0254354 0)
(0.292388 0.0189084 4.00437e-19)
(0.396209 0.0120335 -1.71233e-22)
(0.509163 0.00517189 -3.52903e-19)
(0.627385 -0.00150433 3.31147e-19)
(0.74632 -0.00799004 -2.07496e-19)
(0.861108 -0.0144042 0)
(0.967062 -0.0209307 -3.5928e-19)
(1.06017 -0.0277537 6.69386e-19)
(1.13751 -0.034999 -1.60595e-19)
(1.19754 -0.0426935 -2.78108e-19)
(1.24013 -0.0507601 2.61115e-19)
(1.26649 -0.05899 0)
(1.27875 -0.0672999 0)
(1.27983 -0.0748814 0)
(1.27177 -0.0838285 0)
(1.25872 -0.0872718 6.96779e-20)
(1.23729 -0.106766 2.36887e-19)
(-0.0124042 0.0104537 -2.974e-19)
(-0.0144275 0.018906 2.02462e-19)
(0.00632677 0.0214598 -1.81634e-21)
(0.0483717 0.0201438 -2.67445e-19)
(0.11059 0.0165856 -1.63879e-19)
(0.19171 0.0120962 -1.5525e-19)
(0.289815 0.00762261 -2.86658e-19)
(0.402013 0.00378874 2.70866e-19)
(0.524279 0.00091099 0)
(0.651539 -0.000995618 6.74686e-22)
(0.778049 -0.00218244 9.15862e-22)
(0.897992 -0.00309096 2.05523e-19)
(1.00614 -0.00424519 0)
(1.09845 -0.00613495 0)
(1.17247 -0.00911565 2.3967e-19)
(1.22747 -0.0133456 -4.50582e-19)
(1.26435 -0.0187714 2.63859e-19)
(1.2853 -0.0251561 -2.47751e-19)
(1.29326 -0.032144 -1.0641e-19)
(1.29143 -0.0393165 -1.9041e-19)
(1.28276 -0.0462302 -7.48114e-20)
(1.2697 -0.052732 -1.39406e-19)
(1.25406 -0.0567378 2.10173e-19)
(1.23606 -0.0650469 5.79462e-20)
(-0.0101389 0.00793247 0)
(-0.0024412 0.0111443 0)
(0.0325659 0.00986069 9.46451e-20)
(0.0924702 0.00632075 8.73442e-20)
(0.175262 0.00230335 -1.81724e-21)
(0.2784 -0.000824613 -1.60019e-19)
(0.398131 -0.00224417 0)
(0.52926 -0.00165359 -1.34959e-19)
(0.665343 0.0007764 1.26858e-19)
(0.799286 0.00447798 1.30575e-22)
(0.924211 0.00862324 -2.18185e-19)
(1.03435 0.0123072 -2.00047e-19)
(1.12572 0.0147329 3.95339e-21)
(1.19648 0.0153552 -1.63962e-19)
(1.24687 0.0139522 3.95544e-19)
(1.27886 0.0106195 0)
(1.29554 0.00570183 -2.51113e-19)
(1.30047 -0.000313257 1.23085e-19)
(1.2971 -0.00688046 1.06329e-19)
(1.28827 -0.0135479 0)
(1.27622 -0.0197269 8.45535e-20)
(1.2622 -0.0256906 -2.8279e-19)
(1.24748 -0.0292609 2.6547e-19)
(1.23157 -0.037414 1.59459e-19)
(-0.00616587 0.00507609 -1.04524e-19)
(0.0148344 0.00334168 -1.07969e-19)
(0.0679029 -0.000567862 9.7951e-20)
(0.149273 -0.00459001 0)
(0.255351 -0.00704265 0)
(0.381447 -0.00673592 -3.19311e-21)
(0.521115 -0.00326907 0)
(0.666372 0.0030172 -4.10809e-19)
(0.808551 0.0111983 3.81884e-19)
(0.939517 0.0200014 -4.72172e-19)
(1.05284 0.0280962 1.08682e-19)
(1.14456 0.0343687 0)
(1.21346 0.0381094 1.79199e-19)
(1.26075 0.0390793 -3.31242e-19)
(1.28937 0.0374615 7.91412e-20)
(1.3032 0.0337335 1.99768e-19)
(1.30623 0.0285138 -1.05058e-20)
(1.30198 0.0224296 -2.19971e-19)
(1.29318 0.0160214 0)
(1.28177 0.00972324 0)
(1.26895 0.00385925 -7.64076e-20)
(1.25543 -0.00153324 6.78165e-20)
(1.2418 -0.00528604 2.38205e-19)
(1.22763 -0.0123042 -2.237e-19)
(4.59465e-06 0.00193164 -1.09551e-19)
(0.0383797 -0.0042386 -1.09525e-19)
(0.113238 -0.00928096 3.08153e-19)
(0.218933 -0.0117491 -1.87698e-19)
(0.349441 -0.0104217 1.76664e-19)
(0.497018 -0.00466956 3.22137e-19)
(0.651991 0.00508157 -2.2753e-19)
(0.803813 0.0175242 -2.76717e-19)
(0.942723 0.030863 5.6154e-21)
(1.0613 0.0432652 3.55117e-19)
(1.15543 0.0532541 0)
(1.22436 0.0599492 9.69621e-20)
(1.27017 0.0631141 0)
(1.29674 0.063045 -1.57755e-19)
(1.30865 0.0603713 2.22029e-19)
(1.31027 0.0558458 2.52266e-21)
(1.30526 0.050185 -5.74946e-20)
(1.29628 0.043978 1.07543e-19)
(1.28514 0.0376656 9.19299e-20)
(1.27292 0.0315498 -8.19558e-20)
(1.26025 0.0258461 7.63889e-20)
(1.24748 0.0205898 -6.77988e-20)
(1.23484 0.016394 0)
(1.2221 0.00996979 -5.07589e-20)
(0.00877357 -0.00127273 1.09535e-19)
(0.0688802 -0.0109229 1.14706e-19)
(0.168869 -0.0152357 -1.0321e-19)
(0.300568 -0.013882 1.92634e-19)
(0.454633 -0.00660287 -1.81301e-19)
(0.619632 0.00615761 1.64405e-19)
(0.782826 0.0227346 -7.877e-20)
(0.932299 0.0407082 2.0769e-19)
(1.0591 0.0576047 -1.30252e-19)
(1.15848 0.0714771 2.30104e-19)
(1.22994 0.0812185 -5.30258e-19)
(1.27629 0.0865851 1.94125e-19)
(1.30227 0.088003 -1.69869e-19)
(1.3132 0.0862777 1.59567e-19)
(1.31394 0.0823212 1.37164e-19)
(1.30834 0.0769617 1.19948e-19)
(1.29914 0.0708544 -3.33129e-19)
(1.28809 0.0644693 2.06572e-19)
(1.27621 0.0581226 -9.19332e-20)
(1.26406 0.0520216 2.38019e-19)
(1.25193 0.0462953 -7.689e-20)
(1.23995 0.0410157 -1.84904e-19)
(1.22818 0.0364612 1.70346e-19)
(1.21646 0.030535 5.07441e-20)
(0.020429 -0.00416711 0)
(0.106624 -0.0157179 8.9206e-22)
(0.234334 -0.0170453 2.14874e-19)
(0.392144 -0.0095276 -2.01618e-19)
(0.566678 0.00550609 -1.8244e-19)
(0.742815 0.0260111 3.39121e-19)
(0.905886 0.0488684 -1.57515e-19)
(1.0446 0.070754 2.09835e-19)
(1.15287 0.0890406 -4.72625e-21)
(1.22996 0.102259 -1.1863e-19)
(1.27921 0.110101 2.58687e-19)
(1.30621 0.113127 -3.81051e-19)
(1.31712 0.112351 0)
(1.3174 0.108888 -7.45114e-20)
(1.31129 0.103722 -1.98861e-19)
(1.30171 0.0976043 6.25229e-20)
(1.29047 0.0910601 2.65808e-21)
(1.27859 0.0844298 -1.36279e-19)
(1.26659 0.0779277 9.09269e-21)
(1.25472 0.0716874 1.57326e-19)
(1.24309 0.0657943 -6.9639e-20)
(1.23172 0.0603142 -2.61918e-20)
(1.22061 0.0552886 8.15936e-20)
(1.20965 0.0495978 0)
(0.0351161 -0.00628618 0)
(0.151403 -0.017452 5.8152e-20)
(0.308289 -0.0132263 -2.78783e-19)
(0.490488 0.00261833 1.0171e-19)
(0.68038 0.0265049 -9.5722e-20)
(0.860076 0.0544451 -8.72588e-20)
(1.01497 0.0820354 -1.54577e-19)
(1.1366 0.10563 7.70387e-20)
(1.22322 0.123127 6.72618e-20)
(1.27833 0.134019 0)
(1.30835 0.138968 1.52619e-19)
(1.32038 0.139242 -2.26611e-19)
(1.32075 0.136225 1.6889e-19)
(1.3143 0.131121 7.45518e-20)
(1.30427 0.124832 -6.09076e-20)
(1.29266 0.117971 -5.09102e-20)
(1.28054 0.110922 -4.74625e-20)
(1.26844 0.10392 1.42176e-19)
(1.25661 0.0971035 0)
(1.24512 0.0905639 7.10695e-20)
(1.23399 0.084364 5.94447e-20)
(1.22319 0.0785486 -1.47915e-19)
(1.21267 0.0730676 -1.00432e-19)
(1.20236 0.067503 9.30264e-20)
(0.0528004 -0.00711115 -6.18166e-20)
(0.202439 -0.0149251 -1.9638e-21)
(0.388514 -0.00245665 5.65956e-20)
(0.59156 0.0234004 1.57927e-19)
(0.790307 0.0563034 4.58773e-20)
(0.965933 0.0903657 -8.85975e-20)
(1.10624 0.120499 8.11671e-20)
(1.20731 0.14352 -7.13189e-20)
(1.27215 0.158435 1.27384e-19)
(1.30781 0.16592 5.43843e-20)
(1.32255 0.167526 -1.53951e-19)
(1.3238 0.164998 4.55098e-20)
(1.31728 0.159855 7.76844e-20)
(1.30679 0.153227 -3.82019e-20)
(1.29465 0.145865 0)
(1.28206 0.138226 5.71169e-20)
(1.26963 0.130577 9.6696e-20)
(1.25759 0.123071 1.65563e-20)
(1.24601 0.115802 -8.06015e-20)
(1.2349 0.108831 3.38039e-20)
(1.22421 0.102204 0)
(1.2139 0.0959329 -2.65294e-20)
(1.20391 0.0899572 -2.48421e-20)
(1.19412 0.0843037 0)
(0.0732228 -0.00611428 0)
(0.258357 -0.00705668 3.22952e-20)
(0.472038 0.0162109 5.98554e-20)
(0.690907 0.0530339 -1.60336e-19)
(0.891543 0.0941416 5.15663e-20)
(1.05658 0.132281 0)
(1.17826 0.162568 7.77545e-20)
(1.25797 0.183024 -1.08463e-19)
(1.30296 0.194095 -6.34444e-20)
(1.3227 0.197606 2.87843e-20)
(1.32606 0.195764 -4.58845e-20)
(1.31998 0.190539 1.11519e-19)
(1.30917 0.1834 5.60672e-20)
(1.29641 0.175315 -3.88972e-20)
(1.2832 0.166859 -3.58585e-21)
(1.27024 0.158356 -1.07182e-19)
(1.2578 0.149981 4.88454e-20)
(1.24596 0.141834 -1.12577e-21)
(1.23471 0.133977 0)
(1.224 0.126452 -3.38387e-20)
(1.21377 0.119287 0)
(1.20395 0.11247 7.66877e-20)
(1.19446 0.105997 -9.13907e-20)
(1.18518 0.100104 4.16515e-20)
(0.0958732 -0.0028043 -1.66044e-20)
(0.317229 0.00699293 -8.11083e-20)
(0.555405 0.0432177 9.2053e-20)
(0.784184 0.0910846 5.43091e-20)
(0.980223 0.138756 -2.6018e-20)
(1.12996 0.178568 4.36051e-20)
(1.23134 0.20679 -2.12281e-20)
(1.29086 0.223163 3.53796e-20)
(1.31901 0.229638 0)
(1.32644 0.228975 8.03818e-20)
(1.32176 0.223766 -3.18269e-21)
(1.31095 0.215989 -6.50969e-20)
(1.29762 0.206949 2.79988e-20)
(1.28369 0.197416 -3.17311e-20)
(1.27005 0.187807 -1.22087e-20)
(1.25705 0.178336 1.39375e-20)
(1.24478 0.169116 -1.08872e-20)
(1.23324 0.160209 -5.89759e-20)
(1.22237 0.151654 3.61932e-20)
(1.21209 0.14348 7.47613e-21)
(1.20233 0.135691 6.59913e-21)
(1.19299 0.128265 5.82562e-21)
(1.18399 0.121281 0)
(1.17517 0.114955 0)
(0.12007 0.00324013 1.66159e-20)
(0.376841 0.0277469 -1.66956e-20)
(0.635151 0.0784534 -3.06358e-20)
(0.867713 0.136563 0)
(1.05379 0.188611 -1.28782e-20)
(1.18546 0.227697 -1.15262e-20)
(1.26669 0.252032 -1.98154e-20)
(1.30834 0.263311 0)
(1.32293 0.264836 0)
(1.32129 0.260022 0)
(1.3112 0.25159 0)
(1.29752 0.241379 0)
(1.28285 0.230473 -1.76385e-20)
(1.26844 0.219453 8.04698e-21)
(1.25477 0.208602 1.40438e-20)
(1.24197 0.198054 6.55738e-21)
(1.23002 0.187875 1.63634e-20)
(1.21889 0.178099 0)
(1.20848 0.168751 -3.9717e-21)
(1.19871 0.159842 -3.75911e-21)
(1.18948 0.15136 -6.60957e-21)
(1.18069 0.143288 -5.83486e-21)
(1.17223 0.135791 0)
(1.16395 0.128891 4.2454e-21)
(-0.00265294 0.0471662 9.70956e-21)
(-0.00933351 0.106379 -1.0051e-20)
(-0.0198282 0.140818 -1.90064e-20)
(-0.0325552 0.157366 0)
(-0.046484 0.161619 -2.53394e-20)
(-0.0610221 0.157913 7.8683e-21)
(-0.0757145 0.1493 -1.52255e-20)
(-0.0902107 0.137654 0)
(-0.104254 0.123894 0)
(-0.117653 0.108269 0)
(-0.130256 0.0906261 0)
(-0.14194 0.0706273 0)
(-0.152598 0.047898 -2.93767e-22)
(-0.162148 0.0221064 -1.02293e-20)
(-0.170401 -0.00699963 2.01499e-20)
(-0.177231 -0.0394771 2.82654e-20)
(-0.18259 -0.0752481 9.38348e-21)
(-0.186331 -0.114078 0)
(-0.188338 -0.155525 7.555e-21)
(-0.188534 -0.198931 -2.19021e-20)
(-0.186881 -0.243423 -1.3731e-20)
(-0.18337 -0.287935 -1.26518e-20)
(-0.178044 -0.331245 0)
(-0.171295 -0.371914 0)
(-0.00544196 0.0498553 -2.95044e-20)
(-0.0145619 0.11376 5.05933e-20)
(-0.0246854 0.15211 -1.95963e-20)
(-0.0355054 0.171692 -3.65859e-20)
(-0.0466864 0.178106 5.14149e-20)
(-0.0579775 0.175781 -3.28213e-20)
(-0.0691024 0.167904 4.60912e-20)
(-0.0797864 0.156492 2.9987e-20)
(-0.089787 0.14259 0)
(-0.0988999 0.126541 -2.64139e-20)
(-0.106958 0.108255 -6.77988e-22)
(-0.113825 0.0874293 2.32366e-20)
(-0.119395 0.0637017 3.47827e-20)
(-0.123579 0.0367542 4.40856e-20)
(-0.126287 0.0063728 -1.96442e-20)
(-0.127427 -0.027586 -5.83816e-20)
(-0.126956 -0.0650356 1.9525e-20)
(-0.124863 -0.105719 -7.17565e-20)
(-0.121138 -0.149169 0)
(-0.115837 -0.19468 1.47875e-20)
(-0.109094 -0.241294 1.37102e-20)
(-0.101055 -0.287812 1.26325e-20)
(-0.0916677 -0.332778 0)
(-0.0812279 -0.37445 0)
(-0.00825246 0.0506371 0)
(-0.0198659 0.117241 1.0592e-19)
(-0.0294211 0.158702 -3.98428e-20)
(-0.0378768 0.181174 3.73027e-20)
(-0.0456071 0.189922 -1.07254e-19)
(-0.0527257 0.18926 0)
(-0.0591641 0.182403 -6.44909e-20)
(-0.0647493 0.171467 3.07022e-20)
(-0.0692691 0.157626 -5.90509e-20)
(-0.0725125 0.141347 2.92177e-20)
(-0.0742924 0.12264 1.60696e-19)
(-0.0744541 0.10127 -7.5635e-20)
(-0.072878 0.0769238 -1.21146e-19)
(-0.0694869 0.0493116 -4.87091e-20)
(-0.0642194 0.0181968 -1.32736e-21)
(-0.0570425 -0.0165142 1.67889e-19)
(-0.0479369 -0.0547432 -7.93206e-20)
(-0.0369663 -0.0962152 -2.15289e-21)
(-0.0242385 -0.140442 0)
(-0.0099319 -0.186685 -6.7986e-20)
(0.00565197 -0.233942 0)
(0.0221313 -0.280927 -5.37474e-20)
(0.0394513 -0.325978 2.05855e-19)
(0.0591547 -0.366823 -3.57303e-21)
(-0.0107964 0.0494434 0)
(-0.0247593 0.116476 1.20936e-21)
(-0.0336566 0.159939 4.15251e-20)
(-0.0395313 0.184893 -3.94393e-20)
(-0.0433968 0.195959 3.56972e-20)
(-0.0457241 0.197129 2.09221e-19)
(-0.0466754 0.191516 -6.56528e-20)
(-0.0462113 0.181271 -6.35431e-20)
(-0.0441799 0.167676 1.1963e-19)
(-0.0403858 0.15133 -1.71865e-19)
(-0.034636 0.132365 5.47321e-20)
(-0.0267595 0.110645 5.3131e-20)
(-0.0166085 0.0859221 0)
(-0.00412948 0.0579317 4.71353e-20)
(0.0107054 0.0264792 0)
(0.0279394 -0.00849369 8.90086e-20)
(0.0475487 -0.0468895 -1.67614e-19)
(0.0694001 -0.0884241 3.77121e-20)
(0.0932915 -0.132573 1.48552e-19)
(0.118925 -0.178554 6.78987e-20)
(0.145825 -0.22532 0)
(0.173406 -0.271526 -1.74143e-19)
(0.201266 -0.315279 5.51244e-20)
(0.233192 -0.353714 0)
(-0.0128275 0.0464558 0)
(-0.0288081 0.11159 -1.33242e-19)
(-0.0370712 0.155672 -4.23272e-20)
(-0.040407 0.182383 -7.94285e-20)
(-0.0403209 0.195478 7.47868e-20)
(-0.0375966 0.198458 -7.02082e-20)
(-0.032632 0.194201 1.3572e-19)
(-0.0255513 0.184809 6.52502e-20)
(-0.0162988 0.171626 -1.82248e-19)
(-0.00472529 0.15537 1.18271e-19)
(0.00934868 0.136302 -1.67938e-19)
(0.026094 0.114396 3.78834e-19)
(0.0456551 0.0894856 -2.04026e-19)
(0.0681262 0.0613593 9.94177e-20)
(0.093544 0.0298902 2.85553e-19)
(0.12191 -0.0049526 -8.63005e-20)
(0.153152 -0.0430544 -8.44414e-20)
(0.187076 -0.0840939 -8.00944e-20)
(0.223361 -0.127494 0)
(0.261535 -0.172408 -1.41316e-19)
(0.300848 -0.217733 -1.27242e-19)
(0.340782 -0.262037 1.8385e-19)
(0.378608 -0.303841 2.11667e-19)
(0.425482 -0.338485 -1.9902e-19)
(-0.0141975 0.0420756 0)
(-0.0317116 0.103172 -1.82971e-19)
(-0.0394349 0.14631 -7.92346e-22)
(-0.0404792 0.173729 1.61522e-19)
(-0.0366378 0.188237 0)
(-0.0289284 0.192737 0)
(-0.0179644 0.189764 0)
(-0.00404522 0.181279 -6.5831e-20)
(0.0127629 0.168626 -1.92339e-21)
(0.0325377 0.152603 1.1785e-19)
(0.0554273 0.13358 -1.72129e-19)
(0.0815966 0.111643 -1.62514e-21)
(0.111206 0.0867126 0)
(0.144375 0.0586778 -9.93553e-20)
(0.181156 0.0274557 9.77342e-20)
(0.221518 -0.00693966 -2.72164e-19)
(0.265307 -0.0443361 3.46485e-19)
(0.31219 -0.0843402 8.2697e-20)
(0.361608 -0.126298 -1.39649e-21)
(0.412806 -0.169257 -2.87105e-19)
(0.464402 -0.212107 -1.30518e-19)
(0.516535 -0.252973 4.13387e-19)
(0.561865 -0.292018 -2.7273e-19)
(0.62236 -0.321116 0)
(-0.01489 0.0368537 9.11636e-20)
(-0.0333607 0.0921822 9.19244e-20)
(-0.0406301 0.13277 -8.76572e-20)
(-0.0397085 0.159592 -1.64039e-19)
(-0.0324564 0.17457 1.54444e-19)
(-0.0200228 0.179987 -1.46572e-19)
(-0.00318492 0.177974 2.07275e-19)
(0.0176023 0.170276 -6.60882e-20)
(0.0421537 0.158168 1.24427e-19)
(0.0704745 0.14247 0)
(0.102683 0.123627 1.16714e-19)
(0.138935 0.101813 -2.16825e-19)
(0.179414 0.0770734 2.11385e-19)
(0.224259 0.0493762 -1.98527e-19)
(0.273483 0.0187081 0)
(0.326944 -0.0148277 1.81668e-19)
(0.384273 -0.0509527 3.45118e-19)
(0.444808 -0.0891587 -3.24707e-19)
(0.507502 -0.12869 -1.50386e-19)
(0.571157 -0.168427 -1.39788e-19)
(0.633338 -0.207476 3.92145e-19)
(0.695165 -0.243043 1.10671e-19)
(0.74445 -0.277946 -1.0867e-19)
(0.812179 -0.299553 9.00303e-20)
(-0.0150228 0.0313904 -9.11762e-20)
(-0.0338453 0.0797883 2.8217e-19)
(-0.040632 0.116347 -8.91647e-20)
(-0.0379582 0.141144 1.65771e-19)
(-0.0275601 0.155404 -1.56072e-19)
(-0.0106063 0.160856 -2.19439e-23)
(0.012042 0.159225 6.93995e-20)
(0.0398329 0.151998 2.65603e-19)
(0.0725022 0.140321 3.12708e-21)
(0.110009 0.124982 -1.18136e-19)
(0.152454 0.106465 0)
(0.200014 0.0850382 -1.10703e-19)
(0.25283 0.060823 2.06575e-19)
(0.310913 0.0338733 2.00393e-19)
(0.374093 0.00430994 -9.41594e-20)
(0.441886 -0.0276265 -1.43094e-21)
(0.513403 -0.0615189 -8.5657e-20)
(0.587325 -0.096721 1.57287e-19)
(0.661825 -0.132399 1.50341e-19)
(0.735046 -0.167278 -1.39004e-19)
(0.803597 -0.200891 1.22327e-19)
(0.868906 -0.229564 -1.1002e-19)
(0.917037 -0.258871 0)
(0.981003 -0.27181 -8.99866e-20)
(-0.0148105 0.0262264 9.29037e-20)
(-0.0333858 0.0671463 -9.45749e-20)
(-0.0394124 0.0984876 8.96016e-20)
(-0.034852 0.119906 0)
(-0.0211849 0.132194 0)
(0.000503579 0.136664 1.48762e-19)
(0.029369 0.134686 -1.39345e-19)
(0.0648514 0.127488 1.33182e-19)
(0.106674 0.116063 -6.26194e-19)
(0.154782 0.101143 -1.31335e-21)
(0.209243 0.0832227 1.12943e-19)
(0.270118 0.0626154 0)
(0.337331 0.03952 -2.07605e-19)
(0.410521 0.014138 3.92413e-19)
(0.488931 -0.0132702 -2.79414e-19)
(0.571302 -0.0423289 -4.42234e-19)
(0.655844 -0.0725016 4.71472e-22)
(0.740284 -0.103066 3.0552e-19)
(0.821944 -0.133203 0)
(0.898277 -0.161694 0)
(0.965773 -0.188424 -1.22328e-19)
(1.02521 -0.20963 1.10025e-19)
(1.06544 -0.232492 -3.68513e-19)
(1.11342 -0.237481 3.45418e-19)
(-0.0144893 0.021744 0)
(-0.0321877 0.0551903 0)
(-0.0367689 0.0805398 -2.69326e-19)
(-0.0295823 0.0975105 8.55596e-20)
(-0.011797 0.106751 5.19219e-22)
(0.0156668 0.109321 1.49366e-19)
(0.0520754 0.10633 0)
(0.0969384 0.0987943 -1.31945e-19)
(0.149997 0.0875679 1.25072e-19)
(0.211122 0.0733119 -2.37496e-19)
(0.280164 0.0565101 -1.2859e-21)
(0.356777 0.0375221 2.15251e-19)
(0.440243 0.0166455 2.272e-21)
(0.529325 -0.00582152 1.95384e-19)
(0.622191 -0.0295311 -2.73612e-19)
(0.716426 -0.0540492 0)
(0.809147 -0.0788365 3.19659e-19)
(0.897212 -0.103264 -4.52162e-19)
(0.977516 -0.126644 1.33777e-19)
(1.04737 -0.148153 0)
(1.10432 -0.167677 1.09621e-19)
(1.14865 -0.182527 3.9381e-19)
(1.17458 -0.199293 -3.6965e-19)
(1.19944 -0.199237 -3.78086e-19)
(-0.0142156 0.0180992 2.83555e-19)
(-0.0302535 0.0444708 -3.8879e-19)
(-0.0321339 0.0635341 1.20417e-21)
(-0.0207606 0.0754618 8.61034e-20)
(0.00298777 0.0810045 -1.60087e-19)
(0.0383891 0.0811389 -1.49023e-19)
(0.0848528 0.076827 2.80654e-19)
(0.141935 0.068943 5.1438e-22)
(0.209258 0.0582309 -2.48723e-19)
(0.286342 0.0452865 4.72597e-19)
(0.372396 0.0305782 2.73197e-21)
(0.466128 0.014476 -2.10696e-19)
(0.565608 -0.00270866 0)
(0.668235 -0.0206845 0)
(0.770839 -0.0391482 -9.01412e-20)
(0.869885 -0.0577665 -1.63455e-19)
(0.961787 -0.0761619 -3.06567e-19)
(1.04325 -0.0939521 2.87789e-19)
(1.11168 -0.110666 -1.33863e-19)
(1.16535 -0.126032 2.31397e-19)
(1.2038 -0.13957 -1.19665e-19)
(1.22788 -0.150609 1.74246e-19)
(1.23717 -0.162483 -4.27124e-19)
(1.24112 -0.161641 7.62005e-20)
(-0.0139664 0.0152023 9.55442e-20)
(-0.0272162 0.0350896 0)
(-0.0244482 0.0480488 1.83568e-19)
(-0.00640687 0.0549247 -1.72917e-19)
(0.0262148 0.0567321 1.60238e-19)
(0.0728314 0.0544967 0)
(0.132873 0.0491327 0)
(0.205695 0.0414307 -1.32825e-19)
(0.290396 0.032048 -6.10494e-22)
(0.385592 0.0215037 1.17e-19)
(0.489222 0.010184 -1.11108e-19)
(0.598464 -0.00164033 2.08989e-19)
(0.709799 -0.0137876 0)
(0.81922 -0.0261339 3.69375e-19)
(0.922575 -0.0385805 -6.90879e-19)
(1.01597 -0.0510256 4.8662e-19)
(1.09618 -0.0633356 2.92541e-19)
(1.16096 -0.0753667 -2.74646e-19)
(1.20935 -0.0868509 0)
(1.24148 -0.097839 0)
(1.25907 -0.107468 0)
(1.26384 -0.117227 0)
(1.25941 -0.124687 8.10339e-20)
(1.25 -0.128936 -2.66921e-19)
(-0.163079 -0.414832 -6.66169e-21)
(-0.157614 -0.461818 6.70937e-21)
(-0.147163 -0.499647 -1.92579e-22)
(-0.132049 -0.524431 0)
(-0.110269 -0.532274 -5.16125e-21)
(-0.0797994 -0.519143 9.97281e-21)
(-0.0388995 -0.481672 2.75564e-23)
(0.0121319 -0.418154 -4.70948e-21)
(0.0717587 -0.328454 0)
(0.137547 -0.215224 0)
(0.206242 -0.0841495 -2.64925e-22)
(0.275595 0.0576761 -2.52708e-22)
(0.344349 0.202884 -4.06963e-21)
(0.411018 0.33922 3.72916e-21)
(0.472595 0.452133 0)
(0.524888 0.530508 0)
(0.564523 0.571816 1.77045e-21)
(0.59078 0.581733 -2.36653e-22)
(0.603643 0.57293 -1.35911e-21)
(0.60008 0.563529 -7.83175e-23)
(0.578112 0.565256 0)
(0.546253 0.565969 0)
(0.525095 0.528615 0)
(0.533813 0.418573 0)
(0.574242 0.234777 0)
(0.633981 0.0137617 0)
(0.697855 -0.192945 5.97353e-22)
(0.753647 -0.345975 -9.96857e-22)
(0.793174 -0.434699 0)
(0.814627 -0.471606 0)
(0.822748 -0.473355 -3.30071e-22)
(0.820614 -0.464111 3.20798e-22)
(0.801242 -0.46634 1.34078e-22)
(0.760319 -0.48169 0)
(0.71204 -0.466194 0)
(0.681016 -0.372828 3.97453e-22)
(0.682502 -0.196624 -3.86351e-22)
(0.710186 0.012326 0)
(0.750911 0.188461 3.22319e-22)
(0.793862 0.307846 -4.48583e-22)
(0.827876 0.364545 1.09301e-22)
(0.838284 0.406362 0)
(0.815901 0.428436 -1.75026e-22)
(0.770153 0.433727 1.70198e-22)
(0.736736 0.356821 0)
(0.729686 0.202349 0)
(0.756156 0.0194898 -9.64622e-23)
(0.798322 -0.156011 2.78165e-22)
(0.829453 -0.241131 0)
(0.830236 -0.340827 0)
(0.800131 -0.352543 -4.76437e-23)
(0.769166 -0.355122 3.31944e-24)
(0.771755 -0.249591 -1.42443e-24)
(0.790373 -0.0696086 3.42993e-23)
(0.812286 0.0386552 0)
(0.810012 0.268913 0)
(0.801756 0.279983 0)
(0.791028 0.346797 0)
(0.798493 0.264568 0)
(0.786852 -0.0238806 0)
(-0.0735431 -0.416927 -7.26286e-22)
(-0.0779166 -0.466467 -2.69924e-20)
(-0.0804852 -0.507916 2.12243e-21)
(-0.0823907 -0.537691 2.33004e-20)
(-0.0816315 -0.552404 3.14676e-22)
(-0.0751436 -0.547993 0)
(-0.0595371 -0.520597 -1.69983e-20)
(-0.0318575 -0.467341 3.33734e-20)
(0.00899728 -0.386283 -1.63642e-20)
(0.0606953 -0.279739 1.59551e-20)
(0.119126 -0.1496 -1.52422e-20)
(0.183527 -0.00831942 1.43049e-20)
(0.252233 0.137777 -1.38267e-20)
(0.322089 0.27754 -3.41316e-22)
(0.390232 0.397308 -9.48527e-21)
(0.452394 0.486202 9.21775e-21)
(0.504522 0.540058 -6.45476e-21)
(0.544036 0.562929 6.10091e-21)
(0.568007 0.567537 -5.26887e-21)
(0.572537 0.571213 1.02824e-20)
(0.559032 0.581374 -5.01886e-21)
(0.540739 0.580557 -3.60777e-22)
(0.53903 0.531396 -7.23393e-21)
(0.567438 0.405699 1.52125e-20)
(0.622148 0.20949 -7.95138e-21)
(0.689301 -0.0179706 5.46569e-22)
(0.753572 -0.22443 7.34343e-21)
(0.803711 -0.371205 -1.03207e-21)
(0.834193 -0.450292 -9.87598e-21)
(0.845392 -0.47831 7.54935e-21)
(0.843121 -0.473784 -3.2282e-21)
(0.833114 -0.458171 2.89527e-22)
(0.809412 -0.452125 -1.34341e-22)
(0.765526 -0.46132 2.4261e-22)
(0.711365 -0.447908 0)
(0.671803 -0.365365 0)
(0.66542 -0.202346 -1.47047e-21)
(0.689213 -0.00276696 1.09086e-21)
(0.731214 0.169906 8.69233e-22)
(0.778744 0.291547 -4.44842e-23)
(0.818749 0.355359 -1.03757e-21)
(0.832459 0.407593 1.81618e-22)
(0.813913 0.438675 0)
(0.772074 0.446077 0)
(0.744896 0.3641 0)
(0.741412 0.200709 0)
(0.768067 0.0107182 4.71882e-22)
(0.809089 -0.166096 -1.84524e-22)
(0.837886 -0.245489 0)
(0.839356 -0.336989 0)
(0.80666 -0.345171 0)
(0.77551 -0.35141 -7.44669e-23)
(0.775074 -0.252102 1.67124e-23)
(0.79041 -0.0743078 -7.50784e-23)
(0.81016 0.036367 0)
(0.804864 0.27013 0)
(0.799227 0.281262 3.74772e-23)
(0.787763 0.347004 9.09436e-23)
(0.799012 0.264916 0)
(0.789354 -0.0225994 0)
(0.067454 -0.408853 -3.62781e-21)
(0.057583 -0.457169 -6.15308e-20)
(0.0463896 -0.499078 5.0496e-20)
(0.0313286 -0.53074 -4.72453e-20)
(0.0135264 -0.54997 -3.16776e-22)
(-0.004212 -0.553522 0)
(-0.017471 -0.537482 -3.0326e-20)
(-0.0203585 -0.498044 2.96335e-20)
(-0.00859491 -0.431083 2.30032e-22)
(0.0213798 -0.336631 3.43482e-22)
(0.0633449 -0.215848 3.32317e-22)
(0.11494 -0.0777594 4.17921e-22)
(0.178482 0.0666378 -2.10761e-20)
(0.247998 0.208255 2.08256e-20)
(0.319452 0.333686 0)
(0.388504 0.432269 3.92621e-22)
(0.4503 0.498811 -1.13095e-20)
(0.500244 0.536203 1.11622e-20)
(0.533298 0.556106 0)
(0.546146 0.573153 0)
(0.543625 0.590042 -1.15416e-20)
(0.541832 0.586079 2.464e-20)
(0.56046 0.526249 -2.79241e-20)
(0.607363 0.389036 -2.00273e-21)
(0.674846 0.185453 3.45811e-20)
(0.748113 -0.0443328 -3.56951e-20)
(0.811717 -0.248302 3.08326e-20)
(0.85524 -0.388602 -3.4986e-21)
(0.876022 -0.459218 -1.15435e-20)
(0.877095 -0.479845 0)
(0.864915 -0.470687 0)
(0.847255 -0.45043 1.58858e-21)
(0.819748 -0.437095 -2.10018e-21)
(0.774127 -0.440098 -2.53274e-23)
(0.715362 -0.428577 2.13373e-21)
(0.667681 -0.357349 -2.07375e-21)
(0.653014 -0.208724 0)
(0.672261 -0.0197195 3.39898e-22)
(0.714918 0.148648 2.38116e-21)
(0.766292 0.272571 -4.20756e-21)
(0.811615 0.344079 1.69673e-21)
(0.828508 0.407252 1.67808e-22)
(0.81428 0.447553 -1.8697e-21)
(0.777007 0.457369 1.47386e-21)
(0.756255 0.371255 4.84065e-22)
(0.75646 0.200229 5.38058e-22)
(0.782961 0.00384928 -4.73077e-22)
(0.822154 -0.174784 0)
(0.848136 -0.249094 0)
(0.850074 -0.332658 -9.38224e-22)
(0.81476 -0.337532 4.28268e-22)
(0.783122 -0.347516 -3.05776e-22)
(0.77964 -0.254642 3.86694e-22)
(0.791843 -0.0787861 4.56253e-22)
(0.809603 0.0341022 -1.32816e-22)
(0.801044 0.271169 1.94726e-22)
(0.797731 0.282385 -1.59407e-22)
(0.785378 0.346834 6.7871e-23)
(0.800653 0.264895 0)
(0.793001 -0.021403 0)
(0.24111 -0.395057 -1.30186e-19)
(0.231322 -0.440007 1.27013e-20)
(0.215772 -0.478218 1.11449e-19)
(0.19404 -0.506499 -7.17172e-22)
(0.164887 -0.524626 0)
(0.129606 -0.531749 0)
(0.0909425 -0.525228 -5.20762e-20)
(0.0564284 -0.50043 5.05577e-21)
(0.0338997 -0.451852 6.38899e-20)
(0.0305182 -0.374743 -1.14384e-21)
(0.0467979 -0.27237 -1.85355e-20)
(0.0783963 -0.145478 -1.65639e-20)
(0.128132 -0.00631907 1.65238e-20)
(0.191816 0.134033 0)
(0.262129 0.26336 -1.21783e-20)
(0.334125 0.370559 1.11437e-20)
(0.401775 0.449697 0)
(0.458721 0.502311 0)
(0.499038 0.53783 8.94349e-21)
(0.520868 0.567142 9.5459e-22)
(0.531659 0.58883 -9.04984e-21)
(0.54827 0.581193 -1.34706e-20)
(0.587115 0.513522 1.35981e-20)
(0.65079 0.370084 -1.84474e-20)
(0.729318 0.164087 -9.34071e-22)
(0.80789 -0.0650766 1.8381e-20)
(0.870636 -0.265286 2.09048e-21)
(0.907376 -0.399313 -1.19794e-23)
(0.918221 -0.462595 0)
(0.909416 -0.477022 6.81918e-21)
(0.887974 -0.464462 -6.98118e-21)
(0.862867 -0.441302 2.8379e-22)
(0.831727 -0.422001 0)
(0.785482 -0.418541 -2.19974e-22)
(0.723899 -0.407841 3.64353e-21)
(0.669006 -0.34785 -7.21537e-21)
(0.645723 -0.214949 -8.7907e-22)
(0.659668 -0.0378556 7.75739e-23)
(0.702169 0.125134 3.61681e-21)
(0.75642 0.251183 4.40907e-22)
(0.806341 0.330686 -2.86489e-21)
(0.826338 0.405036 2.43216e-21)
(0.816817 0.454674 2.41501e-24)
(0.784614 0.467368 1.85136e-21)
(0.770391 0.378374 -2.28563e-21)
(0.774424 0.201042 -3.9215e-21)
(0.800533 -0.00108033 1.05431e-21)
(0.837356 -0.181965 1.593e-21)
(0.860059 -0.252041 -2.74553e-21)
(0.862199 -0.327964 1.66303e-21)
(0.824252 -0.329588 -3.10185e-22)
(0.791769 -0.343293 4.27665e-22)
(0.785201 -0.257136 2.7069e-22)
(0.794522 -0.0830903 -6.03191e-22)
(0.810548 0.03183 -1.21414e-23)
(0.798529 0.272065 -1.58344e-22)
(0.797273 0.283402 0)
(0.7839 0.346279 -6.4476e-23)
(0.80345 0.264491 1.84431e-22)
(0.797811 -0.0202869 0)
(0.429735 -0.378069 1.31788e-19)
(0.420544 -0.420695 -2.45153e-19)
(0.404537 -0.453705 1.12159e-19)
(0.380798 -0.475623 8.30765e-20)
(0.347145 -0.487618 -1.49188e-19)
(0.303458 -0.491096 1.18026e-20)
(0.250785 -0.486146 5.34973e-20)
(0.193973 -0.469966 3.48835e-20)
(0.141149 -0.438431 -3.41912e-20)
(0.100708 -0.384736 0)
(0.0807747 -0.306461 -2.31157e-20)
(0.0826511 -0.201524 4.39854e-20)
(0.108483 -0.0750344 -2.11011e-20)
(0.156602 0.0590926 0)
(0.219301 0.189298 0)
(0.288879 0.303265 2.96837e-22)
(0.357896 0.394031 -1.41645e-20)
(0.418624 0.461221 1.37601e-20)
(0.465149 0.511341 0)
(0.497022 0.551217 1.77703e-20)
(0.522986 0.576341 -3.75228e-20)
(0.558872 0.565881 4.55571e-20)
(0.61676 0.494239 -5.67081e-20)
(0.695042 0.349901 -5.85382e-21)
(0.783076 0.145628 7.44781e-20)
(0.866651 -0.0802571 -3.83742e-20)
(0.928783 -0.275268 -1.06573e-21)
(0.958903 -0.402905 -1.15509e-20)
(0.959856 -0.46006 2.77008e-21)
(0.941584 -0.469826 9.02514e-21)
(0.911822 -0.45516 3.59667e-22)
(0.879814 -0.43078 -3.94385e-21)
(0.845196 -0.407244 7.08581e-21)
(0.799135 -0.397571 -3.5105e-21)
(0.736587 -0.386455 0)
(0.675904 -0.336837 -3.84617e-21)
(0.644019 -0.220423 3.80298e-21)
(0.651691 -0.0568573 -3.11447e-21)
(0.692878 0.0997283 3.87719e-21)
(0.748938 0.227555 -3.31535e-22)
(0.802704 0.315016 0)
(0.82575 0.400563 -3.13746e-22)
(0.821226 0.459668 1.05192e-21)
(0.794474 0.475891 0)
(0.786727 0.38549 5.64379e-21)
(0.79471 0.203186 -2.05763e-21)
(0.820428 -0.00385467 1.11687e-21)
(0.854499 -0.187449 9.72091e-22)
(0.873479 -0.254255 0)
(0.87554 -0.322881 0)
(0.834989 -0.321279 -1.00487e-21)
(0.801259 -0.33865 1.36986e-21)
(0.791506 -0.25956 -6.45826e-22)
(0.798263 -0.08729 1.68449e-22)
(0.812899 0.0295172 3.08857e-22)
(0.797288 0.272856 1.58496e-22)
(0.797852 0.28436 -2.47255e-22)
(0.783358 0.34533 0)
(0.807427 0.263679 -2.68551e-22)
(0.803795 -0.0192527 -1.18843e-22)
(0.620634 -0.35877 1.3123e-19)
(0.609672 -0.398784 -1.30504e-19)
(0.593149 -0.427807 8.34452e-22)
(0.568327 -0.444784 -6.78528e-22)
(0.533598 -0.450854 5.7529e-22)
(0.488895 -0.447185 -4.5846e-22)
(0.43379 -0.4358 6.48383e-22)
(0.36907 -0.418502 0)
(0.298527 -0.395288 -3.15774e-22)
(0.229801 -0.361188 2.06812e-22)
(0.174218 -0.308329 1.35796e-22)
(0.139404 -0.231157 -2.56919e-22)
(0.131353 -0.127968 0)
(0.152189 -0.00740622 0)
(0.196733 0.117212 6.99429e-23)
(0.255792 0.233712 0)
(0.320429 0.333199 -8.21386e-23)
(0.381696 0.412853 0)
(0.433618 0.475643 -1.15134e-20)
(0.476249 0.524336 2.551e-20)
(0.518192 0.552282 -3.21713e-20)
(0.572872 0.540758 1.79712e-20)
(0.647649 0.469208 2.99881e-20)
(0.738047 0.328767 -2.91145e-20)
(0.834476 0.130021 -3.91436e-20)
(0.923205 -0.0900209 3.8051e-20)
(0.984948 -0.278546 0)
(1.00876 -0.399772 8.60433e-22)
(1.00019 -0.452078 0)
(0.973039 -0.458794 0)
(0.936026 -0.443158 9.28722e-21)
(0.897838 -0.418936 -9.6936e-21)
(0.85982 -0.392993 3.88646e-22)
(0.814446 -0.377779 3.53251e-22)
(0.752708 -0.364981 -2.76217e-22)
(0.688108 -0.324228 -2.76421e-21)
(0.647975 -0.224468 2.68428e-21)
(0.648473 -0.0759675 -3.31921e-21)
(0.687102 0.0729672 2.81881e-21)
(0.743626 0.201853 6.13923e-22)
(0.800431 0.296901 -2.41726e-21)
(0.826476 0.393457 -5.5829e-22)
(0.827111 0.462203 1.86234e-21)
(0.806066 0.482795 0)
(0.804598 0.392482 -2.19369e-21)
(0.816704 0.206825 3.78937e-21)
(0.842177 -0.00423534 -4.87303e-21)
(0.873283 -0.191054 -9.78245e-22)
(0.888181 -0.255682 0)
(0.889867 -0.317436 3.60562e-22)
(0.846823 -0.312558 -8.51044e-22)
(0.811444 -0.333457 -1.89529e-23)
(0.798314 -0.261876 -1.22699e-22)
(0.802854 -0.0914779 1.81015e-22)
(0.816531 0.0271148 -2.39657e-22)
(0.797282 0.273558 0)
(0.799467 0.285296 2.47372e-22)
(0.783774 0.343979 0)
(0.812596 0.262424 0)