/*--------------------------------*- C++ -*----------------------------------*\
| =========                 |                                                 |
| \\      /  F ield         | OpenFOAM: The Open Source CFD Toolbox           |
|  \\    /   O peration     | Version:  2512                                  |
|   \\  /    A nd           | Website:  www.openfoam.com                      |
|    \\/     M anipulation  |                                                 |
\*---------------------------------------------------------------------------*/
FoamFile
{
    version     2.0;
    format      ascii;
    arch        "LSB;label=32;scalar=64";
    class       volScalarField;
    location    "192.25";
    object      p;
}
// * * * * * * * * * * * * * * * * * * * * * * * * * * * * * * * * * * * * * //

dimensions      [0 2 -2 0 0 0 0];

internalField   nonuniform List<scalar> 
13248
(
-0.377766
-0.37596
-0.372884
-0.368863
-0.364297
-0.359604
-0.355177
-0.351353
-0.348375
-0.346359
-0.345284
-0.344986
-0.345172
-0.345461
-0.345421
-0.34463
-0.342718
-0.339412
-0.334538
-0.328059
-0.319846
-0.31011
-0.297631
-0.283348
-0.386457
-0.383891
-0.380241
-0.3758
-0.370919
-0.365976
-0.361293
-0.357112
-0.353564
-0.350657
-0.348272
-0.346183
-0.344087
-0.341654
-0.338571
-0.334584
-0.32952
-0.323292
-0.315882
-0.307307
-0.297573
-0.286709
-0.274443
-0.261655
-0.397494
-0.393879
-0.389461
-0.384479
-0.379186
-0.373886
-0.368797
-0.364029
-0.359585
-0.355367
-0.351205
-0.34688
-0.342172
-0.336889
-0.330895
-0.32412
-0.316552
-0.30822
-0.29916
-0.289419
-0.278987
-0.267945
-0.256093
-0.244075
-0.41075
-0.405851
-0.400502
-0.394853
-0.389007
-0.383157
-0.377383
-0.371644
-0.365828
-0.359788
-0.353381
-0.346491
-0.339052
-0.331048
-0.322508
-0.313488
-0.304052
-0.294255
-0.284134
-0.273709
-0.262991
-0.252028
-0.240725
-0.229687
-0.426087
-0.419737
-0.413338
-0.406898
-0.400315
-0.393627
-0.386753
-0.379527
-0.371783
-0.363423
-0.354425
-0.344845
-0.33479
-0.324389
-0.313766
-0.303021
-0.292222
-0.281405
-0.270579
-0.259744
-0.248892
-0.238039
-0.227132
-0.216542
-0.443349
-0.43545
-0.427925
-0.42057
-0.412998
-0.405058
-0.396533
-0.387201
-0.376963
-0.365872
-0.354101
-0.341887
-0.329466
-0.317039
-0.304748
-0.292676
-0.280858
-0.269293
-0.257962
-0.24684
-0.235907
-0.225151
-0.214545
-0.204319
-0.462295
-0.452814
-0.444116
-0.435682
-0.426764
-0.417023
-0.406184
-0.394109
-0.380892
-0.366823
-0.352277
-0.337619
-0.323143
-0.309041
-0.295421
-0.282316
-0.269716
-0.257585
-0.245879
-0.234556
-0.223577
-0.212911
-0.202544
-0.192555
-0.48251
-0.47148
-0.461565
-0.451812
-0.441064
-0.428859
-0.415014
-0.39964
-0.38313
-0.366025
-0.348849
-0.332016
-0.315793
-0.300316
-0.285626
-0.2717
-0.258486
-0.245919
-0.233935
-0.222473
-0.211483
-0.200924
-0.190777
-0.181012
-0.503351
-0.490867
-0.479665
-0.468252
-0.455079
-0.439708
-0.422251
-0.403208
-0.383307
-0.363289
-0.343737
-0.325027
-0.307346
-0.290745
-0.275193
-0.260618
-0.246929
-0.234039
-0.221864
-0.210331
-0.199375
-0.188949
-0.179018
-0.169473
-0.523915
-0.510123
-0.497515
-0.483998
-0.467753
-0.448591
-0.427112
-0.404278
-0.38111
-0.358446
-0.336832
-0.316546
-0.297667
-0.280158
-0.263924
-0.248848
-0.23481
-0.221701
-0.209422
-0.197884
-0.187014
-0.176756
-0.167045
-0.157742
-0.543065
-0.528132
-0.513928
-0.49779
-0.477859
-0.454449
-0.428783
-0.402267
-0.376111
-0.351141
-0.327796
-0.30622
-0.286384
-0.268168
-0.251422
-0.235991
-0.221733
-0.208518
-0.196231
-0.184773
-0.174059
-0.164018
-0.154552
-0.145534
-0.559537
-0.54366
-0.527639
-0.508346
-0.484187
-0.45622
-0.426356
-0.396378
-0.367566
-0.340644
-0.315892
-0.293312
-0.272764
-0.254057
-0.23699
-0.221378
-0.207052
-0.193868
-0.181696
-0.170427
-0.15997
-0.150238
-0.141105
-0.132511
-0.350222
-0.351491
-0.352219
-0.352725
-0.353359
-0.354307
-0.355677
-0.357531
-0.359906
-0.362829
-0.366329
-0.37044
-0.375199
-0.380633
-0.386752
-0.393537
-0.400929
-0.408813
-0.417008
-0.425262
-0.433237
-0.440507
-0.446576
-0.451077
-0.354419
-0.354752
-0.354918
-0.355079
-0.355478
-0.356301
-0.357679
-0.359696
-0.362411
-0.365875
-0.370144
-0.375279
-0.38134
-0.388377
-0.396417
-0.405444
-0.415387
-0.426098
-0.437353
-0.448811
-0.460017
-0.470426
-0.479323
-0.486091
-0.358318
-0.357751
-0.357343
-0.357115
-0.357202
-0.357792
-0.359038
-0.361046
-0.363895
-0.367655
-0.372398
-0.378197
-0.385125
-0.39324
-0.402567
-0.413086
-0.424707
-0.437253
-0.450442
-0.463878
-0.477039
-0.489272
-0.499759
-0.50748
-0.361475
-0.360137
-0.359185
-0.358525
-0.358205
-0.35842
-0.359347
-0.361116
-0.36383
-0.367574
-0.372429
-0.378474
-0.385779
-0.394395
-0.40434
-0.415575
-0.427987
-0.441371
-0.455414
-0.469674
-0.483583
-0.49639
-0.507402
-0.514844
-0.363651
-0.361751
-0.360327
-0.359207
-0.358387
-0.358072
-0.358471
-0.359748
-0.362032
-0.365428
-0.370026
-0.375903
-0.383121
-0.391719
-0.401693
-0.412985
-0.425456
-0.438877
-0.452903
-0.467057
-0.480749
-0.493078
-0.503771
-0.509872
-0.364819
-0.362615
-0.360822
-0.359238
-0.357843
-0.356862
-0.356544
-0.357094
-0.358679
-0.361432
-0.365453
-0.370822
-0.377591
-0.385782
-0.39537
-0.406269
-0.418315
-0.431242
-0.444662
-0.458056
-0.470889
-0.481909
-0.491438
-0.495218
-0.365156
-0.362911
-0.360865
-0.358837
-0.356828
-0.355096
-0.353932
-0.353593
-0.354292
-0.356196
-0.359427
-0.364071
-0.370174
-0.37774
-0.38672
-0.396987
-0.408334
-0.420452
-0.432922
-0.445083
-0.456432
-0.465423
-0.472892
-0.473583
-0.365027
-0.362959
-0.360767
-0.358328
-0.355711
-0.353212
-0.351167
-0.349887
-0.349636
-0.350622
-0.352993
-0.356846
-0.362222
-0.369095
-0.37738
-0.386905
-0.39739
-0.408423
-0.419495
-0.429851
-0.43899
-0.445248
-0.449668
-0.446864
-0.364955
-0.363192
-0.360917
-0.358111
-0.354933
-0.351724
-0.348866
-0.346719
-0.345595
-0.345738
-0.347323
-0.350445
-0.355128
-0.361312
-0.368834
-0.377424
-0.3867
-0.396152
-0.405186
-0.413015
-0.419132
-0.422094
-0.422792
-0.416596
-0.365579
-0.364119
-0.361771
-0.358637
-0.354978
-0.351182
-0.347666
-0.344829
-0.343014
-0.342487
-0.343428
-0.345914
-0.349916
-0.355291
-0.361777
-0.368993
-0.376445
-0.383555
-0.389706
-0.394246
-0.39677
-0.396357
-0.393652
-0.384949
-0.367566
-0.366275
-0.3638
-0.360364
-0.35632
-0.352088
-0.348106
-0.344788
-0.342481
-0.341446
-0.341826
-0.343646
-0.346791
-0.351018
-0.355954
-0.36112
-0.365964
-0.369915
-0.372435
-0.373126
-0.37179
-0.368253
-0.363176
-0.353749
-0.371506
-0.370122
-0.367411
-0.363678
-0.359328
-0.354795
-0.350516
-0.346883
-0.344216
-0.342725
-0.342486
-0.343434
-0.345358
-0.347916
-0.350664
-0.353097
-0.354696
-0.355001
-0.353629
-0.350405
-0.345195
-0.338372
-0.330363
-0.32106
-0.454684
-0.453248
-0.445247
-0.429603
-0.405991
-0.375123
-0.33889
-0.300085
-0.26201
-0.228077
-0.20118
-0.183463
-0.176335
-0.179944
-0.192074
-0.207491
-0.218832
-0.21956
-0.205613
-0.179494
-0.148531
-0.12033
-0.0994944
-0.0873789
-0.0832217
-0.0857546
-0.095286
-0.113507
-0.138569
-0.161163
-0.168636
-0.157699
-0.133099
-0.105972
-0.0843738
-0.0708499
-0.0641016
-0.0637478
-0.0717034
-0.0856191
-0.096116
-0.0947163
-0.0829259
-0.0690805
-0.0583787
-0.0520449
-0.0517053
-0.0567686
-0.0615558
-0.0611702
-0.054741
-0.048153
-0.0409344
-0.0347696
-0.0321809
-0.0304126
-0.0281828
-0.0258833
-0.0175826
-0.00360577
-0.492413
-0.491829
-0.483076
-0.465529
-0.43864
-0.403103
-0.361038
-0.31568
-0.270823
-0.230092
-0.196443
-0.171907
-0.157705
-0.154296
-0.160434
-0.172101
-0.182719
-0.185392
-0.175795
-0.155698
-0.130953
-0.108217
-0.091914
-0.0836131
-0.082731
-0.0882643
-0.101031
-0.122857
-0.151245
-0.175821
-0.182546
-0.169634
-0.141784
-0.111412
-0.0868817
-0.0707951
-0.0617717
-0.0590547
-0.0642759
-0.0756416
-0.0848425
-0.0839455
-0.0745106
-0.0635694
-0.0557729
-0.0518978
-0.0541135
-0.061783
-0.068061
-0.0677087
-0.0594992
-0.0510675
-0.0418856
-0.0337927
-0.0297081
-0.0264316
-0.0243572
-0.0223066
-0.0153592
-0.00329305
-0.515667
-0.515957
-0.506744
-0.487922
-0.458823
-0.420012
-0.373729
-0.323447
-0.273212
-0.226961
-0.187763
-0.157532
-0.137274
-0.127391
-0.127373
-0.134555
-0.143578
-0.147908
-0.142665
-0.128788
-0.110463
-0.0934396
-0.0819408
-0.0776578
-0.0801249
-0.0886256
-0.104404
-0.129331
-0.160492
-0.186931
-0.194634
-0.179165
-0.148618
-0.115531
-0.0884963
-0.070148
-0.0590692
-0.0541745
-0.0567708
-0.0656215
-0.0735481
-0.0731141
-0.0659159
-0.0577204
-0.0527566
-0.0513725
-0.0562424
-0.0666175
-0.0744403
-0.074034
-0.0640379
-0.0536967
-0.0426444
-0.032772
-0.0273002
-0.0225244
-0.0205491
-0.0186989
-0.0131221
-0.00298166
-0.523688
-0.524449
-0.515476
-0.496398
-0.466371
-0.425924
-0.377388
-0.324321
-0.270881
-0.221066
-0.177921
-0.143258
-0.117956
-0.102373
-0.0963314
-0.0983521
-0.104654
-0.109668
-0.108168
-0.100114
-0.0879357
-0.0765269
-0.0698165
-0.0694588
-0.0750815
-0.0862348
-0.104515
-0.131924
-0.165411
-0.193664
-0.202123
-0.185794
-0.15339
-0.118233
-0.0892286
-0.069014
-0.0561575
-0.0493359
-0.0495109
-0.0559562
-0.0626262
-0.0629805
-0.0573411
-0.0516463
-0.049369
-0.0504194
-0.0579542
-0.071084
-0.0805269
-0.0799938
-0.068293
-0.0560063
-0.0431902
-0.0317077
-0.0249804
-0.0187268
-0.0167968
-0.015096
-0.0108911
-0.00267596
-0.517818
-0.517969
-0.509673
-0.491519
-0.461909
-0.421562
-0.373017
-0.319711
-0.265588
-0.214466
-0.169241
-0.131598
-0.102322
-0.0817789
-0.0700699
-0.0665766
-0.0690269
-0.0733679
-0.0750275
-0.0710534
-0.0643088
-0.0580722
-0.0557915
-0.058981
-0.0673712
-0.0807331
-0.100937
-0.130223
-0.165599
-0.195594
-0.205287
-0.18929
-0.156043
-0.119563
-0.0891646
-0.0675107
-0.0531924
-0.0447309
-0.0427393
-0.0469281
-0.0523481
-0.0527533
-0.0489291
-0.0454579
-0.0456354
-0.0489785
-0.059113
-0.0749927
-0.0861284
-0.0854282
-0.0722037
-0.05797
-0.0435115
-0.0305997
-0.0227659
-0.0150717
-0.0131366
-0.0115317
-0.00868376
-0.00238027
-0.500489
-0.498875
-0.49146
-0.475029
-0.446973
-0.40839
-0.361992
-0.310859
-0.258493
-0.208325
-0.162963
-0.123944
-0.0919763
-0.0674191
-0.0505767
-0.0414853
-0.0391656
-0.0410762
-0.0434068
-0.0428015
-0.0406631
-0.0388359
-0.0402991
-0.046466
-0.057137
-0.0722251
-0.0937712
-0.124271
-0.161041
-0.192706
-0.204043
-0.189561
-0.156557
-0.119589
-0.0883914
-0.065732
-0.0502765
-0.0404686
-0.0366209
-0.038748
-0.0429571
-0.0432891
-0.0408872
-0.0392682
-0.0415876
-0.0470132
-0.0595985
-0.0781544
-0.0910556
-0.0903446
-0.0757233
-0.0595687
-0.0435987
-0.0294425
-0.0206657
-0.0115865
-0.00959902
-0.00803677
-0.00651431
-0.00209869
-0.474734
-0.470267
-0.463693
-0.44943
-0.423842
-0.388516
-0.346125
-0.299142
-0.250489
-0.203124
-0.1593
-0.120386
-0.087072
-0.059712
-0.0386693
-0.0243625
-0.0167955
-0.0148558
-0.0159968
-0.016839
-0.0180729
-0.0196355
-0.0240072
-0.0324508
-0.0448182
-0.0611002
-0.0834165
-0.114482
-0.152129
-0.185341
-0.198622
-0.186688
-0.154988
-0.118397
-0.0869922
-0.0637481
-0.047473
-0.0366059
-0.0312132
-0.0315183
-0.0345927
-0.034779
-0.0334017
-0.0331993
-0.0372843
-0.0445135
-0.0593148
-0.0804005
-0.0951455
-0.0956037
-0.0788057
-0.0607864
-0.0434491
-0.028232
-0.0186767
-0.00828983
-0.00620801
-0.00463839
-0.00439288
-0.0018352
-0.442939
-0.435168
-0.429585
-0.417704
-0.395248
-0.364378
-0.327365
-0.285879
-0.24223
-0.198901
-0.157804
-0.120164
-0.0866863
-0.0577728
-0.033782
-0.0152166
-0.00261156
0.0039864
0.00564025
0.00412081
0.00256121
-0.00117181
-0.00756335
-0.0175212
-0.0309556
-0.0479234
-0.0705437
-0.101638
-0.139656
-0.174226
-0.189405
-0.180981
-0.151464
-0.116061
-0.085026
-0.0615998
-0.0448159
-0.0331666
-0.0265345
-0.0252668
-0.0273083
-0.0273103
-0.0266012
-0.0273784
-0.0328013
-0.0415045
-0.0582085
-0.0815982
-0.0982135
-0.101512
-0.0813533
-0.061612
-0.0430719
-0.0269774
-0.0168041
-0.00519207
-0.00298003
-0.00136
-0.00232616
-0.00159439
-0.407441
-0.397224
-0.39303
-0.383377
-0.36436
-0.33864
-0.307649
-0.272222
-0.23413
-0.195399
-0.157656
-0.12203
-0.0892715
-0.0598764
-0.034221
-0.012751
0.00393029
0.0151846
0.0209329
0.0221634
0.0207825
0.0160214
0.0085563
-0.00216816
-0.0160689
-0.0332842
-0.0558811
-0.0867516
-0.12483
-0.160463
-0.176878
-0.172942
-0.146256
-0.112787
-0.0826778
-0.0594379
-0.0424259
-0.0302328
-0.0226282
-0.020013
-0.0211188
-0.0208942
-0.0205538
-0.021926
-0.0282345
-0.0380129
-0.0562549
-0.0816791
-0.100033
-0.104326
-0.0832086
-0.0620638
-0.0425033
-0.0257022
-0.0150872
-0.0023158
7.54444e-05
0.00177925
-0.000317489
-0.00138151
-0.371782
-0.361156
-0.358428
-0.350298
-0.334601
-0.31406
-0.288943
-0.259417
-0.226805
-0.192692
-0.158448
-0.125156
-0.0936361
-0.064501
-0.0381798
-0.01506
0.0043867
0.0194585
0.0294808
0.0344977
0.0357001
0.031204
0.0238486
0.0130874
-0.000795014
-0.0179527
-0.0403701
-0.0707684
-0.108531
-0.14529
-0.161277
-0.163287
-0.139859
-0.109051
-0.0803963
-0.0576293
-0.0405717
-0.0279832
-0.0195736
-0.0157578
-0.0160168
-0.015563
-0.0153095
-0.0169321
-0.0236531
-0.0341618
-0.0535162
-0.0805873
-0.100541
-0.105171
-0.0843518
-0.0621963
-0.0417915
-0.0244168
-0.013541
0.000281577
0.00294049
0.0047627
0.00163193
-0.00120297
-0.339972
-0.331412
-0.329374
-0.321737
-0.308994
-0.293141
-0.273318
-0.249274
-0.221885
-0.192279
-0.16156
-0.130752
-0.100744
-0.0721985
-0.0456089
-0.0214738
-0.000242652
0.0175633
0.0313189
0.0404786
0.0466514
0.0430433
0.037394
0.027633
0.0144106
-0.00232537
-0.0244295
-0.0545469
-0.0923902
-0.1306
-0.162061
-0.152852
-0.1321
-0.104638
-0.0779935
-0.0559838
-0.039027
-0.0262058
-0.0171528
-0.012242
-0.0117283
-0.011206
-0.0109923
-0.0126293
-0.0191634
-0.0298863
-0.0499332
-0.0784871
-0.099801
-0.104994
-0.0846785
-0.0619473
-0.0408561
-0.023046
-0.0120149
0.00262032
0.00559127
0.00755792
0.00352846
-0.00106472
-0.312589
-0.308777
-0.305397
-0.296611
-0.285588
-0.272926
-0.257134
-0.2377
-0.215007
-0.189743
-0.162722
-0.134797
-0.106801
-0.0794811
-0.0534723
-0.0293317
-0.00753015
0.0114913
0.0271985
0.038855
0.0439033
0.049824
0.0472445
0.0395165
0.0276974
0.0118933
-0.00943246
-0.0385616
-0.0751153
-0.112264
-0.138534
-0.136723
-0.120472
-0.0969601
-0.072926
-0.0523086
-0.0359992
-0.0234951
-0.0143251
-0.00873169
-0.0075797
-0.00707627
-0.00718065
-0.00882635
-0.0150447
-0.0257299
-0.0458226
-0.075137
-0.0976795
-0.103506
-0.0838375
-0.0609282
-0.0393514
-0.0213892
-0.0102457
0.00500459
0.00812069
0.0101857
0.00535397
-0.000980111
-0.286185
-0.294792
-0.288898
-0.277655
-0.265839
-0.253302
-0.238447
-0.220443
-0.199438
-0.176068
-0.151091
-0.125243
-0.0992244
-0.0736726
-0.0491464
-0.0261382
-0.00508472
0.0136461
0.0296319
0.042243
0.0511011
0.0564882
0.0564114
0.0510371
0.0410352
0.026511
0.005621
-0.0247585
-0.0641486
-0.103379
-0.13057
-0.126846
-0.110225
-0.0878427
-0.0655201
-0.0465073
-0.0313738
-0.0196517
-0.0108705
-0.00518859
-0.00366836
-0.00287095
-0.00270131
-0.00355871
-0.00930019
-0.0198677
-0.0403781
-0.0714651
-0.0961942
-0.103576
-0.0829553
-0.0592805
-0.0373771
-0.0195437
-0.00840881
0.00750659
0.0106967
0.0128135
0.00711524
-0.000970212
-0.258768
-0.270946
-0.265969
-0.253934
-0.241596
-0.229541
-0.216042
-0.199902
-0.181074
-0.160144
-0.137793
-0.114621
-0.0911654
-0.0679483
-0.0454667
-0.0241785
-0.0044834
0.0132829
0.0288157
0.0417147
0.0511195
0.057469
0.0590639
0.0555784
0.0474009
0.0343929
0.014299
-0.0162696
-0.0556175
-0.0925593
-0.110846
-0.111319
-0.0965731
-0.0769726
-0.0575288
-0.0407006
-0.0270232
-0.0162583
-0.00799349
-0.00235474
-0.000611335
0.000225446
0.000293441
-0.000247627
-0.00529958
-0.015321
-0.0357077
-0.0677052
-0.0934204
-0.101026
-0.0806918
-0.0567695
-0.0350177
-0.0174821
-0.00652543
0.00958602
0.0126769
0.0150932
0.00860953
-0.000942041
-0.233781
-0.246156
-0.242621
-0.23141
-0.219501
-0.208239
-0.196143
-0.181872
-0.165183
-0.146548
-0.126569
-0.105756
-0.0845532
-0.0634032
-0.0427546
-0.0230323
-0.00461773
0.0121592
0.0270214
0.0397382
0.0492968
0.0558648
0.0582398
0.0558595
0.048824
0.0367559
0.0173091
-0.0120178
-0.0478927
-0.0795397
-0.0951937
-0.0951035
-0.0829093
-0.0665063
-0.0499115
-0.0351545
-0.0228416
-0.0129759
-0.00526732
0.000238625
0.00215622
0.00303863
0.00307496
0.00264978
-0.00219702
-0.0119728
-0.0320522
-0.0636823
-0.0890463
-0.0971396
-0.0774958
-0.0537347
-0.0323782
-0.0152675
-0.00458851
0.0115357
0.0145245
0.0171771
0.00998023
-0.000863681
-0.211203
-0.22249
-0.220169
-0.210381
-0.199363
-0.18889
-0.177946
-0.165266
-0.15047
-0.133889
-0.116051
-0.0974094
-0.0783364
-0.0591969
-0.040375
-0.0222528
-0.00518829
0.0105002
0.0245091
0.0364025
0.0459813
0.0525899
0.0554484
0.0538867
0.0477777
0.0366413
0.0185134
-0.00793082
-0.0388745
-0.0654205
-0.0788262
-0.0789283
-0.0694514
-0.0561874
-0.0423632
-0.029672
-0.0187383
-0.00978423
-0.00268623
0.00261277
0.0046715
0.00567983
0.00575993
0.00547269
0.000773406
-0.00882767
-0.0281902
-0.0586157
-0.0834084
-0.0921091
-0.0733409
-0.0501706
-0.0294431
-0.012896
-0.00258044
0.0133441
0.016265
0.0190959
0.0112992
-0.000737995
-0.189909
-0.200328
-0.198931
-0.190536
-0.18058
-0.170971
-0.161097
-0.149863
-0.13682
-0.122164
-0.106334
-0.0897273
-0.0726625
-0.0554409
-0.0383895
-0.0218512
-0.00616306
0.00836583
0.0214241
0.0326357
0.0417437
0.0482005
0.0513195
0.0504282
0.0452712
0.0353998
0.0194413
-0.00317069
-0.0290001
-0.0509142
-0.0624448
-0.0633553
-0.0566118
-0.0463613
-0.0351378
-0.0244056
-0.0148044
-0.00672859
-0.00025646
0.00477761
0.00693538
0.00811438
0.00827782
0.00816842
0.00379212
-0.00535886
-0.0234996
-0.0524529
-0.0765813
-0.085745
-0.0681668
-0.0460597
-0.0262375
-0.0103924
-0.000511724
0.0149838
0.0178525
0.0208331
0.0125723
-0.000567418
-0.170235
-0.179857
-0.179054
-0.171868
-0.163033
-0.154386
-0.145569
-0.135673
-0.124236
-0.111355
-0.0973792
-0.0826555
-0.0674621
-0.0520536
-0.0367082
-0.0217289
-0.00742758
0.00590203
0.0179632
0.028417
0.0369547
0.0431314
0.0463668
0.0460625
0.0419125
0.0335435
0.0201299
0.00157765
-0.0192925
-0.0371181
-0.0472356
-0.0491726
-0.0448943
-0.0372888
-0.0283587
-0.0194131
-0.0110786
-0.00383878
0.00201656
0.00674115
0.00895103
0.0103255
0.0106453
0.0107324
0.00685948
-0.00154502
-0.0181468
-0.0453725
-0.0685135
-0.0780831
-0.0619859
-0.041427
-0.0228024
-0.00778979
0.00160665
0.0164313
0.0192524
0.0223488
0.0137656
-0.000344028
-0.152367
-0.160964
-0.160545
-0.154441
-0.146719
-0.139066
-0.131281
-0.122613
-0.112633
-0.10137
-0.0890984
-0.076116
-0.0626662
-0.0489667
-0.0352534
-0.0217897
-0.00885688
0.00326932
0.0143065
0.023943
0.0318678
0.0377023
0.0409738
0.0411819
0.0380198
0.0312114
0.0203689
0.00566338
-0.0107792
-0.025155
-0.034117
-0.0368832
-0.0345547
-0.029113
-0.0221266
-0.0147599
-0.00760371
-0.00114895
0.00412422
0.00851375
0.0107397
0.0123163
0.0128823
0.0131755
0.00993126
0.00243565
-0.0123938
-0.0374734
-0.059293
-0.0691992
-0.0548781
-0.0363271
-0.0191893
-0.00513013
0.00376193
0.0176708
0.0204451
0.0236032
0.0148488
-5.10991e-05
-0.135867
-0.143518
-0.14343
-0.1383
-0.131622
-0.12493
-0.118123
-0.110584
-0.101923
-0.0921318
-0.0814237
-0.0700483
-0.0582173
-0.0461176
-0.0339494
-0.0219398
-0.0103385
0.000599323
0.0106076
0.0194035
0.0266965
0.0321589
0.035409
0.0360448
0.0338003
0.0284985
0.0200192
0.00862125
-0.00413861
-0.0155807
-0.0234229
-0.0266217
-0.0256754
-0.021906
-0.0165084
-0.010494
-0.00440819
0.00131462
0.00605736
0.0101066
0.0123265
0.0140939
0.0149932
0.0155145
0.0129785
0.00650787
-0.00632734
-0.0289285
-0.0491559
-0.0572905
-0.0469832
-0.0308532
-0.0154607
-0.00246033
0.00593869
0.0187015
0.0214293
0.0245707
0.0158139
0.000335061
-0.120646
-0.127532
-0.127715
-0.123428
-0.117694
-0.111897
-0.106004
-0.0994992
-0.0920337
-0.0835772
-0.0742947
-0.0643941
-0.0540571
-0.0434441
-0.0327254
-0.0220961
-0.0117756
-0.00199413
0.00700621
0.0149691
0.021629
0.0267064
0.0298946
0.0308799
0.0294524
0.0254978
0.0190269
0.0103285
0.000576954
-0.00825965
-0.0150466
-0.0182954
-0.018219
-0.0156738
-0.0115354
-0.0066491
-0.0015116
0.00353301
0.00780215
0.0115282
0.0137322
0.015667
0.0169634
0.017791
0.016041
0.0107128
-4.53479e-05
-0.0200739
-0.0386723
-0.0468267
-0.0386866
-0.0251414
-0.0116866
0.000173083
0.00811512
0.0195453
0.0222315
0.0252466
0.0166724
0.000845381
-0.106831
-0.11296
-0.113315
-0.109754
-0.10487
-0.0998978
-0.0948453
-0.0892815
-0.0828962
-0.0756445
-0.0676546
-0.0590988
-0.0501319
-0.0408909
-0.0315206
-0.0221871
-0.0130809
-0.00440507
0.00362433
0.0107779
0.0168208
0.0215146
0.0246136
0.0258748
0.0251365
0.0223241
0.0175118
0.0109835
0.00364336
-0.002737
-0.00871109
-0.0116995
-0.0120778
-0.0103799
-0.00721184
-0.00324561
0.00107396
0.00549642
0.00934203
0.0127801
0.0149713
0.0170413
0.0187524
0.0200423
0.0191809
0.01507
0.00622619
-0.0113675
-0.0283134
-0.0363655
-0.0302925
-0.0193596
-0.00793965
0.00272887
0.0102583
0.0202536
0.0229109
0.0256505
0.0174524
0.00151755
-0.0942803
-0.0996626
-0.100139
-0.0972163
-0.0930983
-0.0888736
-0.0845825
-0.0798663
-0.0744496
-0.0682793
-0.0614539
-0.0541158
-0.0463961
-0.0384111
-0.0302828
-0.0221519
-0.0141815
-0.00654586
0.000562396
0.00694202
0.012393
0.0167119
0.0197
0.0211686
0.0209965
0.0191391
0.0156845
0.0108659
0.00524716
-0.000693859
-0.00422269
-0.00659078
-0.00711293
-0.00596236
-0.00352021
-0.000289864
0.00334215
0.00720291
0.010665
0.0138524
0.0160476
0.018222
0.0203054
0.022223
0.0223326
0.0194399
0.0121342
-0.00332802
-0.0185667
-0.0262744
-0.0221398
-0.0136979
-0.00429246
0.00517172
0.0123191
0.0209029
0.0235497
0.0258293
0.018195
0.00238725
-0.0828064
-0.0875557
-0.0881368
-0.0857686
-0.0823252
-0.078767
-0.0751563
-0.0711949
-0.0666398
-0.0614329
-0.0556488
-0.0494048
-0.0428109
-0.0359653
-0.0289699
-0.021942
-0.0150204
-0.00835497
-0.0021079
0.00354664
0.00843652
0.012391
0.0152503
0.0168692
0.0171561
0.0160858
0.0137415
0.0103214
0.00625729
0.00210165
-0.000798819
-0.00266542
-0.00316245
-0.00234171
-0.000426467
0.00222551
0.00529162
0.00865513
0.0117693
0.0147291
0.0169434
0.0192067
0.0215734
0.0241558
0.0251509
0.0233621
0.0171926
0.00359905
-0.00982879
-0.0169221
-0.0145458
-0.00835058
-0.000816665
0.0074673
0.0142272
0.0215712
0.0242261
0.0258558
0.0189365
0.0034639
-0.0724034
-0.0765967
-0.0772426
-0.0753396
-0.0724833
-0.0695148
-0.0665071
-0.063212
-0.0594167
-0.0550614
-0.0502013
-0.0449322
-0.039346
-0.0335246
-0.027552
-0.0215256
-0.0155607
-0.00978542
-0.00433598
0.000643143
0.00500777
0.0086137
0.0113311
0.0130484
0.013697
0.0132626
0.0118215
0.0095391
0.00674631
0.00388172
0.00169327
0.000300406
-7.58893e-05
0.00056852
0.00211437
0.00431954
0.00692687
0.00985799
0.0126587
0.0154009
0.0176305
0.0199585
0.0224924
0.0250664
0.0271226
0.0261822
0.0209178
0.00916782
-0.00235001
-0.00857658
-0.00778825
-0.00349287
0.00241802
0.00957534
0.0158972
0.0222948
0.0249921
0.0258119
0.0196705
0.00469279
-0.0630478
-0.066693
-0.0673573
-0.0658504
-0.0635085
-0.0610589
-0.0585806
-0.0558686
-0.0527374
-0.0491281
-0.0450809
-0.0406728
-0.0359799
-0.0310701
-0.0260124
-0.0208859
-0.0157848
-0.0108158
-0.00609495
-0.00173762
0.00213784
0.00541118
0.00797499
0.00974357
0.0106659
0.0107323
0.0100075
0.00862822
0.00684287
0.00496084
0.00344526
0.00249241
0.00228594
0.0028574
0.00415406
0.00601975
0.0082592
0.0108185
0.0133387
0.0158658
0.0180804
0.020428
0.0231132
0.0257162
0.0279627
0.0275191
0.023107
0.0133098
0.00366312
-0.00255437
-0.00208726
0.000753153
0.00534756
0.0114472
0.0172473
0.0230249
0.0258067
0.0257616
0.0203158
0.00592137
-0.0545712
-0.0577424
-0.0584116
-0.057238
-0.0553423
-0.0533453
-0.0513265
-0.0491191
-0.0465631
-0.0436015
-0.0402625
-0.0366078
-0.0326999
-0.0285937
-0.0243451
-0.0200181
-0.0156901
-0.0114471
-0.00738177
-0.00358988
-0.000167243
0.00278741
0.00518758
0.0069655
0.00808011
0.00852778
0.00835862
0.00767775
0.00667753
0.00555465
0.00462048
0.0040648
0.00404791
0.00461258
0.00574828
0.00735933
0.0093056
0.0115466
0.0138162
0.0161278
0.01827
0.0205558
0.0234634
0.0256164
0.0277029
0.0275104
0.0239276
0.0160899
0.00826503
0.00301643
0.00260974
0.0043419
0.00791755
0.0130377
0.0182213
0.0235995
0.0264882
0.025711
0.0207213
0.00691717
-0.0469194
-0.0496847
-0.0503503
-0.0494498
-0.0479271
-0.0463172
-0.0446938
-0.0429198
-0.0408577
-0.0384537
-0.0357263
-0.0327246
-0.0294995
-0.0260951
-0.0225559
-0.0189328
-0.0152875
-0.0116896
-0.00821429
-0.00493576
-0.00192828
0.000725121
0.00295325
0.00470268
0.00594017
0.00666333
0.00691096
0.00676227
0.00633991
0.00580669
0.00535752
0.00515105
0.00532162
0.00591759
0.00695399
0.00837494
0.0100878
0.0120579
0.0140993
0.0161974
0.0182001
0.0202302
0.0220024
0.0247972
0.0266648
0.0265865
0.0237537
0.0176995
0.0115186
0.00720352
0.00631661
0.00727798
0.01008
0.0143119
0.0188156
0.0238107
0.026748
0.025531
0.0206947
0.00747537
-0.0400466
-0.0424473
-0.0430981
-0.042419
-0.0412036
-0.0399232
-0.0386369
-0.0372314
-0.0355895
-0.0336609
-0.0314569
-0.0290158
-0.0263786
-0.0235813
-0.0206584
-0.0176491
-0.0146018
-0.0115727
-0.00862324
-0.00581007
-0.00317828
-0.00080906
0.00124007
0.00292865
0.00422947
0.00513888
0.0056841
0.00592245
0.00593567
0.00584153
0.00577878
0.0058637
0.00620499
0.00684968
0.00782704
0.00910558
0.0106314
0.0123713
0.0142021
0.0160937
0.0179389
0.0197973
0.0215815
0.0237198
0.0252177
0.025175
0.0229756
0.018425
0.01365
0.0101878
0.00912684
0.00959835
0.0117999
0.0152375
0.0190595
0.0235249
0.0263803
0.0249619
0.020055
0.00753164
-0.0338757
-0.0359502
-0.0365783
-0.0360956
-0.0351524
-0.0341312
-0.0331197
-0.0320207
-0.0307306
-0.0292026
-0.0274422
-0.0254784
-0.0233435
-0.0210655
-0.0186717
-0.0161917
-0.0136629
-0.0111308
-0.00864756
-0.00627163
-0.00396095
-0.00185844
6.05484e-06
0.0016056
0.00291858
0.00393908
0.00468339
0.00518896
0.0055196
0.00575133
0.00598279
0.00629822
0.00678351
0.00747917
0.00842094
0.00959108
0.0109642
0.0125078
0.0141453
0.0158404
0.0175155
0.0191975
0.0208132
0.0224709
0.0236105
0.0235751
0.0218964
0.0185514
0.0149261
0.0122159
0.0111707
0.0113528
0.0130649
0.0157998
0.0189648
0.0227033
0.0252386
0.0237772
0.0187487
0.00716677
-0.0283316
-0.0301212
-0.0307187
-0.0303893
-0.0296705
-0.0288896
-0.028107
-0.0272552
-0.026255
-0.0250606
-0.023672
-0.0221113
-0.0204022
-0.0185657
-0.0166223
-0.014594
-0.0125082
-0.0103956
-0.00828796
-0.00620413
-0.0042895
-0.00246768
-0.000798407
0.000687643
0.00196968
0.00303924
0.00390394
0.00458883
0.00513633
0.00559888
0.0060444
0.00653276
0.00713036
0.00786928
0.00878609
0.00987028
0.0111155
0.0124913
0.0139522
0.0154613
0.016958
0.0184481
0.0198466
0.0211458
0.0219925
0.0219643
0.0207053
0.0182948
0.0155854
0.0135043
0.0125738
0.0125942
0.0138943
0.0160056
0.0185541
0.0214334
0.0234426
0.0219737
0.0169153
0.006519
-0.0233632
-0.0249045
-0.0254672
-0.0252604
-0.0247264
-0.0241396
-0.0235562
-0.0229184
-0.0221525
-0.0212265
-0.0201391
-0.018918
-0.0175667
-0.0161024
-0.0145409
-0.0128985
-0.0111953
-0.00945461
-0.00770514
-0.00597665
-0.00430712
-0.00272023
-0.00123645
0.000123502
0.00134172
0.00241306
0.00333774
0.00412945
0.00481469
0.0054296
0.00602103
0.00663011
0.00730707
0.00807555
0.00896924
0.00998113
0.011116
0.0123466
0.0136466
0.0149817
0.0163022
0.0175991
0.0187824
0.0198125
0.0204432
0.0204319
0.0195052
0.0178011
0.0158084
0.0142339
0.0134495
0.0133824
0.0143322
0.0158896
0.017868
0.0198817
0.02125
0.019754
0.0148191
0.00572493
-0.0189194
-0.0202426
-0.0207673
-0.0206574
-0.0202741
-0.019846
-0.0194231
-0.018959
-0.0183951
-0.0177014
-0.0168759
-0.0159182
-0.0148559
-0.0136992
-0.0124569
-0.0111403
-0.00976332
-0.00834299
-0.00690054
-0.00545741
-0.0040378
-0.00266304
-0.00135368
-0.000126592
0.0010062
0.00204012
0.00297266
0.00381087
0.00457066
0.00527512
0.00595577
0.00663997
0.00736461
0.00814598
0.00901299
0.00995979
0.0109962
0.012099
0.0132532
0.0144283
0.0155821
0.0166981
0.0176896
0.0185185
0.0189993
0.0190137
0.0183479
0.0171637
0.0157207
0.0145456
0.0139033
0.0137825
0.0144359
0.0155093
0.0169597
0.0182069
0.0189181
0.017376
0.0127147
0.00489817
-0.0149477
-0.016081
-0.0165672
-0.0165329
-0.0162715
-0.015972
-0.0156781
-0.0153531
-0.0149484
-0.014437
-0.0138144
-0.0130882
-0.0122699
-0.0113686
-0.0103928
-0.00935056
-0.00825111
-0.00710293
-0.00592315
-0.00472665
-0.00353287
-0.00235753
-0.00121638
-0.000122477
0.000912659
0.00188361
0.00278728
0.00362732
0.00441246
0.00515661
0.00588027
0.00660079
0.00734439
0.00812137
0.00895486
0.00983945
0.0107859
0.0117746
0.012797
0.0138271
0.0148287
0.0157836
0.0166132
0.017292
0.0176734
0.0177163
0.0172543
0.0164439
0.015412
0.0145443
0.0140244
0.0138616
0.0142657
0.0149278
0.0158988
0.0165223
0.0166377
0.0150438
0.0107675
0.00411821
-0.0114035
-0.0123726
-0.0128204
-0.012844
-0.0126802
-0.0124841
-0.0122934
-0.0120792
-0.0118018
-0.0114377
-0.0109824
-0.0104414
-0.00982252
-0.00913202
-0.00837518
-0.00755728
-0.00668602
-0.00577288
-0.00482657
-0.00383862
-0.00284309
-0.00184881
-0.000867136
9.18197e-05
0.00101873
0.00190869
0.00275798
0.0035674
0.00434104
0.00508652
0.00581663
0.00654161
0.0072793
0.00803553
0.00882744
0.0096499
0.0105125
0.0113986
0.012302
0.0132022
0.0140689
0.0148847
0.015582
0.0161477
0.0164641
0.0165329
0.0162267
0.0156815
0.0149514
0.0143097
0.0138858
0.0136808
0.0138812
0.0142053
0.0147514
0.014895
0.0145261
0.0128878
0.00905293
0.00342801
-0.00824738
-0.00907426
-0.00948446
-0.00955155
-0.00946506
-0.00935135
-0.00924247
-0.00911594
-0.00893935
-0.00869294
-0.00837196
-0.00797999
-0.00752248
-0.00700365
-0.00642659
-0.00579417
-0.00511074
-0.00438151
-0.00361157
-0.00282607
-0.00201446
-0.00118765
-0.000356381
0.00047085
0.00128587
0.002084
0.00286139
0.00361716
0.00435244
0.00507071
0.00577926
0.00648346
0.00719481
0.00791576
0.00865835
0.00941749
0.0102001
0.0109928
0.0117901
0.0125755
0.0133236
0.0140211
0.0146119
0.0150903
0.0153635
0.0154532
0.0152621
0.0148998
0.0143853
0.0139034
0.0135537
0.0132983
0.0133373
0.0133944
0.0135748
0.0133668
0.012642
0.0109768
0.00758813
0.00284221
-0.0054427
-0.0061468
-0.00652089
-0.0066199
-0.00659413
-0.00654547
-0.00650082
-0.00644284
-0.00634536
-0.00619185
-0.00597769
-0.00570503
-0.00537763
-0.00499824
-0.00456868
-0.00409051
-0.00356634
-0.00299995
-0.00239678
-0.00176353
-0.00110433
-0.000424072
0.000270477
0.000973109
0.00167724
0.00237866
0.00307368
0.0037607
0.00443913
0.00510979
0.00577626
0.00644062
0.00710971
0.00778366
0.00847007
0.00916411
0.00986966
0.0105764
0.011279
0.0119633
0.0126084