/*--------------------------------*- C++ -*----------------------------------*\
| =========                 |                                                 |
| \\      /  F ield         | OpenFOAM: The Open Source CFD Toolbox           |
|  \\    /   O peration     | Version:  2512                                  |
|   \\  /    A nd           | Website:  www.openfoam.com                      |
|    \\/     M anipulation  |                                                 |
\*---------------------------------------------------------------------------*/
FoamFile
{
    version     2.0;
    format      ascii;
    arch        "LSB;label=32;scalar=64";
    class       volVectorField;
    location    "132.25";
    object      U;
}
// * * * * * * * * * * * * * * * * * * * * * * * * * * * * * * * * * * * * * //

dimensions      [0 1 -1 0 0 0 0];

internalField   nonuniform List<vector> 
13248
(
(-0.0144032 0.0126781 8.26803e-20)
(-0.0269649 0.0265612 0)
(-0.0234952 0.0338106 -1.55936e-19)
(-0.0041104 0.0368561 1.46891e-19)
(0.0311463 0.0373617 1.37095e-19)
(0.0821678 0.0364784 0)
(0.148634 0.0350172 0)
(0.229811 0.0335533 3.282e-19)
(0.324329 0.0324639 -1.19703e-21)
(0.430014 0.0319307 -2.87423e-19)
(0.543824 0.0319361 2.68942e-19)
(0.661951 0.03227 -1.68218e-19)
(0.780061 0.0325621 0)
(0.893648 0.0323386 -2.9724e-19)
(0.998445 0.0310976 5.57655e-19)
(1.09082 0.0283902 -1.33051e-19)
(1.1681 0.0238954 -2.4203e-19)
(1.22884 0.0174543 2.27228e-19)
(1.27288 0.00916059 0)
(1.30121 -0.00101173 0)
(1.316 -0.0119176 0)
(1.31925 -0.0263129 0)
(1.31444 -0.0350257 6.84697e-20)
(1.30161 -0.0642503 2.45525e-19)
(-0.0146028 0.0116019 -2.49701e-19)
(-0.0221274 0.0217998 1.70205e-19)
(-0.00895597 0.025466 -1.68262e-21)
(0.0239493 0.025509 -2.2468e-19)
(0.0760208 0.0239467 -1.36945e-19)
(0.146584 0.02219 -1.29692e-19)
(0.234438 0.0211733 -2.37266e-19)
(0.33753 0.0214538 2.24958e-19)
(0.452734 0.0232522 0)
(0.575847 0.0264665 6.09896e-22)
(0.701823 0.030699 1.62768e-21)
(0.825229 0.0353206 1.68674e-19)
(0.940801 0.0395713 0)
(1.044 0.0426828 0)
(1.13148 0.0440004 2.03454e-19)
(1.20135 0.04308 -3.8251e-19)
(1.25327 0.0397412 2.30885e-19)
(1.28836 0.0340718 -2.16782e-19)
(1.30879 0.0263727 -9.55589e-20)
(1.31745 0.0171146 -1.76058e-19)
(1.31728 0.00680564 -7.26708e-20)
(1.31105 -0.00414951 -1.37033e-19)
(1.30056 -0.0137074 2.00642e-19)
(1.28824 -0.0274355 5.68548e-20)
(-0.013478 0.00987028 0)
(-0.012965 0.0161278 0)
(0.0134481 0.0169493 7.95129e-20)
(0.0637237 0.0153266 7.31065e-20)
(0.136367 0.0134255 -1.91509e-21)
(0.229525 0.0127739 -1.34779e-19)
(0.340323 0.014264 0)
(0.46455 0.018223 -1.11828e-19)
(0.596681 0.0244683 1.05704e-19)
(0.730288 0.0323741 1.11784e-21)
(0.858747 0.040993 -1.80941e-19)
(0.976047 0.049229 -1.66912e-19)
(1.0775 0.0560313 2.27379e-21)
(1.16024 0.0605655 -1.40185e-19)
(1.22332 0.0623292 3.35084e-19)
(1.26766 0.0611908 0)
(1.29554 0.0573559 -2.20453e-19)
(1.31012 0.051268 1.07333e-19)
(1.31479 0.0435287 9.54884e-20)
(1.31259 0.0346594 0)
(1.30603 0.0254872 7.86021e-20)
(1.29663 0.0156279 -2.67669e-19)
(1.28567 0.00808441 2.51279e-19)
(1.27376 -0.00466272 1.56308e-19)
(-0.0105362 0.0074443 -8.85851e-20)
(0.00162439 0.00952716 -9.16848e-20)
(0.0450129 0.00834211 8.27385e-20)
(0.116236 0.00657653 0)
(0.212308 0.00628068 0)
(0.329396 0.00885241 -3.37579e-21)
(0.462083 0.0148428 0)
(0.603355 0.0240168 -3.44493e-19)
(0.7452 0.0354904 3.20215e-19)
(0.879624 0.0479419 -3.9522e-19)
(0.99977 0.0598906 9.06427e-20)
(1.10081 0.0699856 0)
(1.18038 0.0772351 1.52067e-19)
(1.23857 0.0811288 -2.82088e-19)
(1.27742 0.0816397 6.71972e-20)
(1.30027 0.0791285 1.74029e-19)
(1.31095 0.0741916 -6.95026e-21)
(1.31309 0.0675098 -1.93413e-19)
(1.30967 0.0597131 0)
(1.30286 0.0513492 0)
(1.29405 0.0428295 -6.9775e-20)
(1.28402 0.0342934 6.26346e-20)
(1.27331 0.0271136 2.253e-19)
(1.26225 0.0165251 -2.11546e-19)
(-0.00535802 0.00448604 -9.36185e-20)
(0.0225681 0.00245476 -9.33086e-20)
(0.0866902 0.000380539 2.62268e-19)
(0.181858 0.000261405 -1.59141e-19)
(0.302849 0.00368894 1.49788e-19)
(0.442953 0.0115512 2.7201e-19)
(0.593521 0.0236356 -1.92505e-19)
(0.744685 0.038774 -2.34513e-19)
(0.886758 0.0551924 4.60753e-21)
(1.01176 0.0709438 2.99547e-19)
(1.11453 0.0843268 0)
(1.19311 0.0941836 8.27234e-20)
(1.24849 0.100018 0)
(1.28378 0.101941 -1.3576e-19)
(1.30319 0.100493 1.91085e-19)
(1.31109 0.0964275 2.00701e-21)
(1.31131 0.090522 -5.04072e-20)
(1.30678 0.0834498 9.50895e-20)
(1.29952 0.0757373 8.1878e-20)
(1.29075 0.0677532 -7.36235e-20)
(1.28116 0.0597924 6.976e-20)
(1.27112 0.0519098 -6.262e-20)
(1.26084 0.0449366 0)
(1.25049 0.035624 -4.73018e-20)
(0.00241117 0.00130284 9.3605e-20)
(0.0505537 -0.004237 9.84416e-20)
(0.13893 -0.00564304 -8.79472e-20)
(0.260062 -0.00203818 1.64181e-19)
(0.405618 0.00724375 -1.54523e-19)
(0.565251 0.0220682 1.39867e-19)
(0.726979 0.0410011 -6.72468e-20)
(0.878968 0.0617136 1.76038e-19)
(1.01161 0.0816521 -1.10846e-19)
(1.119 0.0986507 1.9637e-19)
(1.19933 0.111324 -4.5335e-19)
(1.25431 0.119178 1.66644e-19)
(1.28798 0.122473 -1.46282e-19)
(1.3054 0.121954 1.37409e-19)
(1.31147 0.118554 1.1924e-19)
(1.31029 0.113172 1.05164e-19)
(1.30486 0.106543 -2.92493e-19)
(1.29712 0.0992091 1.81756e-19)
(1.28823 0.0915404 -8.18829e-20)
(1.27882 0.0837897 2.13981e-19)
(1.26919 0.0761216 -6.90971e-20)
(1.25945 0.0686463 -1.68543e-19)
(1.24968 0.0617481 1.55659e-19)
(1.23989 0.0533951 4.72886e-20)
(0.0130564 -0.00169838 0)
(0.0859368 -0.00943245 9.60817e-22)
(0.201477 -0.00812359 1.84672e-19)
(0.34916 0.0014511 -1.73082e-19)
(0.516741 0.0184285 -1.56315e-19)
(0.689992 0.0410929 2.90541e-19)
(0.854438 0.0664925 -1.3494e-19)
(0.998128 0.0912615 1.79709e-19)
(1.11372 0.112554 -3.93271e-21)
(1.19905 0.12861 -1.01852e-19)
(1.2563 0.138866 2.22295e-19)
(1.29035 0.143724 -3.28289e-19)
(1.3071 0.144157 0)
(1.31212 0.141322 -6.46758e-20)
(1.30989 0.136282 -1.73213e-19)
(1.30359 0.129874 5.44057e-20)
(1.29524 0.122691 2.09447e-21)
(1.28599 0.115122 -1.20754e-19)
(1.27643 0.107415 7.19531e-21)
(1.26682 0.0997311 1.39839e-19)
(1.25727 0.0921798 -6.26863e-20)
(1.24779 0.0848527 -2.38425e-20)
(1.23837 0.0778581 7.34488e-20)
(1.22898 0.0701432 0)
(0.0267557 -0.00404266 0)
(0.128622 -0.0118874 5.00901e-20)
(0.273196 -0.00541226 -2.4098e-19)
(0.446221 0.0122929 8.77856e-20)
(0.631122 0.0381611 -8.26173e-20)
(0.810427 0.0684804 -7.55656e-20)
(0.968993 0.0988629 -1.33459e-19)
(1.09706 0.125449 6.66653e-20)
(1.19132 0.145815 5.79103e-20)
(1.25399 0.159169 0)
(1.29067 0.166008 1.32026e-19)
(1.3082 0.167559 -1.96727e-19)
(1.31296 0.165262 1.46457e-19)
(1.31004 0.160412 6.47114e-20)
(1.30296 0.154009 -5.32717e-20)
(1.29392 0.146736 -4.47798e-20)
(1.28415 0.139029 -4.19283e-20)
(1.27424 0.13115 1.2496e-19)
(1.26445 0.12326 0)
(1.25488 0.115465 6.31956e-20)
(1.24553 0.107843 5.34014e-20)
(1.23635 0.100462 -1.3234e-19)
(1.2273 0.0933089 -9.08745e-20)
(1.21832 0.0860227 8.39665e-20)
(0.0435266 -0.00521008 -5.40392e-20)
(0.177957 -0.0103507 -2.08525e-21)
(0.352026 0.00394413 4.90954e-20)
(0.547278 0.0315344 1.3746e-19)
(0.743142 0.0665693 4.00158e-20)
(0.920532 0.103293 -7.72877e-20)
(1.06602 0.136427 7.05553e-20)
(1.17401 0.162433 -6.18085e-20)
(1.24603 0.179973 1.10776e-19)
(1.28815 0.189513 4.71948e-20)
(1.30822 0.192548 -1.34009e-19)
(1.31369 0.190879 3.95181e-20)
(1.31051 0.186131 6.76513e-20)
(1.30277 0.179544 -3.3237e-20)
(1.29298 0.171952 0)
(1.28254 0.16387 4.99023e-20)
(1.27209 0.155594 8.47466e-20)
(1.26192 0.147298 1.47016e-20)
(1.25211 0.139085 -7.08252e-20)
(1.24266 0.131029 2.97619e-20)
(1.23351 0.123187 0)
(1.22462 0.11559 -2.34959e-20)
(1.2159 0.108196 -2.22729e-20)
(1.20727 0.101082 0)
(0.0631669 -0.00466654 0)
(0.232679 -0.00368589 2.83193e-20)
(0.435075 0.0210123 5.2515e-20)
(0.647787 0.0595466 -1.40234e-19)
(0.847513 0.103021 4.53147e-20)
(1.01589 0.144089 0)
(1.14347 0.177484 6.80595e-20)
(1.22988 0.2008 -9.50188e-20)
(1.28118 0.214191 -5.53389e-20)
(1.30621 0.219375 2.49937e-20)
(1.31377 0.218599 -4.01369e-20)
(1.31097 0.213947 9.73842e-20)
(1.30278 0.207013 4.88996e-20)
(1.29225 0.198865 -3.39107e-20)
(1.28103 0.190148 -3.10975e-21)
(1.26991 0.181221 -9.35704e-20)
(1.2592 0.172282 4.26583e-20)
(1.24899 0.16344 -1.04721e-21)
(1.23929 0.154765 0)
(1.23003 0.146309 -2.9793e-20)
(1.22115 0.138109 0)
(1.21257 0.130166 6.7797e-20)
(1.20421 0.122487 -8.0826e-20)
(1.19594 0.115349 3.68822e-20)
(0.0852166 -0.00190414 -1.47739e-20)
(0.290935 0.00901681 -7.15281e-20)
(0.518873 0.0463494 8.14116e-20)
(0.743184 0.0960107 4.79e-20)
(0.939937 0.146313 -2.28753e-20)
(1.09398 0.189248 3.84268e-20)
(1.20132 0.220567 -1.86637e-20)
(1.26692 0.239591 3.10493e-20)
(1.30039 0.248071 0)
(1.31208 0.24876 7.04519e-20)
(1.31071 0.244356 -2.8547e-21)
(1.30251 0.236975 -5.69529e-20)
(1.29133 0.228044 2.4449e-20)
(1.27928 0.218417 -2.76789e-20)
(1.26736 0.20856 -1.06191e-20)
(1.25597 0.198715 1.21667e-20)
(1.24523 0.189004 -9.47e-21)
(1.23514 0.179499 -5.14449e-20)
(1.22563 0.170246 3.15529e-20)
(1.21664 0.16128 6.5023e-21)
(1.20807 0.152614 5.74261e-21)
(1.19984 0.144239 5.07339e-21)
(1.19184 0.136232 0)
(1.18393 0.128849 0)
(0.10903 0.00352479 1.47841e-20)
(0.35053 0.0283624 -1.4816e-20)
(0.599861 0.0799512 -2.71427e-20)
(0.829521 0.140012 0)
(1.01749 0.194928 -1.13625e-20)
(1.15387 0.237228 -1.02291e-20)
(1.24073 0.264549 -1.75049e-20)
(1.28766 0.27823 0)
(1.30663 0.281472 0)
(1.3084 0.27776 0)
(1.30097 0.26996 0)
(1.28941 0.260049 0)
(1.27657 0.249221 -1.54044e-20)
(1.2638 0.238119 7.02482e-21)
(1.25165 0.227061 1.22355e-20)
(1.24028 0.2162 5.71747e-21)
(1.22971 0.205609 1.42273e-20)
(1.21986 0.195331 0)
(1.21067 0.185394 -3.44228e-21)
(1.20204 0.175818 -3.28083e-21)
(1.19388 0.166597 -5.75174e-21)
(1.18607 0.157735 -5.08148e-21)
(1.17851 0.149367 0)
(1.17107 0.141575 3.68371e-21)
(-0.00193794 0.0408458 9.34284e-21)
(-0.0068319 0.103534 -9.6487e-21)
(-0.0144896 0.151304 -1.82114e-20)
(-0.0241132 0.186294 0)
(-0.035028 0.210848 -2.42719e-20)
(-0.0466816 0.227492 7.5959e-21)
(-0.058538 0.238601 -1.44597e-20)
(-0.0701207 0.246118 0)
(-0.0810456 0.25141 0)
(-0.0910191 0.255255 0)
(-0.0998204 0.257927 0)
(-0.107278 0.259321 0)
(-0.113246 0.259077 -4.62924e-23)
(-0.117591 0.256686 -9.95811e-21)
(-0.120177 0.251561 1.94777e-20)
(-0.120868 0.243091 2.79069e-20)
(-0.119529 0.230675 9.22622e-21)
(-0.116028 0.213757 0)
(-0.110246 0.191864 8.08374e-21)
(-0.10211 0.164681 -2.33861e-20)
(-0.0915474 0.131968 -1.51097e-20)
(-0.0784843 0.0937999 -1.44093e-20)
(-0.0629108 0.0505387 0)
(-0.0451793 0.0032403 0)
(-0.0040725 0.0418627 -2.81676e-20)
(-0.010933 0.107052 4.8344e-20)
(-0.0178535 0.15753 -1.84082e-20)
(-0.0251535 0.195055 -3.45347e-20)
(-0.0327997 0.221676 4.87043e-20)
(-0.040586 0.239737 -3.07928e-20)
(-0.048195 0.251554 4.34157e-20)
(-0.0552643 0.259103 2.76172e-20)
(-0.0614387 0.26384 0)
(-0.0663992 0.266655 -2.49722e-20)
(-0.0698722 0.26792 -6.58263e-22)
(-0.0716287 0.267608 2.2011e-20)
(-0.0714764 0.265409 3.23163e-20)
(-0.0692527 0.260842 4.16312e-20)
(-0.0648192 0.253339 -1.85781e-20)
(-0.0580624 0.242303 -5.61686e-20)
(-0.0488975 0.22715 1.90903e-20)
(-0.0372628 0.207346 -7.04195e-20)
(-0.0230687 0.182443 0)
(-0.0064336 0.152091 1.57702e-20)
(0.0125492 0.116104 1.50831e-20)
(0.0339032 0.0745354 1.43836e-20)
(0.0577576 0.0278533 0)
(0.0847654 -0.0225233 0)
(-0.00610728 0.0408668 0)
(-0.0150247 0.106038 9.82433e-20)
(-0.0214048 0.157801 -3.69983e-20)
(-0.0264634 0.197174 3.47159e-20)
(-0.0307069 0.225659 -9.85104e-20)
(-0.0342515 0.245225 0)
(-0.0370156 0.257963 -5.87109e-20)
(-0.0387898 0.265769 2.7632e-20)
(-0.039293 0.270122 -5.2696e-20)
(-0.0382223 0.271996 2.52435e-20)
(-0.0352865 0.271879 1.4398e-19)
(-0.0302265 0.269853 -6.77341e-20)
(-0.0228248 0.265703 -1.09924e-19)
(-0.0129091 0.259029 -4.40252e-20)
(-0.000353172 0.249327 -2.03149e-21)
(0.0149218 0.236059 1.55545e-19)
(0.0329456 0.218698 -7.40012e-20)
(0.0536991 0.196767 -8.37332e-22)
(0.077124 0.169861 0)
(0.103102 0.137621 -6.80759e-20)
(0.131459 0.0999227 0)
(0.162018 0.0567408 -6.2655e-20)
(0.194666 0.00850775 2.37111e-19)
(0.232305 -0.0436262 9.31532e-22)
(-0.00779579 0.0381456 0)
(-0.0186547 0.100886 3.41705e-22)
(-0.0247847 0.152314 3.73823e-20)
(-0.0279434 0.192524 -3.51738e-20)
(-0.0289997 0.222341 3.28532e-20)
(-0.0283234 0.243225 1.86744e-19)
(-0.0260579 0.256919 -5.86315e-20)
(-0.0221739 0.265124 -5.55886e-20)
(-0.0165134 0.26926 1.05368e-19)
(-0.00884536 0.270344 -1.51191e-19)
(0.00108639 0.268962 4.72618e-20)
(0.0135264 0.265321 4.57191e-20)
(0.0286834 0.259335 0)
(0.0467162 0.250717 4.20426e-20)
(0.0677271 0.239067 0)
(0.0917599 0.223936 7.84581e-20)
(0.118802 0.204876 -1.54099e-19)
(0.148788 0.181472 3.20812e-20)
(0.181602 0.153373 1.39908e-19)
(0.217122 0.120255 6.79888e-20)
(0.255147 0.0820141 0)
(0.295756 0.0386007 -1.90542e-19)
(0.337248 -0.00967689 5.95617e-20)
(0.388264 -0.0618635 0)
(-0.00899273 0.0341866 0)
(-0.0215182 0.0924442 -1.1947e-19)
(-0.0277385 0.141852 -3.73557e-20)
(-0.0295371 0.181602 -7.03582e-20)
(-0.027926 0.211846 6.62438e-20)
(-0.0234277 0.233508 -6.22366e-20)
(-0.0163703 0.247911 1.17805e-19)
(-0.00690954 0.256478 5.62901e-20)
(0.00495326 0.260493 -1.57541e-19)
(0.019325 0.26095 1.00796e-19)
(0.0363713 0.258497 -1.4348e-19)
(0.0562738 0.25345 3.19846e-19)
(0.0791973 0.245853 -1.7316e-19)
(0.10527 0.235549 8.36315e-20)
(0.134572 0.222258 2.45024e-19)
(0.16714 0.205632 -7.38768e-20)
(0.202962 0.185305 -7.06971e-20)
(0.242014 0.160906 -7.15587e-20)
(0.284154 0.132114 0)
(0.329403 0.09876 -1.3852e-19)
(0.377467 0.0606488 -1.36111e-19)
(0.429462 0.0178507 1.87297e-19)
(0.479696 -0.0297433 2.42151e-19)
(0.547083 -0.0806603 -2.26154e-19)
(-0.00968757 0.0295862 0)
(-0.0235301 0.0818719 -1.60331e-19)
(-0.0301691 0.127673 3.49118e-22)
(-0.0312259 0.165485 1.41431e-19)
(-0.0276432 0.194929 0)
(-0.0199871 0.216453 0)
(-0.00870842 0.230971 0)
(0.00587518 0.239592 -5.58187e-20)
(0.023595 0.243404 -8.36693e-22)
(0.044407 0.243318 9.87511e-20)
(0.0683532 0.239988 -1.44162e-19)
(0.0955245 0.233799 -1.27273e-21)
(0.12603 0.2249 0)
(0.159977 0.213248 -8.35869e-20)
(0.197453 0.198676 8.1722e-20)
(0.238553 0.18091 -2.28815e-19)
(0.283311 0.159664 3.00505e-19)
(0.331798 0.134663 7.79204e-20)
(0.384135 0.105647 7.78465e-21)
(0.440427 0.0724673 -2.65295e-19)
(0.499562 0.0347366 -1.27367e-19)
(0.564784 -0.00674748 4.32777e-19)
(0.623983 -0.0531738 -2.89465e-19)
(0.709013 -0.101297 0)
(-0.0100084 0.0249596 7.86398e-20)
(-0.0248398 0.0704638 8.03167e-20)
(-0.0321428 0.111338 -7.54165e-20)
(-0.0329914 0.14573 -1.40901e-19)
(-0.0281017 0.17296 1.32656e-19)
(-0.0179923 0.193145 -1.23946e-19)
(-0.00316759 0.206862 1.74657e-19)
(0.0159432 0.214927 -5.57505e-20)
(0.039036 0.218212 1.03282e-19)
(0.0659357 0.217499 0)
(0.096579 0.213398 9.38285e-20)
(0.13099 0.206313 -1.74756e-19)
(0.169255 0.19645 1.71756e-19)
(0.21153 0.183826 -1.61306e-19)
(0.257948 0.168363 0)
(0.308705 0.149904 1.51184e-19)
(0.364037 0.128237 2.94424e-19)
(0.424051 0.103123 -2.78013e-19)
(0.488626 0.0742955 -1.33918e-19)
(0.558016 0.0417958 -1.35793e-19)
(0.629957 0.00506373 3.75453e-19)
(0.709243 -0.0337499 1.18519e-19)
(0.777108 -0.0779784 -1.09871e-19)
(0.876339 -0.120362 1.02303e-19)
(-0.0101904 0.020846 -7.86508e-20)
(-0.0257688 0.0594392 2.41311e-19)
(-0.0338042 0.0944657 -7.59953e-20)
(-0.0346948 0.124151 1.40811e-19)
(-0.0288549 0.147789 -1.32571e-19)
(-0.0166987 0.165348 5.7974e-23)
(0.00128506 0.177187 5.79509e-20)
(0.0246318 0.183893 2.16538e-19)
(0.0529809 0.186142 6.51861e-22)
(0.0861068 0.184573 -9.67714e-20)
(0.123924 0.179717 0)
(0.166477 0.171944 -8.78353e-20)
(0.213871 0.161456 1.65167e-19)
(0.266335 0.148365 1.61448e-19)
(0.324179 0.132646 -7.57593e-20)
(0.387549 0.114171 -1.80709e-21)
(0.456478 0.0927547 -7.20822e-20)
(0.530863 0.0682668 1.34974e-19)
(0.610041 0.0405686 1.33898e-19)
(0.693576 0.0101329 -1.28578e-19)
(0.777892 -0.0239899 1.17762e-19)
(0.867299 -0.0580105 -1.11119e-19)
(0.940409 -0.0982425 0)
(1.04189 -0.131297 -1.02293e-19)
(-0.0105066 0.0176202 7.87978e-20)
(-0.0266617 0.0497358 -8.06745e-20)
(-0.0351871 0.0784683 7.57355e-20)
(-0.0358552 0.102545 0)
(-0.028786 0.121501 0)
(-0.0142608 0.135339 1.22571e-19)
(0.00731733 0.144333 -1.15553e-19)
(0.0355495 0.148935 1.07254e-19)
(0.0701337 0.149671 -5.06246e-19)
(0.11091 0.147053 -4.49055e-22)
(0.157857 0.141517 8.97568e-20)
(0.211076 0.13339 0)
(0.270774 0.122892 -1.64982e-19)
(0.337057 0.110118 3.12975e-19)
(0.40992 0.0950235 -2.24248e-19)
(0.489169 0.077548 -3.64449e-19)
(0.574176 0.0576418 -6.31383e-21)
(0.663861 0.0353179 2.58455e-19)
(0.756461 0.0105536 0)
(0.850133 -0.0159597 0)
(0.940652 -0.0452419 -1.17767e-19)
(1.02952 -0.072738 1.11126e-19)
(1.09941 -0.106956 -3.9979e-19)
(1.18454 -0.129085 3.74386e-19)
(-0.0111664 0.0154225 0)
(-0.0276768 0.0418482 0)
(-0.0359668 0.0643163 -2.26943e-19)
(-0.0353944 0.0824013 7.23582e-20)
(-0.0258546 0.0960912 1.29019e-21)
(-0.00748265 0.105578 1.23918e-19)
(0.0194728 0.111178 0)
(0.0547739 0.113296 -1.07321e-19)
(0.0982647 0.112373 1.00939e-19)
(0.149892 0.108837 -1.88995e-19)
(0.209672 0.103051 -7.08488e-22)
(0.277584 0.0952826 1.70399e-19)
(0.353477 0.0857001 2.35937e-21)
(0.436939 0.0743529 1.57831e-19)
(0.527118 0.0612638 -2.18505e-19)
(0.622678 0.0464054 0)
(0.721716 0.0297604 2.71429e-19)
(0.821776 0.0113586 -3.85467e-19)
(0.919929 -0.00870914 1.19286e-19)
(1.01308 -0.0299839 0)
(1.09742 -0.052936 1.05118e-19)
(1.17184 -0.0741253 4.02953e-19)
(1.22698 -0.101267 -3.78206e-19)
(1.28088 -0.114751 -4.18555e-19)
(-0.0122057 0.014124 2.37852e-19)
(-0.0285924 0.0357481 -3.26289e-19)
(-0.0352779 0.0523906 1.23425e-21)
(-0.0315299 0.0646667 7.21733e-20)
(-0.0171258 0.0731415 -1.33388e-19)
(0.00793693 0.0783024 -1.23455e-19)
(0.0435834 0.0805994 2.29338e-19)
(0.0897344 0.0804706 -1.68354e-21)
(0.146309 0.0783352 -2.01421e-19)
(0.213153 0.0745608 3.77804e-19)
(0.289932 0.0694341 1.09307e-21)
(0.375989 0.063147 -1.67537e-19)
(0.470203 0.0557934 0)
(0.570893 0.0473702 0)
(0.675784 0.0378116 -7.29039e-20)
(0.782053 0.0270107 -1.35797e-19)
(0.886473 0.0148765 -2.62315e-19)
(0.985583 0.0013177 2.46228e-19)
(1.07604 -0.0135355 -1.19356e-19)
(1.15477 -0.0297473 2.175e-19)
(1.21949 -0.0467736 -1.07393e-19)
(1.26912 -0.0639392 1.83443e-19)
(1.30146 -0.0843237 -4.32919e-19)
(1.32342 -0.0945129 8.24795e-20)
(-0.0134202 0.0133717 8.00091e-20)
(-0.0287091 0.030923 0)
(-0.0317127 0.0424602 1.53726e-19)
(-0.021948 0.0496238 -1.44812e-19)
(0.000775671 0.0535673 1.33514e-19)
(0.0365216 0.0551178 0)
(0.0852712 0.0549066 0)
(0.146879 0.0534445 -1.07737e-19)
(0.220958 0.0511442 8.99211e-22)
(0.30672 0.0483094 9.50314e-20)
(0.402817 0.0451248 -8.93844e-20)
(0.507239 0.0416419 1.67531e-19)
(0.617291 0.037783 0)
(0.729676 0.0333611 3.01478e-19)
(0.840679 0.0281177 -5.68053e-19)
(0.946434 0.0217691 4.03463e-19)
(1.04324 0.0140758 2.52519e-19)
(1.12788 0.00483165 -2.37054e-19)
(1.19799 -0.00587352 0)
(1.25206 -0.0183724 0)
(1.29023 -0.0313565 0)
(1.31312 -0.0470566 0)
(1.32335 -0.0610753 8.28958e-20)
(1.32456 -0.0754797 -2.83774e-19)
(-0.0232602 -0.0541864 -8.69405e-21)
(0.000351323 -0.129362 8.76434e-21)
(0.0259473 -0.210922 -2.68893e-22)
(0.0533371 -0.29418 0)
(0.0805636 -0.374726 -6.67919e-21)
(0.106144 -0.448297 1.23922e-20)
(0.128029 -0.511078 -6.1532e-22)
(0.143822 -0.560866 -4.97672e-21)
(0.151813 -0.596883 0)
(0.152502 -0.619258 0)
(0.149918 -0.625957 -1.8463e-22)
(0.151972 -0.610545 -1.66214e-22)
(0.168149 -0.563218 -2.93491e-21)
(0.204719 -0.475958 2.69864e-21)
(0.2609 -0.348514 0)
(0.330338 -0.189096 0)
(0.405735 -0.0110255 2.85661e-21)
(0.481435 0.168353 -2.04601e-22)
(0.552268 0.326325 -2.36178e-21)
(0.612826 0.442936 -1.12863e-22)
(0.658548 0.511435 0)
(0.687767 0.538774 0)
(0.703244 0.537816 0)
(0.707455 0.525287 0)
(0.696758 0.521511 0)
(0.66786 0.53348 0)
(0.6304 0.535634 4.40979e-22)
(0.607319 0.478548 -7.20465e-22)
(0.615429 0.333546 0)
(0.653282 0.121527 0)
(0.706459 -0.0986497 -6.81681e-22)
(0.759386 -0.274787 6.62488e-22)
(0.800023 -0.384633 2.50465e-22)
(0.82498 -0.432961 0)
(0.838031 -0.44234 0)
(0.835128 -0.442084 2.43934e-22)
(0.808453 -0.457468 -2.37123e-22)
(0.760882 -0.461005 0)
(0.71543 -0.411906 2.95888e-22)
(0.697229 -0.271455 -4.34371e-22)
(0.709796 -0.0815988 1.52174e-22)
(0.745205 0.108162 0)
(0.789102 0.246558 -2.19992e-22)
(0.824826 0.324374 2.13916e-22)
(0.834634 0.38159 0)
(0.80663 0.403116 0)
(0.763291 0.410611 -7.79834e-23)
(0.737543 0.303128 2.44168e-22)
(0.743324 0.158153 0)
(0.780338 -0.0274529 0)
(0.819011 -0.172998 -6.08526e-23)
(0.824968 -0.254674 -2.61502e-24)
(0.809755 -0.367914 -7.1458e-24)
(0.782084 -0.319582 3.3352e-23)
(0.783973 -0.307235 0)
(0.796006 -0.121977 0)
(0.806921 0.0535444 0)
(0.797536 0.151379 0)
(0.800324 0.384166 0)
(0.783682 0.216729 0)
(0.114393 -0.0815696 -9.27664e-22)
(0.141286 -0.157965 -3.75355e-20)
(0.168574 -0.240471 1.64004e-21)
(0.196474 -0.324085 3.36344e-20)
(0.222824 -0.403532 4.82786e-22)
(0.245885 -0.473973 0)
(0.26364 -0.531097 -2.12541e-20)
(0.27359 -0.572536 3.92252e-20)
(0.273257 -0.598674 -1.79539e-20)
(0.261137 -0.612339 1.27769e-20)
(0.238664 -0.615767 -1.22351e-20)
(0.212466 -0.606051 9.80093e-21)
(0.194084 -0.573266 -9.49621e-21)
(0.195356 -0.504668 -2.61682e-22)
(0.221928 -0.393421 -9.84323e-21)
(0.271003 -0.244059 9.56581e-21)
(0.335503 -0.0703329 -9.6598e-21)
(0.408123 0.108917 9.1272e-21)
(0.481826 0.271954 -7.68278e-21)
(0.549935 0.398569 1.36296e-20)
(0.606327 0.480041 -6.00939e-21)
(0.647914 0.519852 -2.59564e-22)
(0.675672 0.529153 -3.72959e-21)
(0.689502 0.526266 7.23952e-21)
(0.685168 0.532427 -3.51324e-21)
(0.662639 0.551018 2.44934e-22)
(0.635545 0.551317 5.13628e-21)
(0.626525 0.483675 1.20264e-21)
(0.647527 0.325202 -1.22909e-20)
(0.693834 0.102638 1.2939e-20)
(0.749774 -0.12257 -6.38244e-21)
(0.800029 -0.29648 6.79418e-22)
(0.834137 -0.39953 -2.50953e-22)
(0.849968 -0.440802 3.94415e-22)
(0.85391 -0.443738 0)
(0.844689 -0.43546 0)
(0.814992 -0.442349 -8.79683e-22)
(0.763417 -0.44242 6.50467e-22)
(0.711935 -0.398888 8.22012e-22)
(0.686083 -0.269822 2.66716e-22)
(0.694748 -0.091064 -1.25914e-21)
(0.730172 0.0926441 2.44482e-22)
(0.777801 0.231445 0)
(0.817407 0.31606 0)
(0.829162 0.383616 0)
(0.804289 0.412985 0)
(0.763471 0.420658 3.23024e-22)
(0.742913 0.306896 -1.68488e-22)
(0.749574 0.153037 0)
(0.787845 -0.036575 0)
(0.826679 -0.179053 0)
(0.832718 -0.253339 -9.70847e-23)
(0.817823 -0.362928 2.08147e-23)
(0.786801 -0.316743 -7.45934e-23)
(0.788843 -0.308631 0)
(0.795686 -0.124144 0)
(0.804558 0.0530855 4.72784e-23)
(0.794037 0.152171 1.13217e-22)
(0.795929 0.385398 0)
(0.782099 0.217775 0)
(0.265114 -0.103924 6.25559e-22)
(0.294761 -0.181254 -8.11283e-20)
(0.322928 -0.263803 7.55558e-20)
(0.35057 -0.34647 -7.06546e-20)
(0.37517 -0.424124 -4.85959e-22)
(0.394717 -0.491611 0)
(0.407465 -0.543985 -4.49326e-20)
(0.411499 -0.578125 4.39476e-20)
(0.404887 -0.594246 2.56487e-22)
(0.385517 -0.596398 4.0553e-22)
(0.351986 -0.590751 3.24257e-22)
(0.306833 -0.580196 3.00791e-22)
(0.259598 -0.55854 -1.56623e-20)
(0.22528 -0.511064 1.54858e-20)
(0.216854 -0.423462 0)
(0.238335 -0.292638 4.14769e-22)
(0.284884 -0.129691 -1.54618e-20)
(0.348775 0.0453408 1.52861e-20)
(0.421279 0.210839 0)
(0.493663 0.346052 0)
(0.5585 0.44009 -8.94749e-21)
(0.611219 0.49301 1.64219e-20)
(0.650369 0.514256 -1.42692e-20)
(0.673281 0.522805 -6.98232e-23)
(0.675821 0.53941 1.42951e-20)
(0.6612 0.563853 -1.6507e-20)
(0.64575 0.562037 1.8565e-20)
(0.650806 0.485705 1.57295e-21)
(0.684233 0.317011 -1.22244e-20)
(0.73821 0.0869676 0)
(0.795933 -0.141096 0)
(0.842662 -0.31232 3.63475e-21)
(0.869738 -0.409145 -4.88622e-21)
(0.876494 -0.44439 8.26393e-24)
(0.871401 -0.442401 2.20214e-21)
(0.855952 -0.427515 -2.14016e-21)
(0.823909 -0.426497 0)
(0.769493 -0.423111 2.05471e-22)
(0.71284 -0.385321 2.05202e-21)
(0.679382 -0.268514 -4.19429e-21)
(0.683761 -0.101987 1.92342e-21)
(0.718551 0.0749547 1.79975e-22)
(0.769157 0.214321 -1.83693e-21)
(0.811999 0.306238 1.42953e-21)
(0.825644 0.384559 2.96674e-22)
(0.804355 0.421906 2.9894e-22)
(0.766631 0.430169 -3.23859e-22)
(0.751435 0.310992 0)
(0.758913 0.14881 0)
(0.797716 -0.0447809 -1.45561e-21)
(0.836156 -0.184699 6.63298e-22)
(0.842081 -0.25157 -4.90091e-22)
(0.827237 -0.357499 5.51392e-22)
(0.792427 -0.313676 5.26154e-22)
(0.79458 -0.309778 -1.39078e-22)
(0.796563 -0.126114 1.93099e-22)
(0.803558 0.0528224 -1.67257e-22)
(0.791686 0.152915 4.9274e-23)
(0.792484 0.386429 0)
(0.781488 0.218713 0)
(0.421211 -0.121819 -1.70774e-19)
(0.452945 -0.199806 4.46908e-21)
(0.482691 -0.281775 1.58323e-19)
(0.510305 -0.362368 -1.12357e-21)
(0.532794 -0.437225 0)
(0.548049 -0.501259 0)
(0.554605 -0.549157 -9.09782e-20)
(0.551133 -0.577467 1.33639e-20)
(0.536913 -0.58582 1.01594e-19)
(0.511385 -0.577498 -5.83744e-21)
(0.472954 -0.559634 -2.28679e-20)
(0.4201 -0.540325 -1.42609e-20)
(0.356151 -0.521 1.4315e-20)
(0.293374 -0.490683 0)
(0.249412 -0.430549 -1.13134e-20)
(0.237245 -0.327284 1.02862e-20)
(0.258575 -0.18397 0)
(0.307446 -0.0183505 0)
(0.373578 0.145504 9.73673e-21)
(0.446063 0.286943 -1.10331e-21)
(0.516362 0.392355 -7.85405e-21)
(0.57811 0.4585 -6.6765e-21)
(0.627011 0.492898 6.61746e-21)
(0.658168 0.513987 -6.88798e-21)
(0.667981 0.540921 -8.09118e-22)
(0.66243 0.570469 7.3073e-21)
(0.65933 0.567035 1.1927e-21)
(0.678137 0.484912 -7.12446e-24)
(0.723073 0.309743 0)
(0.784356 0.0753758 1.46065e-20)
(0.843841 -0.154188 -1.5067e-20)
(0.886627 -0.322915 7.16499e-22)
(0.906427 -0.414265 0)
(0.904343 -0.44427 -4.07395e-22)
(0.890417 -0.438637 4.35715e-21)
(0.868682 -0.418744 -7.22585e-21)
(0.834708 -0.410528 2.01242e-23)
(0.778737 -0.403199 -7.96562e-24)
(0.718182 -0.370741 2.47042e-21)
(0.677367 -0.26687 4.4388e-22)
(0.677026 -0.113763 -3.3312e-21)
(0.710417 0.0555028 2.80981e-21)
(0.763061 0.195414 4.76548e-23)
(0.808508 0.294874 1.21056e-21)
(0.824025 0.384183 -1.47465e-21)
(0.806742 0.429597 -2.21636e-21)
(0.772658 0.439027 5.70306e-22)
(0.762947 0.315524 1.72726e-21)
(0.771239 0.145777 -3.38199e-21)
(0.809871 -0.051846 2.43137e-21)
(0.847322 -0.18991 -4.99446e-22)
(0.852914 -0.249463 7.32956e-22)
(0.837897 -0.351589 4.87289e-22)
(0.798849 -0.310275 -7.63443e-22)
(0.801022 -0.310657 1.4272e-23)
(0.798526 -0.127943 -1.36807e-22)
(0.803866 0.052747 0)
(0.790439 0.153639 -8.10001e-23)
(0.789982 0.387273 9.81936e-23)
(0.781875 0.219546 0)
(0.578893 -0.138586 1.71578e-19)
(0.61146 -0.215028 -3.33266e-19)
(0.643015 -0.294152 1.59243e-19)
(0.670627 -0.37064 1.40938e-19)
(0.690323 -0.441033 -2.63202e-19)
(0.700341 -0.500326 1.46738e-20)
(0.699605 -0.543214 1.05649e-19)
(0.68726 -0.566623 7.31539e-20)
(0.663604 -0.570262 -7.16123e-20)
(0.629957 -0.556268 0)
(0.587022 -0.52971 -3.35793e-20)
(0.533146 -0.499157 5.7987e-20)
(0.466021 -0.472668 -2.46868e-20)
(0.389517 -0.448567 0)
(0.31818 -0.41119 0)
(0.271338 -0.340026 2.92753e-22)
(0.261068 -0.22575 -1.53295e-20)
(0.287059 -0.078213 1.48934e-20)
(0.340486 0.0785415 0)
(0.408841 0.222871 1.25604e-20)
(0.481004 0.337683 -2.284e-20)
(0.548732 0.416521 2.10662e-20)
(0.605025 0.46466 -2.13431e-20)
(0.643293 0.498809 -1.5936e-21)
(0.660608 0.535736 2.64161e-20)
(0.664937 0.570008 -1.42991e-20)
(0.674504 0.566259 -6.01662e-22)
(0.706326 0.48161 -1.24738e-20)
(0.762048 0.304138 -2.05466e-21)
(0.830306 0.0680317 1.44621e-20)
(0.891792 -0.161761 8.88036e-22)
(0.930928 -0.327947 -1.07042e-20)
(0.943454 -0.414637 1.84077e-20)
(0.932923 -0.440363 -8.61148e-21)
(0.910655 -0.432369 0)
(0.882744 -0.40919 -3.75622e-21)
(0.847131 -0.394892 3.57151e-21)
(0.790762 -0.383369 -2.22458e-21)
(0.727764 -0.355408 2.7818e-21)
(0.680225 -0.264572 -3.10215e-22)
(0.674626 -0.125812 0)
(0.705628 0.0347197 -3.05018e-22)
(0.759293 0.174895 8.74735e-22)
(0.806757 0.281832 0)
(0.824156 0.38218 2.86801e-21)
(0.811258 0.435765 -1.07468e-21)
(0.781304 0.447115 7.14765e-22)
(0.777155 0.320565 9.05857e-22)
(0.786343 0.144057 0)
(0.824163 -0.0576092 0)
(0.860023 -0.194591 -1.86104e-21)
(0.865053 -0.247005 2.58459e-21)
(0.849707 -0.345103 -1.23571e-21)
(0.805984 -0.30645 3.05993e-22)
(0.808012 -0.311285 4.24007e-22)
(0.801443 -0.129695 1.36936e-22)
(0.805407 0.0528473 -1.80171e-22)
(0.790246 0.154377 0)
(0.788416 0.387936 -1.57714e-22)
(0.783281 0.220269 -2.59495e-23)
(0.738073 -0.155948 1.68897e-19)
(0.769321 -0.228141 -1.68313e-19)
(0.800802 -0.30134 1.23783e-21)
(0.826337 -0.371308 -1.09877e-21)
(0.841139 -0.435482 1.03268e-21)
(0.844197 -0.488835 -9.03216e-22)
(0.835066 -0.526258 1.48085e-21)
(0.81345 -0.545153 0)
(0.780393 -0.545559 -9.75252e-22)
(0.738148 -0.529451 7.52858e-22)
(0.689156 -0.500126 5.60999e-22)
(0.634313 -0.463037 -4.31816e-22)
(0.571003 -0.426658 0)
(0.495868 -0.397506 0)
(0.413362 -0.370313 1.23823e-22)
(0.339921 -0.326414 0)
(0.29568 -0.246632 -8.21797e-23)
(0.291251 -0.127467 0)
(0.324401 0.0150351 -7.85957e-21)
(0.382829 0.156405 1.51535e-20)
(0.452463 0.277407 -1.46377e-20)
(0.522569 0.36767 7.13286e-21)
(0.583608 0.429512 8.67182e-21)
(0.627749 0.476729 -8.42113e-21)
(0.652613 0.523217 -1.33039e-20)
(0.667293 0.562181 1.30144e-20)
(0.689459 0.5598 0)
(0.733334 0.476095 7.02597e-22)
(0.798736 0.300158 0)
(0.874131 0.064554 0)
(0.938763 -0.163944 2.52249e-20)
(0.974755 -0.32756 -2.62281e-20)
(0.980192 -0.410535 1.14962e-21)
(0.961732 -0.433003 8.40505e-22)
(0.931795 -0.423752 -5.93796e-22)
(0.897897 -0.398937 -3.14462e-21)
(0.860767 -0.379884 3.0535e-21)
(0.80499 -0.364069 -2.47089e-21)
(0.741087 -0.339456 2.11449e-21)
(0.68777 -0.261317 5.67087e-22)
(0.676454 -0.137785 -2.32914e-21)
(0.704002 0.0129973 -9.64866e-23)
(0.757571 0.152883 1.54509e-21)
(0.806511 0.266946 0)
(0.825812 0.378224 -1.03295e-21)
(0.81761 0.440142 2.11873e-21)
(0.792206 0.454274 -2.63721e-21)
(0.793596 0.326095 -9.11648e-22)
(0.803876 0.143822 0)
(0.840416 -0.0618522 7.0693e-22)
(0.874095 -0.198625 -1.59754e-21)
(0.8783 -0.244215 8.66073e-24)
(0.862549 -0.337977 -3.58868e-22)
(0.813778 -0.302094 3.72519e-22)
(0.815403 -0.311654 -3.89134e-22)
(0.805165 -0.131442 0)
(0.808088 0.0530973 1.80254e-22)
(0.791048 0.155154 0)
(0.787772 0.388417 0)
(0.785723 0.220871 3.62479e-23)
(0.899032 -0.170994 -1.63554e-19)
(0.924524 -0.236772 1.61894e-19)
(0.951569 -0.301363 -1.1345e-21)
(0.971047 -0.362789 1.12485e-21)