/*--------------------------------*- C++ -*----------------------------------*\
| =========                 |                                                 |
| \\      /  F ield         | OpenFOAM: The Open Source CFD Toolbox           |
|  \\    /   O peration     | Version:  2512                                  |
|   \\  /    A nd           | Website:  www.openfoam.com                      |
|    \\/     M anipulation  |                                                 |
\*---------------------------------------------------------------------------*/
FoamFile
{
    version     2.0;
    format      ascii;
    arch        "LSB;label=32;scalar=64";
    class       volScalarField;
    location    "127";
    object      p;
}
// * * * * * * * * * * * * * * * * * * * * * * * * * * * * * * * * * * * * * //

dimensions      [0 2 -2 0 0 0 0];

internalField   nonuniform List<scalar> 
13248
(
-0.418236
-0.415978
-0.413873
-0.411953
-0.410167
-0.408442
-0.406579
-0.40427
-0.401141
-0.396796
-0.390861
-0.383038
-0.373142
-0.361135
-0.347127
-0.331365
-0.314196
-0.296026
-0.277268
-0.258322
-0.239469
-0.221062
-0.202819
-0.18517
-0.427074
-0.423971
-0.420944
-0.418037
-0.415203
-0.412382
-0.409372
-0.405838
-0.401384
-0.395611
-0.388178
-0.378861
-0.367583
-0.354427
-0.339612
-0.323464
-0.306361
-0.288691
-0.270813
-0.253034
-0.235587
-0.21869
-0.202268
-0.186715
-0.436731
-0.432699
-0.42871
-0.424794
-0.420877
-0.416891
-0.412607
-0.407662
-0.401645
-0.394187
-0.385027
-0.374055
-0.361331
-0.347057
-0.331542
-0.315146
-0.298232
-0.281132
-0.264125
-0.247434
-0.231211
-0.215609
-0.200555
-0.186186
-0.447589
-0.442501
-0.437501
-0.432559
-0.42751
-0.422246
-0.416492
-0.409858
-0.401959
-0.392507
-0.381375
-0.36861
-0.354411
-0.339082
-0.322974
-0.306434
-0.289769
-0.27323
-0.257008
-0.241246
-0.226041
-0.211488
-0.197516
-0.184307
-0.459876
-0.453585
-0.447516
-0.441506
-0.435231
-0.428501
-0.420992
-0.412325
-0.402196
-0.390472
-0.377206
-0.362613
-0.347011
-0.330754
-0.314182
-0.297584
-0.281184
-0.265147
-0.249587
-0.234583
-0.220185
-0.206438
-0.19329
-0.180874
-0.47362
-0.465996
-0.458798
-0.451641
-0.443969
-0.435485
-0.425847
-0.41475
-0.402058
-0.387852
-0.372388
-0.356024
-0.339142
-0.322091
-0.305149
-0.288524
-0.272355
-0.256728
-0.241696
-0.22729
-0.213528
-0.200418
-0.187925
-0.176144
-0.48864
-0.479601
-0.471212
-0.462776
-0.453438
-0.442807
-0.430593
-0.416668
-0.401148
-0.384362
-0.366746
-0.348745
-0.33074
-0.313021
-0.295781
-0.279138
-0.263153
-0.247853
-0.233243
-0.219319
-0.206071
-0.193484
-0.181537
-0.170257
-0.50454
-0.494069
-0.484425
-0.474504
-0.463125
-0.449867
-0.434613
-0.417525
-0.39903
-0.37969
-0.360064
-0.340606
-0.321641
-0.303364
-0.285876
-0.269213
-0.253374
-0.238336
-0.224071
-0.210549
-0.197739
-0.185611
-0.174146
-0.163304
-0.520699
-0.508852
-0.497877
-0.486184
-0.472301
-0.455906
-0.437208
-0.416756
-0.395292
-0.373552
-0.352131
-0.331427
-0.311662
-0.292931
-0.275245
-0.258572
-0.242861
-0.228054
-0.214095
-0.200933
-0.18852
-0.176818
-0.165796
-0.155359
-0.536274
-0.523168
-0.51075
-0.496921
-0.480034
-0.460052
-0.437658
-0.413829
-0.389565
-0.365686
-0.342734
-0.321002
-0.300597
-0.281513
-0.263687
-0.247032
-0.231457
-0.216878
-0.203216
-0.1904
-0.17837
-0.167078
-0.156473
-0.14643
-0.550217
-0.535997
-0.521979
-0.505596
-0.485235
-0.461351
-0.435198
-0.408153
-0.381379
-0.355673
-0.331469
-0.308928
-0.288039
-0.268713
-0.250822
-0.234239
-0.218841
-0.20452
-0.191177
-0.178728
-0.1671
-0.156232
-0.14604
-0.136412
-0.561378
-0.546227
-0.530433
-0.511069
-0.486815
-0.45882
-0.428958
-0.398931
-0.369961
-0.342745
-0.317562
-0.294431
-0.273236
-0.253808
-0.235969
-0.219554
-0.204417
-0.190426
-0.177471
-0.165452
-0.154289
-0.143907
-0.134194
-0.125086
-0.341363
-0.343741
-0.34514
-0.346023
-0.346833
-0.347733
-0.348804
-0.350087
-0.351593
-0.35332
-0.355263
-0.357422
-0.359802
-0.362411
-0.365255
-0.368338
-0.371653
-0.375174
-0.378859
-0.382637
-0.386378
-0.389865
-0.392929
-0.395819
-0.341348
-0.344375
-0.346191
-0.347369
-0.348418
-0.349486
-0.350627
-0.351852
-0.353138
-0.354446
-0.355725
-0.356923
-0.35799
-0.358875
-0.35953
-0.359907
-0.359958
-0.359638
-0.358911
-0.357745
-0.356054
-0.353646
-0.350593
-0.348061
-0.342852
-0.346318
-0.348447
-0.349877
-0.351147
-0.352379
-0.353596
-0.354777
-0.355865
-0.356776
-0.357411
-0.357663
-0.35742
-0.356572
-0.355007
-0.352621
-0.349321
-0.345027
-0.339697
-0.333324
-0.325852
-0.317088
-0.307274
-0.298652
-0.346139
-0.349787
-0.3521
-0.353726
-0.35519
-0.356583
-0.357893
-0.359065
-0.360004
-0.360582
-0.360653
-0.360054
-0.358616
-0.356166
-0.352535
-0.347565
-0.341118
-0.333085
-0.323407
-0.312094
-0.299145
-0.284403
-0.268102
-0.253168
-0.351243
-0.354803
-0.357154
-0.358903
-0.360522
-0.362063
-0.363475
-0.364668
-0.365509
-0.36583
-0.365437
-0.364117
-0.361647
-0.357799
-0.352355
-0.345114
-0.335907
-0.32461
-0.311156
-0.295564
-0.277918
-0.25824
-0.236575
-0.215233
-0.357976
-0.361189
-0.363424
-0.365203
-0.366912
-0.368561
-0.370057
-0.371276
-0.372047
-0.372163
-0.371389
-0.369466
-0.366124
-0.361094
-0.35412
-0.344978
-0.33349
-0.31954
-0.303087
-0.284173
-0.262975
-0.23982
-0.214741
-0.186216
-0.36596
-0.368603
-0.370569
-0.372264
-0.373968
-0.375639
-0.377156
-0.378357
-0.379034
-0.378943
-0.377811
-0.375342
-0.37123
-0.365177
-0.356911
-0.346206
-0.332908
-0.316936
-0.298335
-0.277232
-0.253891
-0.228623
-0.20173
-0.172578
-0.374711
-0.376622
-0.37817
-0.379637
-0.381194
-0.382762
-0.384182
-0.385258
-0.385747
-0.38537
-0.383823
-0.380778
-0.375909
-0.368904
-0.359497
-0.347491
-0.332781
-0.315376
-0.295409
-0.27313
-0.248937
-0.223112
-0.19696
-0.16803
-0.383744
-0.384827
-0.385824
-0.386905
-0.388141
-0.389427
-0.390578
-0.39136
-0.391504
-0.390697
-0.388608
-0.384889
-0.379204
-0.371254
-0.360802
-0.347709
-0.331952
-0.313643
-0.293027
-0.27046
-0.246499
-0.221304
-0.196878
-0.169869
-0.392683
-0.392909
-0.393237
-0.393764
-0.394486
-0.395283
-0.395954
-0.396242
-0.395846
-0.394429
-0.391637
-0.387114
-0.380533
-0.371626
-0.360216
-0.346245
-0.329793
-0.311079
-0.290455
-0.268351
-0.245385
-0.221724
-0.199202
-0.175126
-0.401346
-0.400718
-0.400291
-0.400102
-0.400113
-0.400209
-0.400186
-0.399768
-0.398629
-0.396413
-0.39275
-0.38729
-0.379732
-0.369862
-0.357582
-0.342933
-0.326098
-0.30739
-0.287226
-0.266086
-0.244518
-0.222851
-0.202231
-0.181008
-0.409779
-0.408325
-0.407068
-0.406031
-0.405168
-0.404386
-0.403484
-0.402175
-0.400112
-0.396916
-0.392215
-0.385671
-0.377031
-0.366154
-0.353039
-0.33783
-0.320801
-0.302328
-0.282842
-0.262808
-0.242636
-0.222788
-0.203864
-0.185756
-0.399113
-0.401402
-0.400121
-0.392208
-0.378611
-0.358273
-0.331891
-0.300902
-0.2677
-0.235696
-0.208177
-0.187817
-0.176707
-0.176267
-0.18653
-0.204857
-0.225288
-0.239602
-0.240089
-0.223414
-0.193046
-0.157565
-0.12545
-0.101384
-0.086423
-0.0796178
-0.0795516
-0.0862125
-0.101065
-0.122409
-0.141652
-0.147716
-0.137393
-0.116017
-0.0936092
-0.077112
-0.0679811
-0.0648428
-0.0688118
-0.081362
-0.0971151
-0.105152
-0.0983468
-0.082855
-0.0672313
-0.0555914
-0.0491418
-0.0483904
-0.051684
-0.0533256
-0.0502475
-0.0460333
-0.040989
-0.0359039
-0.0337641
-0.0326615
-0.0305598
-0.0297644
-0.0220806
-0.00509537
-0.346293
-0.344192
-0.339018
-0.331866
-0.320209
-0.3037
-0.283321
-0.259768
-0.234413
-0.210739
-0.191465
-0.17922
-0.176203
-0.183633
-0.200801
-0.224117
-0.247087
-0.261565
-0.260457
-0.24077
-0.206547
-0.167136
-0.131506
-0.104369
-0.0865354
-0.0769251
-0.0740786
-0.0775936
-0.0886717
-0.106351
-0.123517
-0.130339
-0.122665
-0.105075
-0.0864369
-0.0732854
-0.0669718
-0.0663493
-0.0729787
-0.0883325
-0.106264
-0.115176
-0.107194
-0.0892589
-0.0706598
-0.0564558
-0.0478828
-0.0448991
-0.046434
-0.0468971
-0.0446618
-0.0417996
-0.0386191
-0.0357047
-0.0352898
-0.0361085
-0.0341847
-0.0333325
-0.0247155
-0.00567473
-0.291924
-0.284747
-0.276705
-0.266942
-0.256188
-0.242855
-0.22687
-0.21049
-0.193286
-0.178408
-0.168007
-0.164598
-0.170167
-0.185367
-0.208653
-0.235841
-0.260516
-0.274981
-0.273174
-0.25169
-0.215105
-0.173207
-0.135214
-0.105839
-0.0857041
-0.0736307
-0.0681629
-0.0686606
-0.0760021
-0.0899193
-0.104861
-0.112141
-0.107048
-0.0931831
-0.0783079
-0.0685182
-0.0650633
-0.0670075
-0.0762595
-0.0942422
-0.114193
-0.124019
-0.115108
-0.0950076
-0.0736343
-0.0569992
-0.0465018
-0.0415302
-0.0414942
-0.040802
-0.0392213
-0.0374801
-0.0361056
-0.0354073
-0.0367914
-0.0395302
-0.037726
-0.0367534
-0.0272489
-0.00624236
-0.241942
-0.228874
-0.217363
-0.205991
-0.193622
-0.181922
-0.16983
-0.158296
-0.148938
-0.14265
-0.140997
-0.146266
-0.159877
-0.181776
-0.20982
-0.239721
-0.265563
-0.280724
-0.278327
-0.256147
-0.218659
-0.175764
-0.136661
-0.10596
-0.0841789
-0.0701087
-0.0623239
-0.0600327
-0.0638454
-0.0740103
-0.0865008
-0.093835
-0.0910615
-0.0807295
-0.0694648
-0.0629201
-0.0622273
-0.0666409
-0.0783288
-0.0987176
-0.120585
-0.131399
-0.12187
-0.0999744
-0.0761199
-0.0572392
-0.0450351
-0.0383417
-0.0369418
-0.0351262
-0.034
-0.0331343
-0.0334776
-0.0350123
-0.0382534
-0.0429006
-0.0411476
-0.0399872
-0.0296491
-0.00679137
-0.201378
-0.182164
-0.16661
-0.152422
-0.138696
-0.127607
-0.117973
-0.111329
-0.107844
-0.108454
-0.114272
-0.126879
-0.146974
-0.173865
-0.205081
-0.23652
-0.262902
-0.278282
-0.27626
-0.254496
-0.217574
-0.175199
-0.136239
-0.105065
-0.0822278
-0.0666322
-0.0569202
-0.0522086
-0.0527925
-0.059299
-0.0691296
-0.0760728
-0.0752363
-0.0680823
-0.060121
-0.0565648
-0.0584145
-0.0650897
-0.0789496
-0.101507
-0.125182
-0.137043
-0.127288
-0.104062
-0.0781084
-0.0572129
-0.0435213
-0.035363
-0.0328131
-0.0299359
-0.0290661
-0.0288243
-0.0307643
-0.034517
-0.039659
-0.0461867
-0.0444095
-0.0429915
-0.0318856
-0.00731494
-0.172986
-0.147916
-0.129173
-0.113226
-0.0992397
-0.0869315
-0.0786833
-0.0744389
-0.0747674
-0.0800821
-0.0911812
-0.108869
-0.133208
-0.163046
-0.195785
-0.227634
-0.253952
-0.269454
-0.268043
-0.247503
-0.212424
-0.171967
-0.134296
-0.103453
-0.0801005
-0.0633963
-0.0521385
-0.0454237
-0.0432567
-0.0463434
-0.0533628
-0.0594682
-0.0600881
-0.0555886
-0.0504975
-0.0495532
-0.053643
-0.0623126
-0.0780235
-0.102459
-0.127763
-0.140767
-0.13126
-0.107201
-0.0795898
-0.0569509
-0.0419857
-0.0326009
-0.0291137
-0.025271
-0.0244712
-0.0246116
-0.0279909
-0.0339143
-0.0409852
-0.0493514
-0.047472
-0.0457292
-0.0339285
-0.00780516
-0.156826
-0.130743
-0.107119
-0.0877911
-0.0719057
-0.0592389
-0.0522365
-0.0495455
-0.0518336
-0.0596594
-0.0735378
-0.0937415
-0.119919
-0.150673
-0.183401
-0.214636
-0.240508
-0.255759
-0.254947
-0.236235
-0.204055
-0.166653
-0.131217
-0.101395
-0.0780047
-0.0605491
-0.0480795
-0.0397325
-0.0353136
-0.0354034
-0.0396218
-0.0445219
-0.0463408
-0.0435818
-0.0408605
-0.0420738
-0.0480405
-0.0583591
-0.0755274
-0.1015
-0.128219
-0.142493
-0.133709
-0.109333
-0.0805475
-0.0564738
-0.0404446
-0.0300462
-0.0258171
-0.0211396
-0.0202311
-0.0205567
-0.0251777
-0.0331927
-0.0422059
-0.0523574
-0.0502993
-0.0481663
-0.0357522
-0.00825364
-0.151636
-0.126083
-0.100045
-0.077807
-0.0597204
-0.0466346
-0.0390575
-0.036328
-0.0388769
-0.0472021
-0.0615882
-0.0820095
-0.107914
-0.137844
-0.169258
-0.198945
-0.223553
-0.238335
-0.238119
-0.221757
-0.193294
-0.15977
-0.12726
-0.0990084
-0.0760046
-0.0581263
-0.0447482
-0.0351117
-0.0289012
-0.0264878
-0.0280858
-0.031505
-0.0335514
-0.0323429
-0.0315104
-0.0343766
-0.0417816
-0.0533526
-0.0715592
-0.0986492
-0.126594
-0.142232
-0.13456
-0.110414
-0.0809747
-0.0558019
-0.0389134
-0.0276938
-0.0228913
-0.0175219
-0.0164201
-0.0167179
-0.02234
-0.0323395
-0.0432934
-0.0551682
-0.0528554
-0.0502721
-0.0373374
-0.00865394
-0.153785
-0.130073
-0.103992
-0.0802632
-0.0606646
-0.0463768
-0.0372275
-0.0332592
-0.034585
-0.0416809
-0.0547311
-0.0735467
-0.0975141
-0.125223
-0.15429
-0.181872
-0.204466
-0.218279
-0.218774
-0.205226
-0.181026
-0.151878
-0.122726
-0.0964474
-0.074204
-0.0562185
-0.0422101
-0.03159
-0.0239888
-0.0195704
-0.0188186
-0.0205915
-0.0223097
-0.0222243
-0.0227388
-0.0267267
-0.0350983
-0.0474341
-0.0661827
-0.0940452
-0.123048
-0.140049
-0.133835
-0.110479
-0.0809467
-0.0550288
-0.0374543
-0.0255605
-0.0203344
-0.0144099
-0.0130169
-0.0131458
-0.0194846
-0.0313397
-0.0442196
-0.057746
-0.0551019
-0.0520208
-0.0386686
-0.00900358
-0.159842
-0.138815
-0.115072
-0.0922984
-0.0700922
-0.0559212
-0.0445233
-0.0383402
-0.0372451
-0.0417804
-0.0521349
-0.0679951
-0.0887846
-0.113202
-0.139099
-0.163721
-0.184365
-0.196896
-0.198397
-0.188063
-0.168464
-0.143934
-0.118379
-0.0943561
-0.0731736
-0.0553393
-0.0408939
-0.0294854
-0.0207638
-0.0147272
-0.0119079
-0.0119483
-0.0130018
-0.0134442
-0.0147624
-0.0193393
-0.0281976
-0.0408977
-0.0598013
-0.0879022
-0.117673
-0.136049
-0.131668
-0.109631
-0.0805963
-0.0543277
-0.0361911
-0.0236725
-0.0181212
-0.0118424
-0.0100435
-0.00987666
-0.0166152
-0.0301857
-0.0449469
-0.0600496
-0.0570055
-0.0533909
-0.0397201
-0.0092968
-0.165801
-0.147055
-0.126244
-0.106063
-0.0867966
-0.068749
-0.0560536
-0.0481846
-0.0442913
-0.045389
-0.0521047
-0.0641144
-0.0809601
-0.101576
-0.123945
-0.145692
-0.163497
-0.174869
-0.177603
-0.170787
-0.15601
-0.136257
-0.11448
-0.0929201
-0.07301
-0.0555174
-0.0407667
-0.0286847
-0.0190484
-0.0117058
-0.00708209
-0.00541187
-0.00568707
-0.00619232
-0.00780383
-0.0125084
-0.0213029
-0.0337242
-0.0522259
-0.0805703
-0.111127
-0.130372
-0.128003
-0.107644
-0.0796345
-0.053516
-0.0350151
-0.0219237
-0.0160605
-0.00967943
-0.00755472
-0.00703972
-0.013699
-0.0288425
-0.0454623
-0.0620411
-0.0585135
-0.0543672
-0.0404496
-0.00950445
-0.172778
-0.157469
-0.139186
-0.120896
-0.103651
-0.086299
-0.0721586
-0.061683
-0.0553867
-0.0534211
-0.055982
-0.0633381
-0.075112
-0.0904555
-0.108071
-0.126549
-0.142136
-0.151765
-0.155035
-0.151269
-0.140806
-0.125422
-0.107272
-0.0883078
-0.0700228
-0.0533787
-0.0388674
-0.0266096
-0.0165961
-0.0085696
-0.00268513
0.000460671
0.000845056
-8.22808e-06
-0.00170945
-0.00650491
-0.0149874
-0.0269293
-0.0445675
-0.072272
-0.102743
-0.122876
-0.121764
-0.103751
-0.0769327
-0.0514609
-0.0331119
-0.0198731
-0.0138444
-0.00736813
-0.00514781
-0.00450918
-0.0108614
-0.0273588
-0.0456788
-0.0636638
-0.0596044
-0.0549311
-0.0408449
-0.00957496
-0.165407
-0.157826
-0.143029
-0.123333
-0.106378
-0.0912117
-0.0783842
-0.0684478
-0.061797
-0.0586653
-0.0596632
-0.0650735
-0.0746227
-0.0875672
-0.102677
-0.118258
-0.130858
-0.139017
-0.141418
-0.137439
-0.127665
-0.113642
-0.0971836
-0.0799351
-0.0631656
-0.047713
-0.0340232
-0.022217
-0.0123621
-0.00424293
0.00210427
0.00621814
0.00759064
0.00720532
0.00549472
0.000974214
-0.00648767
-0.0174244
-0.0345464
-0.0633843
-0.0964926
-0.119199
-0.119361
-0.10016
-0.0732332
-0.0481471
-0.0303015
-0.0174838
-0.0116628
-0.00483426
-0.00229595
-0.00109489
-0.00736511
-0.0253923
-0.0456286
-0.0652823
-0.0606664
-0.0551544
-0.0409958
-0.00953733
-0.15796
-0.15197
-0.137704
-0.121055
-0.106256
-0.0934049
-0.0824017
-0.0735188
-0.0671914
-0.0639313
-0.0642044
-0.0681446
-0.0754908
-0.0855792
-0.097257
-0.108523
-0.118438
-0.124474
-0.1256
-0.121559
-0.112896
-0.100753
-0.0864982
-0.0713982
-0.0564801
-0.0424727
-0.0297999
-0.0186313
-0.00913962
-0.00113434
0.00542131
0.0100497
0.0118795
0.0114936
0.00975068
0.0060789
-0.000284061
-0.010083
-0.0263632
-0.0555676
-0.0899461
-0.113064
-0.112564
-0.0938966
-0.0682029
-0.0444457
-0.0275187
-0.0151819
-0.00954032
-0.00271501
-0.000312995
0.00129403
-0.00480744
-0.0237707
-0.0455582
-0.0663683
-0.0611531
-0.0547489
-0.0407372
-0.00948717
-0.149639
-0.144999
-0.132883
-0.118586
-0.105648
-0.0945978
-0.0851515
-0.0773707
-0.0716609
-0.0684656
-0.0680843
-0.0705827
-0.0757198
-0.0829287
-0.0913048
-0.0995275
-0.106493
-0.110557
-0.110886
-0.107234
-0.0998727
-0.0895427
-0.0772415
-0.0639737
-0.0506114
-0.0378183
-0.0260307
-0.0154334
-0.00625199
0.00160279
0.00817843
0.013109
0.0153866
0.0153133
0.0137235
0.0104575
0.00473175
-0.00450045
-0.0203019
-0.0488753
-0.0821641
-0.104529
-0.104176
-0.0866617
-0.0627312
-0.0405414
-0.0246326
-0.0128595
-0.00743779
-0.000700515
0.00153552
0.00329239
-0.00288299
-0.0225137
-0.0454041
-0.066897
-0.0612092
-0.0538593
-0.0401219
-0.00942861
-0.139658
-0.137271
-0.127629
-0.115457
-0.104242
-0.0947525
-0.0866908
-0.0799538
-0.0747961
-0.0715607
-0.0704942
-0.0716554
-0.0748627
-0.0796901
-0.0854338
-0.0911387
-0.0958205
-0.0984122
-0.0981735
-0.0947828
-0.0883574
-0.0794096
-0.0686897
-0.0569932
-0.0450401
-0.0334007
-0.0224949
-0.0125074
-0.00368534
0.00396063
0.0104442
0.0155574
0.0183164
0.0187315
0.0175176
0.0148157
0.00972318
0.000894646
-0.0142793
-0.0412836
-0.0729136
-0.09477
-0.0947638
-0.0785801
-0.056647
-0.0363186
-0.0216291
-0.0105261
-0.00535144
0.00123459
0.00332694
0.00509626
-0.00112234
-0.0211639
-0.0448257
-0.0668354
-0.060811
-0.0525115
-0.0391008
-0.00933192
-0.129647
-0.129205
-0.121731
-0.111504
-0.101881
-0.0937679
-0.0869096
-0.0810849
-0.0764136
-0.0731711
-0.0715805
-0.0717061
-0.0734153
-0.0763694
-0.0800372
-0.083691
-0.0865949
-0.0879435
-0.0871195
-0.0838262
-0.0781061
-0.0702973
-0.0609336
-0.0506166
-0.0399279
-0.0293474
-0.0192757
-0.00990205
-0.00147183
0.00593989
0.0122718
0.0174397
0.0205822
0.0215455
0.0209616
0.0190712
0.0148653
0.00676372
-0.00728829
-0.0324872
-0.0626905
-0.0838739
-0.084254
-0.0696956
-0.0500717
-0.0318563
-0.018551
-0.00820288
-0.00329265
0.00308586
0.00501475
0.00669763
0.000662315
-0.0194571
-0.0436585
-0.0660412
-0.0598276
-0.0506496
-0.0376314
-0.00917347
-0.120072
-0.120768
-0.115121
-0.106708
-0.0985761
-0.0916925
-0.085878
-0.0808665
-0.0766835
-0.0735358
-0.0716128
-0.0709783
-0.0715334
-0.0730164
-0.0750433
-0.0770804
-0.0785496
-0.0788519
-0.0775136
-0.0742736
-0.0691087
-0.0622199
-0.0539774
-0.0448331
-0.0352577
-0.0256475
-0.0163685
-0.00761143
0.000389688
0.00753553
0.0136859
0.0188106
0.0222234
0.0237362
0.0239137
0.0230327
0.0200117
0.013017
0.000264367
-0.0232133
-0.0518167
-0.0719781
-0.0728593
-0.0602488
-0.0431639
-0.0272209
-0.0154291
-0.00590921
-0.00127765
0.00484531
0.00660442
0.00808625
0.00246474
-0.0173568
-0.0417834
-0.0642856
-0.0581247
-0.0482395
-0.0356922
-0.00892867
-0.110423
-0.111998
-0.107973
-0.101213
-0.0944473
-0.0886636
-0.0837685
-0.0794946
-0.0757979
-0.0728165
-0.070705
-0.0695271
-0.069217
-0.0695943
-0.0703599
-0.071137
-0.0714852
-0.0709652
-0.0692095
-0.065987
-0.0612388
-0.0550792
-0.0477643
-0.0396258
-0.0310367
-0.0223174
-0.0137893
-0.00564015
0.00190544
0.00874839
0.0147031
0.0197383
0.023326
0.0253056
0.0262276
0.0264473
0.0248365
0.0191861
0.00768367
-0.0140394
-0.0406914
-0.0594812
-0.0609347
-0.0505234
-0.036114
-0.0225053
-0.0123008
-0.00366492
0.000680686
0.00651255
0.00811634
0.0092678
0.0042298
-0.014845
-0.0390324
-0.0613505
-0.0555872
-0.0452805
-0.0332839
-0.00857488
-0.100832
-0.103204
-0.100532
-0.0951966
-0.0896393
-0.0848337
-0.0807507
-0.0771373
-0.0739045
-0.0711344
-0.0689505
-0.0674159
-0.0664946
-0.0660629
-0.0659029
-0.0657357
-0.0652399
-0.064089
-0.0619987
-0.0587769
-0.0543541
-0.0487884
-0.0422508
-0.0349779
-0.0272601
-0.0193543
-0.0115354
-0.00398058
0.00309524
0.00960013
0.0153412
0.0202656
0.02396
0.0262965
0.0278542
0.029053
0.0288759
0.0246927
0.0144245
-0.00546922
-0.0297959
-0.0468211
-0.0488872
-0.040845
-0.0291394
-0.0178183
-0.00920356
-0.00148574
0.00257447
0.00809137
0.00957542
0.0102785
0.00595215
-0.011847
-0.0352549
-0.0570795
-0.0521316
-0.0418019
-0.0304369
-0.00809481
-0.0917366
-0.0945699
-0.0929324
-0.088792
-0.0842925
-0.0803499
-0.0769801
-0.0739538
-0.0711577
-0.0686324
-0.0664727
-0.0647389
-0.063419
-0.0624258
-0.0616061
-0.0607571
-0.0596442
-0.0580271
-0.0556914
-0.0524834
-0.0483329
-0.0432615
-0.0373801
-0.030855
-0.0239088
-0.016746
-0.00959607
-0.00261924
0.00398277
0.0101229
0.0156232
0.0204148
0.0241687
0.0267842
0.0287982
0.0306962
0.0316713
0.0288424
0.0198522
0.00202788
-0.0194659
-0.034437
-0.0371802
-0.0315589
-0.0224604
-0.0132784
-0.00617721
0.000615687
0.00439938
0.00958946
0.0110152
0.0112063
0.00769281
-0.00830215
-0.0303938
-0.0514171
-0.0477295
-0.0378677
-0.0272176
-0.00748039
-0.0830994
-0.0861217
-0.0852786
-0.0821411
-0.0785547
-0.0753632
-0.0726153
-0.0701093
-0.067721
-0.0654601
-0.0633972
-0.0615875
-0.060033
-0.0586781
-0.0574148
-0.0560981
-0.0545592
-0.0526238
-0.0501327
-0.0469646
-0.0430554
-0.0384063
-0.0330881
-0.0272158
-0.0209572
-0.0144731
-0.00795253
-0.00153535
0.00459506
0.0103522
0.0155821
0.0202103
0.023974
0.0267887
0.0290996
0.0313545
0.0329698
0.0311355
0.0235215
0.0082199
-0.0099894
-0.0228915
-0.0263386
-0.0229962
-0.0162727
-0.00899984
-0.00326618
0.00262623
0.00615163
0.0110198
0.0124764
0.012186
0.00953821
-0.00423333
-0.0245325
-0.0444666
-0.042437
-0.0335773
-0.0237291
-0.006736
-0.0748095
-0.0779348
-0.0777109
-0.0753926
-0.0725734
-0.0700233
-0.067812
-0.0657632
-0.0637496
-0.0617596
-0.0598437
-0.0580499
-0.0563903
-0.0548301
-0.053296
-0.051686
-0.0498801
-0.047753
-0.0451876
-0.0420913
-0.03841
-0.034135
-0.0293104
-0.0240147
-0.0183727
-0.0125095
-0.00657948
-0.000702336
0.00496157
0.0103265
0.0152593
0.019687
0.0234025
0.026328
0.0288003
0.0311344
0.0328905
0.031671
0.0254943
0.0130044
-0.00183359
-0.0128302
-0.0168467
-0.0154152
-0.0107173
-0.00507619
-0.000518747
0.00452681
0.00782051
0.0123914
0.0139912
0.0133681
0.0115642
0.000231857
-0.0179271
-0.0365326
-0.0364226
-0.0290612
-0.0201069
-0.00588097
-0.0669751
-0.0701098
-0.0703326
-0.0686632
-0.0664768
-0.0644671
-0.0627135
-0.0610622
-0.0593882
-0.0576655
-0.0559287
-0.0542181
-0.0525492
-0.0509045
-0.0492352
-0.0474702
-0.0455249
-0.0433106
-0.040743
-0.0377534
-0.0342984
-0.030366
-0.0259828
-0.0212027
-0.0161177
-0.0108245
-0.00544737
-8.85713e-05
0.00511573
0.010085
0.0146989
0.0188878
0.0224972
0.0254449
0.0279559
0.0301928
0.0317987
0.0309427
0.0260879
0.0162733
0.0045222
-0.00472909
-0.00898351
-0.00894532
-0.00586551
-0.00156929
0.00201904
0.00629347
0.00938136
0.0136879
0.0155533
0.0148743
0.0138165
0.00486159
-0.0110117
-0.028125
-0.0299742
-0.0244706
-0.0165051
-0.0049508
-0.059649
-0.0626783
-0.0632031
-0.062044
-0.0603767
-0.0588175
-0.0574496
-0.0561399
-0.054769
-0.0533019
-0.0517607
-0.050178
-0.0485708
-0.0469319
-0.0452299
-0.0434163
-0.0414322
-0.0392158
-0.0367076
-0.033858
-0.0306338
-0.0270234
-0.0230431
-0.01873
-0.0141519
-0.00938339
-0.00452405
0.000340601
0.00509557
0.00966617
0.0139461
0.0178676
0.0213157
0.0242009
0.026648
0.0286964
0.0300505
0.0294048
0.025636
0.0180958
0.00897805
0.00136501
-0.00276299
-0.00359187
-0.00172676
0.00149076
0.00430808
0.00790441
0.0108002
0.0148551
0.0170788
0.0167467
0.0162612
0.00933039
-0.00434871
-0.0198845
-0.0234574
-0.0199592
-0.0130764
-0.00399451
-0.0527869
-0.0556531
-0.0563784
-0.0556169
-0.0543697
-0.0531808
-0.0521338
-0.051114
-0.0500096
-0.0487803
-0.047439
-0.046012
-0.0445146
-0.0429458
-0.0412866
-0.0395044
-0.0375585
-0.0354067
-0.0330079
-0.0303273
-0.0273408
-0.024039
-0.0204325
-0.0165475
-0.0124344
-0.00815031
-0.00377522
0.000620281
0.0049392
0.0091132
0.0130499
0.0166853
0.0199219
0.0226738
0.0249834
0.0268123
0.0279153
0.0273987
0.0244929
0.0187947
0.0118351
0.00571629
0.00197721
0.000718986
0.00172899
0.00409997
0.00631808
0.00933896
0.0120485
0.0158219
0.0184012
0.0187428
0.0186651
0.0132261
0.00149693
-0.0124018
-0.0172349
-0.0156666
-0.00995112
-0.0030671
-0.0463854
-0.0490596
-0.049905
-0.0494453
-0.0485327
-0.0476444
-0.0468611
-0.0460842
-0.0452111
-0.0441987
-0.0430528
-0.0417944
-0.0404368
-0.0389818
-0.0374184
-0.0357251
-0.0338741
-0.0318369
-0.0295858
-0.0270974
-0.0243551
-0.0213526
-0.0180972
-0.0146085
-0.0109243
-0.00708891
-0.00316629
0.000785334
0.00468447
0.00847076
0.0120603
0.0153937
0.018386
0.0209556
0.0230869
0.0247015
0.0256013
0.0251933
0.022981
0.0187402
0.0135065
0.00869737
0.00548561
0.00410238
0.00455093
0.00627179
0.00803172
0.0105709
0.0130981
0.0165389
0.0193422
0.0203546
0.0205623
0.0161097
0.00611448
-0.0060533
-0.011594
-0.0117235
-0.00722471
-0.0022205
-0.0404503
-0.042907
-0.0438083
-0.0435735
-0.042925
-0.0422784
-0.0417094
-0.0411338
-0.0404585
-0.0396401
-0.038679
-0.0375921
-0.0363901
-0.0350756
-0.0336423
-0.0320766
-0.0303596
-0.0284723
-0.0263963
-0.0241169
-0.0216232
-0.0189118
-0.0159889
-0.0128695
-0.00958285
-0.0061637
-0.00266346
0.000869805
0.00436789
0.00777775
0.0110235
0.014051
0.0167811
0.0191411
0.0210785
0.0225063
0.0232646
0.0229739
0.0213279
0.0182206
0.0143441
0.0106563
0.00801183
0.00668654
0.00679653
0.00802901
0.00944427
0.0115747
0.0139059
0.0169725
0.0197936
0.0212503
0.0215035
0.0177141
0.00933838
-0.000996738
-0.00673477
-0.00822975
-0.00494503
-0.00149522
-0.0349617
-0.0371904
-0.0381029
-0.0380333
-0.0375915
-0.0371373
-0.0367403
-0.0363293
-0.0358211
-0.0351736
-0.0343838
-0.0334629
-0.0324209
-0.0312599
-0.0299765
-0.0285621
-0.0270038
-0.025289
-0.0234058
-0.0213453
-0.0191013
-0.0166728
-0.0140654
-0.0112916
-0.00837443
-0.00534159
-0.00223497
0.00090585
0.00402344
0.0070718
0.00998316
0.0127095
0.0151748
0.0173157
0.0190629
0.0203371
0.0210097
0.0208477
0.0196677
0.0174399
0.0146221
0.0118561
0.00975848
0.00859325
0.00852707
0.00940133
0.0105577
0.0123342
0.0144348
0.0170951
0.0197199
0.0212502
0.0213908
0.0181308
0.011251
0.00275418
-0.00278446
-0.00523927
-0.00310534
-0.000911074
-0.0299027
-0.0319044
-0.0327964
-0.0328447
-0.0325628
-0.0322602
-0.0320001
-0.0317222
-0.0313532
-0.0308529
-0.0302159
-0.0294517
-0.0285678
-0.0275644
-0.0264395
-0.025188
-0.0238014
-0.0222712
-0.0205895
-0.0187517
-0.0167547
-0.0145994
-0.0122913
-0.00984093
-0.00726728
-0.00459278
-0.00185195
0.000922759
0.00368247
0.00638818
0.00897937
0.0114138
0.0136217
0.0155488
0.0171206
0.018272
0.0189007
0.0188705
0.0180737
0.0165288
0.0145278
0.0125074
0.010901
0.00993878
0.00980458
0.010423
0.0113789
0.0128466
0.014681
0.0169159
0.0191889
0.0205267
0.0204869
0.0177001
0.0121054
0.0053009
0.000220453
-0.00277701
-0.00165947
-0.000462492
-0.0252565
-0.0270372
-0.0278868
-0.0280168
-0.0278575
-0.0276734
-0.027521
-0.0273496
-0.0270955
-0.0267217
-0.0262195
-0.025597
-0.0248624
-0.0240141
-0.0230484
-0.0219626
-0.0207513
-0.0194089
-0.0179303
-0.0163132
-0.0145567
-0.0126629
-0.0106373
-0.00848927
-0.00623455
-0.0038916
-0.00148902
0.000946284
0.00337237
0.00575658
0.0080463
0.0102041
0.0121672
0.0138924
0.0153077
0.0163614
0.0169726
0.0170676
0.0165835
0.0155635
0.0141949
0.0127717
0.0115818
0.0108259
0.0106901
0.0111312
0.0119249
0.0131207
0.0146669
0.0164781
0.0181838
0.0193348
0.0191326
0.0167787
0.0122257
0.00684846
0.00234286
-0.000833777
-0.000543844
-0.000125803
-0.0210013
-0.0225726
-0.0233668
-0.0235513
-0.0234853
-0.0233931
-0.0233247
-0.0232377
-0.0230769
-0.0228094
-0.0224255
-0.0219308
-0.0213337
-0.0206311
-0.0198187
-0.0188943
-0.0178549
-0.0166969
-0.0154167
-0.0140134
-0.0124873
-0.0108414
-0.00908088
-0.00721401
-0.00525424
-0.00321679
-0.00112572
0.000996707
0.00311513
0.00520172
0.00721085
0.009111
0.0108466
0.0123866
0.0136604
0.0146334
0.0152399
0.0154465
0.0152141
0.0145931
0.0137129
0.0127734
0.011908
0.0113423
0.0112413
0.0115647
0.0122206
0.0131785
0.0144335
0.0158584
0.0171147
0.0179375
0.0175945
0.015625
0.0118975
0.00764243
0.00373844
0.000638352
0.00030166
0.000125325
-0.0171166
-0.0184934
-0.0192252
-0.0194442
-0.0194484
-0.0194268
-0.0194232
-0.0194024
-0.019317
-0.0191386
-0.0188578
-0.018478
-0.0180015
-0.0174316
-0.0167624
-0.0159909
-0.015115
-0.0141328
-0.0130418
-0.0118415
-0.0105328
-0.00911895
-0.00760491
-0.00599797
-0.00430951
-0.00255229
-0.000746417
0.00108962
0.00292621
0.0047403
0.0064919
0.00815475
0.00968186
0.0110485
0.0121958
0.0131005
0.0137072
0.0140051
0.0139668
0.0136416
0.0131289
0.0126353
0.0119597
0.0115618
0.0115124
0.0117606
0.0122969
0.0130503
0.0140284
0.0151078
0.0159873
0.0164996
0.0160401
0.0143968
0.0113228
0.00791213
0.00458648
0.00171311
0.000924928
0.000310487
-0.0135825
-0.0147808
-0.0154475
-0.0156861
-0.0157426
-0.015775
-0.0158208
-0.0158512
-0.0158262
-0.0157208
-0.0155266
-0.015243
-0.0148742
-0.0144241
-0.0138873
-0.0132582
-0.0125348
-0.0117164
-0.0108018
-0.00979069
-0.00868406
-0.00748491
-0.00619784
-0.00482924
-0.00338865
-0.00188682
-0.000340397
0.00123545
0.00281564
0.00438095
0.00589876
0.00734667
0.00868298
0.00988919
0.010923
0.0117658
0.0123691
0.0127325
0.0128374
0.0127205
0.0124247
0.0119338
0.0117399
0.0115414
0.0115542
0.0117567
0.0121892
0.0127683
0.0134998
0.0142803
0.0148487
0.0151077
0.0145622
0.01318
0.0106376
0.00785799
0.0050806
0.00245928
0.00136548
0.0004437
-0.0103775
-0.0114145
-0.0120167
-0.0122647
-0.0123598
-0.012433
-0.0125163
-0.012586
-0.0126086
-0.0125626
-0.0124403
-0.0122411
-0.0119673
-0.0116199
-0.0112003
-0.0107006
-0.0101169
-0.00944867
-0.00869552
-0.00785768
-0.00693596
-0.00593294
-0.00485266
-0.00370056
-0.00248466
-0.00121387
9.81613e-05
0.00143861
0.00278721
0.00412816
0.00543382
0.00668723
0.0078533
0.00891523
0.00984255
0.0106203
0.0112128
0.0116193
0.0118276
0.0118704
0.0118025
0.0115625
0.0114458
0.0113604
0.0114193
0.011592
0.0119335
0.0123657
0.0128874
0.0134192
0.0137391
0.0138053
0.0132059
0.012022
0.00991994
0.00761063
0.00527848
0.00293636
0.0016573
0.00053494
-0.00748151
-0.00837459
-0.00891515
-0.00916546
-0.00928877
-0.00939271
-0.00950404
-0.00960365
-0.00966382
-0.00966619
-0.00960352
-0.00947449
-0.00927774
-0.00901167
-0.00870326
-0.00832152
-0.00786424
-0.00733139
-0.00672357
-0.00604163
-0.0052865
-0.00446026
-0.00356622
-0.0026089
-0.00159493
-0.000531582
0.000570004
0.00169948
0.00284034
0.00397958
0.00509498
0.00617241
0.0071844
0.00811745
0.0089414
0.00965176
0.0102236
0.0106536
0.0109285
0.0110645
0.0110652
0.0110665
0.0110624
0.0110611
0.0111512
0.0113016
0.0115647
0.0118756
0.0122238
0.0125557
0.0126852
0.0126086
0.0119865
0.0109482
0.00920667
0.00725491
0.00527388
0.00320654
0.00183302
0.00059218
-0.00487535
-0.00564128
-0.00612441
-0.00637229
-0.00651602
-0.00664298
-0.00677537
-0.00689801
-0.00698836
-0.0070315
-0.0070216
-0.00695835
-0.00684275
-0.00667591
-0.00643108
-0.00613609
-0.00578328
-0.00536754
-0.00488738
-0.00434322
-0.00373588
-0.00306687
-0.00233863
-0.00155474