/*--------------------------------*- C++ -*----------------------------------*\
| =========                 |                                                 |
| \\      /  F ield         | OpenFOAM: The Open Source CFD Toolbox           |
|  \\    /   O peration     | Version:  2512                                  |
|   \\  /    A nd           | Website:  www.openfoam.com                      |
|    \\/     M anipulation  |                                                 |
\*---------------------------------------------------------------------------*/
FoamFile
{
    version     2.0;
    format      ascii;
    arch        "LSB;label=32;scalar=64";
    class       surfaceScalarField;
    location    "127";
    object      phi;
}
// * * * * * * * * * * * * * * * * * * * * * * * * * * * * * * * * * * * * * //

dimensions      [0 3 -1 0 0 0 0];

oriented        oriented;

internalField   nonuniform List<scalar> 
26232
(
0.000160418
0.000847678
-0.0010081
0.000713535
0.00127746
-0.00183058
0.00176957
0.000603106
-0.00165914
0.00346021
-0.00109636
-0.000594282
0.00593059
-0.00376629
0.00129591
0.00932719
-0.00736619
0.00396958
0.0137814
-0.0118559
0.00740167
0.0193896
-0.0171783
0.01157
0.0261936
-0.0232435
0.0164396
0.0341634
-0.0299197
0.0219498
0.0431901
-0.0370326
0.0280059
0.0530876
-0.0443757
0.0344782
0.0636076
-0.0517275
0.0412075
0.0744631
-0.0588724
0.0480169
0.085358
-0.0656213
0.0547264
0.096017
-0.0718276
0.0611686
0.106212
-0.077398
0.0672027
0.115783
-0.0822955
0.0727252
0.124643
-0.0865347
0.077674
0.132786
-0.0901783
0.0820357
0.140262
-0.093302
0.0858263
0.147182
-0.0960516
0.0891312
0.153561
-0.0984034
0.0920241
-0.100731
0.0948677
0.159425
0.00020493
0.000642748
0.000942179
0.00054021
0.0023561
-0.000810819
0.00460108
-0.00334133
0.00783353
-0.00699875
0.0121937
-0.0117264
0.0177807
-0.0174429
0.0246265
-0.024024
0.0326742
-0.0312913
0.0417696
-0.0390151
0.0516679
-0.0469309
0.0620573
-0.054765
0.0725938
-0.062264
0.082942
-0.0692207
0.092813
-0.0754922
0.101994
-0.0810082
0.110364
-0.0857682
0.117899
-0.089831
0.124663
-0.0932979
0.130779
-0.096295
0.136426
-0.0989487
0.141778
-0.101404
0.147061
-0.103686
-0.106155
0.152484
0.000260574
0.000382175
0.00121077
-0.000409985
0.00302841
-0.00262846
0.00588604
-0.00619896
0.00993706
-0.0110498
0.0152874
-0.0170767
0.0219629
-0.0241183
0.029882
-0.0319431
0.0388465
-0.0402558
0.0485538
-0.0487224
0.0586319
-0.057009
0.0686881
-0.0648212
0.0783615
-0.0719373
0.0873671
-0.0782262
0.0955251
-0.0836503
0.102771
-0.0882542
0.109147
-0.0921439
0.114777
-0.0954613
0.119838
-0.0983594
0.124526
-0.100983
0.129029
-0.103452
0.133499
-0.105873
0.138079
-0.108267
-0.110863
0.142787
0.000336422
4.57527e-05
0.00154368
-0.00161724
0.00382268
-0.00490746
0.00734785
-0.00972412
0.0122409
-0.0159428
0.0185316
-0.0233675
0.0261242
-0.0317109
0.0347844
-0.0406033
0.0441579
-0.0496293
0.0538182
-0.0583828
0.0633309
-0.0665217
0.0723181
-0.0738084
0.0805073
-0.0801266
0.0877573
-0.0854762
0.0940568
-0.0899498
0.0995019
-0.0936992
0.104259
-0.0969015
0.108528
-0.0997295
0.112501
-0.102333
0.116348
-0.104829
0.120197
-0.107302
0.124138
-0.109814
0.128242
-0.11237
-0.115134
0.132513
0.000435986
-0.000390233
0.00194734
-0.00312859
0.00473773
-0.00769786
0.00895461
-0.013941
0.0146469
-0.0216351
0.0217209
-0.0304415
0.0299211
-0.0399111
0.0388513
-0.0495335
0.0480354
-0.0588133
0.0569984
-0.0673458
0.0653449
-0.0748682
0.0728123
-0.0812757
0.0792907
-0.0866051
0.0848103
-0.0909958
0.0895044
-0.0946439
0.0935631
-0.0977579
0.0971894
-0.100528
0.100567
-0.103107
0.103842
-0.105608
0.107121
-0.108108
0.110476
-0.110656
0.113943
-0.113282
0.117561
-0.115988
-0.118877
0.121304
0.000557579
-0.000947812
0.00241044
-0.00498145
0.00573559
-0.011023
0.0106142
-0.0188196
0.0169758
-0.0279967
0.0245648
-0.0380306
0.0329577
-0.048304
0.0416331
-0.058209
0.0500726
-0.0672528
0.0578543
-0.0751275
0.0647136
-0.0817275
0.0705584
-0.0871205
0.0754449
-0.0914915
0.0795293
-0.0950802
0.0830132
-0.0981278
0.0860984
-0.100843
0.0889571
-0.103386
0.0917204
-0.10587
0.0944795
-0.108367
0.0972929
-0.110922
0.100196
-0.113559
0.103209
-0.116294
0.106348
-0.119128
-0.122116
0.109588
0.000695666
-0.00164348
0.00290794
-0.00719373
0.00675058
-0.0148657
0.0121941
-0.0242631
0.0190088
-0.0348113
0.0267643
-0.0457862
0.0349023
-0.0564419
0.0428539
-0.0661606
0.050156
-0.0745548
0.0565228
-0.0814943
0.0618612
-0.0870659
0.0662378
-0.0914971
0.0698204
-0.0950742
0.0728166
-0.0980764
0.0754263
-0.100738
0.0778144
-0.103231
0.0801023
-0.105674
0.0823719
-0.10814
0.0846749
-0.11067
0.087042
-0.113289
0.0894907
-0.116008
0.0920292
-0.118832
0.0946653
-0.121764
-0.124825
0.0973743
0.00084231
-0.00248579
0.00340619
-0.00975761
0.00770199
-0.0191615
0.0135488
-0.0301099
0.0205374
-0.0417999
0.0280864
-0.0533352
0.0355726
-0.063928
0.0424716
-0.0730597
0.0484522
-0.0805354
0.0533977
-0.0864397
0.0573686
-0.0910369
0.0605355
-0.094664
0.0631096
-0.0976482
0.0652915
-0.100258
0.0672439
-0.10269
0.0690837
-0.105071
0.0708883
-0.107479
0.0727051
-0.109957
0.0745622
-0.112527
0.0764757
-0.115202
0.0784542
-0.117986
0.0805019
-0.12088
0.082622
-0.123884
-0.127
0.0847967
0.000988086
-0.00347387
0.00386746
-0.012637
0.00850646
-0.0238005
0.0145455
-0.0361489
0.0214055
-0.04866
0.0284116
-0.0603412
0.03496
-0.0704765
0.0406449
-0.0787446
0.0452988
-0.0851893
0.0489572
-0.0900981
0.0517837
-0.0938634
0.0539917
-0.0968721
0.055786
-0.0994426
0.057332
-0.101804
0.0587471
-0.104105
0.0601074
-0.106431
0.0614588
-0.10883
0.0628279
-0.111326
0.0642301
-0.11393
0.0656741
-0.116646
0.0671648
-0.119477
0.0687043
-0.12242
0.070293
-0.125472
-0.128627
0.0719198
0.00112251
-0.00459638
0.00425364
-0.0157681
0.00908931
-0.0286361
0.0150857
-0.0421453
0.0215342
-0.0551085
0.027741
-0.066548
0.0331955
-0.0759309
0.0376462
-0.0831953
0.0410787
-0.0886218
0.0436366
-0.092656
0.045532
-0.0957588
0.0469766
-0.0983166
0.0481431
-0.100609
0.0491544
-0.102816
0.0500892
-0.10504
0.0509941
-0.107336
0.0518955
-0.109732
0.0528086
-0.112239
0.0537422
-0.114863
0.0547016
-0.117606
0.0556895
-0.120465
0.056707
-0.123437
0.0577533
-0.126519
-0.129697
0.0588234
0.00123534
-0.00583172
0.00453153
-0.0190643
0.00939516
-0.0334998
0.0151181
-0.0478682
0.0209233
-0.0609138
0.0261711
-0.0717958
0.0304881
-0.0802479
0.0337764
-0.0864837
0.036139
-0.0909844
0.0377786
-0.0942956
0.0389138
-0.096894
0.0397295
-0.0991323
0.0403589
-0.101238
0.0408873
-0.103344
0.0413645
-0.105517
0.0418182
-0.10779
0.0422638
-0.110177
0.0427104
-0.112686
0.0431636
-0.115316
0.0436267
-0.118069
0.0441014
-0.12094
0.0445877
-0.123924
0.0450837
-0.127015
-0.130201
0.045588
0.00132036
-0.00715209
0.00467957
-0.0224235
0.00939591
-0.0382161
0.0146406
-0.0531129
0.0196384
-0.0659115
0.0238574
-0.0760148
0.0270736
-0.0834642
0.0293172
-0.0887272
0.0307646
-0.0924318
0.0316374
-0.0951684
0.0321352
-0.0973918
0.0324067
-0.0994037
0.0325483
-0.10138
0.0326164
-0.103412
0.0326418
-0.105542
0.0326406
-0.107789
0.0326221
-0.110159
0.0325922
-0.112656
0.0325549
-0.115279
0.0325129
-0.118027
0.0324674
-0.120894
0.0324182
-0.123874
0.0323624
-0.126959
0.0323014
-0.13014
-0.000265009
-0.00122937
0.00149438
-0.000928318
-0.00352469
0.004188
-0.00191736
-0.00565313
0.00664217
-0.00317763
-0.0075558
0.00881608
-0.004662
-0.00922339
0.0107078
-0.00632713
-0.010694
0.0123591
-0.008133
-0.0120333
0.0138392
-0.0100434
-0.013313
0.0152234
-0.0120262
-0.0145946
0.0165774
-0.0140532
-0.0159192
0.0179462
-0.0160983
-0.0173055
0.0193506
-0.0181355
-0.0187507
0.020788
-0.0201369
-0.0202342
0.0222356
-0.0220699
-0.0217206
0.0236536
-0.0238961
-0.0231614
0.0249876
-0.0255698
-0.0244959
0.0261696
-0.0270376
-0.0256512
0.0271191
-0.0282394
-0.0265419
0.0277436
-0.02911
-0.0270707
0.0279414
-0.0295824
-0.0271313
0.0276037
-0.0295889
-0.0266144
0.0266209
-0.0290702
-0.0254085
0.0248898
-0.0279985
-0.0233886
0.0223169
-0.02046
-0.0264097
0.0188712
-0.000344981
-0.000884389
-0.00118761
-0.00268206
-0.0024178
-0.00442294
-0.00395557
-0.00601803
-0.00573791
-0.00744106
-0.00771399
-0.00871793
-0.00984288
-0.00990439
-0.012092
-0.0110639
-0.0144356
-0.012251
-0.0168525
-0.0135023
-0.0193237
-0.0148343
-0.02183
-0.0162444
-0.0243495
-0.0177148
-0.0268557
-0.0192144
-0.0293161
-0.020701
-0.031691
-0.0221211
-0.0339326
-0.0234096
-0.0359858
-0.0244887
-0.0377894
-0.0252672
-0.0392797
-0.025641
-0.0403958
-0.0254982
-0.0410831
-0.0247212
-0.0413011
-0.0231706
-0.0207087
-0.0410524
-0.000396827
-0.000487562
-0.00135411
-0.00172478
-0.00273388
-0.00304318
-0.00443611
-0.0043158
-0.00638476
-0.0054924
-0.00852226
-0.00658043
-0.0108057
-0.00762092
-0.0132037
-0.00866593
-0.0156927
-0.00976197
-0.0182541
-0.0109409
-0.0208711
-0.0122173
-0.0235258
-0.0135897
-0.0261976
-0.0150429
-0.0288615
-0.0165505
-0.0314868
-0.0180757
-0.0340361
-0.0195717
-0.0364649
-0.0209809
-0.0387202
-0.0222334
-0.0407419
-0.0232455
-0.0424661
-0.0239168
-0.0438334
-0.0241309
-0.044791
-0.0237637
-0.04528
-0.0226816
-0.0207016
-0.0452871
-0.000414032
-7.35298e-05
-0.00140951
-0.000729302
-0.00283425
-0.00161843
-0.00457542
-0.00257463
-0.00654723
-0.00352059
-0.00868565
-0.00444201
-0.010944
-0.0053626
-0.0132883
-0.00632157
-0.0156933
-0.00735697
-0.0181379
-0.0084963
-0.0206022
-0.00975307
-0.0230647
-0.0111272
-0.025501
-0.0126066
-0.0278827
-0.0141689
-0.0301764
-0.015782
-0.0323433
-0.0174047
-0.0343379
-0.0189863
-0.036106
-0.0204654
-0.0375829
-0.0217686
-0.0386937
-0.022806
-0.0393613
-0.0234633
-0.0395173
-0.0236077
-0.039079
-0.0231199
-0.0217686
-0.038012
-0.000395163
0.000321634
-0.00134938
0.000224913
-0.00271138
-0.000256433
-0.00436313
-0.000922871
-0.00621233
-0.00167139
-0.00818833
-0.00246602
-0.010238
-0.00331287
-0.0123213
-0.00423829
-0.014406
-0.00527227
-0.0164638
-0.00643854
-0.0184666
-0.00775027
-0.0203847
-0.00920913
-0.0221853
-0.0108059
-0.0238328
-0.0125214
-0.0252879
-0.0143269
-0.0265084
-0.0161843
-0.0274479
-0.0180468
-0.0280542
-0.019859
-0.0282656
-0.0215571
-0.0280048
-0.0230668
-0.0271748
-0.0242933
-0.0256826
-0.0250999
-0.0234664
-0.0253361
-0.0250922
-0.0201428
-0.00034346
0.000665093
-0.00118333
0.00106478
-0.0023815
0.000941736
-0.00382201
0.000517643
-0.00540874
-8.46672e-05
-0.00706349
-0.000811259
-0.00872423
-0.00165214
-0.01034
-0.00262247
-0.0118671
-0.00374524
-0.0132644
-0.00504126
-0.0144908
-0.00652378
-0.0155037
-0.0081963
-0.0162577
-0.0100519
-0.0167061
-0.0120731
-0.016801
-0.0142319
-0.016495
-0.0164902
-0.0157416
-0.0188003
-0.014494
-0.0211066
-0.0127048
-0.0233463
-0.0103197
-0.0254519
-0.00726028
-0.0273528
-0.00338445
-0.0289757
0.00146052
-0.0301811
-0.0305199
0.0068882
-0.000266896
0.000931989
-0.000932833
0.00173072
-0.00188223
0.00189114
-0.00300616
0.00164157
-0.00420569
0.00111486
-0.00539355
0.000376604
-0.00649757
-0.000548118
-0.00745125
-0.0016688
-0.00819462
-0.00300187
-0.0086697
-0.00456618
-0.00881835
-0.00637513
-0.0085815
-0.00843315
-0.00789964
-0.0107338
-0.00671415
-0.0132586
-0.00496937
-0.0159767
-0.00261446
-0.0188451
0.000395009
-0.0218098
0.00409565
-0.0248072
0.00851854
-0.0277692
0.0136914
-0.0306248
0.0196444
-0.0333058
0.0264312
-0.0357626
0.034024
-0.0377738
-0.0397841
0.0432883
-0.000176467
0.00110846
-0.000629813
0.00218407
-0.00126936
0.00253068
-0.00199455
0.00236675
-0.00270488
0.0018252
-0.00330655
0.000978273
-0.00370914
-0.00014553
-0.00383164
-0.00154629
-0.00359505
-0.00323846
-0.00292245
-0.00523878
-0.00173836
-0.00755923
3.07015e-05
-0.0102022
0.00245421
-0.0131573
0.00559473
-0.0163991
0.00950514
-0.0198871
0.014226
-0.023566
0.019784
-0.0273677
0.0261924
-0.0312157
0.033452
-0.0350288
0.0415551
-0.0387279
0.0504806
-0.0422312
0.0602469
-0.0455288
0.0707713
-0.0482983
-0.0516274
0.0826146
-8.43661e-05
0.00119282
-0.000309827
0.00240953
-0.000606406
0.00282726
-0.000880875
0.00264122
-0.00103092
0.00197524
-0.000952378
0.000899734
-0.000542376
-0.000555531
0.000299163
-0.00238783
0.00166903
-0.00460833
0.00365995
-0.0072297
0.00635906
-0.0102583
0.00984458
-0.0136877
0.0141816
-0.0174943
0.019418
-0.0216355
0.0255806
-0.0260497
0.0326731
-0.0306584
0.0406763
-0.035371
0.0495507
-0.0400901
0.0592406
-0.0447186
0.0696805
-0.0491678
0.0808018
-0.0533525
0.0925529
-0.05728
0.104835
-0.0605803
-0.0646185
0.117826
-1.26065e-06
0.00119408
-4.33537e-06
0.0024126
4.91306e-05
0.0027738
0.000249364
0.00244099
0.000703005
0.0015216
0.00152415
7.8586e-05
0.00282939
-0.00186077
0.0047338
-0.00429224
0.00734701
-0.00722154
0.0107692
-0.0106519
0.0150855
-0.0145746
0.0203591
-0.0189614
0.0266259
-0.0237611
0.0338891
-0.0288987
0.0421172
-0.0342777
0.0512449
-0.0397862
0.061178
-0.0453041
0.0718005
-0.0507126
0.082985
-0.0559031
0.0946003
-0.0607832
0.106531
-0.0652829
0.118648
-0.0693977
0.13095
-0.0728821
-0.0768691
0.143201
6.66213e-05
0.00112746
0.000266261
0.00221296
0.000659631
0.00238042
0.00134069
0.00175993
0.00242308
0.000439209
0.0040318
-0.00153013
0.00629497
-0.00412394
0.00933667
-0.00733394
0.0132684
-0.0111533
0.01818
-0.0155635
0.0241297
-0.0205242
0.0311353
-0.025967
0.0391687
-0.0317945
0.0481532
-0.0378833
0.057968
-0.0440926
0.0684561
-0.0502742
0.0794369
-0.0562849
0.090722
-0.0619977
0.10213
-0.0673109
0.113502
-0.0721554
0.124716
-0.0764964
0.135655
-0.0803367
0.146373
-0.0836
-0.0867768
0.15628
0.000119365
0.000501752
0.00122304
0.00238868
0.00412381
0.00656326
0.00984099
0.014077
0.0193634
0.0257497
0.0332314
0.0417425
0.0511555
0.0612892
0.071923
0.0828174
0.0937353
0.104463
0.114826
0.124706
0.134036
0.14283
0.151255
0.159345
-0.021843
-0.0232995
0.0187328
-0.0164374
-0.0135543
0.00814866
-0.0103551
-0.00123618
-0.00484609
-0.00351059
0.0133624
-0.0202069
0.00383204
0.0301501
-0.0374928
0.0114681
0.0483129
-0.055949
0.0190393
0.0670482
-0.0746194
0.0259278
0.0854551
-0.0923436
0.0319129
0.102018
-0.108003
0.0364481
0.116454
-0.120989
0.0393889
0.12842
-0.131361
0.0413363
0.137459
-0.139406
0.0437607
0.142292
-0.144716
0.0485327
0.140373
-0.145145
0.0568931
0.12858
-0.13694
0.0686405
0.104899
-0.116646
0.0823836
0.0694723
-0.0832154
0.0966476
0.0242421
-0.0385061
0.110473
-0.0270071
0.0131818
0.122924
-0.0781944
0.0657436
0.133006
-0.121206
0.111123
0.139891
-0.150515
0.143629
0.143403
-0.166129
0.162617
0.144226
-0.171818
0.170996
0.143134
-0.171675
0.172767
0.139835
-0.170207
0.173506
0.133567
-0.173303
0.179571
0.125306
-0.181497
0.189758
0.118514
-0.182924
0.189717
0.116771
-0.158005
0.159747
0.121055
-0.0980458
0.0937618
0.129634
-0.0150916
0.00651271
0.139384
0.0686144
-0.0783639
0.147932
0.133943
-0.142491
0.154159
0.175114
-0.181341
0.157371
0.194888
-0.1981
0.156352
0.210294
-0.209275
0.150749
0.22904
-0.223437
0.142857
0.245384
-0.237491
0.136649
0.227787
-0.221579
0.135127
0.161352
-0.15983
0.138458
0.0559595
-0.0592901
0.144757
-0.0578638
0.0515642
0.151343
-0.141015
0.134429
0.154633
-0.199758
0.196468
0.152073
-0.223497
0.226057
0.144988
-0.255974
0.263059
0.13804
-0.247617
0.254565
0.136201
-0.204369
0.206208
0.140185
-0.105628
0.101644
0.146076
0.0269951
-0.032887
0.148621
0.111624
-0.114168
0.146349
0.241453
-0.239181
0.142696
0.261699
-0.258046
0.141588
0.297836
-0.296728
0.142746
0.214872
-0.216031
0.143771
0.0496814
-0.0507062
0.143219
-0.0199548
0.0205069
0.141223
-0.290889
0.292884
-0.240199
0.241948
-0.037504
-0.0268479
-0.0327426
-0.0183157
-0.0268057
-0.00717308
-0.0199043
0.00646093
-0.0121552
0.022401
-0.00382716
0.0399849
0.00497825
0.0582428
0.0134988
0.0769346
0.0214052
0.0941117
0.028425
0.109434
0.0347284
0.122117
0.0410537
0.131133
0.048581
0.134765
0.0583647
0.13059
0.070617
0.116328
0.0844388
0.091077
0.0984251
0.0554859
0.111551
0.0111161
0.123267
-0.0387227
0.133039
-0.087967
0.140167
-0.128333
0.144222
-0.154569
0.145308
-0.167216
0.144162
-0.170672
0.141647
-0.16916
0.137545
-0.166105
0.130742
-0.1665
0.12163
-0.172384
0.113578
-0.174872
0.110857
-0.155284
0.115055
-0.102244
0.12451
-0.0245468
0.13571
0.0574143
0.146024
0.123629
0.153995
0.167143
0.158605
0.190278
0.158634
0.210265
0.153988
0.233687
0.147011
0.252361
0.14128
0.233519
0.139467
0.163164
0.14172
0.0537067
0.146508
-0.0626521
0.151741
-0.146248
0.15425
-0.202267
0.151333
-0.220579
0.144022
-0.248664
0.137028
-0.240623
0.135333
-0.202674
0.139703
-0.109998
0.145788
0.0209101
0.148526
0.108885
0.146423
0.243557
0.142809
0.265313
0.14181
0.298834
0.143149
0.213533
0.144496
0.048335
0.14405
-0.0195094
0.142015
-0.288854
-0.238455
-0.0431516
-0.0289834
-0.0396274
-0.0218399
-0.0347027
-0.0120978
-0.0283281
8.63684e-05
-0.0208029
0.0148757
-0.0122225
0.0314046
-0.00304517
0.0490655
0.00687441
0.067015
0.0169889
0.0839972
0.0269748
0.0994481
0.0369733
0.112119
0.0475137
0.120593
0.0592679
0.12301
0.0725746
0.117283
0.0870069
0.101896
0.101417
0.0766664
0.11461
0.0422938
0.125935
-0.000209126
0.135309
-0.0480964
0.142325
-0.0949836
0.146528
-0.132536
0.147861
-0.155903
0.146737
-0.166092
0.143895
-0.16783
0.140176
-0.165441
0.135509
-0.161438
0.128565
-0.159557
0.119021
-0.16284
0.109854
-0.165706
0.105891
-0.151321
0.109601
-0.105954
0.119481
-0.0344269
0.131906
0.0449894
0.143882
0.111653
0.153574
0.157451
0.15965
0.184202
0.16092
0.208995
0.157465
0.237141
0.151521
0.258305
0.146244
0.238796
0.144017
0.165391
0.145103
0.0526206
0.148308
-0.0658572
0.152128
-0.150068
0.15387
-0.204009
0.15071
-0.217419
0.143277
-0.241231
0.136255
-0.2336
0.134633
-0.201053
0.139311
-0.114677
0.14557
0.0146512
0.148549
0.105906
0.146626
0.245479
0.143013
0.268927
0.142113
0.299734
0.143675
0.211972
0.145375
0.0466348
0.145048
-0.0191823
0.142959
-0.286765
-0.236717
-0.0372908
-0.0297045
-0.0352414
-0.0238893
-0.0317434
-0.0155958
-0.0264871
-0.00516995
-0.0197217
0.00811037
-0.0114681
0.0231509
-0.00237176
0.0399692
0.00873002
0.0559132
0.0205086
0.0722186
0.0328768
0.0870799
0.0457948
0.0992005
0.0594302
0.106958
0.0739269
0.108514
0.0890869
0.102123
0.104169
0.086813
0.118053
0.0627827
0.129791
0.0305559
0.139164
-0.0095817
0.146209
-0.0551423
0.150596
-0.0993702
0.152031
-0.13397
0.150806
-0.154678
0.14768
-0.162966
0.143401
-0.163551
0.138668
-0.160708
0.133567
-0.156337
0.126807
-0.152796
0.117363
-0.153396
0.107411
-0.155753
0.102023
-0.145933
0.104727
-0.108659
0.114553
-0.0442528
0.127934
0.0316088
0.141432
0.0981546
0.152799
0.146085
0.16041
0.17659
0.163111
0.206295
0.161058
0.239195
0.156242
0.26312
0.151368
0.243671
0.148661
0.168098
0.14851
0.0527713
0.150122
-0.0674689
0.152493
-0.152438
0.153468
-0.204984
0.150152
-0.214103
0.142689
-0.233769
0.13565
-0.22656
0.134035
-0.199437
0.13895
-0.119592
0.145396
0.00820541
0.148677
0.102625
0.146962
0.247195
0.143325
0.272563
0.142513
0.300547
0.144324
0.210161
0.146404
0.0445544
0.146206
-0.0189848
0.144048
-0.284606
-0.234983
-0.0207832
-0.0290642
-0.0202395
-0.024433
-0.0181686
-0.0176667
-0.0144979
-0.00884071
-0.00881906
0.00243156
-0.00174892
0.0160808
0.00817962
0.0300406
0.0192235
0.0448693
0.0316511
0.059791
0.0451661
0.0735649
0.0595868
0.0847798
0.0747458
0.0917985
0.0903645
0.092895
0.105902
0.0865859
0.1205
0.0722143
0.133188
0.0500951
0.143341
0.0204029
0.150891
-0.0171318
0.155774
-0.0600251
0.157655
-0.101251
0.156465
-0.13278
0.15289
-0.151103
0.148006
-0.158082
0.142572
-0.158117
0.137063
-0.155199
0.131643
-0.150917
0.125259
-0.146411
0.1164
-0.144538
0.106179
-0.145532
0.0993895
-0.139144
0.100585
-0.109854
0.109853
-0.0535206
0.123794
0.0176681
0.138596
0.0833524
0.151545
0.133135
0.160744
0.167392
0.165052
0.201986
0.164588
0.239659
0.160993
0.266715
0.156496
0.248168
0.153253
0.171341
0.151849
0.0541754
0.151902
-0.0675219
0.152807
-0.153343
0.153011
-0.205188
0.149614
-0.210706
0.142201
-0.226355
0.135148
-0.219508
0.13347
-0.197759
0.138562
-0.124684
0.145227
0.0015403
0.148888
0.0989641
0.147428
0.248655
0.143764
0.276227
0.143021
0.301291
0.145098
0.208083
0.147575
0.042078
0.147521
-0.0189307
0.145275
-0.28236
-0.233252
0.00480199
-0.026978
0.00345835
-0.0230893
0.0039436
-0.0181519
0.00632654
-0.0112237
0.0111107
-0.00235256
0.0177771
0.00941441
0.0260766
0.021741
0.0362828
0.0346631
0.0482224
0.0478514
0.0616109
0.0601765
0.0761252
0.0702654
0.0913484
0.0765754
0.106718
0.0775252
0.121511
0.0717935
0.134885
0.0588393
0.146091
0.0388901
0.154697
0.011796
0.160699
-0.0231336
0.163663
-0.0629892
0.163217
-0.100805
0.159634
-0.129198
0.154006
-0.145475
0.147644
-0.15172
0.141319
-0.151793
0.135269
-0.149149
0.129618
-0.145266
0.123681
-0.140475
0.115784
-0.136641
0.105909
-0.135657
0.0980205
-0.131255
0.097402
-0.109236
0.105493
-0.0616117
0.119509
0.00365254
0.135289
0.0675722
0.149666
0.118758
0.160474
0.156584
0.16654
0.195921
0.167838
0.23836
0.165566
0.268987
0.161446
0.252288
0.15765
0.175136
0.155026
0.0567993
0.15359
-0.066086
0.153037
-0.15279
0.152459
-0.204609
0.149043
-0.207291
0.141752
-0.219064
0.134685
-0.212441
0.132871
-0.195946
0.138085
-0.129897
0.145017
-0.00539219
0.149152
0.0948292
0.148019
0.249788
0.144342
0.279904
0.14365
0.301983
0.145993
0.205739
0.148881
0.0391901
0.148981
-0.0190299
0.146629
-0.280009
-0.23152
0.0393368
-0.0230264
0.0364162
-0.0201688
0.0347969
-0.0165327
0.034978
-0.0114047
0.0371314
-0.004506
0.0416461
0.0048997
0.0481516
0.0152356
0.0567694
0.0260452
0.0673624
0.0372584
0.0796413
0.0478976
0.0931863
0.0567205
0.107429
0.0623327
0.121657
0.0632972
0.135074
0.0583768
0.146907
0.0470057
0.15662
0.0291776
0.163919
0.00449664
0.168502
-0.0277166
0.169669
-0.0641559
0.167075
-0.0982108
0.161387
-0.12351
0.154059
-0.138147
0.14653
-0.144191
0.139561
-0.144823
0.133196
-0.142783
0.127409
-0.139479
0.121873
-0.134939
0.115119
-0.129887
0.106195
-0.126733
0.097786
-0.122846
0.0952968
-0.106747
0.101666
-0.0679804
0.115136
-0.0098183
0.13146
0.0512484
0.147035
0.103183
0.15942
0.144199
0.167352
0.187989
0.170578
0.235135
0.169756
0.269809
0.166059
0.255985
0.161692
0.179504
0.157953
0.0605378
0.155121
-0.0632537
0.153144
-0.150813
0.151769
-0.203234
0.148386
-0.203908
0.141287
-0.211964
0.134204
-0.205358
0.132176
-0.193918
0.137457
-0.135178
0.144714
-0.0126491
0.14943
0.0901127
0.148721
0.250497
0.145067
0.283558
0.144407
0.302643
0.147006
0.20314
0.150313
0.0358838
0.150574
-0.0192914
0.148099
-0.277534
-0.229789
0.0773164
-0.0177283
0.0728762
-0.0157286
0.0694552
-0.0131116
0.0674173
-0.0093668
0.0670755
-0.00416419
0.0689031
0.00307208
0.0728648
0.0112739
0.0790952
0.0198149
0.0875074
0.0288461
0.0978244
0.0375807
0.10958
0.0449645
0.122136
0.0497774
0.134713
0.0507196
0.146498
0.0465917
0.156777
0.0367269
0.165031
0.0209237
0.171234
-0.00170665
0.174319
-0.0308016
0.173669
-0.0635053
0.169081
-0.0936233
0.161621
-0.116049
0.152996
-0.129523
0.14464
-0.135835
0.137245
-0.137428
0.130751
-0.13629
0.124946
-0.133673
0.119716
-0.12971
0.114066
-0.124237
0.106533
-0.119199
0.0983314
-0.114644
0.0942742
-0.102689
0.0985669
-0.0722731
0.110754
-0.0220056
0.127108
0.0348943
0.143561
0.086731
0.157427
0.130333
0.167274
0.178142
0.172537
0.229871
0.173293
0.269053
0.170135
0.259143
0.16527
0.184369
0.160501
0.0653065
0.156422
-0.0591747
0.153082
-0.147474
0.150894
-0.201047
0.147586
-0.200599
0.140754
-0.205133
0.133659
-0.198262
0.131336
-0.191596
0.136616
-0.140458
0.144257
-0.0202902
0.149673
0.0846974
0.149513
0.250656
0.145942
0.287129
0.145297
0.303288
0.148133
0.200304
0.151858
0.0321587
0.152288
-0.0197216
0.14967
-0.274916
-0.228061
0.112276
-0.0121781
0.107383
-0.0108358
0.103246
-0.00897415
0.100056
-0.00617716
0.0982401
-0.00234836
0.0978895
0.00342261
0.0993978
0.00976567
0.102986
0.0162269
0.108709
0.0231223
0.116406
0.0298846
0.12569
0.0356797
0.13597
0.0394973
0.146486
0.0402036
0.156425
0.0366526
0.165077
0.0280756
0.171911
0.0140892
0.176575
-0.00637003
0.178028
-0.0322546
0.175484
-0.0609612
0.169093
-0.0872327
0.160247
-0.107203
0.150748
-0.120023
0.1419
-0.126987
0.134275
-0.129803
0.127789
-0.129804
0.12209
-0.127975
0.117103
-0.124723
0.112364
-0.119498
0.1064
-0.113236
0.0991139
-0.107358
0.0941091
-0.0976846
0.0962143
-0.0743784
0.106559
-0.0323508
0.122298
0.0191557
0.139207
0.0698221
0.154361
0.115178
0.166117
0.166387
0.173552
0.222436
0.176032
0.266573
0.173518
0.261658
0.168274
0.189613
0.16256
0.0710206
0.157408
-0.0540231
0.15279
-0.142855
0.149774
-0.198031
0.146572
-0.197397
0.140103
-0.198664
0.133016
-0.191176
0.13031
-0.188889
0.135512
-0.145661
0.143589
-0.0283668
0.149824
0.0784626
0.150366
0.250115
0.146963
0.290532
0.146321
0.30393
0.149364
0.197261
0.153504
0.0280194
0.154106
-0.0203234
0.151328
-0.272138
-0.226343
0.138355
-0.0073321
0.134043
-0.00652394
0.130265
-0.00519645
0.127148
-0.00305958
0.124976
-0.000177073
0.1239
0.0044987
0.124274
0.00939198
0.126132
0.0143687
0.129679
0.0195759
0.134899
0.0246642
0.141573
0.0290054
0.149281
0.0317899
0.157401
0.0320836
0.16518
0.0288731
0.17193
0.0213263
0.177074
0.00894483
0.179871
-0.00916706
0.179362
-0.0317458
0.174903
-0.0565023
0.166998
-0.0793276
0.157205
-0.0974101
0.147235
-0.110053
0.138192
-0.117945
0.130504
-0.122115
0.124115
-0.123414
0.118641
-0.122501
0.113905
-0.119988
0.109841
-0.115434
0.105368
-0.108762
0.0995151
-0.101505
0.094352
-0.0925215
0.0945531
-0.0745794
0.10267
-0.0404682
0.117155
0.00467155
0.134004
0.0529727
0.150162
0.0990202
0.163697
0.152852
0.173281
0.212852
0.17762
0.262235
0.175966
0.263311
0.170496
0.195082
0.164101
0.0774157
0.158018
-0.0479397
0.152238
-0.137075
0.148373
-0.194166
0.145286
-0.19431
0.139293
-0.192671
0.132266
-0.184149
0.129088
-0.185711
0.134097
-0.15067
0.142653
-0.0369228
0.149821
0.0712951
0.151236
0.2487
0.148112
0.293655
0.147476
0.304566
0.150695
0.194043
0.155234
0.0234798
0.156008
-0.0210977
0.15306
-0.269189
-0.224646
0.152492
-0.0035441
0.149094
-0.0031255
0.146147
-0.00224949
0.144021
-0.000933775
0.142331
0.00151334
0.141814
0.00501565
0.14224
0.00896536
0.143574
0.0130345
0.146152
0.0169982
0.14996
0.0208566
0.154845
0.0241199
0.160485
0.0261504
0.166428
0.02614
0.172084
0.0232179
0.176779
0.0166308
0.179696
0.00602775
0.180603
-0.0100737
0.17815
-0.0292935
0.172087
-0.0504394
0.163182
-0.0704218
0.152979
-0.0872077
0.142954
-0.100028
0.133984
-0.108975
0.12637
-0.114501
0.120099
-0.117143
0.11487
-0.117272
0.110386
-0.115504
0.10674
-0.111788
0.103427
-0.105449
0.0991875
-0.0972657
0.0945888
-0.0879228
0.0934206
-0.0734111
0.099183
-0.0462306
0.111835
-0.00798031
0.128018
0.0367894
0.144806
0.0822321
0.160065
0.137593
0.171956
0.20096
0.1783
0.255891
0.177517
0.264095
0.171986
0.200613
0.165112
0.0842893
0.158324
-0.0411516
0.151519
-0.13027
0.146799
-0.189446
0.143768
-0.191279
0.138342
-0.187245
0.131436
-0.177243
0.127717
-0.181991
0.132386
-0.15534
0.141387
-0.0459235
0.149589
0.0630933
0.152083
0.246205
0.149367
0.296372
0.148746
0.305186
0.15212
0.190669
0.15703
0.0185697
0.157975
-0.0220434
0.154855
-0.266069
-0.222985
0.156927
-0.00112518
0.154499
-0.000697596
0.15229
-4.07332e-05
0.150269
0.0010875
0.149098
0.00268383
0.149019
0.00509443
0.14995
0.00803451
0.15178
0.0112045
0.154353
0.0144254
0.157671
0.0175388
0.161655
0.0201356
0.166086
0.0217194
0.170575
0.0216514
0.174611
0.0191815
0.17763
0.0136117
0.179317
0.0043408
0.178106
-0.00886287
0.174071
-0.0252583
0.16705
-0.0434182
0.157955
-0.0613269
0.148083
-0.0773358
0.138544
-0.0904882
0.129987
-0.100418
0.122629
-0.107143
0.116501
-0.111014
0.111457
-0.112228
0.107175
-0.111221
0.10371
-0.108322
0.101081
-0.102821
0.0982617
-0.0944464
0.0946807
-0.0843418
0.0928139
-0.0715443
0.0964467
-0.0498634
0.106592
-0.0181252
0.121554
0.0218266
0.138189
0.0655973
0.154468
0.121314
0.168432
0.186996
0.177078
0.247244
0.177687
0.263486
0.172526
0.205774
0.165559
0.0912569
0.158238
-0.0338306
0.150626
-0.122659
0.145153
-0.183973
0.142102
-0.188229
0.137285
-0.182427
0.130543
-0.170501
0.12627
-0.177718
0.130505
-0.159575
0.139858
-0.0552764
0.149084
0.0538667
0.152829
0.242461
0.150688
0.298513
0.150128
0.305746
0.153621
0.187176
0.158879
0.0133123
0.159992
-0.0231562
0.156716
-0.262794
-0.221347
0.183823
0.00173329
-0.186681
0.181396
0.00172876
0.179105
0.00225085
0.17702
0.00317259
0.175177
0.00452712
0.173833
0.00643824
0.173096
0.00877092
0.172988
0.0113129
0.173561
0.0138526
0.174955
0.0161447
0.177255
0.0178356
0.180498
0.0184768
0.184629
0.01752
0.189426
0.0143842
0.194461
0.00857737
0.199078
-0.000276766
0.202505
-0.0122896
0.203933
-0.0266869
0.202861
-0.0423453
0.199387
-0.0578531
0.194016
-0.0719648
0.187351
-0.0838238
0.17996
-0.0930268
0.172267
-0.0994504
0.164585
-0.103333
0.157146
-0.10479
0.149903
-0.103978
0.142832
-0.101252
0.136201
-0.0961897
0.129625
-0.0878704
0.122013
-0.0767296
0.114078
-0.0636101
0.109087
-0.0448721
0.1098
-0.0188382
0.11539
0.0162368
0.123005
0.0579825
0.130133
0.114186
0.136291
0.180838
0.142062
0.241474
0.148674
0.256874
0.15729
0.197157
0.165444
0.0831034
0.169606
-0.0379923
0.168036
-0.121089
0.163197
-0.179134
0.157619
-0.182651
0.150252
-0.17506
0.14136
-0.161609
0.134098
-0.170456
0.132205
-0.157682
0.134395
-0.057466
0.136492
0.0517693
0.136358
0.242595
0.134646
0.300224
0.136544
0.303849
0.143195
0.180524
0.149133
0.00737411
0.150328
-0.0243505
0.145691
-0.258157
-0.217397
0.19515
0.00355924
-0.196975
0.193452
0.00342603
0.191908
0.00379508
0.190539
0.00454111
0.189439
0.00562795
0.188784
0.00709276
0.18868
0.00887462
0.189182
0.0108109
0.190344
0.0126907
0.192215
0.014274
0.194806
0.0152443
0.198073
0.01521
0.201876
0.0137171
0.20594
0.0103199
0.209857
0.0046604
0.213134
-0.00355356
0.21507
-0.0142253
0.21516
-0.026777
0.213151
-0.0403364
0.209142
-0.0538444
0.203503
-0.0663259
0.196714
-0.0770341
0.189276
-0.0855895
0.181602
-0.0917757
0.173951
-0.0956814
0.166534
-0.0973725
0.159367
-0.0968115
0.152326
-0.0942106
0.145629
-0.0894927
0.139347
-0.0815885
0.132519
-0.0699016
0.124956
-0.0560469
0.119119
-0.0390345
0.118168
-0.017888
0.122664
0.011741
0.130072
0.0505749
0.137838
0.10642
0.145145
0.173531
0.152367
0.234252
0.160613
0.248628
0.170395
0.187376
0.179129
0.0743695
0.183095
-0.0419588
0.180729
-0.118723
0.174737
-0.173141
0.168275
-0.176189
0.160511
-0.167296
0.151224
-0.152323
0.143227
-0.162459
0.140807
-0.155261
0.142871
-0.0595299
0.145498
0.0491424
0.146051
0.242042
0.144779
0.301496
0.14705
0.301578
0.154082
0.173493
0.160415
0.00104072
0.161459
-0.0253943
0.156027
-0.252725