/*--------------------------------*- C++ -*----------------------------------*\
| =========                 |                                                 |
| \\      /  F ield         | OpenFOAM: The Open Source CFD Toolbox           |
|  \\    /   O peration     | Version:  2512                                  |
|   \\  /    A nd           | Website:  www.openfoam.com                      |
|    \\/     M anipulation  |                                                 |
\*---------------------------------------------------------------------------*/
FoamFile
{
    version     2.0;
    format      ascii;
    arch        "LSB;label=32;scalar=64";
    class       volScalarField;
    location    "136.75";
    object      p;
}
// * * * * * * * * * * * * * * * * * * * * * * * * * * * * * * * * * * * * * //

dimensions      [0 2 -2 0 0 0 0];

internalField   nonuniform List<scalar> 
13248
(
-0.326422
-0.325685
-0.324305
-0.32237
-0.319896
-0.316809
-0.312996
-0.308336
-0.302723
-0.296093
-0.288433
-0.279798
-0.270308
-0.260146
-0.249537
-0.238731
-0.22797
-0.217473
-0.207417
-0.197944
-0.189095
-0.181007
-0.173379
-0.166616
-0.334468
-0.332677
-0.330407
-0.327695
-0.324511
-0.320788
-0.316406
-0.311226
-0.305126
-0.298026
-0.289912
-0.280847
-0.270967
-0.260465
-0.249573
-0.238529
-0.227554
-0.216838
-0.206523
-0.196706
-0.187426
-0.178707
-0.170406
-0.162739
-0.343593
-0.340662
-0.337395
-0.333802
-0.329799
-0.325325
-0.320247
-0.3144
-0.307634
-0.299857
-0.291063
-0.281335
-0.270834
-0.259779
-0.248413
-0.236973
-0.225669
-0.214667
-0.204087
-0.194005
-0.184433
-0.175399
-0.166767
-0.158699
-0.353938
-0.349779
-0.345444
-0.340895
-0.335988
-0.330644
-0.324703
-0.317961
-0.310248
-0.301481
-0.291684
-0.280992
-0.269615
-0.25781
-0.245836
-0.233928
-0.222276
-0.21102
-0.200247
-0.19
-0.180281
-0.1711
-0.162337
-0.154212
-0.365665
-0.360184
-0.354729
-0.349177
-0.343277
-0.336907
-0.329861
-0.321905
-0.312878
-0.302748
-0.291618
-0.279702
-0.267276
-0.254629
-0.242022
-0.229668
-0.217718
-0.206269
-0.195368
-0.185032
-0.175248
-0.166006
-0.157222
-0.149063
-0.378862
-0.371975
-0.365365
-0.358762
-0.351745
-0.344113
-0.335619
-0.326035
-0.315269
-0.303403
-0.29066
-0.277349
-0.263799
-0.250302
-0.237094
-0.224338
-0.212133
-0.200528
-0.189537
-0.17915
-0.169343
-0.160088
-0.151324
-0.143174
-0.393464
-0.385113
-0.377325
-0.369594
-0.361257
-0.352019
-0.34163
-0.329948
-0.31703
-0.303128
-0.288603
-0.273841
-0.259182
-0.244889
-0.231137
-0.218027
-0.205603
-0.193872
-0.182815
-0.172404
-0.162602
-0.153371
-0.144668
-0.136546
-0.409197
-0.399375
-0.390385
-0.381388
-0.371421
-0.360125
-0.347335
-0.333097
-0.317702
-0.301592
-0.285245
-0.269074
-0.253384
-0.238372
-0.224137
-0.210717
-0.198104
-0.186267
-0.175167
-0.164756
-0.154988
-0.145818
-0.137213
-0.129152
-0.425551
-0.414315
-0.404087
-0.393602
-0.38159
-0.367714
-0.352029
-0.334882
-0.316832
-0.298497
-0.280407
-0.262945
-0.24634
-0.2307
-0.216051
-0.202368
-0.189601
-0.177691
-0.166577
-0.156199
-0.1465
-0.137433
-0.12896
-0.120997
-0.441772
-0.429236
-0.417701
-0.405415
-0.390871
-0.373906
-0.354946
-0.334711
-0.314017
-0.293582
-0.273922
-0.255334
-0.237948
-0.221782
-0.206792
-0.192902
-0.180029
-0.168089
-0.157004
-0.146701
-0.137114
-0.12819
-0.119873
-0.112048
-0.456878
-0.443193
-0.430227
-0.415749
-0.398175
-0.377708
-0.355269
-0.331959
-0.308782
-0.286472
-0.26546
-0.245932
-0.227911
-0.21133
-0.196087
-0.182066
-0.169155
-0.157251
-0.146258
-0.136092
-0.126679
-0.117955
-0.109834
-0.10221
-0.469755
-0.455113
-0.440569
-0.423476
-0.402399
-0.378114
-0.352114
-0.325848
-0.300413
-0.276482
-0.254356
-0.234088
-0.215599
-0.198747
-0.183376
-0.169337
-0.156493
-0.144723
-0.133918
-0.123983
-0.11484
-0.106411
-0.0985861
-0.0913067
-0.352372
-0.35454
-0.355772
-0.356598
-0.35752
-0.358707
-0.360207
-0.362014
-0.364089
-0.366369
-0.368783
-0.37124
-0.373632
-0.375831
-0.377684
-0.378997
-0.379522
-0.379026
-0.377462
-0.37456
-0.370167
-0.364208
-0.356808
-0.348414
-0.340681
-0.343368
-0.344797
-0.345566
-0.346216
-0.346898
-0.347642
-0.34843
-0.349209
-0.349908
-0.350444
-0.350721
-0.350638
-0.350085
-0.348956
-0.347156
-0.344251
-0.340478
-0.335688
-0.329837
-0.322924
-0.314989
-0.306371
-0.298273
-0.330194
-0.333231
-0.334778
-0.335465
-0.335841
-0.336037
-0.336061
-0.335882
-0.335437
-0.334645
-0.333415
-0.331653
-0.32926
-0.326138
-0.322181
-0.317255
-0.311618
-0.304972
-0.297387
-0.288975
-0.279884
-0.270245
-0.260388
-0.252094
-0.321313
-0.324537
-0.326129
-0.326721
-0.326846
-0.326604
-0.325986
-0.324947
-0.323416
-0.321307
-0.318529
-0.314994
-0.310619
-0.305336
-0.299092
-0.291884
-0.28376
-0.274759
-0.264993
-0.254646
-0.243965
-0.233159
-0.222209
-0.211978
-0.314291
-0.317561
-0.319136
-0.319622
-0.319519
-0.318896
-0.317724
-0.315948
-0.313491
-0.310268
-0.306194
-0.301194
-0.295209
-0.288203
-0.280175
-0.271167
-0.261272
-0.25063
-0.239439
-0.227969
-0.216564
-0.205577
-0.195271
-0.187
-0.309269
-0.312466
-0.313963
-0.314326
-0.31401
-0.313054
-0.311411
-0.309015
-0.305789
-0.301652
-0.296529
-0.290364
-0.283123
-0.274808
-0.26546
-0.255175
-0.244101
-0.232446
-0.220476
-0.208521
-0.196973
-0.186255
-0.176692
-0.168753
-0.306296
-0.309311
-0.31067
-0.310887
-0.310364
-0.309113
-0.307071
-0.304167
-0.300321
-0.29546
-0.289524
-0.282474
-0.274308
-0.265062
-0.254821
-0.243728
-0.231986
-0.219854
-0.207648
-0.195732
-0.1845
-0.174336
-0.165909
-0.157906
-0.305351
-0.308078
-0.309232
-0.30927
-0.308539
-0.307025
-0.304655
-0.30135
-0.297033
-0.291637
-0.285116
-0.277456
-0.268679
-0.258859
-0.248122
-0.236655
-0.224703
-0.212564
-0.200582
-0.189123
-0.178609
-0.169122
-0.162127
-0.154063
-0.306391
-0.308682
-0.309547
-0.309364
-0.308412
-0.306657
-0.304025
-0.300422
-0.295772
-0.290019
-0.283129
-0.275109
-0.266008
-0.255932
-0.245045
-0.233568
-0.22178
-0.210001
-0.198579
-0.18784
-0.178264
-0.169505
-0.163776
-0.15625
-0.309204
-0.310948
-0.311434
-0.310971
-0.309772
-0.307789
-0.304923
-0.30109
-0.296212
-0.290235
-0.283136
-0.274938
-0.265717
-0.255606
-0.244798
-0.233541
-0.222131
-0.210887
-0.200148
-0.190178
-0.181445
-0.173487
-0.168358
-0.161962
-0.313626
-0.314673
-0.314664
-0.313827
-0.312309
-0.310049
-0.306939
-0.302888
-0.297815
-0.291664
-0.284422
-0.276127
-0.266874
-0.256819
-0.246177
-0.235208
-0.224203
-0.213463
-0.20328
-0.193892
-0.185607
-0.178284
-0.173074
-0.167765
-0.31943
-0.319642
-0.319003
-0.317668
-0.315717
-0.313082
-0.309655
-0.305331
-0.300019
-0.293663
-0.286254
-0.277841
-0.268534
-0.258506
-0.247979
-0.237211
-0.226472
-0.216022
-0.206087
-0.196867
-0.188489
-0.181108
-0.175053
-0.170038
-0.337464
-0.322804
-0.307289
-0.292398
-0.279303
-0.27008
-0.266435
-0.269482
-0.278042
-0.290454
-0.303479
-0.312896
-0.314823
-0.30225
-0.27692
-0.240422
-0.199075
-0.160442
-0.129829
-0.109237
-0.0982138
-0.0953197
-0.0998211
-0.112512
-0.132982
-0.155287
-0.168786
-0.165307
-0.146522
-0.120812
-0.096917
-0.0799934
-0.0709568
-0.0684333
-0.0724311
-0.0850033
-0.104212
-0.119916
-0.120986
-0.107249
-0.0870898
-0.0699163
-0.0580491
-0.0521565
-0.0531423
-0.0597603
-0.064698
-0.0624009
-0.0551299
-0.0480816
-0.0415176
-0.038956
-0.0383224
-0.0380466
-0.0377791
-0.0348377
-0.0259505
-0.0185125
-0.00931865
-0.0024903
-0.289949
-0.280116
-0.271153
-0.265577
-0.261634
-0.26219
-0.268273
-0.27998
-0.29587
-0.313595
-0.329719
-0.340141
-0.340736
-0.327114
-0.298643
-0.257996
-0.212177
-0.169278
-0.134776
-0.110529
-0.0959257
-0.0895114
-0.0903108
-0.098711
-0.114703
-0.133721
-0.146568
-0.145343
-0.130821
-0.109591
-0.0896314
-0.0760686
-0.0698935
-0.0698726
-0.0764926
-0.0919447
-0.113799
-0.13093
-0.131476
-0.11587
-0.0928824
-0.0727423
-0.0582717
-0.0501832
-0.0487557
-0.0532621
-0.0567691
-0.0549754
-0.0495721
-0.0446535
-0.0404439
-0.0398712
-0.0416544
-0.0423845
-0.0422785
-0.0387475
-0.0282909
-0.0197514
-0.0089053
-0.00181984
-0.247304
-0.241497
-0.236495
-0.243047
-0.245243
-0.253396
-0.267048
-0.285272
-0.30624
-0.327299
-0.345104
-0.356
-0.356247
-0.341897
-0.311712
-0.268683
-0.220204
-0.17462
-0.137467
-0.11047
-0.0928793
-0.0832203
-0.080405
-0.0845272
-0.0958887
-0.111335
-0.123258
-0.124132
-0.113726
-0.0969157
-0.0809548
-0.0708634
-0.0676377
-0.070177
-0.0793812
-0.097497
-0.1217
-0.140175
-0.140505
-0.123345
-0.0978747
-0.0750254
-0.0581403
-0.0480607
-0.0444487
-0.0470274
-0.0491808
-0.0477686
-0.043979
-0.0410368
-0.0391796
-0.0407001
-0.045025
-0.0467481
-0.0466403
-0.0424643
-0.030502
-0.0209177
-0.00850848
-0.00118804
-0.21483
-0.21181
-0.212948
-0.219516
-0.229206
-0.243567
-0.262422
-0.284738
-0.308618
-0.331428
-0.350052
-0.361322
-0.361509
-0.346952
-0.316263
-0.272545
-0.223266
-0.176695
-0.138217
-0.109417
-0.0895327
-0.0771216
-0.07104
-0.071132
-0.0779
-0.0895234
-0.100062
-0.103166
-0.0958733
-0.0832229
-0.0711694
-0.064497
-0.0641393
-0.0691242
-0.0806907
-0.101148
-0.127472
-0.147331
-0.147773
-0.129485
-0.101959
-0.0767512
-0.0577026
-0.0458666
-0.0403427
-0.0412144
-0.0420994
-0.0409108
-0.0384412
-0.0372819
-0.03773
-0.0414126
-0.0483866
-0.051091
-0.0508204
-0.0459399
-0.0325545
-0.0219981
-0.00813054
-0.000595681
-0.187828
-0.188588
-0.193088
-0.20209
-0.215395
-0.233076
-0.25462
-0.278848
-0.303886
-0.327231
-0.346179
-0.357544
-0.35775
-0.343354
-0.313162
-0.270336
-0.222091
-0.176206
-0.13763
-0.107861
-0.0862943
-0.0716409
-0.0627792
-0.0593217
-0.061732
-0.0693667
-0.0779166
-0.081841
-0.0777006
-0.0689222
-0.0605313
-0.0570467
-0.0593284
-0.0665246
-0.0801395
-0.102592
-0.13082
-0.152088
-0.152965
-0.134144
-0.105082
-0.0779415
-0.0570253
-0.0436757
-0.0365126
-0.0359115
-0.0356421
-0.0344803
-0.033053
-0.033439
-0.0360944
-0.0419718
-0.051678
-0.0553545
-0.054761
-0.0491256
-0.03442
-0.02298
-0.00777296
-4.33493e-05
-0.170721
-0.173351
-0.179081
-0.189166
-0.203756
-0.222531
-0.244708
-0.269095
-0.293902
-0.316709
-0.335204
-0.346488
-0.346551
-0.332592
-0.303743
-0.263165
-0.217541
-0.173775
-0.136195
-0.106217
-0.0835115
-0.0670776
-0.0559014
-0.0494762
-0.0480673
-0.0517241
-0.0577662
-0.0616234
-0.0598943
-0.0544705
-0.0493314
-0.0486491
-0.053248
-0.0623612
-0.0776623
-0.101702
-0.131541
-0.154224
-0.155875
-0.137232
-0.107208
-0.0786126
-0.0561595
-0.0415371
-0.0329973
-0.0311589
-0.0298822
-0.0285848
-0.0279015
-0.0295561
-0.0342701
-0.0423316
-0.0548263
-0.0594671
-0.0584066
-0.0519777
-0.036071
-0.0238484
-0.00743473
0.000469791
-0.161588
-0.16524
-0.170566
-0.180065
-0.194341
-0.212637
-0.233923
-0.257131
-0.28067
-0.302557
-0.319818
-0.329944
-0.329606
-0.316359
-0.289613
-0.252431
-0.21066
-0.170088
-0.134353
-0.104812
-0.0814484
-0.0636407
-0.050574
-0.0417006
-0.0370875
-0.0370725
-0.0403148
-0.0434195
-0.0432377
-0.0403728
-0.0379462
-0.039581
-0.0461001
-0.0567622
-0.0733038
-0.0984409
-0.129588
-0.153683
-0.156398
-0.138711
-0.108316
-0.0787711
-0.0551377
-0.0394804
-0.0298045
-0.0269453
-0.0248374
-0.0232841
-0.0230629
-0.025682
-0.0322542
-0.04244
-0.0577514
-0.0633476
-0.061709
-0.05446
-0.0374837
-0.0245899
-0.00711179
0.000946831
-0.159211
-0.163184
-0.166853
-0.174458
-0.187188
-0.203781
-0.223038
-0.244003
-0.265252
-0.28563
-0.300902
-0.309247
-0.308425
-0.296225
-0.272304
-0.239408
-0.202306
-0.1656
-0.132289
-0.1037
-0.0801229
-0.0613289
-0.0467775
-0.0359498
-0.028754
-0.0255584
-0.0259516
-0.0277781
-0.0285512
-0.0270524
-0.0268015
-0.0302111
-0.0381587
-0.0499364
-0.0672618
-0.0929588
-0.125059
-0.150577
-0.154492
-0.138593
-0.108403
-0.0784247
-0.0539849
-0.0375253
-0.0269327
-0.023242
-0.0204771
-0.0186022
-0.0186043
-0.0218637
-0.0300483
-0.0422452
-0.0603669
-0.0669114
-0.0646234
-0.0565454
-0.0386415
-0.025201
-0.00680366
0.00139352
-0.161916
-0.16518
-0.166521
-0.171641
-0.181881
-0.195707
-0.212047
-0.230102
-0.248683
-0.264769
-0.278509
-0.285505
-0.284519
-0.273822
-0.253336
-0.225261
-0.193197
-0.160647
-0.130076
-0.102825
-0.079447
-0.0600521
-0.0444006
-0.0320759
-0.0228763
-0.017076
-0.0147793
-0.0149047
-0.0154126
-0.0147723
-0.0163305
-0.0209271
-0.0297541
-0.0421555
-0.0597165
-0.0855105
-0.11825
-0.145192
-0.150232
-0.136997
-0.107569
-0.0776819
-0.0528143
-0.035751
-0.0244074
-0.0200378
-0.0167797
-0.0145354
-0.0145689
-0.0181474
-0.0276512
-0.041696
-0.0625954
-0.0700769
-0.0670988
-0.0582134
-0.0395373
-0.0256856
-0.0065232
0.00181597
-0.166472
-0.167936
-0.16733
-0.170225
-0.177406
-0.187706
-0.200516
-0.215195
-0.231521
-0.244169
-0.254735
-0.26056
-0.259849
-0.251192
-0.234563
-0.21148
-0.184454
-0.156077
-0.128395
-0.102763
-0.079939
-0.0602784
-0.0438154
-0.0303132
-0.0195316
-0.0116232
-0.0068865
-0.00502787
-0.00458068
-0.00379373
-0.0069012
-0.0120395
-0.0211975
-0.033778
-0.0512281
-0.0766336
-0.109473
-0.138024
-0.143755
-0.134138
-0.106026
-0.0767685
-0.0518406
-0.0343215
-0.0222873
-0.0173004
-0.0137377
-0.0111218
-0.0109894
-0.0145561
-0.0250897
-0.0407529
-0.0643537
-0.0727502
-0.0690947
-0.0594414
-0.0401632
-0.0260329
-0.00628018
0.00221846
-0.169597
-0.168892
-0.167542
-0.168769
-0.172787
-0.179519
-0.188728
-0.199585
-0.210771
-0.221947
-0.230757
-0.235968
-0.236009
-0.229814
-0.217219
-0.199067
-0.176947
-0.152692
-0.127977
-0.104132
-0.0820734
-0.062364
-0.045265
-0.0307681
-0.0187
-0.00909013
-0.00219878
0.00174389
0.00338429
0.00580608
0.00114177
-0.00387085
-0.0127811
-0.0249319
-0.0416754
-0.0664534
-0.0996957
-0.129873
-0.148235
-0.130057
-0.103534
-0.0754217
-0.0508238
-0.03309
-0.0204465
-0.0148431
-0.0111193
-0.00833304
-0.00809589
-0.0111632
-0.0223108
-0.0393587
-0.0656311
-0.0748115
-0.0705612
-0.0601846
-0.0404689
-0.0261935
-0.00602592
0.00261572
-0.169235
-0.167987
-0.166749
-0.166457
-0.167868
-0.17152
-0.177149
-0.18427
-0.191688
-0.200832
-0.207254
-0.211199
-0.211555
-0.207303
-0.198053
-0.184076
-0.166225
-0.145731
-0.123941
-0.102114
-0.0812475
-0.0620588
-0.0449435
-0.0300603
-0.0173928
-0.00689977
0.00142437
0.0071061
0.00946326
0.00686772
0.00766777
0.00317521
-0.00515696
-0.0166631
-0.0324801
-0.0559728
-0.0883401
-0.118645
-0.134378
-0.122472
-0.0986971
-0.0720848
-0.0483063
-0.0309571
-0.018213
-0.0122985
-0.00837956
-0.00557505
-0.0060419
-0.0080959
-0.0195467
-0.0375477
-0.0662192
-0.0762233
-0.0714755
-0.0604033
-0.0403471
-0.0261106
-0.00564271
0.00305156
-0.164909
-0.166211
-0.164723
-0.163361
-0.163795
-0.166402
-0.170807
-0.176416
-0.182624
-0.188807
-0.193729
-0.196419
-0.195835
-0.191192
-0.18219
-0.169082
-0.152598
-0.133775
-0.113753
-0.0936094
-0.0742023
-0.0561604
-0.039842
-0.0254087
-0.0128856
-0.00227411
0.00648558
0.0130294
0.0165651
0.016274
0.0158732
0.0117263
0.00452333
-0.00562374
-0.0204803
-0.0441215
-0.078653
-0.11207
-0.129052
-0.11761
-0.0933594
-0.0672594
-0.0443061
-0.0276931
-0.0154286
-0.00977531
-0.00562196
-0.00245478
-0.00182045
-0.00400781
-0.0157979
-0.0348939
-0.0664761
-0.0779104
-0.0724667
-0.0603914
-0.0398805
-0.0258501
-0.00514089
0.00348407
-0.159129
-0.162231
-0.160854
-0.158745
-0.158333
-0.160002
-0.163195
-0.167237
-0.171498
-0.175574
-0.178544
-0.179522
-0.177758
-0.172687
-0.164095
-0.152179
-0.137491
-0.120818
-0.103036
-0.0849957
-0.0674021
-0.0508104
-0.0355581
-0.0218405
-0.00975782
0.000674796
0.00957759
0.0165992
0.02079
0.0214334
0.0207179
0.0174756
0.0115502
0.00280367
-0.0109681
-0.034378
-0.0697966
-0.103815
-0.119057
-0.108947
-0.0856757
-0.0612791
-0.0400319
-0.0246119
-0.0129432
-0.00744947
-0.0032588
-0.000243563
0.000222462
-0.00120696
-0.0128817
-0.0326069
-0.0661917
-0.0787934
-0.0722273
-0.0596811
-0.0390074
-0.0252731
-0.00464162
0.00372229
-0.151234
-0.15581
-0.155015
-0.15265
-0.151566
-0.152346
-0.154432
-0.157138
-0.15992
-0.162237
-0.163529
-0.16322
-0.16076
-0.155708
-0.147857
-0.137289
-0.124364
-0.109649
-0.0938204
-0.0775731
-0.0615156
-0.0461555
-0.0318331
-0.0187613
-0.00706619
0.00316138
0.0120019
0.0192111
0.0239641
0.0256129
0.0251016
0.0223858
0.0173428
0.00940896
-0.00391811
-0.026973
-0.0611097
-0.0933289
-0.108144
-0.0989027
-0.0774153
-0.0551159
-0.0356781
-0.0214829
-0.0104803
-0.00519894
-0.00102794
0.00180001
0.00242406
0.000999221
-0.0107168
-0.0307584
-0.0652777
-0.0787391
-0.0714481
-0.0584105
-0.0378209
-0.0244602
-0.00417412
0.00386499
-0.14207
-0.147704
-0.147636
-0.145355
-0.143851
-0.143956
-0.145219
-0.146902
-0.148432
-0.149439
-0.149574
-0.148423
-0.14555
-0.140593
-0.13335
-0.123847
-0.112333
-0.0992406
-0.0850992
-0.0704734
-0.0558695
-0.0417279
-0.0283669
-0.0160048
-0.00477657
0.00516698
0.013837
0.0210963
0.0263213
0.0288237
0.0288965
0.0270198
0.0229755
0.0158039
0.00287965
-0.0192958
-0.051329
-0.0818378
-0.0957541
-0.0877505
-0.0685079
-0.0485593
-0.0311017
-0.0182774
-0.00805333
-0.00302807
0.00109651
0.00380332
0.00452979
0.00302976
-0.00868913
-0.0286041
-0.0634382
-0.0777608
-0.0700238
-0.0565662
-0.0363081
-0.0233873
-0.00372608
0.00393359
-0.132224
-0.138495
-0.139129
-0.137148
-0.135484
-0.135127
-0.135733
-0.136608
-0.137248
-0.137358
-0.136682
-0.134918
-0.131742
-0.126874
-0.120147
-0.111563
-0.101294
-0.0896546
-0.0770449
-0.0639072
-0.0506563
-0.0376724
-0.0252511
-0.0136183
-0.00291306
0.00668963
0.0151319
0.0223132
0.027789
0.0309559
0.0318336
0.031037
0.0282904
0.0223209
0.0102773
-0.0108332
-0.0411032
-0.0697701
-0.0823938
-0.0757144
-0.0591299
-0.0417997
-0.0264249
-0.0150456
-0.00568049
-0.000944824
0.00311483
0.00572408
0.00644449
0.00498526
-0.00646144
-0.0257824
-0.0605415
-0.0756684
-0.0677836
-0.0540976
-0.0344429
-0.0220498
-0.00329123
0.00392379
-0.121965
-0.128608
-0.129847
-0.128259
-0.126604
-0.125944
-0.126069
-0.126382
-0.126415
-0.1259
-0.12465
-0.122464
-0.119116
-0.114398
-0.108173
-0.100422
-0.091253
-0.0808903
-0.069634
-0.0578335
-0.0458297
-0.0339488
-0.0224558
-0.0115736
-0.00144565
0.0077513
0.0159126
0.0229313
0.0285041
0.0321498
0.0337701
0.0340392
0.0327496
0.0283672
0.0174753
-0.00270195
-0.0311263
-0.0572444
-0.0683964
-0.0632049
-0.0495754
-0.035006
-0.0217332
-0.0118192
-0.00337388
0.00104128
0.00501534
0.00754958
0.00818881
0.00686456
-0.00401679
-0.0223358
-0.0564592
-0.0722304
-0.0646114
-0.0509926
-0.032225
-0.0204508
-0.00285972
0.00383626
-0.111646
-0.118389
-0.12008
-0.11889
-0.117352
-0.116545
-0.116369
-0.116307
-0.115928
-0.114998
-0.113386
-0.110963
-0.107574
-0.103065
-0.0973213
-0.0903141
-0.0821095
-0.0728695
-0.0628205
-0.0522361
-0.0413916
-0.0305622
-0.019981
-0.00985989
-0.000347243
0.0083857
0.0162164
0.0230287
0.028586
0.0325246
0.0347188
0.0358459
0.0357942
0.0328903
0.0231966
0.0042883
-0.0215548
-0.0444745
-0.0542307
-0.0507072
-0.0401511
-0.0283573
-0.0171327
-0.00864054
-0.00114568
0.00292717
0.00679422
0.00928843
0.00979342
0.00864256
-0.00144673
-0.0183377
-0.0510811
-0.0673064
-0.060445
-0.047274
-0.0296745
-0.0186034
-0.0024204
0.00367923
-0.10148
-0.108077
-0.110077
-0.109266
-0.107919
-0.107083
-0.106736
-0.106437
-0.105806
-0.104638
-0.102838
-0.100324
-0.0969927
-0.0927312
-0.0874497
-0.0811174
-0.073775
-0.0655381
-0.0565755
-0.0470992
-0.0373296
-0.0274974
-0.0178059
-0.0084499
0.000421778
0.00864564
0.0160945
0.0226545
0.0281099
0.0321976
0.0347838
0.0364478
0.0371354
0.0352365
0.0268462
0.0100213
-0.0123974
-0.0318499
-0.0405175
-0.0387692
-0.0311815
-0.0220255
-0.0127252
-0.005554
0.000994813
0.0047181
0.00845456
0.0109502
0.0112891
0.0103201
0.00122929
-0.0138061
-0.0444287
-0.0608859
-0.0552799
-0.0430004
-0.0268351
-0.0165334
-0.00195924
0.00346877
-0.0915453
-0.097881
-0.10008
-0.0996064
-0.0984773
-0.0976852
-0.0972601
-0.0968365
-0.0960779
-0.0948054
-0.0929453
-0.090449
-0.0872507
-0.0832713
-0.0784425
-0.0727356
-0.0661741
-0.0588398
-0.0508578
-0.0423926
-0.03362
-0.0247319
-0.015904
-0.00731062
0.000904093
0.00858586
0.0156072
0.0218613
0.0271457
0.0312666
0.0340826
0.0360089
0.0369753
0.0356193
0.0286675
0.0146048
-0.00393406
-0.020077
-0.0279983
-0.0279281
-0.0229552
-0.0161516
-0.00859781
-0.00260724
0.00303563
0.00642068
0.010005
0.0125461
0.0127294
0.0119574
0.00406451
-0.00881425
-0.036698
-0.0531155
-0.0491907
-0.0382681
-0.0237745
-0.0142811
-0.00145893
0.00322894
-0.0819956
-0.0879864
-0.0902786
-0.0900789
-0.0891663
-0.0884606
-0.0880278
-0.0875613
-0.0867654
-0.0854827
-0.0836564
-0.0812598
-0.0782539
-0.074585
-0.0702017
-0.0650793
-0.0592304
-0.0527133
-0.0456215
-0.0380821
-0.0302354
-0.022239
-0.0142435
-0.00640325
0.00114659
0.00826319
0.0148219
0.02072
0.0257735
0.0298273
0.0327398
0.0347592
0.0357604
0.0347002
0.0291699
0.0179871
0.00321264
-0.00999316
-0.0173035
-0.018561
-0.0156694
-0.0108324
-0.00481471
0.000152526
0.0049601
0.00803298
0.0114524
0.0140899
0.0141997
0.0136593
0.00710071
-0.00353969
-0.0282521
-0.0443261
-0.0423524
-0.0332075
-0.020578
-0.0119042
-0.000898008
0.00299108
-0.0729543
-0.0785031
-0.0807921
-0.0808087
-0.0801018
-0.0795053
-0.0791072
-0.0786537
-0.0778847
-0.0766602
-0.0749354
-0.072698
-0.0699269
-0.0665868
-0.0626402
-0.0580665
-0.0528729
-0.0471012
-0.0408214
-0.0341318
-0.0271443
-0.0199875
-0.0127895
-0.00568526
0.00120066
0.00773833
0.0138083
0.0193096
0.0240841
0.027989
0.0308909
0.032903
0.0338536
0.0329936
0.028685
0.0200441
0.00854813
-0.00210904
-0.0087144
-0.0107988
-0.00940851
-0.00611927
-0.00141531
0.00268269
0.00674977
0.00954114
0.0127889
0.0155758
0.0157868
0.0155337
0.0103335
0.00176222
-0.0195937
-0.0350281
-0.0350508
-0.0279762
-0.0173394
-0.00947809
-0.000253794
0.00278996
-0.0644188
-0.0694877
-0.0717159
-0.0719003
-0.0713794
-0.0709004
-0.0705629
-0.0701575
-0.0694567
-0.0683355
-0.066757
-0.0647173
-0.0622075
-0.0592052
-0.0556837
-0.051627
-0.047039
-0.04195
-0.0364129
-0.0305042
-0.0243126
-0.0179435
-0.0115048
-0.00511336
0.00111882
0.00707417
0.0126383
0.0177168
0.0221659
0.0258619
0.0286699
0.0306111
0.0314929
0.0307966
0.0274597
0.0208837
0.0120853
0.00362655
-0.00212988
-0.0045684
-0.00416424
-0.00202767
0.00158284
0.00494931
0.00838571
0.010926
0.0139926
0.0169528
0.0175035
0.0176366
0.0137069
0.00678585
-0.0113202
-0.0258453
-0.0276472
-0.0227438
-0.0141501
-0.00709419
0.000483622
0.00266203
-0.0564008
-0.0610003
-0.0631304
-0.0634371
-0.0630749
-0.0627101
-0.0624465
-0.0621096
-0.0615002
-0.060508
-0.0591013
-0.0572811
-0.0550456
-0.0523817
-0.0492707
-0.0457003
-0.0416725
-0.0372101
-0.0323532
-0.0271616
-0.0217062
-0.0160728
-0.010352
-0.00464393
0.000952149
0.00633056
0.0113843
0.0160227
0.0201221
0.0235631
0.026217
0.0280493
0.0288734
0.028337
0.0257744
0.020824
0.0141856
0.00759908
0.00276389
0.000313333
0.000129488
0.00145148
0.00417856
0.00693216
0.00984555
0.012166
0.0150408
0.0181387
0.0192204
0.0198579
0.0170263
0.0111781
-0.00401713
-0.0173694
-0.0205115
-0.0176771
-0.0110934
-0.00484843
0.00129656
0.00262777
-0.0489525
-0.053084
-0.0550807
-0.0554691
-0.0552404
-0.0549801
-0.0547912
-0.0545311
-0.0540258
-0.0531754
-0.0519524
-0.05036
-0.0484012
-0.0460687
-0.0433494
-0.0402342
-0.0367243
-0.0328367
-0.0286024
-0.0240686
-0.0192918
-0.0143422
-0.00929487
-0.0042359
0.000748044
0.00556279
0.0101118
0.0143075
0.0180409
0.0212022
0.0236686
0.0253791
0.0261682
0.0258004
0.0238738
0.020199
0.0152617
0.0102362
0.00630854
0.00405612
0.0035669
0.00434441
0.00637972
0.00862523
0.0111059
0.013236
0.0159121
0.019052
0.0206887
0.021822
0.0198552
0.0145765
0.00191529
-0.0100049
-0.0139761
-0.0129351
-0.0082464
-0.00282921
0.00213903
0.00266913
-0.0420726
-0.0457416
-0.0475835
-0.0480234
-0.0479053
-0.0477386
-0.0476217
-0.0474399
-0.047041
-0.0463347
-0.0452961
-0.04393
-0.0422413
-0.0402265
-0.0378766
-0.0351846
-0.0321514
-0.0287899
-0.0251244
-0.0211921
-0.0170383
-0.0127205
-0.00830073
-0.00385241
0.000549571
0.00482233
0.00888097
0.012642
0.0160068
0.0188771
0.0211441
0.0227357
0.0235127
0.0233217
0.0219291
0.0192587
0.01565
0.0118914
0.00879361
0.00685418
0.00625349
0.00669112
0.00820046
0.0100309
0.0121492
0.014107
0.0165723
0.0196197
0.0216621
0.0230743
0.021689
0.0167647
0.00633964
-0.00395341
-0.00829367
-0.00866011
-0.00567572
-0.00111012
0.00293247
0.00273488
-0.0357272
-0.0389647
-0.0406479
-0.0411174
-0.0410892
-0.0410039
-0.0409518
-0.0408458
-0.0405483
-0.0399804
-0.0391194
-0.0379697
-0.0365377
-0.0348219
-0.0328158
-0.0305141
-0.0279173
-0.0250354
-0.0218874
-0.0185029
-0.0149182
-0.0111803
-0.00734069
-0.00346115
0.000394346
0.00415317
0.00774175
0.0110823
0.0140882
0.0166725
0.0187412
0.0202216
0.0210038
0.0209894
0.0200451
0.0181638
0.0155879
0.0128381
0.0104656
0.00888467
0.00829546
0.0085398
0.00966129
0.0111568
0.0129654
0.0147514
0.0169795
0.0197873
0.021991
0.0233324
0.0223119
0.0178038
0.00934071
0.000716859
-0.00362945
-0.00496559
-0.00342287
0.000264508
0.00356635
0.00275513
-0.029906
-0.0327483
-0.0342732
-0.0347551
-0.0347997
-0.0347877
-0.0348032
-0.0347529
-0.0345438
-0.0341031
-0.0334072
-0.0324594
-0.0312659
-0.0298265
-0.0281364
-0.0261912
-0.0239911
-0.0215438
-0.0188642
-0.0159758
-0.0129079
-0.00969882
-0.00639074
-0.00303583
0.000312314
0.00359022
0.00673472
0.0096759
0.0123401
0.0146508
0.0165299
0.0179087
0.0187033
0.0188521
0.0182814
0.0170199
0.0152357
0.0132907
0.0115267
0.0103021
0.00979375
0.00994363
0.0107878
0.0120141
0.0135519
0.0151539
0.0171197
0.0195653
0.0215703
0.0227001
0.0219032
0.017947
0.0111423
0.00406087
-0.000195325
-0.00191436
-0.00150643
0.00130446
0.00394599
0.00266896
-0.0245952
-0.0270727
-0.0284413
-0.0289209
-0.0290203
-0.0290643
-0.0291242
-0.0291344
-0.0290094
-0.0286866
-0.0281426
-0.0273794
-0.0264035
-0.0252157
-0.0238123
-0.0221894
-0.0203469
-0.0182907
-0.0160323
-0.0135905
-0.0109886
-0.00825792
-0.00543282
-0.00255685
0.000325224
0.00315882
0.00589032
0.00845824
0.010802
0.0128554
0.0145564
0.0158412
0.0166462
0.0169363
0.0166702
0.0158886
0.0147068
0.0133962
0.0121298
0.0112337
0.0108408
0.0109591
0.0116095
0.0126186
0.0139151
0.0153201
0.017014
0.0190338
0.0206854
0.0215077
0.0208242
0.0174845
0.0120403
0.0062963
0.00246851
0.000515221
7.21596e-05
0.0020507
0.00404154
0.00245897
-0.0197621
-0.0219093
-0.0231296
-0.0235983
-0.0237398
-0.0238294
-0.0239311
-0.0239921
-0.0239374
-0.0237165
-0.0233075
-0.0227103
-0.0219299
-0.0209678
-0.0198211
-0.0184866
-0.0169636
-0.0152564
-0.0133739
-0.011331
-0.00914625
-0.00684496
-0.00445487
-0.00201201
0.000446526
0.00287474
0.0052273
0.00745142
0.00949839
0.0113114
0.012847
0.0140414
0.0148493
0.0152518
0.0152242
0.0148088
0.0140764
0.0131879
0.0123837
0.0117845
0.0115194
0.0116422
0.0121596
0.0129913
0.0140729
0.0152731
0.0166891
0.0182813
0.0195693
0.020065
0.0194125
0.016662
0.0123261
0.00768413
0.00431837
0.00234703
0.00132748
0.00254643
0.00388575
0.00215561
-0.0153771
-0.0172306
-0.0183139
-0.0187663
-0.0189402
-0.0190677
-0.0192051
-0.0193062
-0.0193079
-0.0191741
-0.0188841
-0.0184335
-0.0178259
-0.0170632
-0.0161436
-0.015064
-0.0138235
-0.012425
-0.0108753
-0.00918591
-0.00737157
-0.00545244
-0.00345085
-0.00139625
0.000681421
0.00274393
0.00475401
0.00666757
0.00844445
0.0100494
0.0114115
0.0125145
0.0133132
0.0137965
0.0139488
0.0138115
0.0134314
0.012911
0.0124101
0.0120479
0.0119035
0.0120466
0.0124729
0.0131587
0.0140494
0.0150429
0.0161882
0.0173825
0.018337
0.0185627
0.0179053
0.0156613
0.0122177
0.00846759
0.0055216
0.00364959
0.00228955
0.00284125
0.00356706
0.00182285
-0.0114147
-0.0130081
-0.013966
-0.0143982
-0.0145956
-0.0147519
-0.0149159
-0.015051
-0.0151054
-0.0150431
-0.0148526
-0.0145286
-0.0140718
-0.0134834
-0.0127621
-0.0119055
-0.0109122
-0.0097843
-0.0085265
-0.00714781
-0.00565955
-0.00407774
-0.00242005
-0.000709993
0.0010281
0.00276316
0.00446576
0.00609904
0.00762703
0.00901638
0.0102312
0.0112476
0.0120261
0.0125603
0.0128408
0.0129085
0.0128081
0.0125381
0.012271
0.012096
0.0120559
0.0122226
0.0125856
0.0131498
0.0138708
0.0146674
0.015563
0.0164034
0.0170744
0.0171017
0.0164398
0.0146018
0.0118615
0.00882951
0.00624726
0.00451888
0.00299928
0.00299349
0.00318844
0.00151366
-0.00784598
-0.00921055
-0.010055
-0.0104652
-0.0106796
-0.0108585
-0.0110435
-0.0112057
-0.0113005
-0.0112998
-0.0111921
-0.0109756
-0.0106486
-0.0102108
-0.00966096
-0.00899715
-0.00821815
-0.00732492
-0.00632083
-0.00521259
-0.0040089
-0.00272219
-0.00136615
4.05613e-05
0.0014787
0.00292367
0.00435095
0.0057315
0.00703792
0.00823924
0.00931106
0.0102268
0.0109705
0.0115285
0.0118897
0.012081
0.0120935
0.0120867
0.0120145
0.0119855
0.01203
0.0122166
0.0125328
0.0129936
0.0135674
0.0141866
0.0148616
0.015432
0.0158505
0.0157348
0.0150799
0.0135577
0.0113579
0.0089024
0.00663322
0.00504947
0.00349777
0.00305354
0.00282495
0.00125505
-0.00464201
-0.00580734
-0.00655066
-0.00693857
-0.00716458
-0.00736054
-0.00756145
-0.00774435
-0.00787295
-0.00792161
-0.00788261
-0.0077545
-0.00753733
-0.0072282
-0.00682519
-0.00632657
-0.00573128
-0.00503971
-0.00425404
-0.00337909
-0.0024214
-0.00139048
-0.000296836
0.000845097
0.00202031
0.00320937
0.0043932
0.00554889
0.00665424
0.00768589
0.00862124
0.00944392
0.01013
0.0106848
0.0110947
0.0113741
0.0115336
0.011638
0.011692
0.0117655
0.0118721
0.0120704
0.0123485
0.0127217
0.0131695
0.0136336
0.0141193
0.0144779
0.0146989
0.0144842
0.0138461
0.0125699
0.0107773
0.00877737
0.00678384
0.00532837
0.00382167
0.00306052
0.00251337
0.00105368
-0.00177604
-0.00276913
-0.00342312
-0.00378902
-0.00402254
-0.00423088
-0.00444329
-0.00464162
-0.00479671
-0.00488755
-0.0049045
-0.00484814
-0.00472017
-0.00451922
-0.00424073
-0.00388232
-0.00344309
-0.00292306
-0.00232359
-0.00164804
-0.000901162
-9.00812e-05
0.000777224
0.0016899
0.00263645
0.00360195
0.00457155
0.00552729
0.00645183
0.00732751
0.00813647
0.0088653
0.0094986
0.0100306
0.0104509
0.0107785
0.011014
0.0111972
0.0113335
0.0114734
0.0116209
0.0118214
0.0120654
0.0123642
0.0127051
0.0130373
0.0133666
0.0135634
0.013634
0.0133545
0.0127397
0.0116567
0.0101685
0.00851983
0.00676934
0.00538351
0.00399321
0.00303887
0.00226442
0.000903289
0.000777502
-6.75636e-05
-0.000643247
-0.000988025
-0.00122579
-0.00144278
-0.00166302
-0.00187243
-0.00204767
-0.00217175
-0.00223692
-0.00224143
-0.0021857
-0.00207043
-0.00189418
-0.00165362
-0.00134605
-0.00097067
-0.000528462
-2.18114e-05
0.000545978
0.00116977
0.00184359
0.00255937
0.00330853
0.00407981
0.00486181
0.00564086
0.00640358
0.00713618
0.00782463
0.0084582
0.00902362
0.00951763
0.0099314
0.0102762
0.0105491
0.0107774
0.0109619
0.0111391
0.0113084
0.0115022