/*--------------------------------*- C++ -*----------------------------------*\
| =========                 |                                                 |
| \\      /  F ield         | OpenFOAM: The Open Source CFD Toolbox           |
|  \\    /   O peration     | Version:  2512                                  |
|   \\  /    A nd           | Website:  www.openfoam.com                      |
|    \\/     M anipulation  |                                                 |
\*---------------------------------------------------------------------------*/
FoamFile
{
    version     2.0;
    format      ascii;
    arch        "LSB;label=32;scalar=64";
    class       volVectorField;
    location    "136.75";
    object      U;
}
// * * * * * * * * * * * * * * * * * * * * * * * * * * * * * * * * * * * * * //

dimensions      [0 1 -1 0 0 0 0];

internalField   nonuniform List<vector> 
13248
(
(-0.0107545 0.0096054 6.93702e-20)
(-0.0178113 0.0169418 0)
(-0.0125139 0.0171321 -1.319e-19)
(0.00449929 0.0132613 1.24254e-19)
(0.033076 0.00745773 1.16572e-19)
(0.0731877 0.001206 0)
(0.124728 -0.00444664 0)
(0.187318 -0.00876103 2.77396e-19)
(0.260137 -0.0112214 -3.45999e-21)
(0.341817 -0.0114973 -2.38426e-19)
(0.430423 -0.00943501 2.14404e-19)
(0.523536 -0.00505839 -1.33489e-19)
(0.618403 0.00143308 0)
(0.712153 0.00968006 -2.1122e-19)
(0.802026 0.0191945 3.88316e-19)
(0.88558 0.0294033 -9.12423e-20)
(0.960854 0.0397023 -1.52776e-19)
(1.02648 0.0494953 1.43419e-19)
(1.0817 0.0582916 0)
(1.12639 0.0655336 0)
(1.16103 0.0713094 0)
(1.18628 0.0742034 0)
(1.20408 0.0770929 4.03172e-20)
(1.21449 0.0727673 1.44593e-19)
(-0.0106275 0.00878727 -2.09654e-19)
(-0.0136867 0.0147013 1.43354e-19)
(-0.000252425 0.0144178 -1.01311e-21)
(0.0284161 0.0107164 -1.89801e-19)
(0.0716799 0.00568006 -1.16442e-19)
(0.129001 0.000864342 -1.09865e-19)
(0.19958 -0.00262858 -2.00814e-19)
(0.282093 -0.00405856 1.89734e-19)
(0.37452 -0.00299202 0)
(0.474107 0.000719346 2.09297e-21)
(0.577494 0.00695215 4.61114e-21)
(0.680976 0.0153377 1.33871e-19)
(0.780843 0.025311 0)
(0.87373 0.0361799 0)
(0.956912 0.0472075 1.41291e-19)
(1.0285 0.0576919 -2.65053e-19)
(1.08751 0.067035 1.52198e-19)
(1.13389 0.0747869 -1.42888e-19)
(1.16837 0.0806766 -6.19399e-20)
(1.19231 0.0845689 -1.08853e-19)
(1.20739 0.0865946 -4.46461e-20)
(1.21581 0.0865242 -8.29305e-20)
(1.21879 0.0858297 1.23403e-19)
(1.2193 0.0810745 3.54446e-20)
(-0.00923493 0.00714552 0)
(-0.00566929 0.0105253 0)
(0.0186131 0.00934421 6.71574e-20)
(0.0617218 0.00600532 6.19711e-20)
(0.122379 0.00246379 -1.52845e-21)
(0.199219 0.000247087 -1.12979e-19)
(0.290274 0.000373928 0)
(0.392709 0.0033964 -9.39819e-20)
(0.50277 0.00943653 8.72417e-20)
(0.61597 0.0182198 4.58411e-22)
(0.727502 0.0291383 -1.45052e-19)
(0.83275 0.0413527 -1.29352e-19)
(0.927789 0.0539208 4.73802e-21)
(1.00977 0.0659303 -1.00379e-19)
(1.0771 0.0766122 2.45499e-19)
(1.12948 0.0854169 0)
(1.16776 0.0920475 -1.50659e-19)
(1.19364 0.0964444 7.31166e-20)
(1.20938 0.0987598 6.18852e-20)
(1.21739 0.0992222 0)
(1.22007 0.0983063 4.93955e-20)
(1.21939 0.0959265 -1.70764e-19)
(1.21664 0.0936393 1.60301e-19)
(1.21415 0.0882452 1.00837e-19)
(-0.00634579 0.00492804 -7.41793e-20)
(0.00698065 0.00511338 -7.66385e-20)
(0.045254 0.00305811 6.94676e-20)
(0.105802 0.000707365 0)
(0.186384 -0.000222243 0)
(0.284289 0.00160511 -1.96586e-21)
(0.395747 0.00689026 0)
(0.515835 0.015707 -2.84645e-19)
(0.638747 0.0275711 2.62751e-19)
(0.758392 0.0415578 -3.22004e-19)
(0.869147 0.0564802 7.25647e-20)
(0.966536 0.0710998 0)
(1.04769 0.0843244 1.15946e-19)
(1.11149 0.0953516 -2.12878e-19)
(1.15848 0.103739 5.0382e-20)
(1.19046 0.109396 1.23949e-19)
(1.21007 0.112523 -7.83183e-21)
(1.22027 0.113505 -1.37768e-19)
(1.22388 0.112809 0)
(1.22336 0.110882 0)
(1.22053 0.108152 -4.72026e-20)
(1.21662 0.104687 4.20156e-20)
(1.21233 0.101528 1.48224e-19)
(1.2084 0.0959359 -1.39147e-19)
(-0.00166961 0.00237684 -7.79982e-20)
(0.025029 -0.000748712 -7.77059e-20)
(0.0807146 -0.00308839 2.18651e-19)
(0.161609 -0.00330943 -1.32661e-19)
(0.263973 -0.000129297 1.24871e-19)
(0.383054 0.00732719 2.26363e-19)
(0.512643 0.0190995 -1.59471e-19)
(0.645412 0.0344358 -1.91673e-19)
(0.773757 0.052 5.39387e-21)
(0.890853 0.0701605 2.43172e-19)
(0.991576 0.0873132 0)
(1.07304 0.102159 6.51194e-20)
(1.13468 0.113875 0)
(1.17787 0.122158 -1.02501e-19)
(1.20539 0.127156 1.43519e-19)
(1.22065 0.129331 8.72303e-22)
(1.22712 0.129293 -3.67152e-20)
(1.22787 0.127662 6.69335e-20)
(1.22527 0.124966 5.79669e-20)
(1.22096 0.121599 -5.14917e-20)
(1.21597 0.117842 4.71916e-20)
(1.21085 0.113734 -4.20055e-20)
(1.2058 0.109898 0)
(1.20134 0.104214 -3.20674e-20)
(0.00512949 -0.000252684 7.7987e-20)
(0.0491779 -0.00619302 8.16769e-20)
(0.125686 -0.0076192 -7.32074e-20)
(0.229274 -0.0040912 1.36082e-19)
(0.353983 0.00491045 -1.28084e-19)
(0.492307 0.0194022 1.15286e-19)
(0.635245 0.0383567 -5.53606e-20)
(0.773388 0.0599229 1.44134e-19)
(0.898393 0.0818895 -9.03917e-20)
(1.00424 0.10217 1.57387e-19)
(1.08789 0.11919 -3.61341e-19)
(1.14924 0.132081 1.32157e-19)
(1.1905 0.140685 -1.12953e-19)
(1.2153 0.145397 1.06096e-19)
(1.22779 0.146939 8.94402e-20)
(1.23185 0.146135 7.69908e-20)
(1.2307 0.14374 -2.14653e-19)
(1.22666 0.14035 1.32469e-19)
(1.22128 0.136377 -5.7969e-20)
(1.21545 0.132081 1.50104e-19)
(1.20965 0.127607 -4.85122e-20)
(1.20408 0.122992 -1.16716e-19)
(1.19881 0.118559 1.07519e-19)
(1.19399 0.112821 3.20575e-20)
(0.0143813 -0.00266051 0)
(0.0799214 -0.0102621 5.97436e-22)
(0.180265 -0.00901875 1.52413e-19)
(0.307801 0.000186254 -1.43041e-19)
(0.453597 0.0166283 -1.28571e-19)
(0.606947 0.0389858 2.38586e-19)
(0.756356 0.0648394 -1.10622e-19)
(0.891504 0.0912265 1.46175e-19)
(1.00502 0.11539 -3.77548e-21)
(1.09338 0.135334 -8.21502e-20)
(1.15674 0.150067 1.764e-19)
(1.19803 0.159545 -2.59454e-19)
(1.22174 0.164406 0)
(1.23267 0.165638 -4.9848e-20)
(1.23518 0.164283 -1.31196e-19)
(1.23267 0.161244 4.15394e-20)
(1.22752 0.157198 1.87758e-21)
(1.22122 0.152598 -8.73181e-20)
(1.21465 0.147716 6.47277e-21)
(1.20821 0.142702 1.00546e-19)
(1.2021 0.137632 -4.40748e-20)
(1.19636 0.132545 -1.66278e-20)
(1.19093 0.127547 5.16454e-20)
(1.18588 0.121759 0)
(0.0263374 -0.00448004 0)
(0.117383 -0.0119131 4.13381e-20)
(0.243751 -0.00581486 -1.98753e-19)
(0.394952 0.0110337 7.20948e-20)
(0.558535 0.0360778 -6.78531e-20)
(0.720765 0.0662369 -6.16968e-20)
(0.868815 0.0976484 -1.08539e-19)
(0.993283 0.126612 5.45045e-20)
(1.08957 0.150457 4.70484e-20)
(1.15773 0.167903 0)
(1.20127 0.17894 1.04743e-19)
(1.22547 0.184436 -1.54758e-19)
(1.23594 0.185665 1.14876e-19)
(1.23755 0.183924 4.98736e-20)
(1.23405 0.180301 -4.02307e-20)
(1.22798 0.175589 -3.28619e-20)
(1.22087 0.170305 -3.03286e-20)
(1.21359 0.164756 9.22637e-20)
(1.20655 0.159107 0)
(1.19991 0.153444 4.52781e-20)
(1.19371 0.147807 3.74708e-20)
(1.18791 0.14222 -9.3733e-20)
(1.18243 0.136673 -6.33246e-20)
(1.17723 0.130798 5.85382e-20)
(0.0411012 -0.00527727 -4.45926e-20)
(0.161182 -0.0100595 -1.61152e-21)
(0.314562 0.00331087 4.03984e-20)
(0.487377 0.0294887 1.12522e-19)
(0.663647 0.0635277 3.24817e-20)
(0.827617 0.100423 -6.29081e-20)
(0.966997 0.135232 5.7427e-20)
(1.07523 0.164222 -5.0088e-20)
(1.15168 0.185523 8.91997e-20)
(1.20012 0.199008 3.7539e-20)
(1.22665 0.205737 -1.06665e-19)
(1.23777 0.207308 3.11292e-20)
(1.23912 0.205335 5.24871e-20)
(1.23494 0.201158 -2.59394e-20)
(1.22807 0.195737 0)
(1.22018 0.189689 3.76351e-20)
(1.21218 0.183372 6.2893e-20)
(1.2045 0.176977 1.01868e-20)
(1.19731 0.170602 -5.19707e-20)
(1.19063 0.164293 2.1449e-20)
(1.18442 0.158075 0)
(1.17862 0.15195 -1.6576e-20)
(1.17313 0.145873 -1.55921e-20)
(1.16786 0.139841 0)
(0.0585665 -0.00457735 0)
(0.210352 -0.00366183 2.33548e-20)
(0.390269 0.0193848 4.31015e-20)
(0.580973 0.0559992 -1.14605e-19)
(0.763706 0.0985001 3.70085e-20)
(0.922478 0.14022 0)
(1.04761 0.175883 5.50712e-20)
(1.13679 0.202555 -7.67992e-20)
(1.19358 0.2197 -4.45057e-20)
(1.22479 0.228479 2.0031e-20)
(1.23799 0.230847 -3.14768e-20)
(1.23983 0.228831 7.67235e-20)
(1.23532 0.224118 3.78181e-20)
(1.22775 0.21791 -2.66142e-20)
(1.21909 0.210974 -2.80709e-21)
(1.21034 0.203748 -7.05189e-20)
(1.20199 0.196462 3.19639e-20)
(1.1942 0.189232 -8.21946e-22)
(1.18701 0.182113 0)
(1.18039 0.175132 -2.14714e-20)
(1.17426 0.1683 0)
(1.16853 0.161599 4.76091e-20)
(1.1631 0.155009 -5.63343e-20)
(1.15783 0.148721 2.5561e-20)
(0.0783785 -0.00190701 -1.21489e-20)
(0.263334 0.00816283 -5.86425e-20)
(0.467777 0.0430164 6.66471e-20)
(0.671371 0.0903844 3.90394e-20)
(0.854135 0.139928 -1.86831e-20)
(1.002 0.184044 3.11413e-20)
(1.10959 0.218085 -1.51679e-20)
(1.17934 0.240607 2.50378e-20)
(1.21849 0.252644 0)
(1.23579 0.256511 5.59302e-20)
(1.23922 0.25476 -2.53193e-21)
(1.23487 0.24956 -4.47101e-20)
(1.2268 0.242474 1.89419e-20)
(1.21737 0.234491 -2.11046e-20)
(1.20784 0.226175 -7.79966e-21)
(1.19876 0.217817 9.25804e-21)
(1.19033 0.20956 -6.98125e-21)
(1.1826 0.201468 -3.75567e-20)
(1.17554 0.193572 2.29642e-20)
(1.16906 0.185889 4.61481e-21)
(1.16308 0.178411 4.0232e-21)
(1.15748 0.171111 3.5085e-21)
(1.15216 0.164032 0)
(1.14696 0.15737 0)
(0.0999945 0.00316817 1.21573e-20)
(0.318186 0.0260508 -1.21449e-20)
(0.543764 0.0743158 -2.21866e-20)
(0.754587 0.13188 0)
(0.931557 0.186378 -9.2606e-21)
(1.06455 0.230345 -8.29981e-21)
(1.15341 0.260673 -1.41422e-20)
(1.20508 0.277819 0)
(1.22946 0.284338 0)
(1.23616 0.283414 0)
(1.23281 0.277886 0)
(1.22456 0.269844 0)
(1.21447 0.260628 -1.1839e-20)
(1.20415 0.250995 5.3745e-21)
(1.19431 0.241336 9.23801e-21)
(1.18521 0.231831 4.30635e-21)
(1.17691 0.222563 1.04934e-20)
(1.16938 0.213564 0)
(1.16255 0.20485 -2.44315e-21)
(1.15632 0.196426 -2.3284e-21)
(1.1506 0.188271 -4.02961e-21)
(1.14525 0.180364 -3.51411e-21)
(1.14014 0.172813 0)
(1.13514 0.165654 2.43801e-21)
(0.000217297 -0.0469336 9.09345e-21)
(-0.00322716 -0.108901 -9.43887e-21)
(-0.012513 -0.147979 -1.78633e-20)
(-0.0252956 -0.169959 0)
(-0.0400363 -0.179802 -2.40227e-20)
(-0.0558176 -0.181568 7.62622e-21)
(-0.0719784 -0.178277 -1.4185e-20)
(-0.0880589 -0.17191 0)
(-0.103763 -0.163553 0)
(-0.118902 -0.153596 0)
(-0.13334 -0.141973 0)
(-0.146966 -0.128358 0)
(-0.159668 -0.112319 3.4759e-22)
(-0.171329 -0.0934232 -9.73627e-21)
(-0.181814 -0.0712964 1.77341e-20)
(-0.190952 -0.0456591 2.53357e-20)
(-0.198489 -0.0163444 7.41504e-21)
(-0.204302 0.0167238 0)
(-0.208289 0.0533217 7.13395e-21)
(-0.210229 0.0931168 -1.92424e-20)
(-0.209946 0.135563 -1.15873e-20)
(-0.207308 0.179934 -1.06584e-20)
(-0.202397 0.225433 0)
(-0.196071 0.271111 0)
(0.00235649 -0.0420194 -2.70237e-20)
(0.000803895 -0.0970549 4.6823e-20)
(-0.00862327 -0.131451 -1.72133e-20)
(-0.0225253 -0.150411 -3.32073e-20)
(-0.038783 -0.158472 4.71785e-20)
(-0.0561884 -0.159353 -2.95542e-20)
(-0.0739283 -0.155796 4.19812e-20)
(-0.0914805 -0.149582 2.57747e-20)
(-0.108541 -0.141669 0)
(-0.124939 -0.132385 -2.38456e-20)
(-0.140559 -0.121646 -5.12447e-23)
(-0.155305 -0.10914 2.11732e-20)
(-0.169067 -0.0944662 2.87932e-20)
(-0.181713 -0.0772308 3.62899e-20)
(-0.193079 -0.0570964 -1.78569e-20)
(-0.202973 -0.0338097 -4.85003e-20)
(-0.211109 -0.00722296 1.38837e-20)
(-0.217249 0.022597 -5.36997e-20)
(-0.22119 0.0555399 0)
(-0.222662 0.0913305 1.253e-20)
(-0.221413 0.129522 1.15728e-20)
(-0.217103 0.169549 1.06447e-20)
(-0.209608 0.210855 0)
(-0.200676 0.252922 0)
(0.00381778 -0.0359745 0)
(0.00356245 -0.0830639 8.98767e-20)
(-0.00586694 -0.112567 -3.40089e-20)
(-0.0203116 -0.128737 3.26382e-20)
(-0.0372256 -0.135439 -9.05833e-20)
(-0.0551767 -0.135901 0)
(-0.0732285 -0.132509 -5.37695e-20)
(-0.0908013 -0.126813 2.48232e-20)
(-0.107575 -0.119646 -4.66341e-20)
(-0.12338 -0.111295 2.08722e-20)
(-0.138112 -0.101683 1.23965e-19)
(-0.151679 -0.0905334 -5.81225e-20)
(-0.163973 -0.0774965 -9.11489e-20)
(-0.174845 -0.0622298 -3.2018e-20)
(-0.184102 -0.0444446 8.6334e-22)
(-0.191487 -0.02393 1.16051e-19)
(-0.196786 -0.000597073 -5.40307e-20)
(-0.199727 0.025494 2.65029e-21)
(-0.199962 0.0542303 0)
(-0.197194 0.0853665 -3.86356e-20)
(-0.19114 0.118565 0)
(-0.181326 0.15344 -3.49542e-20)
(-0.167094 0.18959 1.22638e-19)
(-0.15029 0.226709 -1.38689e-21)
(0.00448561 -0.0292763 0)
(0.00482109 -0.0679176 -8.45908e-22)
(-0.00454106 -0.0925485 3.2835e-20)
(-0.0190145 -0.10624 -3.09196e-20)
(-0.0358021 -0.112025 2.99279e-20)
(-0.0533279 -0.112543 1.65867e-19)
(-0.0705678 -0.109769 -5.21899e-20)
(-0.0868928 -0.105002 -4.82099e-20)
(-0.101958 -0.098949 9.16545e-20)
(-0.115585 -0.0918593 -1.28718e-19)
(-0.127664 -0.0836764 3.92378e-20)
(-0.138103 -0.0741718 3.6185e-20)
(-0.146788 -0.0630516 0)
(-0.153568 -0.050028 3.27239e-20)
(-0.158247 -0.0348663 0)
(-0.160598 -0.0174192 5.1465e-20)
(-0.160366 0.00234818 -9.58993e-20)
(-0.157263 0.0244149 2.63768e-20)
(-0.150966 0.0486338 8.1681e-20)
(-0.14116 0.0747689 3.85958e-20)
(-0.127575 0.102535 0)
(-0.10991 0.131688 -8.8473e-20)
(-0.0872528 0.162222 2.89792e-20)
(-0.0583897 0.194964 0)
(0.00432264 -0.0223557 0)
(0.00448999 -0.052493 -1.03361e-19)
(-0.00480989 -0.0724497 -3.24606e-20)
(-0.0188905 -0.0840185 -6.126e-20)
(-0.0348844 -0.0893245 5.76873e-20)
(-0.051161 -0.0903644 -5.48397e-20)
(-0.0666539 -0.0886764 1.01314e-19)
(-0.0807014 -0.0852901 4.75537e-20)
(-0.092935 -0.0807791 -1.3404e-19)
(-0.103159 -0.0753547 8.19542e-20)
(-0.111256 -0.068979 -1.15266e-19)
(-0.117131 -0.0614715 2.44626e-19)
(-0.120673 -0.0525948 -1.31563e-19)
(-0.12174 -0.0421161 5.83143e-20)
(-0.120157 -0.0298502 1.60373e-19)
(-0.115718 -0.0156854 -5.4878e-20)
(-0.108191 0.000409234 -4.68591e-20)
(-0.0973184 0.0183754 -4.35705e-20)
(-0.0828233 0.0380569 0)
(-0.0644258 0.0592128 -6.31015e-20)
(-0.0418685 0.0815415 -5.32589e-20)
(-0.014859 0.104814 8.1084e-20)
(0.0177792 0.129319 9.23748e-20)
(0.0574709 0.156435 -8.44524e-20)
(0.00336039 -0.015566 0)
(0.00262109 -0.0375069 -1.34684e-19)
(-0.00665664 -0.0531186 2.98111e-22)
(-0.0199829 -0.0629286 1.20413e-19)
(-0.034592 -0.0681456 0)
(-0.048892 -0.0701163 0)
(-0.0618263 -0.069933 0)
(-0.0727261 -0.0683506 -4.63467e-20)
(-0.0812083 -0.0657999 1.03801e-21)
(-0.0870625 -0.062443 8.07296e-20)
(-0.0901641 -0.0582505 -1.11065e-19)
(-0.0904174 -0.0530791 1.13439e-21)
(-0.0877225 -0.0467383 0)
(-0.0819613 -0.0390401 -5.82887e-20)
(-0.0729919 -0.0298333 4.82326e-20)
(-0.0606511 -0.0190257 -1.40647e-19)
(-0.0447596 -0.00659863 1.65856e-19)
(-0.0251267 0.00738367 3.0258e-20)
(-0.00154492 0.022771 -7.22843e-21)
(0.026193 0.0393198 -1.21721e-19)
(0.0582844 0.0567035 -5.07611e-20)
(0.094908 0.0745341 1.60199e-19)
(0.136414 0.0928002 -1.03473e-19)
(0.189275 0.112595 0)
(0.00169215 -0.00918773 6.40709e-20)
(-0.000581995 -0.0235274 6.70928e-20)
(-0.00982811 -0.0352094 -6.30524e-20)
(-0.0220068 -0.0435897 -1.19066e-19)
(-0.0346053 -0.0490104 1.12119e-19)
(-0.0461564 -0.0521932 -1.04677e-19)
(-0.0556638 -0.0537973 1.47374e-19)
(-0.0624782 -0.0543033 -4.59467e-20)
(-0.0662119 -0.053991 8.54533e-20)
(-0.0666418 -0.052958 0)
(-0.063633 -0.0511647 6.97055e-20)
(-0.0570886 -0.0484865 -1.32731e-19)
(-0.046922 -0.0447614 1.18927e-19)
(-0.0330417 -0.0398285 -1.11698e-19)
(-0.015348 -0.0335554 0)
(0.00626512 -0.0258594 8.93737e-20)
(0.031907 -0.016722 1.53287e-19)
(0.0616864 -0.00619955 -1.45455e-19)
(0.0957092 0.0055703 -6.16402e-20)
(0.134079 0.0183577 -5.33006e-20)
(0.176816 0.0318312 1.51949e-19)
(0.224524 0.0455932 3.99756e-20)
(0.274052 0.05918 -3.96212e-20)
(0.343658 0.0727109 3.43168e-20)
(-0.000529543 -0.00344835 -6.40796e-20)
(-0.00475339 -0.0110189 1.99802e-19)
(-0.0137992 -0.0192396 -6.25301e-20)
(-0.0242812 -0.0264533 1.18427e-19)
(-0.0340572 -0.0322305 -1.11516e-19)
(-0.0418491 -0.0367193 3.30644e-22)
(-0.0467586 -0.0401711 4.88919e-20)
(-0.0481705 -0.042802 1.79388e-19)
(-0.0456938 -0.0447323 -2.73927e-21)
(-0.0390858 -0.0459769 -7.91821e-20)
(-0.0281926 -0.0464623 0)
(-0.01291 -0.0460575 -6.24982e-20)
(0.00683625 -0.0446057 1.20412e-19)
(0.0311006 -0.0419528 1.04993e-19)
(0.0599181 -0.0379717 -5.06624e-20)
(0.0933024 -0.0325808 -9.27135e-22)
(0.131242 -0.0257591 -3.9123e-20)
(0.173697 -0.0175579 6.79612e-20)
(0.220596 -0.00811002 6.16254e-20)
(0.271891 0.00238267 -5.45264e-20)
(0.326963 0.0135063 4.74518e-20)
(0.388222 0.0252556 -4.2254e-20)
(0.444715 0.0363597 0)
(0.534414 0.0470752 -3.42755e-20)
(-0.00308492 0.00143422 6.42158e-20)
(-0.00936476 -0.000403583 -6.65865e-20)
(-0.0177782 -0.00566715 6.3195e-20)
(-0.0257431 -0.0119043 0)
(-0.0315632 -0.018039 0)
(-0.034181 -0.0237139 1.03922e-19)
(-0.032812 -0.0288142 -9.76526e-20)
(-0.0268812 -0.0333037 8.88495e-20)
(-0.0159891 -0.0371359 -4.18012e-19)
(0.000126568 -0.0402257 1.32067e-21)
(0.0216294 -0.0424434 7.07201e-20)
(0.0486033 -0.0436282 0)
(0.08106 -0.0436098 -1.15099e-19)
(0.118938 -0.0422303 2.11853e-19)
(0.162101 -0.0393664 -1.45361e-19)
(0.210334 -0.0349472 -2.09207e-19)
(0.263346 -0.0289691 8.07586e-21)
(0.320772 -0.0215071 1.38689e-19)
(0.382152 -0.0127337 0)
(0.447232 -0.00280329 0)
(0.514097 0.00756401 -4.7444e-20)
(0.587854 0.0191405 4.22466e-20)
(0.648442 0.0291712 -1.49943e-19)
(0.752338 0.0405442 1.40642e-19)
(-0.0056891 0.00527754 0)
(-0.013735 0.00794082 0)
(-0.0207622 0.00507168 -1.89976e-19)
(-0.0250554 -0.000334711 6.02483e-20)
(-0.0253962 -0.0067059 5.71443e-22)
(-0.0209624 -0.0132649 1.05586e-19)
(-0.0110824 -0.0195835 0)
(0.00476433 -0.0253829 -9.08661e-20)
(0.0269564 -0.0304529 8.37348e-20)
(0.0557233 -0.0346002 -1.5272e-19)
(0.0911495 -0.037627 1.65417e-21)
(0.133169 -0.0393352 1.26958e-19)
(0.181556 -0.0395425 -4.25814e-21)
(0.235923 -0.0381027 9.93309e-20)
(0.295718 -0.0349263 -1.46938e-19)
(0.360246 -0.0299978 0)
(0.428687 -0.0233889 1.4847e-19)
(0.500133 -0.0152612 -2.07049e-19)
(0.573547 -0.00590087 6.08959e-20)
(0.648294 0.00451308 0)
(0.721634 0.014998 4.87996e-20)
(0.799014 0.026727 1.7066e-19)
(0.859051 0.0359114 -1.60154e-19)
(0.95798 0.0480043 -1.80458e-19)
(-0.00803938 0.00794533 1.96989e-19)
(-0.0171182 0.0136977 -2.71882e-19)
(-0.0216476 0.0125828 1.68422e-22)
(-0.0207724 0.00786374 6.06865e-20)
(-0.0137451 0.00144597 -1.13527e-19)
(1.07268e-05 -0.00557274 -1.05117e-19)
(0.0210256 -0.0124884 1.95253e-19)
(0.04972 -0.0188135 -3.37842e-21)
(0.0863365 -0.0241951 -1.70062e-19)
(0.13091 -0.0283393 3.08561e-19)
(0.183229 -0.0309916 -4.26793e-21)
(0.242805 -0.0319397 -1.31677e-19)
(0.308871 -0.031029 0)
(0.380393 -0.028181 0)
(0.456117 -0.0234107 -4.77401e-20)
(0.534623 -0.016838 -8.62505e-20)
(0.614403 -0.0086889 -1.50099e-19)
(0.693939 0.000707583 1.4089e-19)
(0.771742 0.0109388 -6.09139e-20)
(0.846632 0.0215801 1.07611e-19)
(0.916631 0.0319073 -5.29761e-20)
(0.984028 0.0422637 8.46036e-20)
(1.03664 0.0500468 -2.0548e-19)
(1.10948 0.0598295 3.63105e-20)
(-0.00982043 0.00937156 6.64493e-20)
(-0.0187342 0.0166877 0)
(-0.019297 0.0166113 1.29863e-19)
(-0.0114457 0.0124171 -1.2234e-19)
(0.00511831 0.00618566 1.13624e-19)
(0.0307131 -0.000749251 0)
(0.0656356 -0.00747484 0)
(0.110048 -0.0133526 -9.07991e-20)
(0.163846 -0.0179128 3.29842e-21)
(0.226572 -0.0207996 8.01731e-20)
(0.297365 -0.021755 -6.97733e-20)
(0.374945 -0.020623 1.3259e-19)
(0.457652 -0.0173626 0)
(0.543538 -0.012059 2.10018e-19)
(0.630488 -0.00492695 -3.86099e-19)
(0.716355 0.00369778 2.6365e-19)
(0.7991 0.0133817 1.51842e-19)
(0.876906 0.0236051 -1.42533e-19)
(0.948286 0.0338701 0)
(1.01207 0.0434999 0)
(1.06763 0.0523184 0)
(1.11486 0.0592814 0)
(1.1519 0.064856 4.08272e-20)
(1.19015 0.0688815 -1.4996e-19)
(-0.188458 0.322945 -6.45626e-21)
(-0.17645 0.382429 6.47654e-21)
(-0.159746 0.437268 -1.72376e-22)
(-0.138623 0.483631 0)
(-0.111827 0.517393 -4.95599e-21)
(-0.0777276 0.534477 9.52393e-21)
(-0.0346822 0.530407 -5.95193e-24)
(0.0185492 0.501256 -4.44122e-21)
(0.0816328 0.444095 0)
(0.152768 0.359308 0)
(0.228833 0.249625 -3.01224e-22)
(0.30583 0.120101 -3.01932e-22)
(0.380651 -0.0240076 -4.73206e-21)
(0.452247 -0.175892 4.31253e-21)
(0.519228 -0.322683 0)
(0.577838 -0.446546 0)
(0.623749 -0.531944 2.30901e-21)
(0.654069 -0.574834 -4.32251e-22)
(0.668793 -0.5827 -1.66044e-21)
(0.671325 -0.567667 -8.0834e-23)
(0.663888 -0.545032 0)
(0.642787 -0.532311 0)
(0.60536 -0.534319 0)
(0.561846 -0.526701 0)
(0.535137 -0.465143 0)
(0.542881 -0.323265 0)
(0.582975 -0.120169 6.1502e-22)
(0.64093 0.0936902 -9.63988e-22)
(0.700969 0.269369 0)
(0.751303 0.385484 0)
(0.78601 0.443653 -3.8064e-22)
(0.807632 0.460402 3.69938e-22)
(0.816207 0.460128 1.42926e-22)
(0.803918 0.472043 0)
(0.768678 0.493023 0)
(0.725986 0.478921 3.52126e-22)
(0.701343 0.381237 -3.42289e-22)
(0.706993 0.196513 0)
(0.735066 -0.0137429 3.91093e-22)
(0.774588 -0.197503 -5.65881e-22)
(0.811099 -0.307594 1.45609e-22)
(0.839939 -0.369199 0)
(0.843208 -0.39335 -1.68714e-22)
(0.813131 -0.416798 1.64059e-22)
(0.765225 -0.407178 0)
(0.728469 -0.323419 0)
(0.727322 -0.181603 -8.69756e-23)
(0.758837 0.0171147 2.40799e-22)
(0.800135 0.143174 0)
(0.825323 0.276355 0)
(0.814699 0.331926 -4.93194e-23)
(0.781883 0.371388 8.55984e-26)
(0.768037 0.335697 -5.30497e-25)
(0.777575 0.166893 4.76856e-23)
(0.803131 0.0724483 0)
(0.816897 -0.167803 0)
(0.808387 -0.236987 0)
(0.797291 -0.325596 0)
(0.798421 -0.345885 0)
(0.784508 -0.0582103 0)
(-0.192498 0.301444 -5.37136e-22)
(-0.173951 0.356253 -2.16926e-20)
(-0.148398 0.406187 7.31154e-22)
(-0.116006 0.447622 1.96783e-20)
(-0.0755403 0.475189 2.86509e-22)
(-0.025929 0.485749 0)
(0.033102 0.475172 -1.84572e-20)
(0.101244 0.440195 3.73557e-20)
(0.176824 0.379249 -1.89042e-20)
(0.257021 0.293393 2.01974e-20)
(0.338229 0.185424 -1.93279e-20)
(0.416886 0.059272 1.98563e-20)
(0.491094 -0.081055 -1.93346e-20)
(0.560167 -0.22865 -5.85806e-22)
(0.622034 -0.370247 -1.51725e-20)
(0.671806 -0.486152 1.47443e-20)
(0.704927 -0.560451 -9.82471e-21)
(0.720329 -0.590804 9.27905e-21)
(0.720056 -0.587635 -6.06589e-21)
(0.708754 -0.564528 1.07554e-20)
(0.690821 -0.534378 -4.73957e-21)
(0.66403 -0.512421 -2.40565e-22)
(0.622683 -0.507126 -4.09105e-21)
(0.571069 -0.501796 8.46241e-21)
(0.529407 -0.45516 -4.36018e-21)
(0.519977 -0.333871 3.04343e-22)
(0.547565 -0.147376 5.82919e-21)
(0.60016 0.0585991 -1.09648e-22)
(0.660971 0.235938 -9.4325e-21)
(0.716354 0.3597 7.80393e-21)
(0.759466 0.42663 -3.43701e-21)
(0.790478 0.451422 3.07444e-22)
(0.806636 0.46003 -1.43226e-22)
(0.799189 0.481562 2.76829e-22)
(0.769032 0.508638 0)
(0.733887 0.49288 0)
(0.717805 0.387073 -1.77495e-21)
(0.730315 0.192584 1.2469e-21)
(0.761176 -0.0248523 1.2318e-21)
(0.799394 -0.210744 -7.06324e-23)
(0.829713 -0.318838 -1.50118e-21)
(0.852784 -0.374281 2.32808e-22)
(0.851752 -0.389066 0)
(0.820015 -0.40444 0)
(0.76884 -0.393923 0)
(0.727778 -0.317459 0)
(0.724059 -0.186296 2.90211e-22)
(0.753645 0.00610553 -1.56359e-22)
(0.79616 0.13333 0)
(0.819681 0.274073 0)
(0.810646 0.336749 0)
(0.777812 0.377036 -1.00401e-22)
(0.765609 0.336557 -1.20305e-23)
(0.778397 0.162778 -9.08271e-23)
(0.806206 0.0681331 0)
(0.824413 -0.167935 0)
(0.813728 -0.235457 5.01367e-23)
(0.802823 -0.324265 1.16027e-22)
(0.80186 -0.344683 0)
(0.785454 -0.0567985 0)
(-0.137863 0.271382 -5.75851e-22)
(-0.114219 0.320348 -3.87334e-20)
(-0.0812564 0.364392 3.7483e-20)
(-0.0411557 0.39927 -3.50844e-20)
(0.00768202 0.421334 -2.88461e-22)
(0.0670156 0.426859 0)
(0.135014 0.41216 -3.82992e-20)
(0.210369 0.37467 3.75446e-20)
(0.290833 0.313583 3.06032e-22)
(0.373332 0.230079 6.50783e-22)
(0.454452 0.126749 6.67441e-22)
(0.531241 0.00660489 6.49568e-22)
(0.602749 -0.127384 -4.05239e-20)
(0.668402 -0.269064 3.99679e-20)
(0.724649 -0.403868 0)
(0.764994 -0.510922 9.00551e-22)
(0.784838 -0.574844 -2.04627e-20)
(0.78529 -0.595 2.01547e-20)
(0.770949 -0.583736 0)
(0.747337 -0.55568 0)
(0.719805 -0.521351 -8.39385e-21)
(0.687991 -0.492251 1.57049e-20)
(0.644697 -0.479008 -1.43121e-20)
(0.588297 -0.473497 -4.45027e-22)
(0.534447 -0.440346 1.57056e-20)
(0.508157 -0.341215 -1.79498e-20)
(0.521414 -0.174451 1.81716e-20)
(0.566289 0.0212357 -8.89334e-22)
(0.625811 0.198527 -8.72905e-21)
(0.684771 0.329071 0)
(0.735435 0.404789 0)
(0.775173 0.438536 1.73741e-21)
(0.798598 0.457047 -2.26513e-21)
(0.796444 0.488535 -1.49678e-24)
(0.772235 0.521766 2.72687e-21)
(0.745055 0.505103 -2.65008e-21)
(0.737301 0.392682 0)
(0.756381 0.190117 4.80291e-22)
(0.789854 -0.0329787 4.10569e-21)
(0.826609 -0.220392 -7.34752e-21)
(0.850594 -0.326916 2.88305e-21)
(0.86745 -0.377405 2.46276e-22)
(0.862077 -0.383957 -1.66347e-21)
(0.82912 -0.391636 1.27106e-21)
(0.775426 -0.380431 2.46279e-22)
(0.730474 -0.311595 2.49191e-22)
(0.724063 -0.191696 -2.90942e-22)
(0.751086 -0.00567438 0)
(0.794277 0.12286 0)
(0.815866 0.271272 -8.00893e-22)
(0.808475 0.34126 3.94214e-22)
(0.775569 0.382477 -3.92369e-22)
(0.764936 0.33749 6.35642e-22)
(0.78081 0.158427 8.64635e-22)
(0.810859 0.0635524 -1.78177e-22)
(0.833332 -0.167907 3.47303e-22)
(0.820247 -0.233638 -2.59645e-22)
(0.809197 -0.322571 1.13577e-22)
(0.806147 -0.34321 0)
(0.787348 -0.0552938 0)
(-0.0390445 0.233979 -7.00661e-20)
(-0.0135081 0.276614 8.12376e-22)
(0.0227553 0.314511 6.56212e-20)
(0.067434 0.34342 -5.47245e-22)
(0.121173 0.361307 0)
(0.183934 0.363532 0)
(0.254404 0.346985 -7.66682e-20)
(0.330785 0.309687 -6.84858e-21)
(0.410601 0.251152 1.20646e-19)
(0.490908 0.172455 1.99348e-21)
(0.568723 0.0756597 -4.29642e-20)
(0.642172 -0.0371621 -4.22497e-20)
(0.710904 -0.164051 4.23694e-20)
(0.773571 -0.299209 0)
(0.824533 -0.426489 -3.26192e-20)
(0.855433 -0.524153 2.9872e-20)
(0.862109 -0.578135 0)
(0.848092 -0.589857 0)
(0.820756 -0.572746 1.22354e-20)
(0.786492 -0.541884 -2.33962e-21)
(0.750464 -0.506211 -9.0127e-21)
(0.713961 -0.472772 -6.93421e-21)
(0.670242 -0.451496 6.8846e-21)
(0.612738 -0.442375 -6.56859e-21)
(0.550481 -0.419406 -5.34925e-22)
(0.508351 -0.342996 6.74332e-21)
(0.505584 -0.199242 9.8189e-22)
(0.540147 -0.0167781 1.00697e-22)
(0.596051 0.15809 0)
(0.656955 0.294127 5.55337e-21)
(0.714032 0.378418 -5.68246e-21)
(0.76158 0.421731 2.86828e-22)
(0.791881 0.450723 0)
(0.795419 0.492175 -2.78689e-22)
(0.777759 0.531689 5.64618e-21)
(0.758715 0.515316 -1.16133e-20)
(0.759037 0.398437 -2.30691e-21)
(0.784389 0.189788 -5.87393e-22)
(0.820341 -0.0379427 7.13679e-21)
(0.855702 -0.226626 8.51138e-22)
(0.873514 -0.332049 -4.68621e-21)
(0.883816 -0.378796 4.07152e-21)
(0.873956 -0.378362 3.44918e-24)
(0.840049 -0.378674 1.03632e-21)
(0.784627 -0.366645 -1.25466e-21)
(0.736267 -0.305518 -1.63282e-21)
(0.727079 -0.197462 4.90144e-22)
(0.750947 -0.0180613 8.51164e-22)
(0.79435 0.111797 -1.61687e-21)
(0.813847 0.267883 1.16424e-21)
(0.808214 0.345402 -4.15527e-22)
(0.775307 0.387723 2.91666e-22)
(0.766207 0.338591 4.00381e-22)
(0.78491 0.153948 -1.3866e-21)
(0.81708 0.058723 1.95963e-23)
(0.843592 -0.167719 -4.07136e-22)
(0.82791 -0.231494 0)
(0.816397 -0.320501 -1.12435e-22)
(0.811217 -0.341468 6.55896e-23)
(0.790123 -0.053705 0)
(0.0814233 0.190284 6.26647e-20)
(0.110128 0.228132 -1.23313e-19)
(0.147271 0.260899 5.98846e-20)
(0.192918 0.285713 6.41584e-20)
(0.247036 0.299905 -1.29859e-19)
(0.309049 0.300154 -5.17388e-21)
(0.377699 0.283642 6.94023e-20)
(0.451184 0.248569 7.99342e-20)
(0.527212 0.194413 -7.83179e-20)
(0.603246 0.121838 0)
(0.677021 0.0320117 -8.86064e-20)
(0.747423 -0.072791 1.73586e-19)
(0.814127 -0.192333 -8.50342e-20)
(0.874233 -0.319781 0)
(0.919477 -0.437714 0)
(0.940257 -0.524828 9.24559e-22)
(0.933886 -0.569429 -4.22507e-20)
(0.906527 -0.575071 4.10478e-20)
(0.867928 -0.555118 0)
(0.825247 -0.523743 1.9534e-20)
(0.782568 -0.488931 -3.32652e-20)
(0.741795 -0.454267 2.6824e-20)
(0.698209 -0.426729 -2.32248e-20)
(0.642586 -0.411551 9.81988e-23)
(0.576464 -0.393938 2.14572e-20)
(0.52095 -0.338133 -1.09971e-20)
(0.501126 -0.219651 -4.40519e-22)
(0.522542 -0.0539906 -5.70019e-21)
(0.57224 0.115511 4.80554e-22)
(0.633281 0.255316 5.33132e-21)
(0.69527 0.347642 2.90301e-22)
(0.749445 0.400755 -3.98732e-21)
(0.786128 0.44044 8.05887e-21)
(0.795664 0.491762 -4.58682e-21)
(0.78497 0.537952 0)
(0.774104 0.523443 -7.88513e-21)
(0.782219 0.404636 7.86062e-21)
(0.813457 0.1918 -7.67668e-21)
(0.851856 -0.0397167 9.5768e-21)
(0.886077 -0.229399 -9.20963e-22)
(0.898076 -0.334082 0)
(0.901628 -0.378296 -5.01317e-22)
(0.887195 -0.372306 1.06107e-21)
(0.852504 -0.36576 0)
(0.796061 -0.352738 2.10967e-21)
(0.74477 -0.299161 -8.30698e-22)
(0.732747 -0.203344 4.30911e-22)
(0.752935 -0.0309005 3.39638e-22)
(0.796195 0.100137 0)
(0.813547 0.26379 0)
(0.809845 0.349068 -1.13598e-21)
(0.777147 0.392773 2.05282e-21)
(0.769577 0.33992 -1.37049e-21)
(0.790766 0.149472 5.25754e-22)
(0.824831 0.0536742 9.71337e-22)
(0.855107 -0.167341 4.07519e-22)
(0.836664 -0.228966 -5.87461e-22)
(0.824401 -0.318021 0)
(0.816999 -0.339457 -1.33068e-22)
(0.793709 -0.0520359 1.07568e-23)
(0.215125 0.144413 5.83245e-20)
(0.243767 0.178738 -5.79418e-20)
(0.27874 0.207403 4.68504e-22)
(0.322118 0.228509 -4.51931e-22)
(0.373666 0.24022 4.98733e-22)
(0.43235 0.23983 -5.26948e-22)
(0.496891 0.224672 1.07596e-21)
(0.565769 0.193011 0)
(0.637089 0.144097 -1.2196e-21)
(0.708614 0.0779041 1.27712e-21)
(0.779502 -0.00443506 1.31236e-21)
(0.848257 -0.101933 -1.37044e-21)
(0.913212 -0.21388 0)
(0.969908 -0.331923 0)
(1.0077 -0.438481 1.05835e-21)
(1.01719 -0.514274 0)
(0.998223 -0.550592 -7.20677e-22)
(0.959405 -0.552544 0)
(0.911789 -0.532494 -2.38277e-20)
(0.862876 -0.502599 4.20846e-20)
(0.815554 -0.469972 -3.21977e-20)
(0.771148 -0.436367 1.40487e-20)
(0.727465 -0.405136 9.54084e-21)
(0.675536 -0.383108 -9.26582e-21)
(0.610294 -0.365908 -8.80137e-21)
(0.545587 -0.326163 8.5766e-21)
(0.508867 -0.233557 0)
(0.514445 -0.0888068 2.5605e-22)
(0.555099 0.071929 0)
(0.614093 0.21324 0)
(0.679093 0.312637 6.62181e-21)
(0.738486 0.375444 -6.80815e-21)
(0.780961 0.425748 4.18604e-22)
(0.796654 0.486739 5.27542e-22)
(0.793095 0.540153 -5.99996e-22)
(0.790348 0.529421 -7.18847e-21)
(0.80586 0.411172 6.97895e-21)
(0.842669 0.196225 -1.01385e-20)
(0.883642 -0.0382442 8.76032e-21)
(0.917115 -0.228785 1.8766e-21)
(0.923861 -0.333049 -4.95999e-21)
(0.920593 -0.375882 8.11029e-22)
(0.901543 -0.365874 2.68206e-21)
(0.866144 -0.353057 0)
(0.809271 -0.338779 -7.83005e-22)
(0.7555 -0.292401 1.01861e-21)
(0.740636 -0.209095 -1.36352e-21)
(0.756702 -0.0440182 -3.41795e-22)
(0.79956 0.0878419 0)
(0.814833 0.258845 3.6968e-22)
(0.813297 0.352112 -6.33293e-22)