/*--------------------------------*- C++ -*----------------------------------*\
| =========                 |                                                 |
| \\      /  F ield         | OpenFOAM: The Open Source CFD Toolbox           |
|  \\    /   O peration     | Version:  2512                                  |
|   \\  /    A nd           | Website:  www.openfoam.com                      |
|    \\/     M anipulation  |                                                 |
\*---------------------------------------------------------------------------*/
FoamFile
{
    version     2.0;
    format      ascii;
    arch        "LSB;label=32;scalar=64";
    class       volScalarField;
    location    "139";
    object      p;
}
// * * * * * * * * * * * * * * * * * * * * * * * * * * * * * * * * * * * * * //

dimensions      [0 2 -2 0 0 0 0];

internalField   nonuniform List<scalar> 
13248
(
-0.421928
-0.419617
-0.417475
-0.415535
-0.413748
-0.412042
-0.410218
-0.407961
-0.404887
-0.400591
-0.394686
-0.386862
-0.376926
-0.364832
-0.350691
-0.334752
-0.317367
-0.298948
-0.279915
-0.260674
-0.241512
-0.222781
-0.20419
-0.186155
-0.430786
-0.427637
-0.424573
-0.421643
-0.418798
-0.415984
-0.412993
-0.409487
-0.405059
-0.399299
-0.391857
-0.382499
-0.371143
-0.35787
-0.342902
-0.326567
-0.309251
-0.291346
-0.273218
-0.255178
-0.237461
-0.220288
-0.203581
-0.187741
-0.440469
-0.436397
-0.432373
-0.428432
-0.424498
-0.420505
-0.416222
-0.411278
-0.405254
-0.397772
-0.388562
-0.377512
-0.364678
-0.350266
-0.334586
-0.318004
-0.300889
-0.283575
-0.266346
-0.249426
-0.232973
-0.217138
-0.201849
-0.187247
-0.451365
-0.44624
-0.441207
-0.436237
-0.431166
-0.425882
-0.420106
-0.413444
-0.405502
-0.395988
-0.384769
-0.371894
-0.357563
-0.342082
-0.325808
-0.30909
-0.292239
-0.275507
-0.259089
-0.243128
-0.227725
-0.212974
-0.198807
-0.185407
-0.463697
-0.45737
-0.45127
-0.445229
-0.438924
-0.432157
-0.424603
-0.415875
-0.405668
-0.393846
-0.380464
-0.365738
-0.34999
-0.333578
-0.316843
-0.300077
-0.283506
-0.267296
-0.251562
-0.236382
-0.221812
-0.207894
-0.19458
-0.182
-0.477489
-0.469829
-0.462599
-0.455408
-0.447694
-0.439154
-0.429443
-0.418253
-0.40545
-0.391118
-0.375516
-0.359005
-0.341972
-0.324765
-0.307668
-0.290886
-0.274558
-0.258774
-0.243586
-0.229025
-0.21511
-0.20185
-0.189212
-0.177289
-0.492555
-0.483479
-0.475056
-0.466578
-0.457183
-0.446473
-0.434157
-0.42011
-0.404452
-0.387519
-0.369751
-0.351596
-0.333439
-0.315569
-0.29818
-0.28139
-0.26526
-0.249815
-0.235063
-0.221
-0.207615
-0.194895
-0.182819
-0.171413
-0.508491
-0.497983
-0.488302
-0.478329
-0.466874
-0.453511
-0.438127
-0.420892
-0.402238
-0.382738
-0.362952
-0.34334
-0.324225
-0.305802
-0.288173
-0.271372
-0.255397
-0.240226
-0.225832
-0.212184
-0.19925
-0.187002
-0.175421
-0.164466
-0.524673
-0.512789
-0.501771
-0.490013
-0.476032
-0.459506
-0.440654
-0.420034
-0.398399
-0.376492
-0.35491
-0.334053
-0.314142
-0.295271
-0.277451
-0.260648
-0.244811
-0.229881
-0.215803
-0.202525
-0.19
-0.178189
-0.167062
-0.156523
-0.540251
-0.527109
-0.514642
-0.500731
-0.483723
-0.463587
-0.441018
-0.417008
-0.392567
-0.368518
-0.345408
-0.323527
-0.302982
-0.283764
-0.26581
-0.249033
-0.233341
-0.218647
-0.204875
-0.191952
-0.179819
-0.168429
-0.157728
-0.147593
-0.554175
-0.539921
-0.525844
-0.509362
-0.488857
-0.464798
-0.438457
-0.411224
-0.384271
-0.358398
-0.33404
-0.311355
-0.290332
-0.270878
-0.252867
-0.236168
-0.22066
-0.206233
-0.192788
-0.18024
-0.168518
-0.157559
-0.14728
-0.137568
-0.565292
-0.550108
-0.534245
-0.514762
-0.490344
-0.462159
-0.432099
-0.401883
-0.372737
-0.345358
-0.320027
-0.296759
-0.275435
-0.255886
-0.237934
-0.221411
-0.20617
-0.192081
-0.17903
-0.16692
-0.15567
-0.145204
-0.135412
-0.126227
-0.341983
-0.344395
-0.345813
-0.346706
-0.347521
-0.348422
-0.34949
-0.350766
-0.352262
-0.353973
-0.355897
-0.358034
-0.360388
-0.36297
-0.365789
-0.368851
-0.372153
-0.375677
-0.379384
-0.383209
-0.387025
-0.390613
-0.393799
-0.396828
-0.342348
-0.345406
-0.347245
-0.348443
-0.349513
-0.350602
-0.351764
-0.353011
-0.354318
-0.355645
-0.356939
-0.358149
-0.359223
-0.360108
-0.360758
-0.361126
-0.361166
-0.360836
-0.360102
-0.358941
-0.357271
-0.354899
-0.351902
-0.349457
-0.344258
-0.347748
-0.349902
-0.351363
-0.352669
-0.353944
-0.355209
-0.356443
-0.357586
-0.358552
-0.359239
-0.359539
-0.359336
-0.358516
-0.356965
-0.354579
-0.351261
-0.346935
-0.341558
-0.335129
-0.327597
-0.318769
-0.308896
-0.300243
-0.347964
-0.351626
-0.353964
-0.355628
-0.357143
-0.3586
-0.359985
-0.36124
-0.362267
-0.362937
-0.363098
-0.362583
-0.361217
-0.358822
-0.355223
-0.350257
-0.343784
-0.33569
-0.325917
-0.314477
-0.30137
-0.286445
-0.269942
-0.254825
-0.353483
-0.35704
-0.359411
-0.361204
-0.362886
-0.36451
-0.36602
-0.367324
-0.368285
-0.368731
-0.368461
-0.367258
-0.364888
-0.361117
-0.355718
-0.348483
-0.339236
-0.327848
-0.31425
-0.298458
-0.28056
-0.260585
-0.23859
-0.216903
-0.3606
-0.363793
-0.366043
-0.367866
-0.369641
-0.37139
-0.373004
-0.374355
-0.37527
-0.375537
-0.374911
-0.373127
-0.369905
-0.364964
-0.35804
-0.348897
-0.337352
-0.323282
-0.306636
-0.287459
-0.265928
-0.242383
-0.216868
-0.187893
-0.36892
-0.371525
-0.373498
-0.375239
-0.377023
-0.378789
-0.380429
-0.381773
-0.382606
-0.382678
-0.381707
-0.379386
-0.375399
-0.369435
-0.361209
-0.350488
-0.337106
-0.320985
-0.302151
-0.280742
-0.257027
-0.231327
-0.20396
-0.174288
-0.377941
-0.379798
-0.381342
-0.382848
-0.384476
-0.386142
-0.387684
-0.388904
-0.389549
-0.389336
-0.387947
-0.385046
-0.380292
-0.373361
-0.363975
-0.351927
-0.337104
-0.319511
-0.29928
-0.276667
-0.25208
-0.225815
-0.199196
-0.169799
-0.387173
-0.38819
-0.389173
-0.390281
-0.391576
-0.39295
-0.394215
-0.395131
-0.39542
-0.394765
-0.392821
-0.389228
-0.383638
-0.375737
-0.365279
-0.352113
-0.336213
-0.317687
-0.296787
-0.273875
-0.249521
-0.223904
-0.199031
-0.171611
-0.396244
-0.396395
-0.396701
-0.397242
-0.398007
-0.398876
-0.399644
-0.400049
-0.399782
-0.398497
-0.395827
-0.391406
-0.384892
-0.376005
-0.364557
-0.350483
-0.333861
-0.314911
-0.293993
-0.271549
-0.248205
-0.224153
-0.201217
-0.176759
-0.404978
-0.404283
-0.403824
-0.403635
-0.403672
-0.403821
-0.403875
-0.403553
-0.402521
-0.400412
-0.396846
-0.391458
-0.383934
-0.374051
-0.361701
-0.346921
-0.329894
-0.310939
-0.29048
-0.269009
-0.247085
-0.225053
-0.204062
-0.182494
-0.413449
-0.411935
-0.410641
-0.409593
-0.40874
-0.407992
-0.407148
-0.405913
-0.403931
-0.400816
-0.39618
-0.389675
-0.381033
-0.370107
-0.356889
-0.341523
-0.324286
-0.305561
-0.285786
-0.265435
-0.244928
-0.224735
-0.205457
-0.186985
-0.400301
-0.402736
-0.40111
-0.39417
-0.381065
-0.360851
-0.334472
-0.303205
-0.269537
-0.236943
-0.208749
-0.187637
-0.175668
-0.174301
-0.183774
-0.201772
-0.222575
-0.23797
-0.239932
-0.22456
-0.195071
-0.159786
-0.127321
-0.10266
-0.0870682
-0.0796938
-0.0791033
-0.0851214
-0.0992225
-0.12015
-0.139788
-0.146964
-0.137929
-0.117223
-0.094752
-0.0778412
-0.0682907
-0.0647546
-0.0681865
-0.0802089
-0.0959486
-0.104595
-0.0984859
-0.0833554
-0.0676908
-0.0559236
-0.0492744
-0.048281
-0.0515171
-0.053308
-0.0504539
-0.0463324
-0.0412976
-0.0361437
-0.0339346
-0.0328178
-0.0308029
-0.0300181
-0.0222922
-0.00518527
-0.347863
-0.34619
-0.341938
-0.334343
-0.32262
-0.306026
-0.28576
-0.261887
-0.236058
-0.211762
-0.191714
-0.178542
-0.174471
-0.180863
-0.197301
-0.220497
-0.244111
-0.259922
-0.260367
-0.242114
-0.208782
-0.16953
-0.133525
-0.105797
-0.0873599
-0.0772104
-0.0738761
-0.0768289
-0.0872209
-0.104471
-0.121915
-0.129665
-0.123032
-0.106041
-0.0873388
-0.0737898
-0.0670797
-0.0660595
-0.0721356
-0.0869594
-0.10495
-0.114574
-0.107394
-0.0899128
-0.0712759
-0.0569196
-0.0481343
-0.0449156
-0.0463765
-0.0469329
-0.0448741
-0.0420436
-0.0388564
-0.0358608
-0.0353766
-0.0362028
-0.0343966
-0.0335812
-0.0249299
-0.00576609
-0.293552
-0.286533
-0.278774
-0.269075
-0.258078
-0.244688
-0.228632
-0.212289
-0.194517
-0.178957
-0.167648
-0.163156
-0.167571
-0.181767
-0.204508
-0.231838
-0.257399
-0.273299
-0.273097
-0.253117
-0.217445
-0.175696
-0.137324
-0.107376
-0.0866743
-0.0741028
-0.0681918
-0.0682075
-0.0749487
-0.0884251
-0.103519
-0.111525
-0.107255
-0.0939364
-0.0789853
-0.068806
-0.0649727
-0.0665195
-0.075207
-0.0926666
-0.112749
-0.123365
-0.115371
-0.0958059
-0.0743992
-0.0575858
-0.0468602
-0.0416589
-0.0415356
-0.0408888
-0.0394463
-0.0376702
-0.0362706
-0.0354746
-0.0367872
-0.0395563
-0.0379037
-0.0369951
-0.0274641
-0.0063345
-0.243454
-0.230207
-0.218498
-0.206875
-0.194203
-0.182767
-0.170562
-0.1593
-0.149422
-0.142321
-0.139663
-0.143804
-0.156316
-0.177394
-0.205165
-0.235491
-0.262417
-0.278924
-0.278223
-0.257567
-0.220995
-0.178252
-0.138788
-0.107551
-0.0852506
-0.0707316
-0.0625565
-0.05986
-0.0631616
-0.0728993
-0.0854151
-0.0932786
-0.0911252
-0.0813038
-0.0699416
-0.063008
-0.0619518
-0.065971
-0.0770822
-0.0969624
-0.119008
-0.130692
-0.122211
-0.100906
-0.0770219
-0.0579375
-0.0454871
-0.0385667
-0.0370686
-0.0352592
-0.0342483
-0.0332714
-0.0335705
-0.0349865
-0.0381509
-0.0428538
-0.0412886
-0.0402192
-0.0298629
-0.00688363
-0.202738
-0.183077
-0.167097
-0.152341
-0.137534
-0.127207
-0.117655
-0.111361
-0.107139
-0.106892
-0.111727
-0.123301
-0.142484
-0.168823
-0.200064
-0.232207
-0.259854
-0.276538
-0.276087
-0.255809
-0.219789
-0.177583
-0.138307
-0.106656
-0.0833561
-0.0673648
-0.0573165
-0.0522745
-0.05244
-0.0585512
-0.068313
-0.0756089
-0.0751312
-0.0685168
-0.0604284
-0.0564796
-0.0579778
-0.064261
-0.0775341
-0.0995979
-0.123439
-0.136283
-0.127707
-0.105109
-0.0791313
-0.05801
-0.0440533
-0.035668
-0.0330114
-0.030104
-0.0293515
-0.0289101
-0.0307866
-0.0343946
-0.039451
-0.0460635
-0.0445106
-0.0432112
-0.0320955
-0.00740661
-0.174226
-0.148446
-0.129315
-0.113071
-0.100059
-0.0861899
-0.0775114
-0.073011
-0.0726912
-0.0772192
-0.0874515
-0.104289
-0.127954
-0.157507
-0.190531
-0.223345
-0.251206
-0.267716
-0.267721
-0.248605
-0.214404
-0.174144
-0.136228
-0.104987
-0.0812412
-0.0641979
-0.0526573
-0.0456767
-0.0431869
-0.0459213
-0.0528256
-0.0591469
-0.0598015
-0.0559406
-0.0506709
-0.0493282
-0.0530747
-0.0613501
-0.0764754
-0.100411
-0.125854
-0.139954
-0.131704
-0.10833
-0.0807143
-0.057833
-0.0425844
-0.0329701
-0.0293702
-0.0254601
-0.0244586
-0.0246462
-0.0279452
-0.0336935
-0.0406668
-0.0491453
-0.0475286
-0.0459358
-0.0341325
-0.00789548
-0.15803
-0.131291
-0.107088
-0.0872181
-0.0708765
-0.0575234
-0.0501432
-0.0469732
-0.0486307
-0.0557436
-0.068887
-0.0884222
-0.114132
-0.144795
-0.177995
-0.210469
-0.238449
-0.253933
-0.254366
-0.237026
-0.2057
-0.168535
-0.132943
-0.10282
-0.079116
-0.0613818
-0.0486801
-0.0401247
-0.0354668
-0.0352656
-0.0393466
-0.0444459
-0.0471905
-0.0439374
-0.0409394
-0.0417465
-0.0473738
-0.0572947
-0.0738835
-0.0993238
-0.126208
-0.141611
-0.134108
-0.110505
-0.0817513
-0.0574262
-0.0410975
-0.0304658
-0.0261178
-0.0213539
-0.0202922
-0.0205568
-0.0250682
-0.0328733
-0.0417736
-0.052061
-0.0503081
-0.0483582
-0.0359477
-0.00834187
-0.152855
-0.126685
-0.100102
-0.077398
-0.0588715
-0.0448601
-0.0365139
-0.0331076
-0.0349856
-0.0426351
-0.0563824
-0.0762649
-0.101827
-0.131739
-0.163631
-0.194645
-0.223492
-0.236255
-0.237183
-0.222147
-0.194516
-0.161286
-0.128725
-0.10028
-0.0770493
-0.0589559
-0.0453934
-0.0355991
-0.0292175
-0.0265822
-0.0280335
-0.0315669
-0.0340116
-0.0326297
-0.0315267
-0.0339859
-0.0410516
-0.0522237
-0.0698512
-0.0963837
-0.124518
-0.141238
-0.134893
-0.111602
-0.0822333
-0.0568097
-0.0396084
-0.0281517
-0.0232229
-0.0177583
-0.0165182
-0.0166957
-0.0221721
-0.0319229
-0.0427444
-0.0547751
-0.0528136
-0.0504463
-0.0375219
-0.0087393
-0.154988
-0.130741
-0.104256
-0.0802735
-0.0606034
-0.0451188
-0.034655
-0.0298411
-0.0304366
-0.0368606
-0.0493219
-0.0676664
-0.0913391
-0.119003
-0.148244
-0.175832
-0.196166
-0.214751
-0.217282
-0.205109
-0.181764
-0.152985
-0.123894
-0.0975325
-0.0751514
-0.0570162
-0.0428696
-0.032135
-0.0244169
-0.0198425
-0.0189512
-0.0207468
-0.0226538
-0.0224593
-0.0227245
-0.0263102
-0.0343426
-0.0462867
-0.0644487
-0.0917332
-0.120884
-0.138935
-0.134094
-0.111654
-0.0822314
-0.0560767
-0.0381815
-0.0260462
-0.0206867
-0.0146666
-0.0131399
-0.0131045
-0.0192638
-0.0308293
-0.0435518
-0.0572534
-0.0550103
-0.0521761
-0.0388396
-0.00908525
-0.160952
-0.139422
-0.115193
-0.0918925
-0.0713014
-0.0547469
-0.0420647
-0.0349812
-0.0331728
-0.0370362
-0.0468259
-0.0622391
-0.0827366
-0.107055
-0.133014
-0.157714
-0.178081
-0.193117
-0.19643
-0.187434
-0.168693
-0.144609
-0.119228
-0.0952286
-0.0739962
-0.0560793
-0.0415429
-0.0300573
-0.0212628
-0.0151263
-0.0121905
-0.0121861
-0.0133155
-0.0136678
-0.0147492
-0.0189343
-0.0274534
-0.0397662
-0.0580832
-0.085584
-0.115424
-0.134845
-0.131831
-0.110754
-0.0818745
-0.0553993
-0.0369436
-0.0241789
-0.0184846
-0.0121137
-0.0101934
-0.00982183
-0.0163473
-0.0295871
-0.0441614
-0.0594547
-0.0568682
-0.0535303
-0.0398752
-0.00937395
-0.166861
-0.147705
-0.126569
-0.104627
-0.0825736
-0.0663291
-0.0533994
-0.0449525
-0.0405146
-0.0409542
-0.0471043
-0.0586726
-0.0751965
-0.0956696
-0.118091
-0.140057
-0.158515
-0.171039
-0.17526
-0.169648
-0.155709
-0.136471
-0.114976
-0.0935466
-0.0736742
-0.0561682
-0.0413765
-0.0292515
-0.0195761
-0.0121801
-0.00747336
-0.00572209
-0.00600356
-0.00644099
-0.00783172
-0.0121559
-0.0206176
-0.0326642
-0.050559
-0.0782316
-0.108828
-0.129115
-0.12809
-0.108687
-0.0808728
-0.0545918
-0.0357838
-0.022447
-0.0164277
-0.0099453
-0.00772175
-0.00699098
-0.0133946
-0.0281629
-0.044562
-0.0613425
-0.0583293
-0.0544906
-0.0405864
-0.00957628
-0.173614
-0.158113
-0.140687
-0.120762
-0.102798
-0.0847978
-0.070009
-0.0589167
-0.0519775
-0.0494834
-0.0515201
-0.0584281
-0.0698748
-0.0850568
-0.102657
-0.121193
-0.137055
-0.148034
-0.152457
-0.149701
-0.140036
-0.125218
-0.107436
-0.0886895
-0.0705151
-0.0539163
-0.0394113
-0.0271424
-0.0171122
-0.00906866
-0.00314284
9.21632e-05
0.000532381
-0.00024978
-0.00178563
-0.00621325
-0.0143737
-0.0259635
-0.0430004
-0.0699885
-0.100464
-0.121583
-0.121679
-0.10471
-0.0781258
-0.0525244
-0.0338765
-0.0204021
-0.0142104
-0.00762141
-0.00532473
-0.00446121
-0.0105259
-0.026611
-0.0446716
-0.0628665
-0.05937
-0.0550278
-0.0409608
-0.00964083
-0.165799
-0.157973
-0.14154
-0.123424
-0.105585
-0.0897159
-0.0763045
-0.0658104
-0.0586331
-0.0549948
-0.0554878
-0.0604621
-0.069692
-0.0824775
-0.0976114
-0.113395
-0.126429
-0.135562
-0.138959
-0.135878
-0.126823
-0.113324
-0.0972204
-0.0801969
-0.063557
-0.048174
-0.034517
-0.0227246
-0.0128728
-0.00475732
0.00160535
0.00578637
0.00722692
0.00688431
0.00541317
0.00116275
-0.00601171
-0.0165869
-0.0330412
-0.0610185
-0.0940509
-0.11779
-0.11955
-0.101184
-0.0744403
-0.0492038
-0.0310462
-0.0180006
-0.012022
-0.00509282
-0.00248972
-0.00102579
-0.00700634
-0.0245824
-0.0445125
-0.064384
-0.0603479
-0.0552273
-0.0410914
-0.00959687
-0.158095
-0.151742
-0.136781
-0.120314
-0.105159
-0.0918723
-0.0804036
-0.071049
-0.064253
-0.0605275
-0.0603618
-0.0639286
-0.0710091
-0.0809603
-0.0926664
-0.104185
-0.114594
-0.121362
-0.123294
-0.120003
-0.11196
-0.100293
-0.0863804
-0.0715162
-0.0567508
-0.0428397
-0.0302267
-0.0190935
-0.00962066
-0.00163714
0.00491164
0.00959073
0.0114969
0.0111944
0.0095819
0.00616151
5.77424e-05
-0.00938102
-0.0249465
-0.05318
-0.0874397
-0.111674
-0.112688
-0.0949068
-0.0693657
-0.0454529
-0.0282289
-0.0156817
-0.00988384
-0.00296555
-0.000496139
0.00136707
-0.00443673
-0.0229106
-0.0443498
-0.0653783
-0.0608097
-0.0547969
-0.0408114
-0.00953911
-0.149635
-0.144714
-0.132222
-0.117742
-0.104521
-0.0931121
-0.0832681
-0.075073
-0.0689489
-0.0653555
-0.0646104
-0.0668042
-0.0717264
-0.0788355
-0.0872538
-0.095724
-0.103107
-0.107737
-0.1087
-0.105666
-0.0988462
-0.0889564
-0.0769907
-0.0639689
-0.050778
-0.0381021
-0.0263946
-0.0158519
-0.00670391
0.00111955
0.00767433
0.0126384
0.0149895
0.0149979
0.0135099
0.0104566
0.00497272
-0.00389365
-0.0189649
-0.0465697
-0.0797357
-0.103171
-0.104259
-0.0876177
-0.0638268
-0.0414896
-0.0253038
-0.0133368
-0.00776442
-0.000939169
0.00136248
0.00337594
-0.00249442
-0.0216088
-0.0441193
-0.0658229
-0.0608254
-0.0538804
-0.0401717
-0.00947176
-0.13957
-0.136972
-0.127049
-0.114619
-0.103126
-0.093327
-0.0849279
-0.0778374
-0.0723292
-0.0687614
-0.067393
-0.0683014
-0.0713244
-0.0760644
-0.0818556
-0.0877803
-0.0927959
-0.0958379
-0.0961122
-0.0932395
-0.087287
-0.0787392
-0.0683376
-0.056886
-0.0451136
-0.0336056
-0.0227954
-0.0128785
-0.00410358
0.00350382
0.00995624
0.015084
0.0179015
0.0183893
0.0172514
0.0147207
0.0098622
0.00140798
-0.0130562
-0.0391281
-0.0705802
-0.0934307
-0.0948133
-0.0794677
-0.0576595
-0.0371943
-0.0222531
-0.010976
-0.00565953
0.00100982
0.00315806
0.0051908
-0.00071651
-0.020226
-0.0434791
-0.0656845
-0.0603783
-0.0525007
-0.0391233
-0.00936503
-0.129507
-0.128887
-0.121171
-0.110689
-0.100808
-0.092425
-0.0852804
-0.0791588
-0.0741931
-0.0706718
-0.0688292
-0.0687417
-0.0702894
-0.0731545
-0.0769207
-0.0807299
-0.0838995
-0.0856094
-0.0852019
-0.0823383
-0.0770229
-0.0695703
-0.0605027
-0.0504238
-0.0399196
-0.0294801
-0.0195149
-0.010224
-0.00185277
0.0055136
0.0118074
0.0169744
0.0201572
0.0211767
0.0206343
0.0188698
0.0148809
0.00714793
-0.0062161
-0.0304823
-0.0604495
-0.0825732
-0.0842698
-0.0704936
-0.0509822
-0.0326477
-0.019121
-0.00862151
-0.00358114
0.00287907
0.00485283
0.00679531
0.00107492
-0.0185032
-0.0422665
-0.0648232
-0.0593437
-0.0506042
-0.0376244
-0.00919528
-0.119897
-0.120433
-0.114573
-0.105929
-0.0975665
-0.0904482
-0.0843902
-0.0791287
-0.0746985
-0.0713179
-0.0691876
-0.0683795
-0.068793
-0.070101
-0.0723011
-0.0744793
-0.0761612
-0.0767496
-0.0757454
-0.0728587
-0.0680375
-0.0614626
-0.0534912
-0.0445733
-0.03518
-0.025715
-0.0165492
-0.00788302
4.95547e-05
0.00714374
0.0132512
0.0183619
0.0217965
0.0233489
0.0235302
0.0227247
0.0198872
0.013248
0.00118704
-0.0213487
-0.0496793
-0.070735
-0.0728448
-0.0609405
-0.0439579
-0.0279189
-0.0159398
-0.00629343
-0.00154558
0.00465846
0.00645066
0.00817928
0.00287157
-0.0164065
-0.0403697
-0.0630172
-0.0575919
-0.0481571
-0.0356534
-0.00893804
-0.110219
-0.111651
-0.107439
-0.100479
-0.093511
-0.0875246
-0.0824224
-0.0779381
-0.0740352
-0.070862
-0.0685835
-0.067278
-0.0669061
-0.0673705
-0.0680306
-0.0688746
-0.0693799
-0.0690818
-0.0675925
-0.0646593
-0.0602008
-0.0543142
-0.0472429
-0.0393149
-0.0309013
-0.0223268
-0.013915
-0.00586127
0.00160862
0.00839444
0.0143028
0.0193136
0.0229054
0.0249259
0.0258029
0.0260504
0.0245803
0.0192768
0.00848619
-0.0123015
-0.0386802
-0.0583296
-0.0608906
-0.0510944
-0.0367813
-0.0231041
-0.0127485
-0.0040126
0.000433643
0.00634584
0.0079732
0.00935044
0.00461994
-0.0139213
-0.0376266
-0.0600526
-0.0550089
-0.0451587
-0.0332121
-0.00857098
-0.100606
-0.102852
-0.100021
-0.0945113
-0.08878
-0.0838009
-0.0795425
-0.0757528
-0.0723489
-0.0694213
-0.0671022
-0.065466
-0.0644872
-0.0640583
-0.0638798
-0.063765
-0.0633879
-0.0624097
-0.0605314
-0.0575451
-0.053364
-0.0480328
-0.041711
-0.0346303
-0.0270779
-0.0193128
-0.0116103
-0.00415207
0.00284378
0.00928663
0.0149771
0.0198698
0.0235505
0.0258744
0.0274079
0.0286018
0.0285299
0.0246975
0.0151607
-0.00384364
-0.0279601
-0.0457981
-0.0488096
-0.0412847
-0.0296752
-0.0183167
-0.00958687
-0.00179541
0.0023479
0.00794372
0.00944529
0.0103455
0.00631591
-0.0109753
-0.0338885
-0.0557751
-0.0515111
-0.0416388
-0.030332
-0.00807727
-0.0914985
-0.0942231
-0.0924474
-0.0881581
-0.08351
-0.0794203
-0.0759028
-0.0727293
-0.0697914
-0.0671364
-0.0648664
-0.0630495
-0.0616808
-0.060664
-0.059845
-0.0590397
-0.0580184
-0.0565358
-0.0543682
-0.0513507
-0.0474005
-0.0425283
-0.0368356
-0.0304834
-0.0236901
-0.0166606
-0.0096244
-0.00274322
0.00377761
0.00985252
0.0152977
0.0200524
0.0237841
0.0263822
0.0283612
0.0302387
0.031304
0.0288399
0.020566
0.00351868
-0.017862
-0.0335593
-0.0370655
-0.031865
-0.0228667
-0.0136798
-0.00649733
0.000344875
0.00419283
0.00945871
0.0109
0.0112523
0.00802114
-0.00750595
-0.029097
-0.0501308
-0.0470715
-0.0376625
-0.0270808
-0.00744946
-0.0828597
-0.0857849
-0.0848226
-0.0815587
-0.0778468
-0.0745314
-0.0716598
-0.0690311
-0.0665253
-0.0641571
-0.0620027
-0.0601221
-0.0585206
-0.0571431
-0.0558831
-0.054602
-0.0531342
-0.0513038
-0.0489456
-0.045931
-0.0421865
-0.0377052
-0.0325499
-0.0268307
-0.0207111
-0.0143509
-0.00793879
-0.00161481
0.00443572
0.0101269
0.0152999
0.019888
0.023625
0.0264204
0.0286977
0.0309363
0.0326486
0.0311777
0.0242037
0.00952262
-0.00864448
-0.0221408
-0.0261779
-0.0231747
-0.0165585
-0.00931209
-0.00352694
0.00239334
0.00596494
0.0109031
0.0123763
0.0122046
0.00982319
-0.00353009
-0.0233302
-0.0432227
-0.0417518
-0.0333318
-0.0235638
-0.00669271
-0.0745706
-0.0776109
-0.0772857
-0.0748612
-0.0719366
-0.0692827
-0.0669681
-0.0648174
-0.0627064
-0.0606273
-0.0586349
-0.056781
-0.0550799
-0.0534988
-0.0519665
-0.050384
-0.0486331
-0.0465877
-0.0441272
-0.0411541
-0.0376074
-0.0334725
-0.0287868
-0.0236249
-0.0181072
-0.0123573
-0.00652845
-0.000740129
0.00484694
0.0101471
0.0150236
0.0194104
0.0230972
0.0260039
0.0284515
0.0307851
0.0326492
0.0317583
0.0261074
0.0140875
-0.000732566
-0.0121708
-0.0166311
-0.0154812
-0.0108986
-0.00531058
-0.000725408
0.00432917
0.0076515
0.0122855
0.0139052
0.0133509
0.0118005
0.0008329
-0.0168387
-0.0353572
-0.0357264
-0.0287805
-0.0199188
-0.00582739
-0.06674
-0.0698024
-0.0699398
-0.0681812
-0.0659067
-0.0638105
-0.0619709
-0.0602351
-0.0584803
-0.0566838
-0.0548831
-0.0531216
-0.0514169
-0.0497531
-0.0480834
-0.0463388
-0.0444355
-0.0422845
-0.0397993
-0.0369079
-0.0335622
-0.0297457
-0.02548
-0.0208152
-0.0158397
-0.0106484
-0.00536398
-8.76103e-05
0.00504394
0.00995075
0.0145116
0.018661
0.0222412
0.0251723
0.02767
0.0299241
0.0316403
0.0310582
0.0266145
0.0171502
0.00541947
-0.00412876
-0.00871737
-0.00892174
-0.00596243
-0.00173906
0.00185965
0.00612872
0.0092262
0.0135876
0.0154808
0.0148221
0.0140016
0.00535832
-0.0100543
-0.027046
-0.029286
-0.0241617
-0.016302
-0.00489014
-0.0594232
-0.0623902
-0.0628427
-0.061609
-0.0598683
-0.0582371
-0.056798
-0.0554183
-0.0539806
-0.0524523
-0.050858
-0.0492325
-0.0475941
-0.0459378
-0.0442337
-0.0424345
-0.0404819
-0.0383142
-0.0358703
-0.0330987
-0.0299626
-0.0264473
-0.0225651
-0.0183503
-0.0138674
-0.00918905
-0.004413
0.000376424
0.00506417
0.00957669
0.0138078
0.0176915
0.0211116
0.0239839
0.0264288
0.0285079
0.0299654
0.0295382
0.0260809
0.0187998
0.00970776
0.00190971
-0.00246884
-0.00350591
-0.00176001
0.00137301
0.00418719
0.00776971
0.010658
0.0147543
0.0170204
0.0167742
0.0163966
0.00972607
-0.00353206
-0.0189258
-0.0228039
-0.0196322
-0.012867
-0.00393096
-0.0525727
-0.0553848
-0.0560493
-0.0552257
-0.0539177
-0.0526693
-0.0515634
-0.0504857
-0.049326
-0.0480461
-0.0466609
-0.0451976
-0.0436734
-0.0420888
-0.040426
-0.0386534
-0.0367308
-0.034616
-0.032267
-0.0296478
-0.0267317
-0.0235073
-0.019982
-0.0161798
-0.0121481
-0.0079426
-0.00364112
0.000686842
0.00494498
0.00906664
0.0129588
0.016559
0.0197711
0.0225142
0.0248295
0.0266957
0.0278898
0.0275432
0.0248672
0.0193574
0.0124283
0.00619526
0.00226946
0.000839985
0.00174035
0.00402313
0.00622781
0.0092295
0.0119185
0.0157188
0.0183479
0.018808
0.0187444
0.0135315
0.00217726
-0.011582
-0.0166482
-0.0153298
-0.0097439
-0.00300519
-0.0461831
-0.0488115
-0.0496061
-0.0490949
-0.048132
-0.0471946
-0.0463628
-0.0455383
-0.0446197
-0.0435654
-0.0423824
-0.0410931
-0.0397126
-0.0382436
-0.0366756
-0.0349881
-0.0331538
-0.0311445
-0.0289316
-0.0264911
-0.0238047
-0.0208644
-0.0176755
-0.0142557
-0.0106402
-0.0068722
-0.00301357
0.000878429
0.00472375
0.00846334
0.0120133
0.0153159
0.0182873
0.0208508
0.0229923
0.024645
0.0256213
0.0253434
0.0232966
0.0191887
0.013985
0.00910479
0.00575564
0.00423747
0.00459065
0.00622592
0.0079658
0.0104821
0.0129764
0.0164379
0.0192881
0.0203491
0.0205799
0.0163445
0.00667032
-0.00538603
-0.0110982
-0.0114018
-0.00702704
-0.0021642
-0.0402611
-0.0426791
-0.043538
-0.0432606
-0.0425707
-0.0418836
-0.0412746
-0.0406598
-0.039947
-0.0390939
-0.0381018
-0.0369887
-0.0357671
-0.0344399
-0.0330015
-0.0314388
-0.0297334
-0.0278666
-0.0258196
-0.0235772
-0.0211273
-0.0184657
-0.0155964
-0.0125336
-0.00930419
-0.00594196
-0.00249642
0.000985437
0.00443686
0.00780551
0.0110164
0.0140175
0.0167303
0.0190864
0.0210359
0.0224978
0.0233179
0.0231239
0.021594
0.0185785
0.014726
0.0109922
0.0082508
0.00682175
0.00685183
0.00800673
0.00939581
0.0115015
0.0137931
0.0168758
0.0197514
0.0211907
0.0214713
0.017897
0.00977929
-0.000482097
-0.00633656
-0.00792811
-0.00476041
-0.00144665
-0.0347864
-0.0369823
-0.0378595
-0.0377546
-0.0372787
-0.0367911
-0.0363613
-0.035918
-0.0353786
-0.034702
-0.0338862
-0.032944
-0.0318853
-0.0307128
-0.0294239
-0.0280104
-0.0264598
-0.0247597
-0.022898
-0.0208658
-0.0186558
-0.0162664
-0.0137019
-0.0109738
-0.00810371
-0.00511818
-0.00205748
0.0010398
0.00411751
0.00713034
0.0100117
0.0127155
0.0151662
0.0173046
0.0190631
0.0203659
0.0210862
0.0209932
0.0198926
0.0177264
0.0149219
0.0121281
0.00996331
0.00872031
0.00858842
0.0093962
0.0105203
0.0122717
0.0143344
0.0170021
0.0197215
0.0211634
0.0213277
0.0182691
0.011589
0.00313647
-0.00247853
-0.00496715
-0.00293581
-0.000869924
-0.029741
-0.0317151
-0.0325777
-0.032597
-0.032287
-0.0319569
-0.0316697
-0.0313652
-0.0309706
-0.0304468
-0.0297884
-0.0290057
-0.028107
-0.0270934
-0.0259629
-0.0247108
-0.0233288
-0.0218087
-0.0201428
-0.0183262
-0.0163551
-0.0142302
-0.0119559
-0.00954209
-0.00700645
-0.0043706
-0.00166764
0.00107065
0.00379661
0.0064723
0.0090387
0.0114545
0.0136497
0.0155735
0.0171549
0.0183289
0.0189929
0.0190104
0.018265
0.0167576
0.0147641
0.0127184
0.0110664
0.0100506
0.00986635
0.0104289
0.0113499
0.0127894
0.0145872
0.0168215
0.0192948
0.0204242
0.0204055
0.0177944
0.0123617
0.00558167
0.000444056
-0.00254375
-0.00150675
-0.000426866
-0.0251082
-0.0268657
-0.027691
-0.027797
-0.0276146
-0.027408
-0.0272334
-0.0270401
-0.0267647
-0.0263712
-0.0258515
-0.0252141
-0.0244669
-0.0236089
-0.0226373
-0.0215496
-0.0203407
-0.019005
-0.0175375
-0.0159358
-0.0141988
-0.0123283
-0.0103289
-0.00820956
-0.00598502
-0.00367317
-0.00130145
0.00110385
0.00350216
0.00586159
0.00813042
0.0102726
0.0122256
0.0139461
0.0153693
0.0164394
0.0170752
0.0172015
0.0167493
0.015749
0.0143762
0.0129222
0.0117087
0.0109222
0.0107489
0.0111445
0.0119033
0.0130672
0.0145684
0.0163229
0.017817
0.0191828
0.0190423
0.016834
0.0124159
0.00705322
0.00249825
-0.000640813
-0.00040831
-9.402e-05
-0.0208659
-0.0224177
-0.0231918
-0.0233566
-0.0232716
-0.0231609
-0.0230743
-0.0229692
-0.0227909
-0.0225071
-0.0221086
-0.0216011
-0.0209933
-0.0202822
-0.0194639
-0.0185368
-0.017498
-0.016344
-0.0150713
-0.0136789
-0.0121671
-0.0105386
-0.00879796
-0.00695329
-0.0050171
-0.00300434
-0.00093789
0.00116037
0.00325633
0.00532276
0.00731449
0.00920151
0.0109302
0.0124698
0.0137449
0.0147275
0.0153502
0.0155762
0.015362
0.0147463
0.0138437
0.0128574
0.0120056
0.0114279
0.0112975
0.0115835
0.0122053
0.0131297
0.0143397
0.0157054
0.0168785
0.0177958
0.0175102
0.0156512
0.0120331
0.00779251
0.00383132
0.000793777
0.000420085
0.000154255
-0.0169934
-0.018354
-0.0190691
-0.0192719
-0.0192605
-0.0192237
-0.0192051
-0.0191695
-0.0190699
-0.018878
-0.018585
-0.0181943
-0.0177082
-0.0171306
-0.0164559
-0.0156811
-0.0148045
-0.0138242
-0.0127378
-0.011545
-0.0102464
-0.00884523
-0.00734601
-0.00575586
-0.00408551
-0.00234743
-0.000560806
0.00125614
0.00307483
0.00487242
0.00661019
0.00826246
0.00978258
0.0111476
0.0122962
0.0132066
0.0138231
0.0141323
0.0141038
0.0137775
0.0132317
0.0126057
0.0120401
0.011644
0.0115695
0.011785
0.0122885
0.0130088
0.0139493
0.0149818
0.015824
0.0163808
0.0159696
0.0144038
0.0114181
0.00802907
0.00468548
0.00183769
0.0010273
0.000337525
-0.0134706
-0.0146554
-0.0153083
-0.0155336
-0.0155772
-0.0155971
-0.0156306
-0.0156489
-0.0156121
-0.0154956
-0.0152911
-0.0149984
-0.0146217
-0.014165
-0.0136227
-0.0129897
-0.0122644
-0.0114463
-0.0105341
-0.00952768
-0.00842787
-0.00723765
-0.0059613
-0.0046051
-0.00317806
-0.00169076
-0.000159168
0.00140181
0.00296788
0.0045202
0.006027
0.00746615
0.00879673
0.01
0.0110336
0.0118797
0.0124895
0.01286
0.0129715
0.0128598
0.0125774
0.0122124
0.0118787
0.0116358
0.0116159
0.0117874
0.0121892
0.0127375
0.0134382
0.0141834
0.0147338
0.0150154
0.0145078
0.0131779
0.0107029
0.00794894
0.00515225
0.00255335
0.00145085
0.000469075
-0.010276
-0.0113018
-0.0118926
-0.0121295
-0.012214
-0.0122769
-0.01235
-0.0124097
-0.0124226
-0.0123675
-0.012237
-0.0120306
-0.0117505
-0.0113975
-0.0109721
-0.0104679
-0.00988122
-0.00921179
-0.00845931
-0.00762401
-0.00670659
-0.00570958
-0.00463678
-0.00349357
-0.00228759
-0.00102763
0.000273255
0.00160237
0.00294013
0.00427098
0.00556787
0.00681401
0.00797553
0.00903477
0.00996176
0.0107403
0.0113364
0.0117474
0.0119604
0.0120037
0.0119123
0.0117355
0.0115789
0.011458
0.0114847
0.0116285
0.0119425
0.0123473
0.0128434
0.013349
0.0136602
0.0137369
0.0131664
0.0120179
0.00996331
0.00768103
0.00533334
0.0030052
0.00172552
0.00055793
-0.00738944
-0.00827313
-0.00880418
-0.00904528
-0.00915974
-0.00925505
-0.00935784
-0.00944904
-0.00950112
-0.00949596
-0.00942673
-0.00929267
-0.00909331
-0.00882848
-0.00850809
-0.00811913
-0.0076576
-0.0071225
-0.00651416
-0.0058333
-0.00508069
-0.0042583
-0.00336929
-0.00241815
-0.00141122
-0.000355708
0.000737692
0.00185871
0.00299138
0.00412278
0.00523131
0.00630295
0.00731075
0.00824116
0.00906476
0.00977658
0.0103491
0.0107827
0.0110638
0.0112138
0.0112586
0.0112238
0.0111871
0.0111569
0.0112188
0.0113434
0.0115819
0.011869
0.012197
0.0125091
0.0126331
0.0125605
0.0119596
0.0109459
0.00923527
0.00730838
0.00531886
0.00325748
0.00188572
0.000612027
-0.00479172
-0.00554975
-0.0060249
-0.006265
-0.0064012
-0.00652074
-0.0066457
-0.00676085
-0.00684369
-0.00687932
-0.00686183
-0.00679062
-0.00666608
-0.006488
-0.00624621
-0.0059512
-0.00559729
-0.00518056
-0.00470007
-0.00415647
-0.00355055
-0.00288388
-0.0021589
-0.00137917
-0.000549808
0.000323359
0.00123177
0.00216715