/*--------------------------------*- C++ -*----------------------------------*\
| =========                 |                                                 |
| \\      /  F ield         | OpenFOAM: The Open Source CFD Toolbox           |
|  \\    /   O peration     | Version:  2512                                  |
|   \\  /    A nd           | Website:  www.openfoam.com                      |
|    \\/     M anipulation  |                                                 |
\*---------------------------------------------------------------------------*/
FoamFile
{
    version     2.0;
    format      ascii;
    arch        "LSB;label=32;scalar=64";
    class       volVectorField;
    location    "9.25";
    object      U;
}
// * * * * * * * * * * * * * * * * * * * * * * * * * * * * * * * * * * * * * //

dimensions      [0 1 -1 0 0 0 0];

internalField   nonuniform List<vector> 
13248
(
(-0.0136828 0.0124392 7.94537e-20)
(-0.0262155 0.0274448 0)
(-0.0234267 0.0365984 -1.49962e-19)
(-0.00561959 0.0415543 1.41263e-19)
(0.0269426 0.0436468 1.31902e-19)
(0.0740195 0.0439385 0)
(0.135292 0.0432672 0)
(0.21019 0.0422974 3.18906e-19)
(0.297695 0.0415048 -5.43829e-22)
(0.396153 0.0411834 -2.80406e-19)
(0.503159 0.0414296 2.63385e-19)
(0.615568 0.0421419 -1.64976e-19)
(0.729636 0.0430451 0)
(0.841296 0.0437366 -2.91464e-19)
(0.946494 0.043752 5.46245e-19)
(1.04156 0.0426384 -1.30567e-19)
(1.12352 0.0400291 -2.35245e-19)
(1.19042 0.035681 2.20851e-19)
(1.24141 0.0295932 0)
(1.27679 0.0216226 0)
(1.29806 0.0128514 0)
(1.30699 0.000566844 0)
(1.30645 -0.00662009 6.48595e-20)
(1.29797 -0.0323096 2.30347e-19)
(-0.0136398 0.0109569 -2.39771e-19)
(-0.0214674 0.0216626 1.63317e-19)
(-0.0101005 0.0267359 -1.58413e-21)
(0.0196528 0.0284283 -2.15563e-19)
(0.0672704 0.0284308 -1.3176e-19)
(0.132184 0.0280181 -1.24579e-19)
(0.213443 0.0281015 -2.28998e-19)
(0.309438 0.0292714 2.16591e-19)
(0.41765 0.0318196 0)
(0.534583 0.0357374 4.56122e-22)
(0.655881 0.0407269 7.11959e-22)
(0.776657 0.0462486 1.64284e-19)
(0.891951 0.0516057 0)
(0.997232 0.0560549 0)
(1.08885 0.0589216 1.98352e-19)
(1.16438 0.0597013 -3.72887e-19)
(1.22278 0.058126 2.24046e-19)
(1.26442 0.0541886 -2.10355e-19)
(1.29087 0.0481116 -9.2253e-20)
(1.30456 0.0403064 -1.69025e-19)
(1.30832 0.0312851 -6.90391e-20)
(1.30505 0.0213844 -1.29901e-19)
(1.2968 0.0127032 1.91388e-19)
(1.28657 -0.000204583 5.39484e-20)
(-0.0125644 0.00917989 0)
(-0.0129372 0.0157316 0)
(0.0105492 0.017643 7.62319e-20)
(0.056257 0.0174297 7.01445e-20)
(0.122992 0.016983 -1.74677e-21)
(0.209281 0.0176902 -1.28813e-19)
(0.312794 0.0204 0)
(0.430034 0.0254618 -1.07815e-19)
(0.556271 0.0327586 1.01683e-19)
(0.685808 0.0417493 6.33676e-22)
(0.812527 0.0515639 -1.75183e-19)
(0.930597 0.0611529 -1.61926e-19)
(1.03514 0.0694654 2.05641e-21)
(1.12276 0.0756188 -1.36229e-19)
(1.19181 0.0790262 3.25624e-19)
(1.24239 0.0794575 0)
(1.2761 0.0770325 -2.13506e-19)
(1.29561 0.0721409 1.04129e-19)
(1.30411 0.0653731 9.21822e-20)
(1.30474 0.0572706 0)
(1.30025 0.0487018 7.53601e-20)
(1.29254 0.0393408 -2.55736e-19)
(1.28299 0.0320815 2.40076e-19)
(1.27288 0.0199792 1.48602e-19)
(-0.00989825 0.00691556 -8.46401e-20)
(0.000591127 0.00934759 -8.75344e-20)
(0.0399631 0.00909808 7.91454e-20)
(0.105416 0.00855121 0)
(0.19452 0.00955708 0)
(0.304116 0.0134029 -2.89189e-21)
(0.429623 0.0206178 0)
(0.56494 0.031009 -3.30203e-19)
(0.702858 0.0437654 3.07245e-19)
(0.83589 0.0576298 -3.80042e-19)
(0.957262 0.0711451 8.75454e-20)
(1.06179 0.0829271 0)
(1.14644 0.0918992 1.4711e-19)
(1.21045 0.0974382 -2.72974e-19)
(1.25506 0.0994095 6.51227e-20)
(1.283 0.0981007 1.68425e-19)
(1.29778 0.0940855 -6.94386e-21)
(1.30301 0.0880701 -1.86752e-19)
(1.30185 0.080741 0)
(1.29675 0.0727051 0)
(1.28934 0.0644353 -6.69836e-20)
(1.28061 0.0560619 6.00151e-20)
(1.27114 0.0489754 2.15167e-19)
(1.26154 0.0385967 -2.02014e-19)
(-0.00515684 0.00419893 -8.92262e-20)
(0.0201507 0.00269438 -8.89265e-20)
(0.0792069 0.00148713 2.50104e-19)
(0.167636 0.002418 -1.5178e-19)
(0.281042 0.00696531 1.42861e-19)
(0.413685 0.0159691 2.59696e-19)
(0.557971 0.0292481 -1.83679e-19)
(0.70496 0.0457075 -2.24062e-19)
(0.845526 0.0636341 4.05318e-21)
(0.971733 0.0810852 2.87252e-19)
(1.07796 0.0962912 0)
(1.16147 0.10797 7.95416e-20)
(1.22233 0.115482 0)
(1.26287 0.118822 -1.31027e-19)
(1.28679 0.118468 1.84525e-19)
(1.29825 0.115176 2.07884e-21)
(1.30114 0.109776 -4.85782e-20)
(1.29858 0.103013 9.1748e-20)
(1.29282 0.0954862 7.87648e-20)
(1.28529 0.0876135 -7.07369e-20)
(1.27683 0.0797178 6.69692e-20)
(1.26788 0.0718478 -6.00013e-20)
(1.25868 0.0648467 0)
(1.24958 0.0555659 -4.5194e-20)
(0.00206061 0.0012568 8.92133e-20)
(0.0465235 -0.00357566 9.37067e-20)
(0.128854 -0.00417683 -8.38213e-20)
(0.242556 0.000300747 1.56309e-19)
(0.380406 0.0105125 -1.47116e-19)
(0.53327 0.0263633 1.33227e-19)
(0.690265 0.046509 -6.39758e-20)
(0.840245 0.0686967 1.68163e-19)
(0.97369 0.0903715 -1.05823e-19)
(1.08419 0.109271 1.88121e-19)
(1.16908 0.123845 -4.346e-19)
(1.22912 0.133427 1.59745e-19)
(1.26759 0.138147 -1.40726e-19)
(1.28908 0.138692 1.32187e-19)
(1.29836 0.136014 1.14815e-19)
(1.29958 0.131074 1.01258e-19)
(1.29593 0.12469 -2.81405e-19)
(1.28957 0.117477 1.74905e-19)
(1.28184 0.109856 -7.87696e-20)
(1.27346 0.102107 2.05433e-19)
(1.26482 0.094405 -6.63846e-20)
(1.25608 0.0868505 -1.61363e-19)
(1.24731 0.0798482 1.48976e-19)
(1.23864 0.0713922 4.5181e-20)
(0.0120702 -0.001548 0)
(0.080159 -0.00846808 8.4643e-22)
(0.188804 -0.00645978 1.75555e-19)
(0.328707 0.00379626 -1.64592e-19)
(0.488986 0.0215445 -1.48626e-19)
(0.656722 0.0451975 2.7632e-19)
(0.818335 0.071917 -1.28367e-19)
(0.962093 0.0983546 1.71347e-19)
(1.08019 0.121555 -3.58573e-21)
(1.16958 0.139561 -9.72686e-20)
(1.23145 0.151602 2.13012e-19)
(1.26992 0.15793 -3.14594e-19)
(1.29043 0.159455 0)
(1.29842 0.157353 -6.20414e-20)
(1.29842 0.152757 -1.66331e-19)
(1.29381 0.146589 5.22004e-20)
(1.28678 0.139515 2.03482e-21)
(1.27864 0.131976 -1.15815e-19)
(1.27007 0.124253 7.0063e-21)
(1.2614 0.116519 1.34112e-19)
(1.25278 0.108887 -6.00827e-20)
(1.24423 0.101444 -2.27592e-20)
(1.23574 0.0943153 7.02281e-20)
(1.22735 0.0864364 0)
(0.025078 -0.00376357 0)
(0.121064 -0.0108002 4.76063e-20)
(0.258101 -0.00378888 -2.2902e-19)
(0.423386 0.0144122 8.33823e-20)
(0.601865 0.0409643 -7.84738e-20)
(0.777246 0.0723379 -7.17923e-20)
(0.934848 0.104213 -1.26996e-19)
(1.06458 0.132636 6.33136e-20)
(1.16226 0.154964 5.51516e-20)
(1.2291 0.170161 0)
(1.26988 0.178542 1.26293e-19)
(1.29094 0.181256 -1.88197e-19)
(1.29851 0.17975 1.40216e-19)
(1.29773 0.175392 6.20753e-20)
(1.29227 0.169262 -5.09977e-20)
(1.28452 0.162123 -4.28588e-20)
(1.27583 0.154464 -4.02061e-20)
(1.26688 0.146581 1.19763e-19)
(1.25801 0.138652 0)
(1.24932 0.130789 6.04447e-20)
(1.24083 0.123069 5.09943e-20)
(1.23252 0.115555 -1.26494e-19)
(1.22434 0.108245 -8.67541e-20)
(1.21626 0.100754 8.01115e-20)
(0.0411342 -0.00488234 -5.13669e-20)
(0.168697 -0.00934333 -1.96548e-21)
(0.334857 0.00527912 4.66353e-20)
(0.5228 0.0332175 1.30498e-19)
(0.713451 0.0689439 3.80151e-20)
(0.888554 0.10687 -7.3418e-20)
(1.0346 0.141676 6.70505e-20)
(1.14522 0.169602 -5.88421e-20)
(1.22089 0.189032 1.0557e-19)
(1.2668 0.200206 4.50849e-20)
(1.29023 0.204505 -1.27901e-19)
(1.29843 0.203722 3.77918e-20)
(1.29733 0.199543 6.46868e-20)
(1.29119 0.193292 -3.18054e-20)
(1.28268 0.185884 0)
(1.2733 0.177889 4.77774e-20)
(1.2638 0.169643 8.10073e-20)
(1.25452 0.161338 1.39934e-20)
(1.24556 0.153085 -6.76694e-20)
(1.23694 0.14496 2.83725e-20)
(1.22861 0.137019 0)
(1.22052 0.129292 -2.23657e-20)
(1.21261 0.121741 -2.12384e-20)
(1.2048 0.114421 0)
(0.0600745 -0.00437536 0)
(0.221903 -0.00295668 2.69217e-20)
(0.41632 0.0218428 4.98743e-20)
(0.62247 0.060642 -1.33126e-19)
(0.818321 0.104902 4.30146e-20)
(0.985848 0.147353 0)
(1.11501 0.182547 6.47409e-20)
(1.20444 0.207767 -9.03972e-20)
(1.25919 0.22289 -5.27252e-20)
(1.28744 0.229465 2.38544e-20)
(1.29766 0.229699 -3.82718e-20)
(1.29694 0.225722 9.28897e-20)
(1.29036 0.219211 4.66819e-20)
(1.28109 0.211315 -3.23952e-20)
(1.27093 0.202742 -2.97648e-21)
(1.26075 0.193894 -8.9265e-20)
(1.25091 0.184988 4.0689e-20)
(1.24153 0.176147 -1.04702e-21)
(1.23263 0.167443 0)
(1.22415 0.158929 -2.84022e-20)
(1.21603 0.150641 0)
(1.20821 0.142581 6.44577e-20)
(1.2006 0.13475 -7.67655e-20)
(1.19308 0.127415 3.50105e-20)
(0.0814791 -0.00173292 -1.4052e-20)
(0.278921 0.00929487 -6.79404e-20)
(0.499099 0.0465153 7.73289e-20)
(0.717791 0.0964328 4.54853e-20)
(0.911943 0.147671 -2.17137e-20)
(1.06621 0.192152 3.65279e-20)
(1.17571 0.225318 -1.77338e-20)
(1.24432 0.246152 2.95476e-20)
(1.28083 0.256164 0)
(1.29515 0.258014 6.71143e-20)
(1.29588 0.254418 -2.71484e-21)
(1.28929 0.247568 -5.42685e-20)
(1.27939 0.238975 2.32953e-20)
(1.2684 0.229562 -2.63536e-20)
(1.25742 0.219843 -1.00834e-20)
(1.24689 0.210085 1.1597e-20)
(1.23696 0.200424 -8.99123e-21)
(1.22765 0.190938 -4.89047e-20)
(1.21889 0.181674 2.99752e-20)
(1.21063 0.172667 6.15795e-21)
(1.20278 0.163933 5.43317e-21)
(1.19525 0.15546 4.79513e-21)
(1.18794 0.147317 0)
(1.18073 0.139769 0)
(0.104738 0.00350142 1.40617e-20)
(0.337619 0.0280569 -1.40799e-20)
(0.579645 0.0793572 -2.57803e-20)
(0.804695 0.13973 0)
(0.991144 0.195743 -1.07889e-20)
(1.12847 0.239699 -9.72163e-21)
(1.21768 0.268844 -1.66469e-20)
(1.26738 0.28419 0)
(1.28893 0.288765 0)
(1.29282 0.286024 0)
(1.28705 0.278887 0)
(1.2768 0.269419 0)
(1.26502 0.258887 -1.46478e-20)
(1.25318 0.247991 6.67509e-21)
(1.24188 0.237081 1.16319e-20)
(1.23132 0.226326 5.44155e-21)
(1.2215 0.215807 1.35023e-20)
(1.21239 0.20557 0)
(1.20391 0.195645 -3.25502e-21)
(1.19596 0.186053 -3.11176e-21)
(1.18847 0.17679 -5.44183e-21)
(1.18131 0.167849 -4.80279e-21)
(1.1744 0.159366 0)
(1.16758 0.151445 3.46291e-21)
(-0.004328 0.0034182 8.08026e-21)
(-0.0198956 0.00701357 -8.48634e-21)
(-0.0468403 0.00852589 -1.61986e-20)
(-0.0789483 0.00882157 0)
(-0.113076 0.00838852 -2.20701e-20)
(-0.147899 0.00750293 6.9409e-21)
(-0.182617 0.00632179 -1.34238e-20)
(-0.216727 0.00492696 0)
(-0.249917 0.00335741 0)
(-0.281954 0.00163231 0)
(-0.312617 -0.000234824 0)
(-0.341667 -0.00222881 0)
(-0.368836 -0.00432949 5.94361e-23)
(-0.393829 -0.00651089 -9.95112e-21)
(-0.416328 -0.00874151 1.93288e-20)
(-0.435997 -0.0109849 2.76568e-20)
(-0.452493 -0.0132 8.85447e-21)
(-0.465479 -0.0153411 0)
(-0.474642 -0.0173572 7.71553e-21)
(-0.479694 -0.0191903 -2.1782e-20)
(-0.480355 -0.0207753 -1.34765e-20)
(-0.476438 -0.0220377 -1.23845e-20)
(-0.46813 -0.0228822 0)
(-0.456128 -0.0232253 0)
(-0.00528074 0.0153292 -2.44491e-20)
(-0.0211406 0.0336043 4.2438e-20)
(-0.0469138 0.0440114 -1.61122e-20)
(-0.0771861 0.0495766 -3.11059e-20)
(-0.109153 0.052093 4.39779e-20)
(-0.141591 0.0526851 -2.83631e-20)
(-0.173729 0.0520627 4.01e-20)
(-0.205056 0.0506318 2.59663e-20)
(-0.235239 0.0485886 0)
(-0.264025 0.0460001 -2.41696e-20)
(-0.291181 0.0428654 -1.03887e-21)
(-0.316464 0.0391545 2.13335e-20)
(-0.339612 0.0348323 3.18082e-20)
(-0.360345 0.0298698 4.09093e-20)
(-0.378364 0.0242509 -1.86344e-20)
(-0.393355 0.0179765 -5.5121e-20)
(-0.404999 0.0110693 1.78036e-20)
(-0.412976 0.00358026 -6.67492e-20)
(-0.416982 -0.00439921 0)
(-0.41673 -0.0127225 1.45167e-20)
(-0.41192 -0.021186 1.34554e-20)
(-0.402231 -0.0295335 1.23648e-20)
(-0.387667 -0.0374054 0)
(-0.369506 -0.0444214 0)
(-0.00700475 0.025181 0)
(-0.0232528 0.0562903 8.69243e-20)
(-0.0464634 0.075037 -3.27859e-20)
(-0.0727954 0.0858878 3.14058e-20)
(-0.100123 0.0915763 -8.94597e-20)
(-0.127433 0.0938996 0)
(-0.154016 0.0940449 -5.49869e-20)
(-0.17935 0.0927289 2.57862e-20)
(-0.203063 0.0903254 -5.04926e-20)
(-0.224861 0.0869833 2.45957e-20)
(-0.244485 0.0827218 1.40406e-19)
(-0.261686 0.0774969 -6.59596e-20)
(-0.276222 0.0712426 -1.07853e-19)
(-0.287846 0.0638934 -4.31374e-20)
(-0.296314 0.0553948 -1.44534e-21)
(-0.301382 0.04571 1.50341e-19)
(-0.30281 0.0348251 -7.11189e-20)
(-0.300357 0.0227592 -7.01951e-22)
(-0.293783 0.00958609 0)
(-0.282851 -0.00453049 -6.05796e-20)
(-0.267325 -0.0192962 0)
(-0.246817 -0.0342861 -4.90476e-20)
(-0.220829 -0.0489992 1.86792e-19)
(-0.190206 -0.0626101 -3.10137e-21)
(-0.00907728 0.031867 0)
(-0.02577 0.0727826 7.83544e-22)
(-0.0455619 0.0987753 3.39077e-20)
(-0.0665476 0.114739 -3.24824e-20)
(-0.0874779 0.123812 2.93797e-20)
(-0.107647 0.12818 1.74032e-19)
(-0.126469 0.129371 -5.48441e-20)
(-0.143454 0.128369 -5.32839e-20)
(-0.158211 0.125738 1.01543e-19)
(-0.170418 0.121749 -1.47221e-19)
(-0.179804 0.11649 4.61913e-20)
(-0.186132 0.109948 4.53643e-20)
(-0.189194 0.102067 0)
(-0.188805 0.0927781 4.1383e-20)
(-0.184804 0.0820179 0)
(-0.177049 0.0697342 7.67785e-20)
(-0.165416 0.0558882 -1.46445e-19)
(-0.149796 0.040457 3.30767e-20)
(-0.130072 0.0234505 1.30126e-19)
(-0.106107 0.00492008 6.0484e-20)
(-0.0778725 -0.0150106 0)
(-0.0455186 -0.0360756 -1.56228e-19)
(-0.00891854 -0.0576155 4.90359e-20)
(0.0369883 -0.0770837 0)
(-0.0110202 0.0349591 0)
(-0.0281491 0.0819058 -1.08185e-19)
(-0.0443162 0.11346 -3.46867e-20)
(-0.059442 0.133964 -6.51699e-20)
(-0.0731689 0.146406 6.13664e-20)
(-0.0851585 0.153037 -5.82443e-20)
(-0.0950275 0.15554 1.12949e-19)
(-0.102391 0.155076 5.51727e-20)
(-0.106904 0.152383 -1.52765e-19)
(-0.108272 0.147877 9.96615e-20)
(-0.106251 0.141753 -1.42044e-19)
(-0.10065 0.134071 3.19889e-19)
(-0.0913239 0.124823 -1.72985e-19)
(-0.0781703 0.11397 8.39288e-20)
(-0.0611215 0.101467 2.42955e-19)
(-0.0401386 0.08727 -7.40791e-20)
(-0.0152126 0.0713445 -7.1325e-20)
(0.0136617 0.0536554 -6.90387e-20)
(0.0464705 0.0342 0)
(0.0831983 0.0129719 -1.23658e-19)
(0.123755 -0.0100247 -1.14032e-19)
(0.168256 -0.0347187 1.62301e-19)
(0.215645 -0.0604885 1.93279e-19)
(0.276636 -0.0842922 -1.82215e-19)
(-0.0124499 0.0347266 0)
(-0.0299237 0.0837421 -1.48322e-19)
(-0.042848 0.118642 -9.65753e-22)
(-0.052477 0.142549 1.31562e-19)
(-0.0591836 0.157888 0)
(-0.0629939 0.166694 0)
(-0.0637841 0.170602 0)
(-0.061359 0.170837 -5.48254e-20)
(-0.0554994 0.168252 -1.86871e-21)
(-0.0460083 0.163391 9.79095e-20)
(-0.0327278 0.15657 -1.44515e-19)
(-0.0155477 0.147946 -1.53312e-21)
(0.00559459 0.137584 0)
(0.0307232 0.125493 -8.3857e-20)
(0.0598245 0.111663 8.15539e-20)
(0.0928841 0.096055 -2.28161e-19)
(0.129845 0.0786564 2.9289e-19)
(0.170684 0.059464 7.11867e-20)
(0.215382 0.0384582 1.2868e-21)
(0.263915 0.0156452 -2.46873e-19)
(0.315902 -0.00896162 -1.14606e-19)
(0.372709 -0.0350502 3.72349e-19)
(0.42744 -0.0629825 -2.48092e-19)
(0.505932 -0.089622 0)
(-0.0131894 0.0319842 7.37226e-20)
(-0.0308493 0.0795016 7.4452e-20)
(-0.0412982 0.115219 -7.11558e-20)
(-0.0464399 0.14083 -1.33721e-19)
(-0.0471025 0.158015 1.25903e-19)
(-0.0436169 0.168414 -1.20023e-19)
(-0.0361264 0.173467 1.69618e-19)
(-0.0246672 0.174344 -5.49499e-20)
(-0.00921199 0.17193 1.02226e-19)
(0.0102858 0.166851 0)
(0.0338659 0.15952 9.55889e-20)
(0.0615484 0.150189 -1.77409e-19)
(0.0933279 0.138997 1.74359e-19)
(0.129215 0.125992 -1.63754e-19)
(0.16916 0.111216 0)
(0.213178 0.094699 1.50747e-19)
(0.26132 0.0764319 2.87917e-19)
(0.313565 0.056393 -2.71624e-19)
(0.369824 0.0345519 -1.27481e-19)
(0.430219 0.0110255 -1.22679e-19)
(0.493433 -0.0143785 3.4215e-19)
(0.563257 -0.0404377 1.02756e-19)
(0.624506 -0.0692595 -9.81983e-20)
(0.718846 -0.0954862 8.66518e-20)
(-0.0133106 0.0278241 -7.37326e-20)
(-0.0309778 0.0711416 2.287e-19)
(-0.0398173 0.105192 -7.22072e-20)
(-0.0417325 0.130459 1.34768e-19)
(-0.0377118 0.147934 -1.26886e-19)
(-0.0282806 0.158835 -3.20392e-22)
(-0.0138061 0.164339 5.63344e-20)
(0.00545804 0.165476 2.1552e-19)
(0.0293524 0.16309 2.45506e-21)
(0.0577822 0.157828 -9.67051e-20)
(0.0906976 0.150154 0)
(0.128091 0.14038 -8.94505e-20)
(0.169933 0.128694 1.67996e-19)
(0.216289 0.115265 1.63314e-19)
(0.267299 0.100171 -7.70061e-20)
(0.322979 0.0834289 -1.87517e-21)
(0.383321 0.0650167 -7.10525e-20)
(0.448295 0.0449611 1.31124e-19)
(0.51755 0.0232801 1.27441e-19)
(0.59101 0.000329546 -1.19812e-19)
(0.665959 -0.0244911 1.0838e-19)
(0.74756 -0.0485609 -1.00258e-19)
(0.814625 -0.0765072 0)
(0.917367 -0.0986909 -8.65836e-20)
(-0.0130871 0.023325 7.52055e-20)
(-0.0306048 0.0608447 -7.66061e-20)
(-0.03849 0.091163 7.25474e-20)
(-0.0382017 0.11406 0)
(-0.0306545 0.13008 0)
(-0.0164454 0.140109 1.19986e-19)
(0.00393221 0.145076 -1.12884e-19)
(0.0300961 0.145852 1.07091e-19)
(0.061788 0.143197 -5.05026e-19)
(0.0988631 0.13773 -9.76924e-22)
(0.141263 0.129921 9.04538e-20)
(0.189029 0.120132 0)
(0.242294 0.108635 -1.66986e-19)
(0.301117 0.0955934 3.16096e-19)
(0.365506 0.0810561 -2.25912e-19)
(0.435414 0.0650814 -3.61495e-19)
(0.510508 0.0477353 -2.81082e-21)
(0.590163 0.0291069 2.52843e-19)
(0.67323 0.00923409 0)
(0.758681 -0.0113318 0)
(0.842822 -0.0334786 -1.08374e-19)
(0.929209 -0.0535717 1.00253e-19)
(0.997615 -0.0786427 -3.54584e-19)
(1.09274 -0.0939849 3.32162e-19)
(-0.0128713 0.0193134 0)
(-0.0300733 0.0505022 0)
(-0.0371484 0.0757187 -2.17942e-19)
(-0.034951 0.0946503 6.92082e-20)
(-0.0241878 0.107709 5.64415e-22)
(-0.00540999 0.115611 1.20198e-19)
(0.0208976 0.119123 0)
(0.0543683 0.118988 -1.05737e-19)
(0.0947798 0.115878 1.0057e-19)
(0.142047 0.110372 -1.889e-19)
(0.196186 0.102942 -1.01352e-21)
(0.257229 0.0939435 1.71569e-19)
(0.325149 0.0836203 2.13261e-21)
(0.399777 0.0721112 1.57441e-19)
(0.480616 0.0595365 -2.19265e-19)
(0.566814 0.0459636 0)
(0.657057 0.0314457 2.65032e-19)
(0.749557 0.0160495 -3.75702e-19)
(0.842041 -0.000160233 1.14558e-19)
(0.932142 -0.0167966 0)
(1.01625 -0.0344775 9.86439e-20)
(1.09463 -0.0501149 3.69161e-19)
(1.15463 -0.0708578 -3.46474e-19)
(1.22358 -0.0798983 -3.76191e-19)
(-0.0129278 0.0162168 2.29046e-19)
(-0.0294912 0.0413362 -3.14037e-19)
(-0.0351326 0.0608826 1.01823e-21)
(-0.0302081 0.0749802 6.94923e-20)
(-0.0151815 0.0842002 -1.28948e-19)
(0.00953784 0.0892638 -1.20081e-19)
(0.043593 0.0908883 2.24757e-19)
(0.086743 0.0897447 9.95816e-23)
(0.138854 0.086449 -1.98536e-19)
(0.199834 0.0815271 3.7554e-19)
(0.269525 0.075398 2.29591e-21)
(0.347576 0.0683591 -1.6714e-19)
(0.433284 0.0606102 0)
(0.5255 0.0522497 0)
(0.622544 0.0433031 -7.25653e-20)
(0.722215 0.0337362 -1.3358e-19)
(0.821867 0.023496 -2.55688e-19)
(0.91854 0.0124979 2.40007e-19)
(1.00921 0.000797547 -1.14616e-19)
(1.09096 -0.0117163 2.06129e-19)
(1.16125 -0.0247819 -1.02703e-19)
(1.21892 -0.0376586 1.68608e-19)
(1.25983 -0.0537427 -4.0214e-19)
(1.2948 -0.0605884 7.47733e-20)
(-0.0132832 0.0140328 7.70953e-20)
(-0.0284948 0.0337506 0)
(-0.0311597 0.0477841 1.48051e-19)
(-0.0214245 0.0570061 -1.39465e-19)
(0.000431482 0.0623407 1.29072e-19)
(0.034164 0.0646521 0)
(0.0795578 0.0646851 0)
(0.136403 0.0630975 -1.05434e-19)
(0.204422 0.0604558 7.88397e-23)
(0.283104 0.0572037 9.29004e-20)
(0.371533 0.0536523 -8.80655e-20)
(0.468255 0.0499697 1.65665e-19)
(0.571198 0.0461877 0)
(0.677688 0.042215 2.97495e-19)
(0.784569 0.037867 -5.59562e-19)
(0.888398 0.0329028 3.96776e-19)
(0.985709 0.027085 2.45776e-19)
(1.07329 0.020167 -2.30719e-19)
(1.14851 0.0121481 0)
(1.20945 0.00260382 0)
(1.25546 -0.00737348 0)
(1.28661 -0.0198338 0)
(1.30428 -0.0311942 7.70467e-20)
(1.31283 -0.0424528 -2.62484e-19)
(-0.438023 -0.0233221 -6.44615e-21)
(-0.41211 -0.023421 6.46948e-21)
(-0.374467 -0.0224283 -1.67612e-22)
(-0.327413 -0.0206308 0)
(-0.270245 -0.0179759 -2.99402e-21)
(-0.203797 -0.0146449 4.98153e-21)
(-0.129317 -0.0106026 -7.89983e-22)
(-0.0484345 -0.00657748 -1.18885e-21)
(0.0366872 -0.00224268 0)
(0.123486 0.00186826 0)
(0.209661 0.00555786 4.61892e-23)
(0.293099 0.00872715 6.20778e-23)
(0.372031 0.0113293 1.25994e-21)
(0.445257 0.013371 -1.1556e-21)
(0.512127 0.014916 0)
(0.572438 0.016083 0)
(0.626309 0.0169664 -1.00923e-21)
(0.674149 0.0177138 6.69789e-23)
(0.716567 0.0183747 8.34794e-22)
(0.754152 0.0189426 4.74672e-23)
(0.787421 0.0194571 0)
(0.816818 0.0199691 0)
(0.842666 0.0205248 0)
(0.865298 0.0209921 0)
(0.884963 0.0214946 0)
(0.901809 0.0220023 0)
(0.916072 0.0225235 -1.0984e-22)
(0.928033 0.0230336 1.79149e-22)
(0.938017 0.0235288 0)
(0.946357 0.0240395 0)
(0.953361 0.0246064 9.08682e-23)
(0.959292 0.0252622 -8.83148e-23)
(0.964353 0.0260231 -3.75953e-23)
(0.9687 0.0268875 0)
(0.972452 0.0278432 0)
(0.975704 0.0288765 -5.20106e-23)
(0.978536 0.0299782 5.05574e-23)
(0.981015 0.0311451 0)
(0.983197 0.0323794 -3.84378e-23)
(0.985128 0.033688 5.54232e-23)
(0.986847 0.0350792 -1.64196e-23)
(0.988383 0.0365656 0)
(0.989766 0.0381526 2.64701e-23)
(0.991006 0.0398682 -2.57394e-23)
(0.99214 0.0416834 0)
(0.993149 0.0437115 0)
(0.994098 0.0457376 9.25579e-24)
(0.994922 0.048272 -2.64469e-23)
(0.995734 0.0503221 0)
(0.996417 0.0538376 0)
(0.997111 0.0553845 6.28885e-24)
(0.997715 0.0607113 -2.81632e-27)
(0.99829 0.0611023 4.98477e-25)
(0.998859 0.0687548 -4.33132e-24)
(0.999358 0.0683057 0)
(0.99988 0.0774866 0)
(1.00034 0.0774262 0)
(1.00092 0.0877678 0)
(1.00118 0.0877051 0)
(1.002 0.100134 0)
(-0.346426 -0.0518143 -6.7532e-22)
(-0.324821 -0.0636361 -2.385e-20)
(-0.290032 -0.0737061 3.18328e-21)
(-0.246545 -0.0821142 1.93315e-20)
(-0.1937 -0.0884522 2.31401e-22)
(-0.131948 -0.0928428 0)
(-0.0628416 -0.0936483 -5.14093e-21)
(0.0124446 -0.0916918 7.35204e-21)
(0.0919413 -0.0871579 -2.20043e-21)
(0.17262 -0.0804849 -2.11486e-21)
(0.252704 -0.0721461 2.00916e-21)
(0.33027 -0.0628017 -4.20749e-21)
(0.403675 -0.0531292 4.06916e-21)
(0.471796 -0.0437207 1.42398e-22)
(0.534054 -0.0350207 4.6293e-21)
(0.590279 -0.0272257 -4.49871e-21)
(0.640647 -0.0203849 4.01961e-21)
(0.685559 -0.0144229 -3.78966e-21)
(0.725471 -0.00926601 3.3226e-21)
(0.760928 -0.00483992 -6.13443e-21)
(0.792466 -0.00100524 2.82772e-21)
(0.82052 0.0023541 1.48068e-22)
(0.8453 0.00534072 2.00262e-21)
(0.867109 0.00828591 -3.70755e-21)
(0.886204 0.0110242 1.71176e-21)
(0.902672 0.0134156 -8.90308e-23)
(0.916705 0.0155294 -1.23636e-21)
(0.928521 0.0173797 7.42747e-23)
(0.938411 0.0189755 1.95581e-21)
(0.946694 0.020362 -1.72838e-21)
(0.953667 0.0216138 8.00489e-22)
(0.959585 0.0228046 -8.47692e-23)
(0.964647 0.0239881 3.76717e-23)
(0.969005 0.0251914 -6.745e-23)
(0.972773 0.026422 0)
(0.976046 0.0276798 0)
(0.9789 0.0289652 1.88455e-22)
(0.981401 0.0302824 -1.39055e-22)
(0.983605 0.0316402 -1.14446e-22)
(0.985559 0.0330505 -8.2284e-24)
(0.987302 0.0345263 1.52779e-22)
(0.988862 0.0360834 -3.00311e-23)
(0.99027 0.0377301 0)
(0.991536 0.0394966 0)
(0.992696 0.0413549 0)
(0.993735 0.0434212 0)
(0.994712 0.0454775 -3.83193e-23)
(0.995569 0.0480433 1.74616e-23)
(0.996412 0.0501106 0)
(0.997129 0.0536571 0)
(0.997865 0.0552073 0)
(0.998497 0.060566 1.07892e-23)
(0.999127 0.0609546 -9.6076e-25)
(0.999726 0.068627 9.17312e-24)
(1.00028 0.0681868 0)
(1.00085 0.0773696 0)
(1.00134 0.0773198 -4.60527e-24)
(1.002 0.0876684 -1.09711e-23)
(1.00228 0.0876049 0)
(1.00319 0.100041 0)
(-0.159608 -0.0745761 -3.44921e-21)
(-0.140229 -0.0964701 -5.59266e-20)
(-0.108956 -0.117343 4.40817e-20)
(-0.069916 -0.135547 -4.12071e-20)
(-0.0239668 -0.150455 -2.32921e-22)
(0.0301694 -0.161021 0)
(0.0915875 -0.166785 -1.26972e-20)
(0.156914 -0.167269 1.23935e-20)
(0.225076 -0.163087 1.97367e-23)
(0.294033 -0.154366 -2.67299e-24)
(0.361981 -0.141932 -5.81369e-23)
(0.427308 -0.127002 -1.15616e-22)
(0.488729 -0.110876 8.69096e-21)
(0.545398 -0.0947206 -8.58913e-21)
(0.59696 -0.0794477 0)
(0.64344 -0.0656231 -2.58368e-22)
(0.685068 -0.0534009 7.82921e-21)
(0.722208 -0.0428286 -7.72489e-21)
(0.755306 -0.0337835 0)
(0.784861 -0.0260344 0)
(0.81132 -0.0193458 5.27902e-21)
(0.835027 -0.0135128 -9.79023e-21)
(0.856377 -0.00834687 8.38869e-21)
(0.875478 -0.0035122 -4.77012e-22)
(0.892246 0.000856477 -6.41049e-21)
(0.906899 0.00501961 5.82306e-21)
(0.919635 0.00871576 -4.8944e-21)
(0.93055 0.0118433 3.53855e-22)
(0.939824 0.0144835 2.05877e-21)
(0.947694 0.0167112 0)
(0.954399 0.0186261 0)
(0.960149 0.0203376 -4.83516e-22)
(0.965112 0.0219347 6.35463e-22)
(0.969416 0.0234718 -8.62459e-26)
(0.97316 0.0249749 -4.67806e-22)
(0.976426 0.0264565 4.5463e-22)
(0.979285 0.0279256 0)
(0.981798 0.0293937 -4.43118e-23)
(0.984019 0.0308754 -3.50763e-22)
(0.985993 0.0323879 6.56984e-22)
(0.987757 0.0339485 -2.74224e-22)
(0.98934 0.0355765 -3.02535e-23)
(0.990772 0.0372828 2.68735e-22)
(0.992064 0.0391002 -2.07687e-22)
(0.99325 0.0410014 -4.60195e-23)
(0.994318 0.0431059 -4.20812e-23)
(0.995323 0.0451922 3.84169e-23)
(0.996212 0.0477896 0)
(0.997088 0.0498741 0)
(0.997838 0.0534518 1.14306e-22)
(0.998616 0.0550057 -5.4597e-23)
(0.999276 0.0603966 4.72096e-23)
(0.999962 0.0607829 -6.30355e-23)
(1.00059 0.0684775 -7.15074e-23)
(1.00119 0.0680447 1.67982e-23)
(1.00183 0.0772339 -2.63283e-23)
(1.00234 0.077193 2.09129e-23)
(1.00308 0.0875533 -8.98272e-24)
(1.00338 0.0874886 0)
(1.00439 0.0999368 0)
(0.0713017 -0.0957496 -1.21992e-19)
(0.090788 -0.123457 1.10861e-20)
(0.119202 -0.15209 1.05116e-19)
(0.154197 -0.178309 -6.4029e-22)
(0.194302 -0.200367 0)
(0.239331 -0.21623 0)
(0.289065 -0.226486 -3.15951e-20)
(0.34179 -0.229827 1.22439e-20)
(0.395923 -0.226024 2.10151e-20)
(0.449846 -0.215605 -4.29989e-21)
(0.502186 -0.19975 1.01459e-21)
(0.551826 -0.18012 6.20863e-21)
(0.597969 -0.158553 -6.16765e-21)
(0.640153 -0.136715 0)
(0.678262 -0.115881 8.21143e-21)
(0.712515 -0.0969506 -7.4813e-21)
(0.74325 -0.0802991 0)
(0.770775 -0.0659299 0)
(0.795436 -0.0536507 -6.24188e-21)
(0.817613 -0.0431765 4.46616e-22)
(0.837652 -0.0341956 5.292e-21)
(0.855843 -0.0263845 4.61131e-21)
(0.872427 -0.0194465 -4.59147e-21)
(0.887498 -0.0133275 3.61292e-21)
(0.901218 -0.00774626 -4.11276e-22)
(0.91354 -0.00250878 -3.00045e-21)
(0.924332 0.00237875 -3.14547e-22)
(0.933798 0.00665654 -1.00329e-24)
(0.942079 0.0102145 0)
(0.949272 0.0131863 -1.66783e-21)
(0.955523 0.0157013 1.71684e-21)
(0.960977 0.0178932 -8.58894e-23)
(0.965753 0.0198785 0)
(0.969942 0.0217341 6.83465e-23)
(0.97362 0.0235015 -9.43441e-22)
(0.976852 0.0252029 1.655e-21)
(0.979697 0.0268545 3.96643e-23)
(0.982211 0.0284734 -5.19014e-23)
(0.984441 0.0300796 -5.90753e-22)
(0.986429 0.0316949 -7.33518e-23)
(0.988211 0.0333408 5.17352e-22)
(0.989815 0.0350403 -4.42047e-22)
(0.99127 0.0368066 1.0207e-25)
(0.992588 0.0386753 -1.9656e-22)
(0.993799 0.0406195 2.37273e-22)
(0.994896 0.0427627 2.91195e-22)
(0.995929 0.044879 -8.22393e-23)
(0.996851 0.0475084 -1.36854e-22)
(0.997759 0.0496103 2.57524e-22)
(0.998542 0.0532194 -1.79366e-22)
(0.999363 0.0547774 4.87276e-23)
(1.00005 0.0602012 -5.53307e-23)
(1.00079 0.0605855 -4.61458e-23)
(1.00145 0.0683044 1.08626e-22)
(1.0021 0.0678777 -2.14886e-24)
(1.00279 0.0770781 2.65057e-23)
(1.00333 0.0770445 0)
(1.00416 0.0874214 9.12905e-24)
(1.00448 0.0873555 -1.28768e-23)
(1.00559 0.0998223 0)
(0.306556 -0.110259 1.27691e-19)
(0.329348 -0.143897 -2.40546e-19)
(0.355019 -0.178283 1.11646e-19)
(0.385783 -0.209789 8.57819e-20)
(0.419584 -0.236815 -1.53684e-19)
(0.45572 -0.257962 1.46353e-20)
(0.493906 -0.271836 5.24125e-20)
(0.532929 -0.27719 2.44909e-20)
(0.571486 -0.273743 -2.39184e-20)
(0.608586 -0.262135 0)
(0.643562 -0.243774 4.01411e-21)
(0.67599 -0.220662 -1.28517e-20)
(0.705683 -0.195043 8.76487e-21)
(0.73266 -0.168971 0)
(0.757039 -0.143983 0)
(0.779095 -0.121115 -2.39813e-22)
(0.799215 -0.100991 1.38541e-20)
(0.817625 -0.0836751 -1.3459e-20)
(0.834451 -0.06893 0)
(0.849852 -0.0564115 -1.11831e-20)
(0.864002 -0.0457421 2.03081e-20)
(0.87707 -0.0365444 -1.82471e-20)
(0.889219 -0.0284721 1.65634e-20)
(0.900536 -0.0212582 -6.46927e-22)
(0.911054 -0.0146326 -1.30768e-20)
(0.920854 -0.00867429 6.1445e-21)
(0.929799 -0.00319773 1.58404e-22)
(0.93775 0.0019278 1.99464e-21)
(0.944865 0.00626558 -1.80829e-22)
(0.951256 0.00986421 -1.83835e-21)
(0.956956 0.0128949 -9.75136e-23)
(0.962033 0.0155111 1.33028e-21)
(0.966558 0.0178479 -2.47958e-21)
(0.970584 0.0199987 1.29141e-21)
(0.974158 0.022016 0)
(0.977329 0.0239287 9.68262e-22)
(0.980142 0.0257584 -9.3264e-22)
(0.982643 0.027526 6.07997e-22)
(0.984873 0.0292559 -7.60089e-22)
(0.986869 0.0309739 7.41867e-23)
(0.988667 0.0327053 0)
(0.99029 0.0344764 6.13854e-23)
(0.991766 0.036303 -1.67831e-22)
(0.993108 0.0382232 0)
(0.994344 0.0402105 -4.55664e-22)
(0.99547 0.0423925 1.81458e-22)
(0.99653 0.0445388 -7.78358e-23)
(0.997485 0.0472004 -7.11526e-23)
(0.998425 0.0493197 0)
(0.99924 0.0529606 0)
(1.0001 0.0545233 1.55244e-22)
(1.00082 0.0599803 -2.38195e-22)
(1.00162 0.0603628 1.31076e-22)
(1.00231 0.0681083 -4.13094e-23)
(1.00301 0.0676864 -6.79353e-23)
(1.00376 0.0769024 -2.6531e-23)
(1.00432 0.0768749 4.22604e-23)
(1.00524 0.0872726 0)
(1.00557 0.0872058 2.06364e-23)
(1.00678 0.0996969 4.88351e-24)
(0.529793 -0.118382 1.31141e-19)
(0.55218 -0.157086 -1.30431e-19)
(0.576727 -0.195436 8.65478e-22)
(0.604031 -0.230243 -7.72855e-22)
(0.631806 -0.260655 6.30553e-22)
(0.659172 -0.285076 -5.05504e-22)
(0.685834 -0.301459 8.51919e-22)
(0.71088 -0.308255 0)
(0.733397 -0.305172 -4.27484e-22)
(0.753121 -0.292987 2.53854e-22)
(0.770293 -0.273274 1.12875e-22)
(0.785349 -0.248232 7.22441e-23)
(0.798793 -0.220324 0)
(0.811138 -0.191804 0)
(0.822765 -0.164376 -1.57395e-22)
(0.833887 -0.139089 0)
(0.844743 -0.116621 1.7979e-22)
(0.855474 -0.0972363 0)
(0.865973 -0.0807301 1.08855e-20)
(0.876093 -0.0667211 -2.0907e-20)
(0.885761 -0.0548004 1.91901e-20)
(0.894968 -0.0445645 -9.1614e-21)
(0.903753 -0.035635 -7.66019e-21)
(0.912146 -0.0277005 7.43884e-21)
(0.920165 -0.0204789 6.30634e-21)
(0.927807 -0.0138262 -6.10705e-21)
(0.935106 -0.00784195 0)
(0.941831 -0.00241447 -1.38553e-22)
(0.94788 0.00258697 0)
(0.953464 0.00674594 0)
(0.958594 0.010221 -2.82019e-21)
(0.963268 0.0132074 2.92847e-21)
(0.967508 0.015858 -1.55927e-22)
(0.971336 0.0182784 -1.39775e-22)
(0.974777 0.0205284 1.2511e-22)
(0.977862 0.0226419 8.67729e-22)
(0.980624 0.024643 -8.42543e-22)
(0.983098 0.0265558 7.98335e-22)
(0.985318 0.0284075 -6.86421e-22)
(0.987317 0.0302274 -1.50006e-22)
(0.989124 0.0320439 5.28307e-22)
(0.990763 0.0338865 3.0319e-23)
(0.992258 0.0357733 -3.54249e-22)
(0.993623 0.0377452 0)
(0.994883 0.0397756 1.88427e-22)
(0.996037 0.0419966 -2.48147e-22)
(0.997124 0.0441728 3.24462e-22)
(0.998111 0.046867 7.16057e-23)
(0.999083 0.0490037 0)
(0.999931 0.0526767 -5.50454e-23)
(1.00084 0.0542442 1.11001e-22)
(1.00158 0.0597349 -1.08907e-25)
(1.00244 0.0601159 4.27234e-23)
(1.00315 0.0678899 -7.04111e-23)