/*--------------------------------*- C++ -*----------------------------------*\
| =========                 |                                                 |
| \\      /  F ield         | OpenFOAM: The Open Source CFD Toolbox           |
|  \\    /   O peration     | Version:  2512                                  |
|   \\  /    A nd           | Website:  www.openfoam.com                      |
|    \\/     M anipulation  |                                                 |
\*---------------------------------------------------------------------------*/
FoamFile
{
    version     2.0;
    format      ascii;
    arch        "LSB;label=32;scalar=64";
    class       surfaceScalarField;
    location    "136.75";
    object      phi;
}
// * * * * * * * * * * * * * * * * * * * * * * * * * * * * * * * * * * * * * //

dimensions      [0 3 -1 0 0 0 0];

oriented        oriented;

internalField   nonuniform List<scalar> 
26232
(
-6.91188e-06
0.000814769
-0.000807857
0.000143512
0.00132623
-0.00147665
0.00063346
0.000932155
-0.0014221
0.00164904
-0.000283974
-0.000731608
0.00337573
-0.00228652
0.000559828
0.00599294
-0.00506249
0.00244529
0.00966476
-0.00860462
0.0049328
0.0145277
-0.012895
0.00803205
0.0206757
-0.0178908
0.0117427
0.0281462
-0.0235158
0.0160454
0.0369084
-0.029658
0.0208958
0.0468592
-0.0361748
0.0262239
0.0578267
-0.0429036
0.0319361
0.069581
-0.0496758
0.0379215
0.0818521
-0.0563315
0.0440604
0.0943514
-0.0627325
0.0502333
0.106794
-0.0687724
0.0563297
0.11892
-0.0743827
0.0622564
0.130515
-0.0795329
0.0679387
0.141415
-0.0842385
0.073338
0.151525
-0.0885207
0.0784111
0.160798
-0.0925123
0.0832386
0.169234
-0.0961165
0.0876815
-0.0998582
0.0924849
0.176607
7.92609e-05
0.000735508
0.000490764
0.000914727
0.00142714
-4.22375e-06
0.00308656
-0.0019434
0.00566352
-0.00486348
0.00933618
-0.00873515
0.0142482
-0.0135167
0.0204882
-0.019135
0.0280701
-0.0254727
0.0369203
-0.032366
0.0468752
-0.0396129
0.0576916
-0.0469912
0.0690684
-0.0542804
0.080676
-0.0612834
0.0921889
-0.0678444
0.103316
-0.0738599
0.113827
-0.0792836
0.123568
-0.0841233
0.132468
-0.0884332
0.140534
-0.092304
0.14785
-0.0958366
0.154516
-0.0991785
0.160718
-0.102319
-0.105709
0.166569
0.000167097
0.000568412
0.000855822
0.000226001
0.00227364
-0.00142204
0.00462746
-0.00429722
0.00810906
-0.00834507
0.0128713
-0.0134974
0.0190006
-0.0196459
0.0264905
-0.0266249
0.0352264
-0.0342086
0.0449861
-0.0421257
0.0554591
-0.0500859
0.0662815
-0.0578137
0.0770797
-0.0650786
0.0875135
-0.0717172
0.0973129
-0.0776437
0.106302
-0.0828488
0.114407
-0.0873891
0.121653
-0.0913693
0.128142
-0.0949218
0.134025
-0.098187
0.139478
-0.101289
0.144653
-0.104354
0.14972
-0.107385
-0.110703
0.154714
0.000261623
0.000306789
0.00124986
-0.00076224
0.00318494
-0.00335712
0.00627254
-0.00738482
0.0106786
-0.0127511
0.0164938
-0.0193126
0.0236997
-0.0268519
0.0321483
-0.0350734
0.041565
-0.0436254
0.051579
-0.0521397
0.0617731
-0.06028
0.0717426
-0.0677831
0.0811483
-0.0744843
0.0897552
-0.0803242
0.09745
-0.0853385
0.104237
-0.0896353
0.110213
-0.093366
0.11554
-0.0966963
0.120401
-0.0997824
0.124969
-0.102755
0.12939
-0.105711
0.13376
-0.108724
0.138164
-0.111789
-0.115116
0.142577
0.000368243
-6.14543e-05
0.00168348
-0.00207747
0.00416808
-0.00584172
0.00800536
-0.0112221
0.0133002
-0.0180459
0.0200349
-0.0260473
0.0280407
-0.0348577
0.0370012
-0.0440339
0.0464923
-0.0531165
0.0560494
-0.0616967
0.0652416
-0.0694722
0.0737347
-0.0762762
0.0813286
-0.0820781
0.0879643
-0.0869599
0.0937051
-0.0910793
0.0986981
-0.0946284
0.103131
-0.0977984
0.10719
-0.100755
0.111035
-0.103628
0.114785
-0.106505
0.118517
-0.109443
0.122273
-0.112479
0.126089
-0.115605
-0.118952
0.129925
0.000490225
-0.000551679
0.00215917
-0.00374642
0.00521007
-0.00889262
0.0097711
-0.0157831
0.0158418
-0.0241166
0.0232514
-0.033457
0.0316565
-0.0432627
0.0405879
-0.0529654
0.0495351
-0.0620636
0.058038
-0.0701996
0.0657603
-0.0771946
0.0725258
-0.0830417
0.0783146
-0.0878669
0.0832294
-0.0918747
0.0874454
-0.0952954
0.0911606
-0.0983435
0.0945567
-0.101195
0.0977782
-0.103977
0.100927
-0.106776
0.104066
-0.109644
0.107231
-0.112609
0.110439
-0.115687
0.113707
-0.118873
-0.122237
0.116992
0.000627057
-0.00117874
0.00266616
-0.00578552
0.00627011
-0.0124966
0.0114704
-0.0209834
0.0181173
-0.0307635
0.0258613
-0.041201
0.0341996
-0.051601
0.0425742
-0.06134
0.0504861
-0.0699755
0.0575811
-0.0772947
0.0636885
-0.0833019
0.0688084
-0.0881616
0.073066
-0.0921245
0.0766517
-0.0954604
0.0797671
-0.0984108
0.0825888
-0.101165
0.085251
-0.103857
0.087845
-0.106571
0.0904267
-0.109358
0.0930273
-0.112244
0.0956621
-0.115244
0.098336
-0.118361
0.101055
-0.121592
-0.124967
0.103784
0.000774033
-0.00195277
0.0031803
-0.00819179
0.00728262
-0.0165989
0.012973
-0.0266738
0.0199229
-0.0377133
0.0276127
-0.0488909
0.0354385
-0.0594267
0.0428471
-0.0687487
0.0494447
-0.0765731
0.0550423
-0.0828922
0.05964
-0.0878997
0.0633713
-0.0918929
0.0664342
-0.0951874
0.0690336
-0.0980597
0.0713438
-0.100721
0.0734945
-0.103316
0.0755718
-0.105934
0.0776276
-0.108627
0.0796905
-0.111421
0.0817747
-0.114329
0.0838862
-0.117355
0.0860256
-0.1205
0.088194
-0.12376
-0.12714
0.0903672
0.000923178
-0.00287595
0.00366777
-0.0109364
0.0081684
-0.0210995
0.0141439
-0.0326492
0.0210846
-0.0446541
0.0283477
-0.056154
0.0353131
-0.0663921
0.0415205
-0.0749561
0.046735
-0.0817875
0.0509343
-0.0870916
0.0542466
-0.091212
0.0568728
-0.0945191
0.0590219
-0.0973365
0.0608705
-0.0999084
0.0625487
-0.102399
0.0641414
-0.104909
0.065699
-0.107492
0.0672493
-0.110177
0.0688062
-0.112978
0.0703763
-0.115899
0.0719614
-0.118941
0.0735615
-0.1221
0.0751749
-0.125374
-0.128752
0.0767867
0.00106427
-0.00394022
0.0040904
-0.0139625
0.00884892
-0.025858
0.0148711
-0.0386715
0.0214964
-0.0512793
0.0280316
-0.0626893
0.033924
-0.0722845
0.0388601
-0.0798922
0.0427686
-0.085696
0.0457562
-0.0900792
0.0480207
-0.0934764
0.049776
-0.0962745
0.0512058
-0.0987663
0.0524449
-0.101148
0.0535811
-0.103535
0.0546661
-0.105993
0.0557278
-0.108553
0.0567807
-0.11123
0.057832
-0.114029
0.0588847
-0.116951
0.0599394
-0.119995
0.0609951
-0.123156
0.0620492
-0.126428
-0.129797
0.0630942
0.00118669
-0.00512691
0.00441252
-0.0171883
0.00926088
-0.0307064
0.0150864
-0.044497
0.0211342
-0.0573272
0.0267396
-0.0682946
0.0314753
-0.0770202
0.0351873
-0.0836043
0.0379385
-0.0884472
0.0399131
-0.0920538
0.0413292
-0.0948926
0.0423808
-0.097326
0.0432125
-0.0995979
0.0439189
-0.101854
0.0445555
-0.104172
0.0451524
-0.10659
0.045725
-0.109126
0.0462809
-0.111786
0.0468244
-0.114572
0.047357
-0.117484
0.0478786
-0.120517
0.0483878
-0.123665
0.0488808
-0.126921
-0.130271
0.049355
0.00128343
-0.00641034
0.00460906
-0.020514
0.00936716
-0.0354645
0.014773
-0.0499028
0.0200487
-0.0626029
0.0246219
-0.0728677
0.0282151
-0.0806134
0.0308147
-0.0862039
0.0325735
-0.0902059
0.0337077
-0.093188
0.0344232
-0.0956081
0.0348793
-0.0977821
0.0351819
-0.0999006
0.0353939
-0.102066
0.0355488
-0.104327
0.0356636
-0.106705
0.035747
-0.109209
0.0358035
-0.111842
0.0358361
-0.114605
0.0358458
-0.117494
0.035833
-0.120504
0.0357961
-0.123628
0.0357314
-0.126856
0.0356386
-0.130178
-0.000236787
-0.00257318
0.00280997
-0.000860055
-0.00611851
0.00674177
-0.00181352
-0.00851679
0.00947026
-0.00304524
-0.0100133
0.011245
-0.00450742
-0.0108354
0.0122975
-0.00615923
-0.0111825
0.0128343
-0.00796805
-0.0112114
0.0130202
-0.00990859
-0.0110285
0.0129691
-0.0119609
-0.0106911
0.0127433
-0.0141077
-0.0102139
0.0123607
-0.0163321
-0.00958032
0.0118047
-0.0186151
-0.00875259
0.0110356
-0.0209342
-0.00768131
0.0100005
-0.023262
-0.00631196
0.00863977
-0.0255661
-0.00458895
0.006893
-0.0278068
-0.00245773
0.00469843
-0.0299077
0.000113997
0.00198688
-0.0318595
0.00315913
-0.00120731
-0.0335881
0.00670967
-0.004981
-0.0350283
0.0107677
-0.00932753
-0.0361207
0.0153152
-0.0142228
-0.0368147
0.0203134
-0.0196193
-0.0370881
0.0257184
-0.025445
0.0314825
-0.0370007
-0.0315699
-0.000310555
-0.00226263
-0.001086
-0.00534306
-0.00222636
-0.00737643
-0.0036524
-0.00858726
-0.00530161
-0.00918615
-0.00712721
-0.00935686
-0.0090958
-0.00924277
-0.0111837
-0.00894066
-0.0133725
-0.00850222
-0.0156454
-0.007941
-0.0179836
-0.00724212
-0.0203639
-0.00637233
-0.0227567
-0.0052885
-0.0251248
-0.00394384
-0.0274263
-0.00228744
-0.0296042
-0.000279821
-0.0315799
0.00208966
-0.0332992
0.00487847
-0.034677
0.00808741
-0.0356264
0.0117172
-0.0360649
0.0157537
-0.0359182
0.0201667
-0.0351187
0.0249189
0.0300255
-0.0336617
-0.000361216
-0.00190141
-0.00123534
-0.00446894
-0.00248669
-0.00612508
-0.00401257
-0.00706139
-0.00573632
-0.00746239
-0.0076033
-0.00748988
-0.00957572
-0.00727035
-0.0116268
-0.00688959
-0.013735
-0.00639406
-0.0158788
-0.00579712
-0.0180334
-0.00508756
-0.0201673
-0.00423838
-0.0222412
-0.0032146
-0.0242073
-0.0019778
-0.0260023
-0.000492408
-0.0275518
0.00126962
-0.0287935
0.00333141
-0.0296249
0.00570984
-0.0299452
0.00840771
-0.0296447
0.0114167
-0.0286112
0.0147202
-0.0267416
0.0182971
-0.0239393
0.0221166
0.0261547
-0.0200684
-0.00038961
-0.0015118
-0.00131302
-0.00354553
-0.00260782
-0.00483027
-0.00415216
-0.00551705
-0.00585624
-0.00575831
-0.00765596
-0.00569016
-0.009506
-0.00542031
-0.0113726
-0.00502299
-0.0132268
-0.00453983
-0.0150391
-0.00398485
-0.016775
-0.00335165
-0.0183926
-0.00262074
-0.0198412
-0.00176609
-0.0210589
-0.00076004
-0.0219734
0.000422067
-0.0225038
0.00180008
-0.0225589
0.00338648
-0.0220343
0.00518524
-0.0208161
0.00718954
-0.0187815
0.00938202
-0.015798
0.0117367
-0.0117309
0.01423
-0.00647202
0.0168577
0.0197888
-0.000106129
-0.00039922
-0.00111258
-0.00133075
-0.00261401
-0.0026143
-0.00354671
-0.00411364
-0.00401771
-0.00572745
-0.00414451
-0.0073817
-0.00403592
-0.00902171
-0.0037803
-0.0106043
-0.00344038
-0.0120909
-0.00305322
-0.0134418
-0.00263398
-0.0146121
-0.00218135
-0.0155491
-0.00168369
-0.0161911
-0.0011241
-0.0164663
-0.000484846
-0.0162937
0.000249416
-0.0155826
0.00108897
-0.0142335
0.00203743
-0.0121381
0.00308977
-0.00917902
0.0042305
-0.00523055
0.00543355
-0.00015597
0.00666215
0.00619574
0.00787829
0.0139954
0.00905805
0.0101722
0.023612
-0.000393872
-0.000718708
-0.00130058
-0.0017073
-0.00252983
-0.00231747
-0.0039358
-0.00261174
-0.00540792
-0.00267238
-0.0068628
-0.00258104
-0.00823592
-0.00240718
-0.00947384
-0.00220246
-0.0105274
-0.0019997
-0.0113462
-0.00181515
-0.0118751
-0.00165245
-0.0120516
-0.00150719
-0.0118047
-0.00137101
-0.0110551
-0.00123443
-0.00971497
-0.00109071
-0.00768916
-0.00093684
-0.00487588
-0.000775839
-0.00116766
-0.000618458
0.00354772
-0.000484882
0.00938646
-0.000405192
0.0164769
-0.000428244
0.02496
-0.000604839
0.0349391
-0.000921018
-0.0018873
0.0469985
-0.000375892
-0.000342815
-0.00122934
-0.000853853
-0.00236653
-0.00118027
-0.00363627
-0.001342
-0.00492094
-0.00138771
-0.00612844
-0.00137354
-0.00718422
-0.0013514
-0.00802373
-0.00136294
-0.00858615
-0.00143728
-0.00880946
-0.00159184
-0.00862709
-0.00183482
-0.00796601
-0.00216827
-0.0067461
-0.00259092
-0.00487985
-0.00310068
-0.0022738
-0.00369676
0.00117073
-0.00438137
0.00555627
-0.00516138
0.0109876
-0.00604977
0.0175701
-0.00706736
0.0254091
-0.00824427
0.034595
-0.00961409
0.0452784
-0.0112883
0.0573656
-0.0130082
-0.0162502
0.0717285
-0.000345368
2.55256e-06
-0.00111648
-8.27434e-05
-0.00212082
-0.000175931
-0.00320476
-0.000258057
-0.0042445
-0.000347973
-0.00513864
-0.000479401
-0.00580099
-0.00068905
-0.0061533
-0.00101063
-0.00611979
-0.0014708
-0.00562303
-0.0020886
-0.00458131
-0.00287654
-0.00290746
-0.00384212
-0.00050891
-0.00498947
0.00271132
-0.00632091
0.00685293
-0.00783837
0.0120162
-0.00954467
0.0182998
-0.0114449
0.0257978
-0.0135478
0.0345969
-0.0158665
0.0447774
-0.0184247
0.0563822
-0.0212189
0.0695426
-0.0244486
0.0839754
-0.027441
-0.0327837
0.100509
-0.000301665
0.000304218
-0.000956604
0.000572195
-0.00177825
0.000645711
-0.00261118
0.000574877
-0.0033244
0.000365253
-0.00380392
1.18555e-07
-0.00394909
-0.000543887
-0.0036628
-0.00129692
-0.00284941
-0.00228419
-0.0014115
-0.00352651
0.000751242
-0.00503928
0.0037414
-0.00683228
0.00766191
-0.00890998
0.0126131
-0.0112721
0.0186892
-0.0139145
0.0259747
-0.0168302
0.0345405
-0.0200107
0.044441
-0.0234482
0.0557092
-0.0271348
0.068359
-0.0310745
0.082357
-0.0352169
0.0977142
-0.0398059
0.114163
-0.0438894
-0.0506095
0.131988
-0.000242813
0.000547031
-0.000744693
0.00107407
-0.00132505
0.00122607
-0.00182584
0.00107567
-0.00210626
0.000645665
-0.00203645
-6.96841e-05
-0.00149657
-0.00108377
-0.000366959
-0.00242654
0.00146961
-0.00412075
0.00412952
-0.00618642
0.00772609
-0.00863586
0.0123658
-0.011472
0.0181432
-0.0146874
0.0251356
-0.0182646
0.0333982
-0.0221771
0.0429594
-0.0263913
0.0538179
-0.0308693
0.0659415
-0.0355718
0.0792658
-0.040459
0.0936935
-0.0455022
0.109103
-0.0506267
0.1253
-0.0560031
0.142216
-0.0608052
-0.0676862
0.159293
-0.000170967
0.000717998
-0.000482901
0.00138601
-0.000760514
0.00150369
-0.000840713
0.00115587
-0.000569717
0.000374669
0.000197704
-0.000837105
0.00160675
-0.00249281
0.00379413
-0.00461393
0.00689232
-0.00721894
0.0110231
-0.0103172
0.0162914
-0.0139041
0.0227774
-0.017958
0.0305296
-0.0224396
0.0395586
-0.0272935
0.0498333
-0.0324518
0.0612806
-0.0378386
0.0737868
-0.0433755
0.0872023
-0.0489873
0.101347
-0.0546042
0.11602
-0.0601751
0.131024
-0.06563
0.146063
-0.0710423
0.161225
-0.0759677
-0.0818693
0.175408
-8.98594e-05
-0.000180505
-9.89222e-05
0.000325336
0.00125983
0.00286801
0.005308
0.00872613
0.0132499
0.0189781
0.0259698
0.0342357
0.0437322
0.0543602
0.0659688
0.0783635
0.0913177
0.104587
0.117921
0.131084
0.143865
0.156062
0.167775
0.178391
-0.0346653
0.0499594
-0.0522947
-0.0316536
0.0609763
-0.063988
-0.0278256
0.0718134
-0.0756414
-0.0230218
0.0817314
-0.0865353
-0.0169592
0.0898264
-0.095889
-0.00936447
0.0951791
-0.102774
3.18103e-05
0.0966794
-0.106076
0.0113184
0.0932787
-0.104565
0.0241781
0.0841137
-0.0969734
0.0381824
0.0687787
-0.082783
0.0526026
0.0472872
-0.0617074
0.0667771
0.020217
-0.0343916
0.0802602
-0.0117681
-0.00171503
0.093041
-0.0474974
0.0347166
0.104725
-0.0841878
0.0725033
0.114704
-0.11709
0.107112
0.12218
-0.141649
0.134173
0.12667
-0.156094
0.151604
0.128395
-0.161845
0.160121
0.127893
-0.161681
0.162182
0.125071
-0.15915
0.161972
0.119417
-0.15899
0.164644
0.111736
-0.163523
0.171205
0.105099
-0.166533
0.17317
0.103206
-0.153571
0.155465
0.107532
-0.112902
0.108576
0.116875
-0.0471619
0.0378186
0.128405
0.0281931
-0.0397231
0.139351
0.0955418
-0.106487
0.147721
0.144931
-0.153301
0.153097
0.174255
-0.179632
0.155726
0.188031
-0.19066
0.155082
0.195468
-0.194824
0.150454
0.208707
-0.204078
0.143034
0.225909
-0.21849
0.136275
0.225963
-0.219204
0.133447
0.184275
-0.181446
0.135494
0.0964257
-0.0984726
0.14112
-0.00921489
0.00358834
0.147963
-0.106427
0.099584
0.15394
-0.16884
0.162863
0.156594
-0.206844
0.204191
0.153903
-0.224568
0.227259
0.146472
-0.243127
0.250558
0.13834
-0.244533
0.252665
0.134374
-0.201582
0.205548
0.136801
-0.119103
0.116676
0.143364
0.00818453
-0.0147472
0.149398
0.0958357
-0.10187
0.150329
0.196198
-0.197129
0.146189
0.24557
-0.24143
0.141365
0.283248
-0.278424
0.140243
0.262324
-0.261202
0.142984
0.132869
-0.135609
0.145919
0.0587201
-0.0616553
0.145489
-0.142648
0.143078
0.143654
-0.207197
0.209032
0.142048
-0.294063
0.29567
0.14052
-0.322172
0.323699
-0.0548424
0.056713
-0.0296875
0.0459851
-0.0246363
0.0559251
-0.0184018
0.0655788
-0.0109947
0.0743243
-0.00209768
0.0809294
0.00832123
0.0847602
0.0201654
0.0848353
0.0332234
0.0802207
0.0470677
0.0702694
0.0611026
0.0547438
0.0746568
0.033733
0.0872941
0.0075797
0.0987547
-0.0232286
0.109064
-0.0578071
0.117948
-0.0930713
0.124851
-0.123993
0.129216
-0.146014
0.130845
-0.157723
0.130113
-0.161114
0.127751
-0.159318
0.123851
-0.155251
0.11759
-0.152729
0.10896
-0.154893
0.100568
-0.158142
0.096695
-0.149698
0.0999269
-0.116134
0.10947
-0.0567051
0.122296
0.0153674
0.135031
0.0828068
0.145392
0.13457
0.152718
0.166929
0.15695
0.183799
0.15748
0.194938
0.153901
0.212287
0.147588
0.232223
0.1417
0.23185
0.138976
0.187
0.140251
0.0951506
0.14451
-0.0134738
0.149676
-0.111593
0.154118
-0.173282
0.155774
-0.208501
0.152607
-0.2214
0.144841
-0.235362
0.136474
-0.236166
0.132556
-0.197664
0.135546
-0.122093
0.142771
0.000958783
0.149299
0.0893082
0.150577
0.19492
0.146615
0.249531
0.141888
0.287975
0.14063
0.263582
0.143495
0.130004
0.146624
0.0555912
0.146151
-0.142175
0.144201
-0.205248
0.142432
-0.292294
0.140812
-0.320552
-0.0529244
-0.01484
0.0407567
-0.00834354
0.0494287
-0.000450368
0.0576857
0.00914758
0.0647264
0.01988
0.070197
0.0317258
0.0729144
0.0445258
0.0720353
0.0579224
0.0668242
0.0714095
0.0567823
0.0844208
0.0417325
0.0964027
0.0217511
0.107026
-0.00304413
0.116264
-0.0324663
0.124071
-0.0656144
0.130168
-0.0991676
0.134042
-0.127867
0.135395
-0.147368
0.134377
-0.156705
0.131524
-0.15826
0.127604
-0.155399
0.122886
-0.150533
0.116446
-0.146289
0.107479
-0.145926
0.0977791
-0.148442
0.0918411
-0.14376
0.0934644
-0.117757
0.102599
-0.0658402
0.116246
0.00172068
0.130481
0.0685719
0.142746
0.122305
0.152029
0.157646
0.157933
0.177895
0.159832
0.193039
0.157571
0.214547
0.152553
0.237241
0.147522
0.236881
0.144757
0.189765
0.145094
0.0948134
0.147887
-0.0162662
0.151334
-0.115041
0.154223
-0.176171
0.154924
-0.209202
0.151432
-0.217908
0.143514
-0.227445
0.134996
-0.227647
0.131066
-0.193734
0.134471
-0.125498
0.14224
-0.00681025
0.149252
0.0822967
0.150942
0.193229
0.14721
0.253264
0.142575
0.29261
0.141149
0.265008
0.144115
0.127038
0.147467
0.0522388
0.146953
-0.14166
0.144858
-0.203153
0.142922
-0.290358
0.141239
-0.318869
-0.0509865
0.006637
0.0340135
0.0144939
0.0415718
0.0235636
0.048616
0.0336836
0.0546063
0.044946
0.0589346
0.0570721
0.0607883
0.0697165
0.0593909
0.0824499
0.0540908
0.0947809
0.0444513
0.106223
0.0302899
0.116344
0.0116309
0.125016
-0.0117159
0.132152
-0.0396032
0.137666
-0.0711277
0.141154
-0.102655
0.142157
-0.128871
0.14067
-0.145881
0.137244
-0.153279
0.132594
-0.15361
0.127406
-0.150211
0.122041
-0.145168
0.115725
-0.139973
0.107092
-0.137292
0.0967918
-0.138142
0.088944
-0.135912
0.0883886
-0.117201
0.0963917
-0.0738433
0.11025
-0.0121378
0.125669
0.0531535
0.139707
0.108267
0.150917
0.146436
0.15856
0.170252
0.162016
0.189583
0.16132
0.215244
0.157744
0.240816
0.153548
0.241077
0.150625
0.192688
0.149903
0.0955349
0.151169
-0.0175318
0.152913
-0.116785
0.154256
-0.177513
0.154022
-0.208968
0.150318
-0.214203
0.142418
-0.219546
0.133839
-0.219068
0.129841
-0.189736
0.133512
-0.129168
0.141721
-0.0150194
0.149228
0.074789
0.151414
0.191044
0.147983
0.256696
0.143452
0.29714
0.141824
0.266636
0.144851
0.124011
0.14844
0.0486499
0.147888
-0.141108
0.14562
-0.200885
0.143513
-0.288251
0.14179
-0.317146
-0.0490555
0.0308082
0.0268174
0.0389616
0.0334184
0.0481614
0.0394162
0.0583797
0.044388
0.06946
0.0478543
0.0810973
0.0491509
0.0929177
0.0475705
0.10449
0.0425189
0.115369
0.0335719
0.125195
0.0204638
0.133656
0.00317032
0.140709
-0.0187692
0.146131
-0.0450253
0.1496
-0.0745967
0.150589
-0.103644
0.148834
-0.127116
0.144737
-0.141784
0.139226
-0.147767
0.133162
-0.147546
0.12707
-0.144119
0.121245
-0.139343
0.115193
-0.133921
0.107381
-0.129479
0.0973153
-0.128077
0.0880725
-0.126669
0.0850427
-0.114172
0.0911234
-0.079924
0.104408
-0.0254229
0.120598
0.0369644
0.136183
0.0926817
0.149222
0.133396
0.158642
0.160832
0.163826
0.184399
0.164909
0.214161
0.162924
0.242801
0.159585
0.244415
0.156411
0.195862
0.154547
0.0973996
0.154272
-0.017257
0.154364
-0.116877
0.15419
-0.17734
0.153039
-0.207817
0.149213
-0.210378
0.141482
-0.211815
0.132933
-0.210519
0.128815
-0.185619
0.132595
-0.132948
0.14116
-0.0235844
0.149187
0.0667622
0.151967
0.188264
0.148935
0.259728
0.144539
0.301536
0.142675
0.2685
0.145703
0.120983
0.14953
0.0448223
0.148944
-0.140522
0.146484
-0.198425
0.144199
-0.285967
0.142452
-0.315399
-0.0471584
0.0541981
0.0196178
0.062145
0.0254714
0.0709935
0.0305677
0.0807399
0.0346417
0.0911506
0.0374435
0.101902
0.0383996
0.112637
0.0368358
0.122956
0.0321995
0.132478
0.0240496
0.140831
0.0121108
0.148203
-0.00420127
0.153881
-0.0244475
0.15782
-0.0489639
0.159385
-0.0761618
0.158011
-0.10227
0.153745
-0.122849
0.147415
-0.135455
0.140224
-0.140576
0.133116
-0.140438
0.126465
-0.137467
0.120371
-0.13325
0.114595
-0.128146
0.107853
-0.122737
0.0988121
-0.119036
0.0890435
-0.116901
0.0836575
-0.108786
0.0871099
-0.0833764
0.0989409
-0.0372538
0.115312
0.0205928
0.132083
0.0759116
0.146768
0.11871
0.157953
0.149647
0.164995
0.177357
0.168038
0.211118
0.167793
0.243047
0.165386
0.246822
0.161938
0.19931
0.1589
0.100437
0.157105
-0.0154616
0.155627
-0.1154
0.153994
-0.175706
0.151935
-0.205758
0.148054
-0.206497
0.140621
-0.204381
0.132189
-0.202086
0.127906
-0.181337
0.13165
-0.136692
0.140494
-0.0324281
0.149074
0.0581817
0.152564
0.184774
0.150051
0.262241
0.145844
0.305743
0.143714
0.27063
0.146666
0.118031
0.15072
0.0407678
0.150108
-0.13991
0.147442
-0.195758
0.144972
-0.283497
0.143211
-0.313638
-0.0453221
0.0776088
0.0137375
0.0843695
0.0187108
0.0921301
0.0228071
0.100803
0.0259691
0.11009
0.0281564
0.119679
0.0288107
0.129232
0.0272824
0.138368
0.0230635
0.146766
0.0156518
0.154081
0.00479568
0.160248
-0.0103683
0.164779
-0.0289781
0.167199
-0.0513841
0.166789
-0.0757518
0.163137
-0.0986184
0.156667
-0.11638
0.148562
-0.127349
0.140155
-0.132169
0.132362
-0.132645
0.125441
-0.130546
0.119282
-0.127091
0.113739
-0.122603
0.108021
-0.117019
0.10054
-0.111556
0.0913105
-0.107671
0.0842231
-0.101698
0.0846604
-0.0838137
0.0941768
-0.0467703
0.109932
0.00483732
0.127367
0.0584765
0.143413
0.102665
0.156278
0.136782
0.165245
0.16839
0.170395
0.205969
0.172033
0.241408
0.170669
0.248186
0.167051
0.202929
0.162818
0.10467
0.159571
-0.0122143
0.156635
-0.112464
0.153625
-0.172696
0.150672
-0.202805
0.14678
-0.202605
0.139752
-0.197353
0.131516
-0.193851
0.127034
-0.176855
0.130602
-0.14026
0.139652
-0.0414782
0.148825
0.0490086
0.153151
0.180448
0.151302
0.264091
0.147359
0.309686
0.144943
0.273046
0.147737
0.115237
0.151991
0.0365136
0.151363
-0.139281
0.148485
-0.192881
0.145823
-0.280835
0.144053
-0.311868
-0.0435748
0.103874
0.0103726
0.10844
0.0141445
0.114242
0.0170054
0.121053
0.0191574
0.128572
0.0206378
0.13653
0.0208526
0.144586
0.0192269
0.152338
0.015311
0.159365
0.00862485
0.165753
-0.00159182
0.170491
-0.0151071
0.173512
-0.0319992
0.174076
-0.0519472
0.171523
-0.0731995
0.165734
-0.0928292
0.157483
-0.108129
0.148142
-0.118008
0.13901
-0.123037
0.130867
-0.124502
0.123886
-0.123565
0.117833
-0.121037
0.112512
-0.117282
0.107583
-0.11209
0.101778
-0.10575
0.0940153
-0.0999085
0.086354
-0.0940369
0.0839928
-0.0814525
0.0904687
-0.0532462
0.104663
-0.00935721
0.122074
0.0410658
0.139076
0.0856634
0.153455
0.122403
0.164337
0.157508
0.171643
0.198663
0.175259
0.237792
0.17509
0.248355
0.171456
0.206563
0.166197
0.109928
0.161572
-0.00758945
0.157309
-0.1082
0.153037
-0.168424
0.149204
-0.198972
0.145323
-0.198724
0.138792
-0.190823
0.130826
-0.185884
0.126117
-0.172147
0.129382
-0.143524
0.138566
-0.0506624
0.148367
0.0392075
0.153664
0.175151
0.152637
0.265117
0.14906
0.313263
0.14635
0.275756
0.148908
0.112679
0.153321
0.0321006
0.152688
-0.138649
0.149603
-0.189796
0.146741
-0.277973
0.144965
-0.310092
-0.0419468
0.132813
0.00954787
0.134988
0.0119694
0.138424
0.01357
0.142845
0.0147361
0.148059
0.015424
0.153855
0.0150561
0.159891
0.0131908
0.165793
0.00940893
0.17107
0.00334843
0.175597
-0.00611862
0.178534
-0.0180448
0.179535
-0.0329998
0.177918
-0.0503302
0.173221
-0.0685027
0.165642
-0.0852498
0.156173
-0.0986599
0.146174
-0.10801
0.136775
-0.113637
0.128569
-0.116296
0.121662
-0.116658
0.115817
-0.115192
0.110759
-0.112224
0.106373
-0.107704
0.101983
-0.10136
0.0961831
-0.094109
0.0892154
-0.0870692
0.0849722
-0.0772093
0.0882028
-0.0564768
0.0997285
-0.020883
0.116324
0.0244699
0.133738
0.0682502
0.149357
0.106783
0.162063
0.144802
0.171584
0.189141
0.177317
0.232059
0.178453
0.247219
0.174935
0.210081
0.168844
0.116019
0.163
-0.00174475
0.157545
-0.102746
0.152154
-0.163034
0.147465
-0.194283
0.143601
-0.194859
0.137661
-0.184883
0.130042
-0.178265
0.125083
-0.167188
0.127923
-0.146364
0.137171
-0.0599108
0.147622
0.0287568
0.154027
0.168747
0.153997
0.265147
0.150904
0.316356
0.147914
0.278746
0.15016
0.110434
0.154686
0.0275741
0.154064
-0.138026
0.150779
-0.186511
0.147709
-0.274902
0.14593
-0.308313
-0.0404721
0.158637
0.0102038
0.159195
0.011411
0.160694
0.012071
0.162969
0.0124617
0.165984
0.0124087
0.169538
0.0115023
0.173305
0.00942388
0.176974
0.00574011
0.180263
5.87261e-05
0.1824
-0.00825577
0.183125
-0.0187697
0.18186
-0.0317346
0.178089
-0.046559
0.171597
-0.0620104
0.162812
-0.0764654
0.152763
-0.0886109
0.142635
-0.0978817
0.133321
-0.104324
0.125254
-0.108228
0.118502
-0.109907
0.112905
-0.109595
0.108176
-0.107494
0.104206
-0.103735
0.100823
-0.0979763
0.0969573
-0.0902434
0.0916689
-0.0817808
0.0869145
-0.0724549
0.0873023
-0.0568646
0.0956049
-0.0291856
0.110381
0.00969403
0.127476
0.051155
0.143941
0.0903178
0.158267
0.130477
0.16988
0.177528
0.17772
0.224219
0.18036
0.24458
0.177252
0.213188
0.170635
0.122637
0.163782
0.00510812
0.157284
-0.0962479
0.150928
-0.156678
0.145422
-0.188777
0.141551
-0.190988
0.13629
-0.179622
0.129119
-0.171093
0.123886
-0.161956
0.126169
-0.148647
0.135414
-0.0691558
0.146517
0.0176539
0.154156
0.161107
0.15529
0.264013
0.152833
0.318813
0.149608
0.281971
0.151477
0.108564
0.156058
0.0229935
0.155471
-0.137439
0.151997
-0.183038
0.148712
-0.271617
0.146935
-0.306536
-0.0391885
0.174499
0.0111129
0.174427
0.0114836
0.174854
0.0116436
0.175841
0.0114746
0.177384
0.0108661
0.179274
0.00961226
0.181256
0.00744203
0.182954
0.00404186
0.184145
-0.0011322
0.184336
-0.00844719
0.183086
-0.0175196
0.179959
-0.0286074
0.174617
-0.0412168
0.167074
-0.054467
0.157862
-0.0672533
0.147895
-0.0786441
0.138106
-0.0880926
0.12916
-0.0953784
0.12138
-0.100448
0.114828
-0.103355
0.109436
-0.104204
0.105002
-0.103059
0.101355
-0.100089
0.0985438
-0.0951651
0.0961172
-0.0878169
0.0928336
-0.0784972
0.0888598
-0.0684812
0.0874935
-0.0554983
0.092518
-0.03421
0.104622
-0.00240953
0.120477
0.0353
0.137238
0.0735568
0.153007
0.114707
0.16681
0.163726
0.176945
0.214084
0.181115
0.240411
0.178461
0.215841
0.171805
0.129293
0.163921
0.0129925
0.15667
-0.088997
0.149493
-0.1495
0.143231
-0.182516
0.139259
-0.187016
0.134705
-0.175068
0.128076
-0.164464
0.122556
-0.156436
0.124137
-0.150228
0.133253
-0.0782716
0.144962
0.00594504
0.153975
0.152094
0.156454
0.261535
0.154774
0.320493
0.151382
0.285363
0.152858
0.107089
0.157404
0.0184477
0.156892
-0.136928
0.153239
-0.179384
0.149736
-0.268114
0.14797
-0.30477
-0.038136
0.178127
0.0113771
0.177998
0.0116124
0.178192
0.0114498
0.178679
0.010987
0.179412
0.0101334
0.180271
0.00875348
0.181107
0.0066058
0.181771
0.0033784
0.181772
-0.00113372
0.180602
-0.00727728
0.178139
-0.0150563
0.174026
-0.0244941
0.168108
-0.0352988
0.16053
-0.0468895
0.151798
-0.0585217
0.142623
-0.0694688
0.133672
-0.0791417
0.125421
-0.0871268
0.118126
-0.0931537
0.111868
-0.0970961
0.106648
-0.0989839
0.102389
-0.0988007
0.0989266
-0.0966263
0.0963084
-0.092547
0.0945931
-0.0861015
0.0929121
-0.0768161
0.0903737
-0.0659428
0.0885101
-0.0536347
0.0909391
-0.036639
0.0994336
-0.010904
0.113237
0.0214961
0.129245
0.0575495
0.145534
0.0984178
0.160967
0.148293
0.173419
0.201632
0.179564
0.234266
0.178081
0.217324
0.171845
0.135528
0.163787
0.0210505
0.155684
-0.0808939
0.147919
-0.141735
0.141053
-0.17565
0.13687
-0.182833
0.132967
-0.171165
0.126949
-0.158446
0.121137
-0.150623
0.121952
-0.151043
0.130823
-0.0871431
0.142991
-0.00622326
0.153352
0.141733
0.157329
0.257557
0.156635
0.321187
0.153206
0.288792
0.154259
0.106036
0.158714
0.0139925
0.158307
-0.136521
0.154478
-0.175556
0.150778
-0.264414
0.149028
-0.30302
-0.0373562
0.195423
0.0117604
-0.195806
0.195636
0.0113993
0.196076
0.0110094
0.196802
0.0102608
0.19787
0.00906628
0.199289
0.0073336
0.201014
0.00488148
0.202832
0.00156048
0.204677
-0.00297939
0.206203
-0.00880309
0.207135
-0.0159881
0.207109
-0.0244683
0.20582
-0.0340101
0.203116
-0.0441845
0.199039
-0.0544457
0.193793
-0.0642223
0.187645
-0.0729933
0.180867
-0.0803491
0.173718
-0.0860046
0.166413
-0.0897914
0.159129
-0.0916996
0.152007
-0.0916789
0.145067
-0.0896863
0.138307
-0.0857871
0.13195
-0.0797446
0.125827
-0.0706927
0.118983
-0.0590991
0.111332
-0.0459834
0.105194
-0.0305015
0.103708
-0.00941807
0.107189
0.018016
0.113953
0.0507855
0.121443
0.0909275
0.128621
0.141115
0.135693
0.194559
0.143722
0.226237
0.154177
0.206869
0.165759
0.123946
0.173295
0.0135142
0.175632
-0.083231
0.172155
-0.138258
0.165198
-0.168693
0.158123
-0.175758
0.150985
-0.164027
0.142307
-0.149769
0.133744
-0.142061
0.129335
-0.146634
0.130747
-0.0885548
0.13456
-0.0100363
0.137441
0.138853
0.138249
0.256749
0.138885
0.320551
0.14096
0.286717
0.146093
0.100903
0.152412
0.00767336
0.152507
-0.136615
0.147657
-0.170706
0.142358
-0.259115
0.137609
-0.298271
-0.0348507
0.207575
0.0115479
-0.207363
0.208068
0.0109067
0.208858
0.0102194
0.209865
0.0092539
0.211063
0.0078681
0.212432
0.00596522
0.213896
0.00341684
0.215389
6.7462e-05
0.216685
-0.00427486
0.217569
-0.00968739
0.217791
-0.0162103
0.217104
-0.0237807
0.215303
-0.0322097
0.212289
-0.0411708
0.208084
-0.0502406
0.202818
-0.058956
0.196697
-0.0668726
0.189966
-0.0736181
0.182879
-0.0789175
0.175663
-0.0825753
0.168483
-0.0845195
0.161468
-0.0846634
0.154684
-0.0829029
0.148088
-0.079191
0.141813
-0.0734698
0.13602
-0.064899
0.130113
-0.0531927
0.123359
-0.0392297
0.116863
-0.0240047
0.113361
-0.00591612
0.114902
0.0164746
0.120581
0.0451067
0.128278
0.0832305
0.136538
0.132854
0.145009
0.186089
0.154908
0.216339
0.167337
0.194439
0.179897
0.111386
0.187768
0.00564413
0.189112
-0.0845758
0.184564
-0.13371
0.176472
-0.160602
0.168501
-0.167787
0.161023
-0.156548
0.152249
-0.140995
0.14319
-0.133001
0.138108
-0.141553
0.139094
-0.089541
0.143065
-0.0140065
0.146631
0.135287
0.148321
0.255059
0.149957
0.318915
0.152495
0.28418
0.157589
0.0958088
0.164007
0.00125457
0.163755