/*--------------------------------*- C++ -*----------------------------------*\
| =========                 |                                                 |
| \\      /  F ield         | OpenFOAM: The Open Source CFD Toolbox           |
|  \\    /   O peration     | Version:  2512                                  |
|   \\  /    A nd           | Website:  www.openfoam.com                      |
|    \\/     M anipulation  |                                                 |
\*---------------------------------------------------------------------------*/
FoamFile
{
    version     2.0;
    format      ascii;
    arch        "LSB;label=32;scalar=64";
    class       volVectorField;
    location    "192.5";
    object      U;
}
// * * * * * * * * * * * * * * * * * * * * * * * * * * * * * * * * * * * * * //

dimensions      [0 1 -1 0 0 0 0];

internalField   nonuniform List<vector> 
13248
(
(-0.014367 0.0125091 7.79548e-20)
(-0.0274279 0.0260657 0)
(-0.0252877 0.0329114 -1.47048e-19)
(-0.00792155 0.0356946 1.38519e-19)
(0.0247256 0.0361681 1.29228e-19)
(0.0726496 0.035519 0)
(0.135658 0.0345697 0)
(0.21317 0.0338908 3.07665e-19)
(0.304009 0.0338461 -1.60255e-21)
(0.406226 0.0346029 -2.68586e-19)
(0.517046 0.0361273 2.50331e-19)
(0.632933 0.0381893 -1.56446e-19)
(0.749808 0.0403885 0)
(0.863362 0.0422059 -2.75697e-19)
(0.969429 0.0430752 5.17501e-19)
(1.06436 0.0424633 -1.23147e-19)
(1.14533 0.03995 -2.25869e-19)
(1.21059 0.0352686 2.1205e-19)
(1.25963 0.0284194 0)
(1.29304 0.0192788 0)
(1.31259 0.00899102 0)
(1.32018 -0.00529831 0)
(1.31879 -0.0142878 6.56925e-20)
(1.30974 -0.0438267 2.38548e-19)
(-0.0148152 0.0116841 -2.35503e-19)
(-0.0232728 0.0220515 1.60599e-19)
(-0.0117668 0.0257764 -1.60429e-21)
(0.0188418 0.0259095 -2.11992e-19)
(0.0680761 0.0245453 -1.29086e-19)
(0.135377 0.0231334 -1.22207e-19)
(0.219712 0.0226305 -2.23012e-19)
(0.319253 0.023606 2.11572e-19)
(0.431149 0.0262882 0)
(0.551495 0.0305806 7.34342e-22)
(0.67554 0.0360861 2.03973e-21)
(0.798081 0.0421646 1.57384e-19)
(0.91399 0.0480271 0)
(1.01874 0.0528535 0)
(1.10885 0.0559148 1.89748e-19)
(1.18218 0.0566754 -3.56689e-19)
(1.23808 0.0548574 2.16388e-19)
(1.27727 0.0504588 -2.03167e-19)
(1.30165 0.0437103 -9.00899e-20)
(1.31384 0.0350404 -1.66794e-19)
(1.3167 0.0249407 -6.96794e-20)
(1.31304 0.0138267 -1.31666e-19)
(1.30467 0.00370007 1.91572e-19)
(1.2946 -0.0105861 5.46918e-20)
(-0.0139093 0.0101088 0)
(-0.0147977 0.0168861 0)
(0.00953793 0.0180936 7.50208e-20)
(0.0571578 0.0168148 6.89206e-20)
(0.126683 0.0152741 -1.90015e-21)
(0.216428 0.0150364 -1.27185e-19)
(0.323768 0.0170262 0)
(0.444803 0.0216024 -1.05084e-19)
(0.574346 0.0286124 9.93385e-20)
(0.706274 0.0374548 1.26189e-21)
(0.834171 0.047191 -1.69439e-19)
(0.952097 0.0567098 -1.5615e-19)
(1.05529 0.0649161 2.1369e-21)
(1.14063 0.0709048 -1.31265e-19)
(1.2069 0.0740852 3.1349e-19)
(1.25465 0.0742344 0)
(1.28585 0.0714795 -2.07271e-19)
(1.30345 0.0662085 1.00713e-19)
(1.31071 0.0589993 9.00228e-20)
(1.31071 0.0503656 0)
(1.30603 0.0411702 7.46369e-20)
(1.29831 0.0310184 -2.55538e-19)
(1.28883 0.0230096 2.39891e-19)
(1.27858 0.00979966 1.50599e-19)
(-0.0111922 0.00778359 -8.37515e-20)
(-0.000932145 0.0106051 -8.67154e-20)
(0.039908 0.0100025 7.81555e-20)
(0.108074 0.00872524 0)
(0.200762 0.0088716 0)
(0.3144 0.0118801 -3.29488e-21)
(0.443915 0.01835 0)
(0.582668 0.0280989 -3.24341e-19)
(0.722969 0.0402903 3.01308e-19)
(0.857013 0.0536297 -3.71501e-19)
(0.977955 0.0666315 8.50015e-20)
(1.0808 0.0779043 0)
(1.1629 0.086386 1.42742e-19)
(1.22397 0.0914798 -2.64844e-19)
(1.26574 0.0930753 6.30089e-20)
(1.2913 0.0914685 1.63727e-19)
(1.30432 0.0872183 -6.24021e-21)
(1.30845 0.0809961 -1.82409e-19)
(1.30672 0.0734411 0)
(1.30139 0.0651213 0)
(1.29392 0.056468 -6.62358e-20)
(1.28516 0.0476342 5.95976e-20)
(1.27561 0.0400131 2.15412e-19)
(1.26584 0.0290072 -2.02251e-19)
(-0.00626724 0.00489314 -8.86875e-20)
(0.019228 0.003718 -8.83067e-20)
(0.0803122 0.00230999 2.48161e-19)
(0.17205 0.00272536 -1.50406e-19)
(0.289501 0.00660817 1.41567e-19)
(0.426327 0.0149018 2.56737e-19)
(0.574294 0.0274625 -1.81734e-19)
(0.723888 0.0431897 -2.21252e-19)
(0.865611 0.0603533 4.46036e-21)
(0.991452 0.07701 2.82085e-19)
(1.09602 0.0914182 0)
(1.17701 0.102347 7.79518e-20)
(1.23503 0.109217 0)
(1.27287 0.112061 -1.27824e-19)
(1.29455 0.11137 1.79851e-19)
(1.30437 0.107876 1.79142e-21)
(1.3062 0.102361 -4.7574e-20)
(1.30303 0.0955131 8.97415e-20)
(1.29697 0.0878792 7.74464e-20)
(1.2893 0.0798428 -6.97377e-20)
(1.28075 0.0717134 6.62218e-20)
(1.27171 0.0635441 -5.95842e-20)
(1.26237 0.0562021 0)
(1.25303 0.0465237 -4.51341e-20)
(0.00120998 0.00175489 8.86748e-20)
(0.0463722 -0.0028905 9.33389e-20)
(0.13125 -0.00363543 -8.32351e-20)
(0.248679 0.000476155 1.55336e-19)
(0.390728 0.0101852 -1.462e-19)
(0.547512 0.025437 1.32197e-19)
(0.707455 0.0448824 -6.36164e-20)
(0.858941 0.0662536 1.66114e-19)
(0.992321 0.0870085 -1.0468e-19)
(1.10141 0.10494 1.85324e-19)
(1.18401 0.118585 -4.27871e-19)
(1.24142 0.127363 1.57388e-19)
(1.27739 0.131465 -1.37986e-19)
(1.2968 0.131596 1.29615e-19)
(1.30453 0.128683 1.12519e-19)
(1.30471 0.123635 9.92871e-20)
(1.30041 0.117209 -2.76299e-19)
(1.29367 0.109966 1.71706e-19)
(1.28571 0.102292 -7.74513e-20)
(1.27718 0.0944455 2.02762e-19)
(1.2684 0.086597 -6.5472e-20)
(1.2595 0.0788578 -1.60132e-19)
(1.25053 0.0716315 1.4796e-19)
(1.24157 0.062935 4.51215e-20)
(0.0115271 -0.00122593 0)
(0.080881 -0.008095 9.45676e-22)
(0.192538 -0.00619528 1.75092e-19)
(0.336404 0.0038144 -1.64068e-19)
(0.500738 0.0211824 -1.48024e-19)
(0.671793 0.0442974 2.75084e-19)
(0.835382 0.0702887 -1.27737e-19)
(0.979538 0.0958143 1.69981e-19)
(1.09663 0.117987 -3.74831e-21)
(1.18407 0.134961 -9.63355e-20)
(1.24359 0.146081 2.10019e-19)
(1.27977 0.151682 -3.10276e-19)
(1.29835 0.152703 0)
(1.30486 0.150299 -6.11291e-20)
(1.30383 0.145553 -1.63649e-19)
(1.29853 0.139329 5.14184e-20)
(1.29105 0.13224 1.95059e-21)
(1.28261 0.124689 -1.14219e-19)
(1.27382 0.116933 6.70879e-21)
(1.26496 0.109136 1.32328e-19)
(1.25615 0.101409 -5.94254e-20)
(1.24738 0.0938451 -2.26517e-20)
(1.23865 0.0865672 6.96225e-20)
(1.22997 0.0785464 0)
(0.0248752 -0.0035807 0)
(0.122701 -0.0106523 4.75233e-20)
(0.263123 -0.00370119 -2.28848e-19)
(0.432401 0.0143528 8.3297e-20)
(0.614521 0.0405947 -7.83932e-20)
(0.792408 0.0714253 -7.17291e-20)
(0.950986 0.102503 -1.26524e-19)
(1.08023 0.129931 6.32734e-20)
(1.17638 0.151194 5.48521e-20)
(1.24118 0.165397 0)
(1.27988 0.17296 1.24962e-19)
(1.29914 0.175077 -1.86252e-19)
(1.3053 0.173189 1.38583e-19)
(1.3035 0.168617 6.11627e-20)
(1.29733 0.162388 -5.03744e-20)
(1.28909 0.155212 -4.2318e-20)
(1.28003 0.14754 -3.96277e-20)
(1.27081 0.139643 1.1812e-19)
(1.2617 0.131687 0)
(1.25279 0.123777 5.97907e-20)
(1.24407 0.115992 5.05851e-20)
(1.23553 0.1084 -1.25311e-19)
(1.22709 0.100997 -8.62012e-20)
(1.2187 0.0934312 7.96002e-20)
(0.0412894 -0.00479586 -5.14839e-20)
(0.17123 -0.0093135 -2.07391e-21)
(0.341015 0.00531684 4.66617e-20)
(0.532774 0.0331804 1.30707e-19)
(0.726459 0.0686073 3.80398e-20)
(0.903198 0.105931 -7.34951e-20)
(1.04938 0.139858 6.70245e-20)
(1.15896 0.166751 -5.86398e-20)
(1.23293 0.185153 1.05137e-19)
(1.27698 0.195437 4.47179e-20)
(1.29874 0.199054 -1.27094e-19)
(1.30558 0.197804 3.74206e-20)
(1.30348 0.193339 6.40332e-20)
(1.29661 0.186932 -3.14656e-20)
(1.28757 0.179445 0)
(1.27779 0.171413 4.71703e-20)
(1.26798 0.163145 8.00778e-20)
(1.25842 0.154816 1.38719e-20)
(1.24921 0.146533 -6.69139e-20)
(1.24034 0.138369 2.80967e-20)
(1.23177 0.130381 0)
(1.22343 0.1226 -2.21825e-20)
(1.21525 0.11499 -2.10839e-20)
(1.20714 0.107629 0)
(0.0605874 -0.00434071 0)
(0.225253 -0.00293817 2.70021e-20)
(0.42338 0.0219476 5.00595e-20)
(0.632993 0.0607077 -1.33506e-19)
(0.831183 0.104626 4.31954e-20)
(0.999565 0.14639 0)
(1.12827 0.180646 6.47426e-20)
(1.21641 0.204848 -9.03998e-20)
(1.26954 0.21903 -5.25605e-20)
(1.29623 0.224845 2.37009e-20)
(1.30515 0.224529 -3.80719e-20)
(1.30344 0.220188 9.23643e-20)
(1.29611 0.213455 4.62932e-20)
(1.2863 0.205431 -3.21369e-20)
(1.27572 0.196784 -2.97819e-21)
(1.26519 0.187888 -8.84291e-20)
(1.25505 0.178946 4.03008e-20)
(1.2454 0.17007 -1.00818e-21)
(1.23623 0.161331 0)
(1.22751 0.152779 -2.81262e-20)
(1.21914 0.144451 0)
(1.21106 0.136352 6.3957e-20)
(1.20319 0.128486 -7.62162e-20)
(1.19538 0.121131 3.47767e-20)
(0.0823287 -0.00170664 -1.41389e-20)
(0.282956 0.0093962 -6.82735e-20)
(0.506774 0.0467772 7.77575e-20)
(0.728461 0.0966508 4.56961e-20)
(0.924276 0.147472 -2.18086e-20)
(1.07879 0.191185 3.66287e-20)
(1.18749 0.223394 -1.77837e-20)
(1.25477 0.243266 2.95482e-20)
(1.28986 0.252449 0)
(1.30294 0.253665 6.69324e-20)
(1.30267 0.249626 -2.75523e-21)
(1.29534 0.242486 -5.40315e-20)
(1.28488 0.233709 2.31583e-20)
(1.27345 0.224178 -2.61776e-20)
(1.26211 0.214378 -1.00073e-20)
(1.25126 0.204558 1.15068e-20)
(1.24105 0.194846 -8.92707e-21)
(1.23146 0.185314 -4.8495e-20)
(1.22245 0.176007 2.97326e-20)
(1.21394 0.16696 6.11256e-21)
(1.20584 0.158189 5.39427e-21)
(1.19806 0.149683 4.76238e-21)
(1.1905 0.141518 0)
(1.18301 0.133952 0)
(0.105884 0.00355854 1.41487e-20)
(0.34217 0.0283145 -1.41657e-20)
(0.587638 0.0798328 -2.59335e-20)
(0.815168 0.140123 0)
(1.0027 0.195633 -1.08407e-20)
(1.13986 0.238767 -9.77062e-21)
(1.22813 0.266972 -1.66921e-20)
(1.2766 0.281439 0)
(1.29696 0.285298 0)
(1.29988 0.282029 0)
(1.29335 0.274529 0)
(1.28252 0.264817 0)
(1.2703 0.25412 -1.45836e-20)
(1.25809 0.243105 6.64753e-21)
(1.24646 0.232103 1.15598e-20)
(1.2356 0.221272 5.4016e-21)
(1.2255 0.210688 1.34107e-20)
(1.21613 0.200393 0)
(1.20739 0.190417 -3.23306e-21)
(1.19921 0.180778 -3.08691e-21)
(1.19148 0.171475 -5.40286e-21)
(1.18409 0.162504 -4.76998e-21)
(1.17692 0.154005 0)
(1.16985 0.146061 3.44441e-21)
(-0.00188276 0.0318514 9.12794e-21)
(-0.007169 0.0844382 -9.43462e-21)
(-0.0156464 0.127628 -1.78137e-20)
(-0.0261471 0.16192 0)
(-0.0378767 0.188319 -2.37612e-20)
(-0.0502656 0.208353 7.45687e-21)
(-0.0627741 0.223742 -1.41033e-20)
(-0.0749161 0.236066 0)
(-0.0862902 0.246539 0)
(-0.0965804 0.255919 0)
(-0.105543 0.264523 0)
(-0.112987 0.272306 0)
(-0.118747 0.278962 1.52609e-23)
(-0.122671 0.284006 -9.63658e-21)
(-0.124604 0.286846 1.86585e-20)
(-0.124389 0.28682 2.67596e-20)
(-0.121868 0.283238 8.75657e-21)
(-0.116893 0.275405 0)
(-0.109339 0.262666 7.81083e-21)
(-0.0991199 0.244441 -2.25106e-20)
(-0.0861798 0.22029 -1.45852e-20)
(-0.0704751 0.189992 -1.39968e-20)
(-0.0519549 0.153596 0)
(-0.0308592 0.111828 0)
(-0.00351646 0.0335453 -2.74493e-20)
(-0.0102309 0.0891557 4.71785e-20)
(-0.0177753 0.135122 -1.78474e-20)
(-0.0259615 0.171823 -3.36197e-20)
(-0.0345389 0.200112 4.74802e-20)
(-0.0432261 0.221392 -2.99097e-20)
(-0.0516722 0.237329 4.22288e-20)
(-0.0594947 0.249518 2.66306e-20)
(-0.0663207 0.259245 0)
(-0.0718083 0.26736 -2.41186e-20)
(-0.0756625 0.274283 -5.03423e-22)
(-0.0776315 0.28004 2.12723e-20)
(-0.0774967 0.284373 3.0834e-20)
(-0.0750671 0.286828 3.96391e-20)
(-0.0701738 0.286828 -1.78694e-20)
(-0.0626706 0.283729 -5.34999e-20)
(-0.052437 0.276863 1.80087e-20)
(-0.0393826 0.265573 -6.66754e-20)
(-0.0234727 0.249246 0)
(-0.00475033 0.227348 1.51518e-20)
(0.0167097 0.199479 1.45592e-20)
(0.0408118 0.165442 1.39716e-20)
(0.067662 0.125389 0)
(0.0977821 0.0803141 0)
(-0.00513803 0.033301 0)
(-0.013434 0.0894952 9.4916e-20)
(-0.0202499 0.136818 -3.57662e-20)
(-0.0261966 0.175192 3.36311e-20)
(-0.0314833 0.205097 -9.50539e-20)
(-0.0360965 0.227638 0)
(-0.0398901 0.244278 -5.6434e-20)
(-0.0426214 0.256517 2.6476e-20)
(-0.0439955 0.265636 -5.02526e-20)
(-0.0436813 0.272557 2.3781e-20)
(-0.0413661 0.277787 1.36606e-19)
(-0.036776 0.281459 -6.42401e-20)
(-0.0296578 0.283409 -1.03872e-19)
(-0.0198044 0.283259 -4.1101e-20)
(-0.00705322 0.280502 -1.76675e-21)
(0.00871082 0.274556 1.4605e-19)
(0.0275503 0.264825 -6.94494e-20)
(0.049471 0.250724 -4.42045e-22)
(0.0744135 0.231718 0)
(0.102247 0.207345 -6.40127e-20)
(0.132776 0.17726 0)
(0.16576 0.141243 -6.06793e-20)
(0.201 0.0993863 2.28875e-19)
(0.241167 0.0524033 2.20369e-21)
(-0.0065126 0.0313852 0)
(-0.0163624 0.08583 1.14495e-22)
(-0.022773 0.132914 3.58258e-20)
(-0.0268376 0.17192 -3.36426e-20)
(-0.029066 0.202842 3.17071e-20)
(-0.0296476 0.226382 1.78702e-19)
(-0.0286284 0.243694 -5.60995e-20)
(-0.0259298 0.256075 -5.2825e-20)
(-0.0213707 0.264727 1.00139e-19)
(-0.0147025 0.270581 -1.43145e-19)
(-0.0056501 0.274216 4.45548e-20)
(0.00605084 0.275878 4.2818e-20)
(0.0206391 0.275521 0)
(0.0383068 0.272885 3.94355e-20)
(0.0591897 0.267569 0)
(0.0833612 0.259097 7.27118e-20)
(0.110829 0.246967 -1.43333e-19)
(0.141536 0.230692 2.97841e-20)
(0.175366 0.209821 1.30339e-19)
(0.212144 0.183974 6.39311e-20)
(0.251631 0.15283 0)
(0.293794 0.116153 -1.8157e-19)
(0.33698 0.0741198 5.66608e-20)
(0.389521 0.0268263 0)
(-0.00750209 0.0282696 0)
(-0.0187392 0.0789993 -1.14289e-19)
(-0.0251359 0.124208 -3.56566e-20)
(-0.0278876 0.162545 -6.71897e-20)
(-0.027605 0.193528 6.3261e-20)
(-0.0245877 0.21745 -5.94549e-20)
(-0.019032 0.235104 1.11796e-19)
(-0.0110228 0.247525 5.31465e-20)
(-0.000528451 0.255756 -1.49083e-19)
(0.0125739 0.260674 9.46301e-20)
(0.0284622 0.262894 -1.34553e-19)
(0.0473316 0.262746 2.98005e-19)
(0.0693654 0.260304 -1.61324e-19)
(0.094711 0.255438 7.73145e-20)
(0.123466 0.247874 2.26276e-19)
(0.15567 0.237257 -6.86124e-20)
(0.191308 0.223192 -6.50251e-20)
(0.230312 0.205283 -6.62293e-20)
(0.272599 0.183126 0)
(0.318052 0.156408 -1.29224e-19)
(0.366281 0.124882 -1.28673e-19)
(0.418652 0.0883979 1.75798e-19)
(0.469586 0.0468812 2.32199e-19)
(0.537302 5.10865e-05 -2.1658e-19)
(-0.00810086 0.0245364 0)
(-0.0205022 0.0701502 -1.52483e-19)
(-0.027277 0.111971 5.07284e-22)
(-0.0293683 0.148189 1.34608e-19)
(-0.0272988 0.177981 0)
(-0.0213817 0.201302 0)
(-0.0119055 0.218616 0)
(0.000906581 0.230677 -5.25499e-20)
(0.016932 0.238329 -4.06381e-22)
(0.0361442 0.242343 9.2623e-20)
(0.0585898 0.243312 -1.34304e-19)
(0.084359 0.241613 -9.01126e-22)
(0.113557 0.23741 0)
(0.146284 0.230685 -7.72743e-20)
(0.18262 0.221283 7.48393e-20)
(0.222623 0.208958 -2.1009e-19)
(0.266339 0.193405 2.7604e-19)
(0.313743 0.174289 7.18867e-20)
(0.364856 0.151324 8.09322e-21)
(0.419987 0.124268 -2.45051e-19)
(0.47813 0.092713 -1.18561e-19)
(0.542697 0.0569024 4.0781e-19)
(0.60188 0.0160626 -2.7349e-19)
(0.687452 -0.0294146 0)
(-0.00843868 0.020785 7.44424e-20)
(-0.0218146 0.060553 7.63191e-20)
(-0.0292835 0.0977578 -7.14673e-20)
(-0.0312803 0.130438 -1.33566e-19)
(-0.0281076 0.157641 1.25752e-19)
(-0.0200192 0.179126 -1.17066e-19)
(-0.00733644 0.195113 1.64827e-19)
(0.00962551 0.206115 -5.24256e-20)
(0.030621 0.212775 9.69177e-20)
(0.0554944 0.215729 0)
(0.0841774 0.215507 8.65987e-20)
(0.116675 0.212486 -1.61671e-19)
(0.153049 0.206875 1.57953e-19)
(0.193401 0.19873 -1.48342e-19)
(0.237861 0.187982 0)
(0.286573 0.174464 1.3836e-19)
(0.3397 0.157954 2.69335e-19)
(0.397465 0.138219 -2.54493e-19)
(0.459839 0.114963 -1.23048e-19)
(0.527212 0.0880773 -1.26248e-19)
(0.597567 0.0568289 3.48493e-19)
(0.676536 0.0226538 1.12378e-19)
(0.74491 -0.0168345 -1.03018e-19)
(0.847476 -0.0583621 9.84032e-20)
(-0.0087467 0.0175347 -7.44528e-20)
(-0.0229952 0.0513854 2.28271e-19)
(-0.0312949 0.0831523 -7.18153e-20)
(-0.0334709 0.111105 1.33156e-19)
(-0.029554 0.134408 -1.25366e-19)
(-0.0197011 0.152791 1.07622e-22)
(-0.00421285 0.166353 5.46159e-20)
(0.0165701 0.175441 2.02525e-19)
(0.0423527 0.180535 -1.73135e-22)
(0.0729287 0.182138 -9.04808e-20)
(0.108198 0.1807 0)
(0.148169 0.176559 -8.05888e-20)
(0.192941 0.16993 1.52036e-19)
(0.242692 0.160902 1.47688e-19)
(0.297645 0.149453 -6.93947e-20)
(0.35803 0.135477 -1.71963e-21)
(0.423985 0.118803 -6.58829e-20)
(0.49554 0.0992508 1.2361e-19)
(0.572319 0.0765228 1.23034e-19)
(0.654308 0.050913 -1.18779e-19)
(0.73813 0.0213161 1.09828e-19)
(0.829461 -0.00920323 -1.04623e-19)
(0.905145 -0.0459091 0)
(1.01463 -0.0795872 -9.83933e-20)
(-0.00928369 0.0151346 7.43468e-20)
(-0.024359 0.0435254 -7.62601e-20)
(-0.0333026 0.0695005 7.15022e-20)
(-0.035401 0.0919452 0)
(-0.0304403 0.110371 0)
(-0.0184699 0.124644 1.15173e-19)
(0.000285464 0.134866 -1.08719e-19)
(0.0255495 0.141313 1.00008e-19)
(0.0570885 0.14436 -4.7232e-19)
(0.094764 0.144411 -8.47062e-23)
(0.138553 0.141833 8.30331e-20)
(0.188539 0.136914 0)
(0.244881 0.129847 -1.51195e-19)
(0.307741 0.120717 2.86474e-19)
(0.377204 0.109514 -2.04966e-19)
(0.453182 0.0961588 -3.32867e-19)
(0.535294 0.0805274 -6.26458e-21)
(0.622779 0.0625382 2.3686e-19)
(0.71425 0.0420138 0)
(0.808363 0.0194611 0)
(0.901009 -0.00636737 -1.09833e-19)
(0.994897 -0.0313724 1.04629e-19)
(1.07035 -0.0633879 -3.83704e-19)
(1.16711 -0.086845 3.59282e-19)
(-0.0102308 0.013693 0)
(-0.0260049 0.0373926 0)
(-0.0349025 0.0576787 -2.14155e-19)
(-0.035897 0.0743583 6.83072e-20)
(-0.028612 0.087468 1.3624e-21)
(-0.012987 0.0971406 1.16641e-19)
(0.0108868 0.103591 0)
(0.0428856 0.10711 -1.00473e-19)
(0.082927 0.108036 9.41646e-20)
(0.130997 0.106713 -1.75245e-19)
(0.187128 0.103444 -3.5596e-22)
(0.251344 0.0984636 1.56767e-19)
(0.323562 0.0919177 1.73603e-21)
(0.403479 0.0838601 1.44255e-19)
(0.490457 0.0742669 -1.9999e-19)
(0.583418 0.0630584 0)
(0.680785 0.0501323 2.49287e-19)
(0.78046 0.0354025 -3.53997e-19)
(0.87984 0.0187986 1.10604e-19)
(0.976131 0.000616618 0)
(1.06552 -0.0198488 9.88943e-20)
(1.14723 -0.0393516 3.83744e-19)
(1.21026 -0.0653634 -3.60165e-19)
(1.27582 -0.0802407 -4.07036e-19)
(-0.0115865 0.0130501 2.24068e-19)
(-0.0276309 0.0328743 -3.07524e-19)
(-0.0351359 0.0479501 1.15422e-21)
(-0.0330798 0.0591569 6.80365e-20)
(-0.0210374 0.0671462 -1.25665e-19)
(0.00115054 0.0723988 -1.16166e-19)
(0.0335433 0.0753188 2.15027e-19)
(0.0761699 0.0762801 -2.23561e-21)
(0.129033 0.0756349 -1.88282e-19)
(0.192059 0.073696 3.50985e-19)
(0.265004 0.0707118 2.79674e-22)
(0.347334 0.0668438 -1.54935e-19)
(0.438101 0.0621553 0)
(0.535856 0.0566121 0)
(0.638602 0.0500962 -6.68315e-20)
(0.743816 0.042429 -1.2515e-19)
(0.848556 0.0334221 -2.42133e-19)
(0.949587 0.0228604 2.27279e-19)
(1.04368 0.010733 -1.10665e-19)
(1.12771 -0.00318042 2.04311e-19)
(1.19914 -0.018475 -9.94932e-20)
(1.2565 -0.0346094 1.76817e-19)
(1.29678 -0.0545267 -4.13949e-19)
(1.32724 -0.0659658 7.98636e-20)
(-0.0131106 0.0128159 7.53558e-20)
(-0.0284753 0.0293815 0)
(-0.0325266 0.0399651 1.44925e-19)
(-0.0245896 0.0464588 -1.36523e-19)
(-0.00432789 0.050118 1.25783e-19)
(0.0284439 0.0517943 0)
(0.0738264 0.0521087 0)
(0.131791 0.0515436 -1.00697e-19)
(0.202073 0.0504772 1.41583e-21)
(0.284028 0.0491825 8.8862e-20)
(0.376489 0.0478147 -8.28472e-20)
(0.477669 0.0463975 1.55319e-19)
(0.585127 0.0448213 0)
(0.695838 0.0428562 2.78212e-19)
(0.806343 0.040184 -5.24387e-19)
(0.912976 0.0364402 3.72317e-19)
(1.01214 0.0312848 2.34399e-19)
(1.10057 0.0243911 -2.20038e-19)
(1.17572 0.0157358 0)
(1.23577 0.00484302 0)
(1.28034 -0.00701186 0)
(1.30967 -0.0222118 0)
(1.32572 -0.0361719 7.95978e-20)
(1.33194 -0.0515952 -2.7592e-19)
(-0.00517294 0.0591358 -8.84408e-21)
(0.0241216 -0.0132367 8.91289e-21)
(0.0559457 -0.0960014 -2.7989e-22)
(0.0902388 -0.18519 0)
(0.125595 -0.276667 -7.31706e-21)
(0.16097 -0.365514 1.36795e-20)
(0.194817 -0.446252 -6.30599e-22)
(0.224851 -0.513553 -5.59226e-21)
(0.248337 -0.564016 0)
(0.262358 -0.597774 0)
(0.264683 -0.617992 -1.97289e-22)
(0.255922 -0.627546 -1.67221e-22)
(0.242426 -0.623822 -2.59054e-21)
(0.2362 -0.595885 2.3744e-21)
(0.249794 -0.529104 0)
(0.2887 -0.415388 0)
(0.348672 -0.259413 2.71962e-21)
(0.420677 -0.0760794 2.58243e-23)
(0.496264 0.114141 -2.44494e-21)
(0.568361 0.285214 -1.31744e-22)
(0.630774 0.413976 0)
(0.678463 0.491726 0)
(0.70927 0.525411 0)
(0.72573 0.528382 0)
(0.731373 0.517176 0)
(0.723317 0.512312 0)
(0.696719 0.524786 3.48107e-22)
(0.658506 0.532362 -5.67026e-22)
(0.630174 0.486115 0)
(0.631315 0.350767 0)
(0.662735 0.143577 -7.06635e-22)
(0.711931 -0.0781206 6.8674e-22)
(0.762802 -0.258786 3.02965e-22)
(0.802476 -0.37201 0)
(0.828692 -0.423518 0)
(0.842012 -0.433167 2.64817e-22)
(0.838568 -0.439981 -2.57419e-22)
(0.808683 -0.453066 0)
(0.760042 -0.455483 2.50093e-22)
(0.717382 -0.388149 -3.6747e-22)
(0.702614 -0.243616 1.40282e-22)
(0.71964 -0.0496287 0)
(0.757536 0.132418 -2.45806e-22)
(0.800092 0.253589 2.39016e-22)
(0.832546 0.337697 0)
(0.828736 0.37402 0)
(0.794934 0.416414 -7.17596e-23)
(0.755057 0.369432 2.19437e-22)
(0.739717 0.267073 0)
(0.760038 0.0930122 0)
(0.801974 -0.0849763 -6.47319e-23)
(0.823612 -0.183448 -4.52187e-24)
(0.824353 -0.327768 -8.15981e-24)
(0.794495 -0.3237 3.57352e-23)
(0.788566 -0.350785 0)
(0.792033 -0.217847 0)
(0.806267 -0.0259586 0)
(0.799147 0.0628572 0)
(0.804547 0.34266 0)
(0.785562 0.244808 0)
(0.131246 0.0256074 -9.24019e-22)
(0.164295 -0.04816 -3.85566e-20)
(0.197944 -0.132029 9.1998e-22)
(0.232891 -0.222215 3.52785e-20)
(0.267546 -0.313984 5.23976e-22)
(0.300536 -0.402005 0)
(0.330325 -0.480073 -2.41367e-20)
(0.354799 -0.542186 4.46759e-20)
(0.371569 -0.584469 -2.05218e-20)
(0.378167 -0.606801 1.42099e-20)
(0.371979 -0.613632 -1.36151e-20)
(0.35113 -0.611995 9.78384e-21)
(0.318096 -0.605258 -9.5091e-21)
(0.283116 -0.586383 -2.40644e-22)
(0.261919 -0.538519 -8.42393e-21)
(0.267324 -0.445791 8.18688e-21)
(0.301744 -0.305464 -9.12114e-21)
(0.358467 -0.130398 8.60893e-21)
(0.428138 0.0570576 -8.5612e-21)
(0.501444 0.231794 1.56117e-20)
(0.570281 0.369724 -7.09836e-21)
(0.627835 0.460079 -3.07074e-22)
(0.670321 0.506164 -4.01016e-21)
(0.698748 0.51909 7.4265e-21)
(0.714201 0.516802 -3.42997e-21)
(0.712721 0.521488 2.06179e-22)
(0.691878 0.54145 3.9866e-21)
(0.662665 0.54913 9.1734e-22)
(0.64697 0.494117 -9.84703e-21)
(0.660337 0.345873 1.13349e-20)
(0.700021 0.127552 -5.90267e-21)
(0.752241 -0.0997941 7.61015e-22)
(0.80107 -0.279113 -3.03558e-22)
(0.834577 -0.386458 5.01476e-22)
(0.852051 -0.431465 0)
(0.856501 -0.434497 0)
(0.847648 -0.432873 -9.01571e-22)
(0.814343 -0.437691 6.74177e-22)
(0.762157 -0.437746 7.00585e-22)
(0.712649 -0.37673 2.60225e-22)
(0.691731 -0.243837 -1.12181e-21)
(0.70541 -0.0600597 2.49524e-22)
(0.744525 0.117053 0)
(0.790903 0.240083 0)
(0.825676 0.33239 0)
(0.82469 0.378795 0)
(0.792192 0.426582 2.89573e-22)
(0.757115 0.377572 -1.49793e-22)
(0.743773 0.267038 0)
(0.766141 0.0859053 0)
(0.808911 -0.0932688 0)
(0.830869 -0.185974 -1.0918e-22)
(0.833016 -0.324355 1.85738e-23)
(0.799797 -0.319775 -7.98502e-23)
(0.794201 -0.350347 0)
(0.793445 -0.219498 0)
(0.804802 -0.0269111 4.86241e-23)
(0.796237 0.0632354 1.21216e-22)
(0.799776 0.344003 0)
(0.783497 0.245909 0)
(0.277682 -0.00306232 2.11253e-21)
(0.313522 -0.0775056 -8.10963e-20)
(0.348425 -0.161326 7.88987e-20)
(0.383736 -0.2507 -7.37759e-20)
(0.417464 -0.341166 -5.27427e-22)
(0.447706 -0.427314 0)
(0.472689 -0.502456 -5.15627e-20)
(0.490237 -0.56012 5.04467e-20)
(0.498431 -0.596064 2.96682e-22)
(0.496094 -0.609613 4.81075e-22)
(0.482043 -0.604699 3.80988e-22)
(0.454096 -0.589876 3.21027e-22)
(0.410747 -0.57405 -1.558e-20)
(0.356714 -0.557457 1.53851e-20)
(0.306213 -0.52609 0)
(0.277265 -0.458534 3.66711e-22)
(0.280948 -0.342025 -1.44931e-20)
(0.315875 -0.182758 1.434e-20)
(0.373977 -0.00229411 0)
(0.444342 0.172513 0)
(0.516287 0.317889 -1.05558e-20)
(0.581443 0.420359 1.89825e-20)
(0.634418 0.479341 -1.54244e-20)
(0.674096 0.503682 5.99109e-22)
(0.698881 0.512043 1.27863e-20)
(0.704302 0.526991 -1.36318e-20)
(0.690506 0.553932 1.44427e-20)
(0.671516 0.56147 1.28387e-21)
(0.668553 0.499242 -9.37588e-21)
(0.693641 0.341056 0)
(0.741083 0.114794 0)
(0.795494 -0.116389 4.32027e-21)
(0.841425 -0.29398 -5.72009e-21)
(0.868318 -0.395906 1.80193e-23)
(0.877067 -0.435416 2.7274e-21)
(0.872636 -0.433312 -2.65061e-21)
(0.858476 -0.424553 0)
(0.822494 -0.421614 2.03019e-22)
(0.76788 -0.419336 1.79388e-21)
(0.712237 -0.36498 -3.69389e-21)
(0.685201 -0.244536 1.71298e-21)
(0.695069 -0.0721221 1.80844e-22)
(0.734734 0.0996696 -1.96947e-21)
(0.784133 0.224806 1.53428e-21)
(0.820744 0.32588 3.00449e-22)
(0.822694 0.382594 2.82778e-22)
(0.792021 0.435975 -2.90323e-22)
(0.762114 0.385548 0)
(0.750952 0.267473 0)
(0.774917 0.0797157 -1.49829e-21)
(0.81787 -0.101084 6.92468e-22)
(0.839801 -0.188146 -5.50461e-22)
(0.843164 -0.320452 6.31993e-22)
(0.806178 -0.315497 5.95259e-22)
(0.800596 -0.349605 -1.48302e-22)
(0.795862 -0.220956 2.01601e-22)
(0.804631 -0.0275857 -1.7146e-22)
(0.794544 0.0636764 4.96957e-23)
(0.796024 0.345183 0)
(0.7824 0.246905 0)
(0.426227 -0.0278165 -1.69553e-19)
(0.464024 -0.102375 8.82997e-22)
(0.500997 -0.185392 1.60649e-19)
(0.537438 -0.272708 -1.18609e-21)
(0.570656 -0.360591 0)
(0.598283 -0.443709 0)
(0.618238 -0.514931 -1.052e-19)
(0.628213 -0.567618 1.36389e-20)
(0.626615 -0.597747 1.20497e-19)
(0.613372 -0.60482 -6.8328e-21)
(0.589453 -0.591905 -2.75491e-20)
(0.555034 -0.566038 -1.65195e-20)
(0.507837 -0.53787 1.66117e-20)
(0.446324 -0.515194 0)
(0.377537 -0.492385 -1.05351e-20)
(0.319033 -0.448758 9.59627e-21)
(0.289628 -0.362284 0)
(0.297307 -0.227666 0)
(0.337465 -0.0609123 1.06373e-20)
(0.39932 0.109729 -7.10981e-22)
(0.470504 0.260035 -9.03767e-21)
(0.540398 0.373322 -7.29073e-21)
(0.602007 0.445165 7.18592e-21)
(0.651583 0.481974 -6.15638e-21)
(0.684922 0.502153 -2.30573e-22)
(0.697457 0.527485 6.03618e-21)
(0.691671 0.56081 9.01282e-22)
(0.683563 0.568534 2.52688e-24)
(0.693184 0.501559 0)
(0.729445 0.337147 1.35571e-20)
(0.784099 0.10567 -1.40427e-20)
(0.840385 -0.127939 8.08099e-22)
(0.88315 -0.303932 0)
(0.903302 -0.401073 -5.25546e-22)
(0.903551 -0.435844 5.53591e-21)
(0.890334 -0.429927 -8.97092e-21)
(0.87079 -0.415527 3.08029e-22)
(0.832665 -0.40539 3.58055e-22)
(0.776876 -0.400288 2.45584e-21)
(0.716219 -0.352391 3.83556e-22)
(0.683204 -0.245151 -3.2139e-21)
(0.688721 -0.0852499 2.68992e-21)
(0.728123 0.0806368 5.67948e-23)
(0.779665 0.207913 1.23187e-21)
(0.817671 0.318073 -1.49915e-21)
(0.822702 0.385164 -2.00101e-21)
(0.794376 0.444379 5.39906e-22)
(0.76996 0.393322 1.53015e-21)
(0.761232 0.268599 -3.13431e-21)
(0.786322 0.0746639 2.38955e-21)
(0.828764 -0.108287 -5.61324e-22)
(0.85027 -0.190027 7.88378e-22)
(0.854679 -0.31609 5.56e-22)
(0.813571 -0.310781 -8.89263e-22)
(0.807632 -0.348501 2.48949e-23)
(0.799156 -0.222256 -1.49902e-22)
(0.805684 -0.0280113 0)
(0.794015 0.0641956 -8.47885e-23)
(0.793268 0.346219 1.05145e-22)
(0.782285 0.247804 0)
(0.573409 -0.0523729 1.69565e-19)
(0.612414 -0.125164 -3.33016e-19)
(0.652028 -0.205345 1.60862e-19)
(0.690006 -0.288612 1.4996e-19)
(0.722333 -0.372014 -2.83934e-19)
(0.746556 -0.450209 1.25998e-20)
(0.760544 -0.515879 1.19095e-19)
(0.762028 -0.562685 8.70667e-20)
(0.750009 -0.587182 -8.52343e-20)
(0.725419 -0.589457 0)
(0.690572 -0.572532 -4.23528e-20)
(0.648054 -0.541413 7.32372e-20)
(0.598165 -0.504088 -3.12001e-20)
(0.537359 -0.471022 0)
(0.464054 -0.446357 0)
(0.387819 -0.417923 2.75016e-22)
(0.328911 -0.361275 -1.47216e-20)
(0.305371 -0.25864 1.43032e-20)
(0.321281 -0.114703 0)
(0.368906 0.0463462 1.43558e-20)
(0.434704 0.197852 -2.60018e-20)
(0.505829 0.319758 2.29707e-20)
(0.57337 0.403762 -2.10889e-20)
(0.630781 0.453572 -4.48605e-22)
(0.671569 0.486241 2.15975e-20)
(0.691256 0.521852 -1.13335e-20)
(0.69413 0.561203 -4.49338e-22)
(0.697204 0.570115 -9.37981e-21)
(0.718906 0.501384 -2.52147e-21)
(0.765434 0.334514 1.18129e-20)
(0.8271 0.100528 8.83113e-22)
(0.885706 -0.134215 -1.26745e-20)
(0.925409 -0.308662 2.25362e-20)
(0.938835 -0.401737 -1.10276e-20)
(0.930969 -0.432652 0)
(0.909333 -0.424247 -4.69561e-21)
(0.884434 -0.405872 4.43836e-21)
(0.844584 -0.389476 -2.27396e-21)
(0.788767 -0.381194 2.84805e-21)
(0.724439 -0.339115 -2.78165e-22)
(0.685802 -0.24533 0)
(0.686363 -0.0989593 -3.06308e-22)
(0.724468 0.0602972 9.07643e-22)
(0.777292 0.189476 0)
(0.8163 0.308778 2.66185e-21)
(0.824569 0.3862 -1.03085e-21)
(0.79911 0.451569 6.02673e-22)
(0.780433 0.400835 7.54907e-22)
(0.77441 0.27052 0)
(0.80022 0.0709418 0)
(0.841495 -0.114722 -2.0773e-21)
(0.862122 -0.191592 2.95978e-21)
(0.867429 -0.31121 -1.45527e-21)
(0.821927 -0.305525 3.73475e-22)
(0.8152 -0.347001 5.12658e-22)
(0.803192 -0.223455 1.50043e-22)
(0.807872 -0.0282279 -1.9072e-22)
(0.794587 0.0648086 0)
(0.791482 0.347125 -1.68288e-22)
(0.783164 0.248608 -2.11295e-23)
(0.721998 -0.0787372 1.66591e-19)
(0.760708 -0.147558 -1.66054e-19)
(0.801542 -0.222131 1.26375e-21)
(0.839189 -0.298869 -1.14737e-21)
(0.868391 -0.375563 1.11309e-21)
(0.886954 -0.446751 -1.00249e-21)
(0.893003 -0.505358 1.68301e-21)
(0.88466 -0.545838 0)
(0.861846 -0.565355 -1.17562e-21)
(0.826634 -0.564217 9.37054e-22)
(0.782152 -0.545569 7.24624e-22)
(0.731747 -0.513727 -5.61847e-22)
(0.677985 -0.4735 0)
(0.619665 -0.432467 0)
(0.55152 -0.399437 1.9439e-22)
(0.472595 -0.373869 0)
(0.395453 -0.338469 -1.06585e-22)
(0.342121 -0.269328 0)
(0.328391 -0.15633 -8.98393e-21)
(0.355087 -0.0128337 1.74447e-20)
(0.410081 0.133809 -1.66393e-20)
(0.478357 0.260905 7.95444e-21)
(0.548479 0.355632 7.53724e-21)
(0.611175 0.41843 -7.3193e-21)
(0.658045 0.463825 -1.00907e-20)
(0.684698 0.509482 9.85772e-21)
(0.696544 0.55474 0)
(0.71077 0.566238 4.96253e-22)
(0.743719 0.498844 0)
(0.799583 0.333317 0)
(0.868261 0.0995003 2.67167e-20)
(0.930019 -0.135282 -2.76451e-20)
(0.967311 -0.308287 1.44363e-21)
(0.97429 -0.398146 1.10845e-21)
(0.958842 -0.426115 -7.98934e-22)
(0.929343 -0.416391 -4.04979e-21)
(0.899149 -0.395692 3.93244e-21)
(0.857841 -0.374184 -2.71022e-21)
(0.802962 -0.362436 2.30797e-21)
(0.736479 -0.325226 5.1516e-22)
(0.692767 -0.244653 -2.25256e-21)
(0.687831 -0.112923 -1.96087e-22)
(0.723517 0.0389533 1.55228e-21)
(0.776747 0.169528 0)
(0.816412 0.297775 -9.54229e-22)
(0.828061 0.385395 1.73445e-21)
(0.805962 0.457322 -2.19306e-21)
(0.793188 0.408 -7.59741e-22)
(0.790173 0.273249 0)
(0.816405 0.0686879 7.89715e-22)
(0.855914 -0.120214 -1.70393e-21)
(0.875171 -0.192814 1.76886e-23)
(0.88124 -0.305795 -4.48877e-22)
(0.831203 -0.299637 4.89973e-22)
(0.823215 -0.34504 -4.91225e-22)
(0.807828 -0.224601 0)
(0.81109 -0.0282861 1.90808e-22)
(0.796186 0.065527 0)
(0.790631 0.347905 0)
(0.785042 0.249311 3.16402e-23)
(0.877093 -0.104086 -1.61333e-19)
(0.911308 -0.167214 1.5971e-19)
(0.948867 -0.233668 -1.15351e-21)
(0.981651 -0.30157 1.17461e-21)
(1.00365 -0.369589 0)
(1.01329 -0.432096 0)