/*--------------------------------*- C++ -*----------------------------------*\
| =========                 |                                                 |
| \\      /  F ield         | OpenFOAM: The Open Source CFD Toolbox           |
|  \\    /   O peration     | Version:  2512                                  |
|   \\  /    A nd           | Website:  www.openfoam.com                      |
|    \\/     M anipulation  |                                                 |
\*---------------------------------------------------------------------------*/
FoamFile
{
    version     2.0;
    format      ascii;
    arch        "LSB;label=32;scalar=64";
    class       surfaceScalarField;
    location    "170";
    object      phi;
}
// * * * * * * * * * * * * * * * * * * * * * * * * * * * * * * * * * * * * * //

dimensions      [0 3 -1 0 0 0 0];

oriented        oriented;

internalField   nonuniform List<scalar> 
26232
(
-5.48884e-05
0.00102302
-0.000968128
7.26987e-05
0.00195328
-0.00208086
0.000621993
0.00195953
-0.00250882
0.00180863
0.00109426
-0.0022809
0.00383693
-0.000631886
-0.00139641
0.00690133
-0.00322845
0.000164051
0.0111826
-0.00670868
0.00242741
0.0168312
-0.0110739
0.00542525
0.0239511
-0.0162971
0.00917715
0.0325787
-0.0223124
0.0136848
0.0426657
-0.0290108
0.0189238
0.0540692
-0.036243
0.0248394
0.0665528
-0.0438292
0.0313456
0.0797979
-0.051573
0.0383279
0.0934261
-0.0592777
0.0456495
0.107029
-0.0667622
0.0531592
0.120204
-0.0738754
0.0607006
0.132587
-0.0805075
0.0681246
0.143892
-0.0865947
0.0752892
0.153921
-0.0921368
0.0821085
0.162607
-0.0971326
0.0884461
0.169906
-0.101781
0.0944825
0.175782
-0.105721
0.0998447
-0.110179
0.105832
0.180129
2.51373e-05
0.000997879
0.000386436
0.00159198
0.00134082
0.00100515
0.0031269
-0.000691826
0.0059692
-0.00347419
0.0100693
-0.00732857
0.0155882
-0.0122275
0.0226213
-0.018107
0.0311744
-0.0248502
0.0411458
-0.0322838
0.0523211
-0.0401861
0.0643847
-0.0483066
0.0769461
-0.0563906
0.0895781
-0.0642049
0.10186
-0.0715597
0.113422
-0.0783241
0.12398
-0.0844338
0.133364
-0.0898907
0.141523
-0.0947545
0.148514
-0.0991274
0.154507
-0.103126
0.159626
-0.1069
0.164315
-0.11041
-0.114285
0.168421
0.000125175
0.000872704
0.000779262
0.000937893
0.00223072
-0.000446306
0.00473086
-0.00319197
0.00850424
-0.00724757
0.0137256
-0.0125499
0.0204887
-0.0189906
0.0287757
-0.0263941
0.0384384
-0.0345129
0.0491981
-0.0430434
0.0606701
-0.0516581
0.0724071
-0.0600436
0.0839537
-0.0679373
0.0949023
-0.0751535
0.104939
-0.0815964
0.113874
-0.0872596
0.121653
-0.0922126
0.128341
-0.0965786
0.134093
-0.100507
0.139114
-0.104148
0.143609
-0.107621
0.147756
-0.111048
0.151714
-0.114368
-0.118027
0.155456
0.000239649
0.000633055
0.0012295
-5.19604e-05
0.00324282
-0.00245962
0.00652622
-0.00647537
0.0112734
-0.0119948
0.0175863
-0.0188628
0.025436
-0.0268403
0.0346397
-0.0355977
0.0448657
-0.0447389
0.0556715
-0.0538492
0.066565
-0.0625516
0.0770766
-0.0705552
0.0868234
-0.0776841
0.0955538
-0.0838839
0.103165
-0.0892078
0.109693
-0.0937871
0.115276
-0.0977957
0.120111
-0.101414
0.124407
-0.104802
0.128342
-0.108083
0.132061
-0.11134
0.135641
-0.114628
0.139189
-0.117916
-0.121482
0.142644
0.000366022
0.000267033
0.00172337
-0.00140931
0.00433771
-0.00507396
0.0084248
-0.0105625
0.0141057
-0.0176756
0.0213565
-0.0261136
0.0299766
-0.0354604
0.0395946
-0.0452157
0.0497185
-0.0548628
0.0598171
-0.0639478
0.0694085
-0.072143
0.078132
-0.0792787
0.0857879
-0.08534
0.0923394
-0.0904355
0.0978831
-0.0947514
0.102599
-0.0985026
0.106695
-0.101892
0.110369
-0.105087
0.113774
-0.108208
0.117021
-0.11133
0.12018
-0.114498
0.123288
-0.117736
0.126396
-0.121024
-0.124517
0.129431
0.000504288
-0.000237255
0.00225165
-0.00315667
0.00547853
-0.00830084
0.0103336
-0.0154175
0.016816
-0.0241581
0.0247284
-0.034026
0.0336763
-0.0444083
0.0431266
-0.0546659
0.0525078
-0.064244
0.0613179
-0.0727579
0.0692048
-0.0800299
0.0760018
-0.0860757
0.0817154
-0.0910535
0.0864793
-0.0951994
0.0904942
-0.0987663
0.0939711
-0.10198
0.0970935
-0.105015
0.0999993
-0.107993
0.102781
-0.11099
0.105497
-0.114046
0.10818
-0.117181
0.110847
-0.120403
0.113524
-0.123701
-0.127155
0.116162
0.000653823
-0.000891078
0.00280097
-0.00530382
0.00661698
-0.0121168
0.0121391
-0.0209397
0.019198
-0.031217
0.0273987
-0.0422267
0.0361773
-0.0531868
0.044918
-0.0634066
0.0530833
-0.0724093
0.0603082
-0.0799828
0.066435
-0.0861567
0.071491
-0.0911317
0.07563
-0.0951925
0.0790632
-0.0986327
0.0820018
-0.101705
0.0846216
-0.104599
0.0870504
-0.107444
0.0893716
-0.110314
0.091635
-0.113253
0.0938687
-0.11628
0.0960879
-0.1194
0.0983003
-0.122615
0.100518
-0.125919
-0.129341
0.102704
0.000811064
-0.00170214
0.00334836
-0.00784111
0.00768698
-0.0164555
0.0137079
-0.0269606
0.0210444
-0.0385535
0.0291194
-0.0503017
0.0372708
-0.0613382
0.0449063
-0.0710422
0.0516206
-0.0791236
0.0572376
-0.0855998
0.0617838
-0.0907029
0.0654194
-0.0947674
0.0683618
-0.0981349
0.070824
-0.101095
0.0729797
-0.103861
0.0749528
-0.106573
0.0768225
-0.109313
0.0786348
-0.112127
0.0804152
-0.115033
0.0821772
-0.118042
0.0839285
-0.121152
0.0856738
-0.124361
0.0874192
-0.127664
-0.131064
0.0891429
0.000968791
-0.00267093
0.00386114
-0.0107335
0.00860986
-0.0212042
0.0149057
-0.0332564
0.0221868
-0.0458346
0.0297512
-0.0578661
0.0369346
-0.0685216
0.0432605
-0.0773681
0.0485034
-0.0843665
0.0526653
-0.0897617
0.0559003
-0.0939378
0.0584281
-0.0972952
0.0604665
-0.100173
0.0621927
-0.102821
0.0637319
-0.1054
0.065163
-0.108004
0.0665313
-0.110682
0.0678613
-0.113457
0.0691658
-0.116338
0.0704523
-0.119328
0.0717251
-0.122424
0.0729874
-0.125623
0.0742418
-0.128919
-0.132299
0.0754766
0.00111694
-0.00378788
0.00430125
-0.0139178
0.00930736
-0.0262103
0.0156236
-0.0395726
0.0225306
-0.0527416
0.0292844
-0.0646199
0.0353071
-0.0745443
0.0402878
-0.0823488
0.0441757
-0.0882545
0.0471025
-0.0926885
0.0492856
-0.0961209
0.0509492
-0.0989588
0.0522788
-0.101503
0.0534062
-0.103948
0.0544139
-0.106408
0.0553492
-0.108939
0.0562368
-0.111569
0.05709
-0.11431
0.057916
-0.117164
0.0587192
-0.120131
0.0595027
-0.123208
0.0602688
-0.126389
0.0610187
-0.129668
-0.133029
0.0617488
0.0012447
-0.00503257
0.00463269
-0.0173058
0.00971709
-0.0312947
0.0157991
-0.0456546
0.0220671
-0.0590096
0.0278194
-0.0703723
0.0326212
-0.0793461
0.0363329
-0.0860605
0.0390403
-0.0909619
0.0409483
-0.0945964
0.0422872
-0.0974598
0.0432549
-0.0999265
0.0439946
-0.102243
0.0445969
-0.104551
0.0451134
-0.106924
0.0455711
-0.109397
0.045984
-0.111982
0.0463595
-0.114685
0.0467024
-0.117507
0.0470159
-0.120445
0.0473022
-0.123494
0.0475626
-0.126649
0.0477965
-0.129902
-0.133237
0.0480044
0.0013449
-0.00637748
0.00483056
-0.0207914
0.00980443
-0.0362686
0.0154238
-0.0512741
0.0208625
-0.0644482
0.0255263
-0.0750361
0.0291429
-0.0829627
0.0317178
-0.0886354
0.0334244
-0.0926685
0.0344936
-0.0956656
0.0351377
-0.0981039
0.0355165
-0.100305
0.0357333
-0.102459
0.0358473
-0.104665
0.0358895
-0.106966
0.0358755
-0.109383
0.0358131
-0.11192
0.0357075
-0.11458
0.0355621
-0.117362
0.0353799
-0.120262
0.0351629
-0.123277
0.0349122
-0.126399
0.0346262
-0.129616
0.0343084
-0.132919
-0.000290948
5.56575e-05
0.00023529
-0.000988454
0.000807854
-0.000110347
-0.00199574
0.0020022
-0.00099492
-0.00324925
0.00345745
-0.00220393
-0.0047033
0.00503672
-0.00358267
-0.00632111
0.00666028
-0.00504247
-0.00806905
0.00830027
-0.00655233
-0.00991343
0.00996709
-0.0081227
-0.0118194
0.0116925
-0.00978661
-0.0137502
0.0135138
-0.0115829
-0.0156673
0.0154613
-0.0135442
-0.0175287
0.0175523
-0.0156909
-0.0192879
0.0197875
-0.0180283
-0.0208921
0.0221509
-0.0205467
-0.022281
0.0246094
-0.0232205
-0.023386
0.0271124
-0.0260074
-0.0241305
0.0295915
-0.028847
-0.0244312
0.0319598
-0.031659
-0.0242005
0.0341119
-0.0343426
-0.0233492
0.0359271
-0.0367784
-0.0217914
0.0372751
-0.0388329
-0.0194523
0.0380229
-0.0403619
-0.0162813
0.0380442
-0.0412152
0.0373004
-0.0122985
-0.0412832
-0.000226012
0.00028167
-0.000766551
0.00134839
-0.0015432
0.00277885
-0.00250369
0.00441794
-0.00360974
0.00614277
-0.00482812
0.00787866
-0.00612451
0.00959665
-0.00746018
0.0113028
-0.00879117
0.0130235
-0.0100688
0.0147914
-0.0112402
0.0166327
-0.0122489
0.0185609
-0.013034
0.0205726
-0.0135297
0.0226467
-0.0136648
0.0247444
-0.0133622
0.0268098
-0.0125403
0.0287696
-0.0111155
0.030535
-0.0090042
0.0320006
-0.00612623
0.0330492
-0.0024073
0.0335561
0.00221819
0.0333974
0.0077961
0.0324662
0.0307367
0.0143598
-0.000152262
0.000433931
-0.000513769
0.0017099
-0.00102435
0.00328944
-0.00164148
0.00503507
-0.00233262
0.0068339
-0.00306723
0.00861327
-0.00381062
0.01034
-0.00452047
0.0120126
-0.00514594
0.013649
-0.00562856
0.015274
-0.00590387
0.016908
-0.00590272
0.0185598
-0.00555283
0.0202227
-0.00477849
0.0218723
-0.00350138
0.0234673
-0.00164192
0.0249504
0.000878906
0.0262487
0.00413929
0.0272746
0.00821054
0.0279293
0.0131549
0.0281048
0.0190239
0.0276872
0.0258555
0.0265658
0.033671
0.0246508
0.0218151
0.0425926
-8.34442e-05
0.000517376
-0.000273579
0.00190004
-0.000522883
0.00353874
-0.000793925
0.00530611
-0.00105642
0.00709639
-0.00128081
0.00883766
-0.00143221
0.0104914
-0.00146668
0.0120471
-0.00133001
0.0135123
-0.000958503
0.0149025
-0.000281067
0.0162306
0.00077816
0.0175006
0.00229903
0.0187018
0.00436195
0.0198094
0.00704694
0.0207823
0.0104321
0.0215653
0.0145913
0.0220895
0.0195907
0.0222752
0.025487
0.022033
0.0323241
0.0212677
0.0401302
0.0198811
0.0489327
0.0177632
0.0586912
0.0148923
0.0108493
0.069657
-3.12409e-05
0.000548617
-8.44395e-05
0.00195323
-0.000115208
0.00356951
-8.48503e-05
0.00527575
3.91329e-05
0.00697241
0.000288348
0.00858845
0.0006985
0.0100813
0.00131351
0.0114321
0.00218741
0.0126384
0.00338399
0.0137059
0.00497504
0.0146395
0.00703782
0.0154378
0.00965167
0.016088
0.0128962
0.0165649
0.0168483
0.0168302
0.0215806
0.016833
0.0271584
0.0165118
0.0336382
0.0157953
0.0410661
0.0146052
0.0494773
0.0128564
0.0588893
0.0104691
0.0693521
0.00730044
0.0807395
0.00350488
-0.00194002
0.0935288
-4.02401e-06
0.00055264
2.63498e-05
0.00192286
0.000142421
0.00345344
0.000391364
0.00502681
0.000812914
0.00655086
0.00144335
0.00795801
0.00232073
0.00920392
0.00348884
0.010264
0.00499962
0.0111277
0.00691352
0.011792
0.00929836
0.0122547
0.012227
0.0125091
0.0157748
0.0125402
0.0200168
0.0123229
0.0250258
0.0118212
0.0308702
0.0109886
0.0376129
0.00976911
0.045311
0.00809714
0.054015
0.00590123
0.0637691
0.00310239
0.0745997
-0.000361534
0.0866218
-0.00472172
0.099637
-0.00951034
-0.0166084
0.114305
-4.03786e-06
0.000556678
4.92019e-05
0.00186962
0.000228647
0.00327399
0.000595455
0.00466
0.0012003
0.00594601
0.00208736
0.00707095
0.00329926
0.00799202
0.00488134
0.00868188
0.00688453
0.00912447
0.00936667
0.00930984
0.0123923
0.00922912
0.0160313
0.00887005
0.0203577
0.00821384
0.0254475
0.0072331
0.0313778
0.00589079
0.0382259
0.00414054
0.0460668
0.00192828
0.054977
-0.000813104
0.0650303
-0.00415207
0.0763024
-0.00816968
0.0888288
-0.012888
0.102735
-0.018628
0.117765
-0.0245405
-0.0333997
0.134557
-2.76597e-05
0.000584338
-4.33076e-06
0.00184629
0.000165036
0.00310462
0.000559655
0.00426538
0.00124425
0.00526142
0.0022741
0.0060411
0.00370041
0.00656571
0.00557504
0.00680725
0.00795419
0.00674532
0.0109007
0.00636336
0.014485
0.00564481
0.0187853
0.00456968
0.0238872
0.00311202
0.0298815
0.00123877
0.0368647
-0.00109237
0.0449349
-0.0039297
0.0541898
-0.00732663
0.064718
-0.0113413
0.0765939
-0.016028
0.0898698
-0.0214455
0.10455
-0.0275681
0.120616
-0.0346944
0.137848
-0.0417719
-0.0518622
0.15631
-6.51853e-05
0.000649523
-0.000100298
0.0018814
1.97985e-05
0.00298453
0.000395626
0.00388956
0.00110965
0.00454739
0.00223348
0.00491727
0.00383423
0.00496496
0.00598011
0.00466136
0.00874479
0.00398064
0.0122102
0.00289796
0.0164678
0.0013872
0.0216183
-0.000580772
0.0277692
-0.00303893
0.0350315
-0.00602353
0.0435122
-0.00957305
0.0533074
-0.0137249
0.0644924
-0.0185116
0.0771081
-0.023957
0.0911491
-0.030069
0.106544
-0.0368401
0.123168
-0.0441928
0.140721
-0.0522472
0.159091
-0.0601415
-0.0702364
0.177465
-0.000100567
0.00075009
-0.000186968
0.00196781
-0.000102433
0.00289999
0.000277668
0.00350945
0.00105914
0.00376592
0.00233794
0.00363848
0.00420754
0.00309536
0.00676482
0.00210408
0.0101136
0.000631906
0.0143654
-0.00135386
0.0196378
-0.00388523
0.0260493
-0.00699229
0.0337113
-0.0107009
0.0427176
-0.0150298
0.0531322
-0.0199876
0.0649763
-0.025569
0.0782161
-0.0317514
0.0927523
-0.0384932
0.10841
-0.045727
0.124941
-0.0533706
0.14203
-0.0612822
0.159192
-0.0694094
0.17629
-0.0772392
-0.0859126
0.191966
-0.000116787
0.000866877
-0.000208473
0.00205949
-8.82177e-05
0.00277974
0.000395716
0.00302552
0.0013789
0.00278273
0.00298977
0.00202761
0.0053563
0.000728822
0.0086099
-0.00114952
0.0128843
-0.00364248
0.0183105
-0.00678011
0.025008
-0.0105827
0.033072
-0.0150563
0.0425596
-0.0201885
0.0534757
-0.0259459
0.0657608
-0.0322728
0.0792827
-0.039091
0.0938331
-0.0463017
0.109131
-0.0537912
0.124829
-0.0614251
0.140548
-0.0690897
0.155869
-0.0766028
0.170419
-0.0839598
0.183943
-0.0907629
-0.0974531
0.195483
-0.000101251
-0.000122623
0.000148289
0.000892909
0.00227923
0.0044709
0.00762713
0.0119029
0.0174375
0.0243422
0.0326833
0.0424665
0.0536236
0.0660056
0.0793823
0.0934505
0.107849
0.122183
0.136047
0.149066
0.160909
0.171432
0.180514
0.188893
-0.0056478
0.0477452
-0.0543959
0.00185746
0.0424509
-0.0499561
0.0101202
0.034104
-0.0423667
0.0189715
0.0225865
-0.0314379
0.028132
0.00786149
-0.017022
0.0374628
-0.00990246
0.000571733
0.0468121
-0.0304899
0.0211406
0.0560183
-0.0532115
0.0440053
0.0649147
-0.0767849
0.0678884
0.0732315
-0.0993102
0.0909934
0.0805083
-0.118615
0.111338
0.0861877
-0.132968
0.127288
0.0897122
-0.141699
0.138174
0.0904403
-0.145545
0.144817
0.0878594
-0.146831
0.149412
0.0825202
-0.148443
0.153783
0.0768255
-0.150699
0.156394
0.0742814
-0.148679
0.151223
0.0773399
-0.133923
0.130864
0.0858655
-0.100511
0.0919851
0.0980532
-0.0497294
0.0375417
0.111683
0.0104946
-0.0241239
0.124742
0.0694917
-0.0825511
0.135528
0.117398
-0.128184
0.143001
0.150072
-0.157545
0.14726
0.168565
-0.172824
0.14899
0.176587
-0.178317
0.148138
0.180326
-0.179473
0.144009
0.188233
-0.184104
0.137183
0.202226
-0.1954
0.130571
0.208765
-0.202153
0.127617
0.185587
-0.182633
0.129761
0.120879
-0.123023
0.136115
0.0280171
-0.034371
0.143893
-0.0667557
0.0589775
0.150968
-0.13943
0.132354
0.15605
-0.183841
0.17876
0.158191
-0.202942
0.2008
0.155993
-0.214373
0.216571
0.149185
-0.227274
0.234082
0.1404
-0.233926
0.242711
0.134146
-0.213563
0.219818
0.133399
-0.141129
0.141876
0.13827
-0.0433556
0.0384844
0.145811
0.0693057
-0.076847
0.151998
0.144656
-0.150843
0.152896
0.209831
-0.210729
0.148079
0.252428
-0.247611
0.141412
0.271229
-0.264562
0.138113
0.252208
-0.248909
0.140376
0.134951
-0.137214
0.145777
0.0423345
-0.0477353
0.14855
-0.108255
0.105482
0.147092
-0.183967
0.185425
0.144076
-0.267107
0.270123
0.142631
-0.319674
0.321119
0.142682
-0.186657
0.186605
0.142606
-0.160331
0.160408
0.140967
0.114853
-0.113215
0.223923
-0.222021
0.0216835
0.0404215
0.0294457
0.0346887
0.0374989
0.0260507
0.0456583
0.0144272
0.0537408
-0.000221005
0.0616223
-0.0177839
0.069217
-0.0380846
0.0764507
-0.0604451
0.0831779
-0.0835121
0.0891093
-0.105242
0.093821
-0.123327
0.0968896
-0.136037
0.0980383
-0.142847
0.0969894
-0.144496
0.0931758
-0.143018
0.0863182
-0.141586
0.0778225
-0.142203
0.071173
-0.142029
0.0701147
-0.132865
0.0760623
-0.106458
0.0876355
-0.0613027
0.102345
-0.00421456
0.117349
0.0544877
0.13046
0.104287
0.140289
0.140243
0.146727
0.162127
0.150222
0.173091
0.150655
0.179894
0.147661
0.191226
0.142173
0.207715
0.136906
0.214032
0.134601
0.187892
0.136338
0.119142
0.141417
0.0229379
0.147513
-0.0728513
0.152759
-0.144675
0.156125
-0.187208
0.157018
-0.203834
0.154105
-0.21146
0.146844
-0.220013
0.137583
-0.224665
0.131064
-0.207044
0.130627
-0.140692
0.136452
-0.0491805
0.145116
0.0606417
0.152125
0.137648
0.153589
0.208366
0.149138
0.256879
0.142718
0.277649
0.139248
0.255678
0.141164
0.133035
0.146419
0.0370797
0.149103
-0.110938
0.147516
-0.18238
0.144208
-0.2638
0.142688
-0.318153
0.142542
-0.186511
0.142239
-0.160027
0.140515
0.116577
0.225851
0.0498913
0.0331227
0.0574177
0.0271623
0.0649229
0.0185455
0.0721536
0.00719649
0.0790789
-0.00714626
0.0855059
-0.024211
0.0914141
-0.0439928
0.0967298
-0.0657609
0.101287
-0.0880691
0.104796
-0.108751
0.106904
-0.125434
0.107326
-0.136459
0.106023
-0.141544
0.103127
-0.1416
0.0983713
-0.138262
0.0909824
-0.134197
0.0811117
-0.132333
0.0713701
-0.132287
0.0661393
-0.127634
0.0685944
-0.108913
0.0785535
-0.0712618
0.0934763
-0.0191373
0.109919
0.0380446
0.125091
0.0891158
0.137227
0.128107
0.145902
0.153453
0.151267
0.167726
0.153197
0.177964
0.151659
0.192764
0.147773
0.2116
0.143866
0.217938
0.142061
0.189697
0.143114
0.118089
0.146691
0.0193612
0.150961
-0.0771219
0.15436
-0.148074
0.156046
-0.188893
0.155762
-0.203551
0.152305
-0.208004
0.144833
-0.212541
0.135274
-0.215105
0.128475
-0.200246
0.128206
-0.140422
0.134786
-0.055761
0.144428
0.0509994
0.152247
0.129829
0.154378
0.206235
0.15042
0.260836
0.144317
0.283752
0.140658
0.259337
0.14213
0.131562
0.147169
0.0320413
0.149772
-0.113541
0.148048
-0.180657
0.144404
-0.260155
0.14279
-0.316539
0.142507
-0.186228
0.142026
-0.159547
0.140234
0.118369
0.227795
0.0766901
0.0260896
0.0837453
0.0201071
0.0906046
0.0116863
0.0969455
0.000855565
0.10285
-0.0130509
0.108048
-0.0294087
0.112501
-0.0484459
0.116066
-0.0693261
0.118519
-0.0905216
0.119576
-0.109809
0.119022
-0.12488
0.11683
-0.134267
0.113194
-0.137908
0.108492
-0.136899
0.102891
-0.132661
0.0956747
-0.126981
0.0859103
-0.122568
0.0746518
-0.121029
0.0658723
-0.118854
0.0641914
-0.107232
0.0713595
-0.0784299
0.0853289
-0.0331067
0.102536
0.0208378
0.119391
0.0722609
0.133713
0.113784
0.144632
0.142534
0.151961
0.160397
0.155597
0.174328
0.155789
0.192572
0.153697
0.213692
0.151158
0.220478
0.149695
0.19116
0.149928
0.117856
0.151757
0.0175327
0.154171
-0.0795363
0.155759
-0.149661
0.155825
-0.18896
0.154415
-0.202141
0.150532
-0.204121
0.143075
-0.205084
0.133423
-0.205453
0.126365
-0.193187
0.126092
-0.14015
0.133206
-0.0628752
0.143694
0.0405119
0.152324
0.121199
0.155237
0.203322
0.151917
0.264156
0.146213
0.289457
0.142357
0.263193
0.143279
0.130639
0.148028
0.0272921
0.150538
-0.116051
0.148681
-0.1788
0.144656
-0.25613
0.142924
-0.314807
0.142562
-0.185866
0.141955
-0.15894
0.140116
0.120209
0.229743
0.100372
0.0192462
0.107006
0.0134736
0.113174
0.00551826
0.119232
-0.00520295
0.124229
-0.0180479
0.128455
-0.0336349
0.131675
-0.0516659
0.133616
-0.0712666
0.133985
-0.0908904
0.132569
-0.108393
0.129382
-0.121693
0.124723
-0.129608
0.11904
-0.132225
0.112805
-0.130663
0.106404
-0.12626
0.0995389
-0.120116
0.090925
-0.113954
0.0799693
-0.110073
0.0691172
-0.108002
0.0633876
-0.101503
0.0666195
-0.0816618
0.0783831
-0.0448703
0.0953861
0.00383476
0.11337
0.0542772
0.129614
0.0975399
0.142679
0.129469
0.152013
0.151063
0.157524
0.168817
0.159671
0.190425
0.159529
0.213834
0.158413
0.221594
0.157205
0.192368
0.156447
0.118615
0.156562
0.0174172
0.157064
-0.0800387
0.1569
-0.149497
0.155432
-0.187492
0.152958
-0.199667
0.148742
-0.199905
0.141495
-0.197836
0.131967
-0.195926
0.124688
-0.185908
0.124248
-0.139709
0.131662
-0.0702901
0.142849
0.0293254
0.152302
0.111746
0.156121
0.199503
0.153592
0.266686
0.148385
0.294664
0.14434
0.267239
0.144618
0.130361
0.148975
0.0229347
0.151378
-0.118453
0.149401
-0.176824
0.144961
-0.25169
0.143077
-0.312923
0.142696
-0.185485
0.142012
-0.158256
0.140152
0.12207
0.231677
0.120941
0.0126102
0.127253
0.00716201
0.133269
-0.000497767
0.138631
-0.0105651
0.143029
-0.0224457
0.14638
-0.0369858
0.148366
-0.0536518
0.148631
-0.0715314
0.146888
-0.0891482
0.143072
-0.104576
0.137453
-0.116074
0.13062
-0.122775
0.123261
-0.124866
0.115908
-0.12331
0.108919
-0.119271
0.102319
-0.113516
0.0951468
-0.106782
0.0858941
-0.10082
0.0749566
-0.0970648
0.0662625
-0.0928088
0.0650055
-0.0804049
0.0732144
-0.0530791
0.0887556
-0.0117065
0.107091
0.0359415
0.124806
0.0798256
0.139789
0.114485
0.151094
0.139759
0.158585
0.161326
0.162843
0.186166
0.164776
0.211902
0.165134
0.221236
0.164224
0.193278
0.162484
0.120354
0.160913
0.0189886
0.159554
-0.0786795
0.157721
-0.147664
0.15483
-0.184601
0.151357
-0.196194
0.14687
-0.195418
0.139987
-0.190953
0.130797
-0.186736
0.123379
-0.17849
0.122621
-0.138951
0.130085
-0.0777539
0.14182
0.0175905
0.152108
0.101457
0.156962
0.194649
0.155384
0.268264
0.150787
0.299261
0.146576
0.27145
0.146147
0.130791
0.149984
0.0190977
0.152263
-0.120733
0.150192
-0.174753
0.145314
-0.246812
0.143238
-0.310847
0.142892
-0.185139
0.142181
-0.157546
0.140331
0.12392
0.233575
0.140567
0.00659927
0.146234
0.0014959
0.151864
-0.00612823
0.156291
-0.0149924
0.159733
-0.0258873
0.161859
-0.039112
0.162264
-0.0540572
0.160585
-0.0698521
0.156634
-0.0851973
0.150546
-0.0984877
0.14284
-0.108368
0.1343
-0.114235
0.125728
-0.116295
0.117687
-0.115268
0.110428
-0.112012
0.104029
-0.107117
0.0980423
-0.100795
0.0910179
-0.0937961
0.0817946
-0.0878415
0.0721276
-0.0831418
0.0669506
-0.0752279
0.0705917
-0.0567202
0.0830631
-0.0241778
0.100692
0.0183123
0.119208
0.0613099
0.135759
0.0979338
0.148912
0.126606
0.158411
0.151828
0.16486
0.179717
0.168936
0.207827
0.170821
0.219351
0.170308
0.193791
0.167822
0.122839
0.164633
0.0221778
0.161545
-0.075591
0.158149
-0.144268
0.153975
-0.180427
0.149581
-0.1918
0.144858
-0.190695
0.138446
-0.184542
0.129782
-0.178072
0.122338
-0.171046
0.121147
-0.13776
0.128407
-0.0850135
0.140528
0.00546974
0.151656
0.090329
0.157673
0.188632
0.157208
0.26873
0.153345
0.303123
0.149018
0.275777
0.147829
0.131979
0.151039
0.0158876
0.153162
-0.122855
0.151033
-0.172623
0.145704
-0.241483
0.143396
-0.308539
0.143135
-0.184877
0.142445
-0.156856
0.140642
0.125723
0.235409
0.160742
0.00216807
0.165472
-0.00323431
0.169381
-0.0100378
0.172244
-0.0178554
0.174016
-0.0276593
0.174282
-0.0393773
0.172618
-0.0523931
0.168746
-0.0659809
0.162639
-0.0790898
0.154621
-0.0904694
0.145373
-0.0991206
0.135748
-0.104609
0.126523
-0.10707
0.118214
-0.106959
0.110996
-0.104794
0.104852
-0.100973
0.0996338
-0.0955769
0.094503
-0.0886652
0.0878825
-0.081221
0.0794101
-0.0746694
0.0721147
-0.0679325
0.0711155
-0.055721
0.0791265
-0.0321889
0.094515
0.00292385
0.112829
0.0429957
0.130433
0.0803298
0.145229
0.111809
0.156695
0.140362
0.165334
0.171078
0.171558
0.201603
0.175008
0.2159
0.175011
0.193788
0.172018
0.125833
0.167584
0.026611
0.162929
-0.070936
0.158109
-0.139448
0.152807
-0.175126
0.147585
-0.186578
0.14264
-0.185749
0.136763
-0.178665
0.12878
-0.170089
0.121439
-0.163705
0.119751
-0.136073
0.126569
-0.0918318
0.138901
-0.00686233
0.150857
0.0783731
0.15815
0.18134
0.158955
0.267924
0.155962
0.306117
0.15158
0.280159
0.149638
0.133921
0.152114
0.0134116
0.154043
-0.124784
0.1519
-0.17048
0.146122
-0.235706
0.143542
-0.305958
0.14341
-0.184745
0.142785
-0.156232
0.141072
0.127436
0.237144
0.179967
-0.000333965
0.182345
-0.00561206
0.18396
-0.0116535
0.184629
-0.0185243
0.184179
-0.0272093
0.182179
-0.0373774
0.178286
-0.0485003
0.172365
-0.0600594
0.164531
-0.0712565
0.155227
-0.081165
0.145165
-0.0890584
0.135139
-0.0945834
0.125813
-0.0977449
0.117603
-0.0987492
0.110642
-0.0978318
0.104856
-0.0951877
0.100147
-0.0908684
0.0962209
-0.0847388
0.0919944
-0.0769944
0.0860901
-0.0687651
0.0791061
-0.0609484
0.0748922
-0.0515072
0.077912
-0.0352086
0.0893479
-0.00851208
0.105975
0.0263689
0.123772
0.0625324
0.139841
0.0957402
0.153162
0.127042
0.164003
0.160236
0.172441
0.193165
0.177509
0.210832
0.178121
0.193176
0.174902
0.129053
0.169535
0.0319776
0.163593
-0.0649939
0.157497
-0.133352
0.151232
-0.168861
0.145297
-0.180643
0.140133
-0.180584
0.134824
-0.173356
0.12765
-0.162915
0.12054
-0.156595
0.118339
-0.133871
0.124516
-0.0980089
0.13688
-0.0192266
0.14962
0.0656327
0.158286
0.172674
0.160518
0.265692
0.158519
0.308116
0.154177
0.284501
0.151508
0.13659
0.153183
0.0117367
0.154867
-0.126468
0.152761
-0.168375
0.146555
-0.229499
0.143666
-0.30307
0.143704
-0.184783
0.143185
-0.155712
0.141609
0.129013
0.23874
0.192673
-0.00104069
0.192872
-0.00581117
0.192166
-0.0109469
0.190656
-0.0170146
0.188092
-0.0246449
0.184087
-0.0333727
0.17844
-0.0428535
0.171133
-0.0527522
0.162363
-0.062486
0.152588
-0.0713907
0.142452
-0.0789219
0.132614
-0.0847451
0.123601
-0.0887319
0.115732
-0.090881
0.109126
-0.0912256
0.103738
-0.0897997
0.0994661
-0.0865965
0.0962331
-0.0815058
0.0936217
-0.0743829
0.0904312
-0.0655747
0.0856778
-0.0561951
0.0808212
-0.0466506
0.0799467
-0.0343341
0.0863483
-0.0149137
0.0995527
0.0131645
0.116152
0.045933
0.132766
0.0791265
0.14766
0.112148
0.160569
0.147327
0.171135
0.182599
0.177925
0.204042
0.179422
0.19168
0.176273
0.132201
0.170516
0.0377345
0.163511
-0.0579885
0.156256
-0.126097
0.149171
-0.161777
0.142663
-0.174135
0.137282
-0.175203
0.132535
-0.168609
0.126281
-0.156662
0.119528
-0.149841
0.116817
-0.13116
0.122188
-0.10338
0.134415
-0.0314533
0.14787
0.0521772
0.157966
0.162578
0.161743
0.261915
0.160881
0.308979
0.156705
0.288676
0.153415
0.13988
0.15419
0.0109618
0.155603
-0.127881
0.153585
-0.166357
0.146995
-0.222909
0.14377
-0.299846
0.144012
-0.185024
0.143627
-0.155328
0.142241
0.130399
0.240151
0.195213
-0.000769843
0.194006
-0.0046042
0.191856
-0.0087977
0.188998
-0.0141561
0.18514
-0.0207874
0.180035
-0.0282669
0.173601
-0.03642
0.165876
-0.0450273
0.157076
-0.0536859
0.147613
-0.0619275
0.13801
-0.0693192
0.128784
-0.0755187
0.120341
-0.0802889
0.112936
-0.0834765
0.106686
-0.084975
0.101605
-0.0847185
0.0976474
-0.0826394
0.0947886
-0.078647
0.092981
-0.0725753
0.0916888
-0.0642826
0.0896921
-0.0541983
0.0864943
-0.0434528
0.0841535
-0.0319934
0.0863965
-0.0171567
0.0949831
0.00457795
0.108662
0.0322538
0.124519
0.0632703
0.140368
0.0962983
0.155286
0.132409
0.168226
0.169658
0.176832
0.195436
0.179126
0.189387
0.176459
0.134868
0.170578
0.0436159
0.162915
-0.0503256
0.154614
-0.117797
0.146827
-0.15399
0.139876
-0.167184
0.134251
-0.169578
0.12996
-0.164319
0.124677
-0.151378
0.11839
-0.143554
0.115164
-0.127935
0.119568
-0.107784
0.131461
-0.0433461
0.145515
0.0381224
0.15712
0.150974
0.16258
0.256455
0.162947
0.308612
0.159064
0.292559
0.155308
0.143636
0.155138
0.0111316
0.156244
-0.128986
0.154351
-0.164464
0.14744
-0.215997
0.14387
-0.296276
0.144333
-0.185488
0.144097
-0.155091
0.14296
0.131537
0.241331
0.188206
-8.26504e-05
0.186391
-0.00278957
0.183978
-0.0063844
0.180878
-0.011056
0.176796
-0.0167056
0.171684
-0.0231555
0.16553
-0.0302652
0.158377
-0.0378751
0.150422
-0.0457301
0.141992
-0.0534975
0.133486
-0.060814
0.125295
-0.0673276
0.117733
-0.0727264
0.111013
-0.0767563
0.10525
-0.0792124
0.100491
-0.0799592
0.0967421
-0.0788908
0.0939943
-0.0758992
0.0923026
-0.0708836
0.0916621
-0.063642
0.0914313
-0.0539676
0.0904869
-0.0425084
0.0888883
-0.0303948
0.0888476
-0.0171159
0.0932473
0.000178246
0.102877
0.0226244
0.116179
0.0499679
0.131304
0.0811728
0.147062
0.116651
0.161834
0.154886
0.172353
0.184918
0.176349
0.18539
0.175149
0.136068
0.170202
0.0485631
0.161874
-0.0419971
0.152674
-0.108597
0.144395
-0.14571
0.137172
-0.159961
0.131272
-0.163678
0.127246
-0.160293
0.122888
-0.14702
0.117158
-0.137823
0.113415
-0.124192
0.116815
-0.111184
0.128161
-0.0546919
0.1426
0.0236837
0.155523
0.13805
0.162733
0.249245
0.164513
0.306832
0.161145
0.295926
0.157083
0.147698
0.156021
0.0121933
0.156766
-0.129731
0.155038
-0.162736
0.147883
-0.208842
0.143967
-0.29236
0.14466
-0.186181
0.144591
-0.155023
0.143756
0.132372
0.242231
0.209824
0.000564491
-0.210471
0.209974
-0.00294007
0.21005
-0.00646063
0.20979
-0.0107956
0.209044
-0.0159596
0.207684
-0.0217952
0.205602
-0.0281834
0.202697
-0.0349707
0.198922
-0.0419549
0.194305
-0.0488804
0.18894
-0.0554484
0.182958
-0.0613463
0.176511
-0.0662788
0.16975
-0.0699959
0.162825
-0.0722872
0.155871
-0.0730047
0.149011
-0.0720312
0.142338
-0.0692264
0.135934
-0.0644798
0.129966
-0.0576738
0.124431
-0.0484321
0.118694
-0.0367714
0.112045
-0.0237457
0.105207
-0.010278
0.100211
0.00517408
0.0988246
0.0240108
0.101455
0.047337
0.107123
0.0755053
0.114806
0.108968
0.123763
0.14593
0.134228
0.174453
0.148204
0.171414
0.165077
0.119195
0.178259
0.0353809
0.18401
-0.0477483
0.182386
-0.106973
0.176331
-0.139655
0.168109
-0.151739
0.159498
-0.155067
0.151955
-0.152749
0.144434
-0.139499
0.135629
-0.129019
0.127831
-0.116394
0.124927
-0.10828
0.128026
-0.0577914
0.133253
0.0184566
0.137666
0.133638
0.140317
0.246594
0.142875
0.304274
0.146265
0.292536
0.15007
0.143893
0.153814
0.00844902
0.156106
-0.132023
0.153808
-0.160438
0.146296
-0.20133
0.139611
-0.285676
0.136938
-0.183507
0.133508
-0.151593
0.130858
0.135021
0.242965
0.219714
0.000833533
-0.219983
0.219441
-0.0026672
0.2193
-0.00631972
0.218879
-0.0103744
0.217953
-0.0150336
0.216436
-0.0202782
0.214245
-0.0259924
0.211306
-0.0320313
0.207577
-0.0382262
0.203068
-0.0443717
0.197843
-0.0502228
0.19201
-0.0555134
0.18571
-0.0599794
0.179103
-0.0633882
0.172349
-0.0655332
0.165596
-0.0662522
0.158976
-0.0654108
0.152599
-0.0628495
0.146534
-0.0584152
0.140885
-0.0520244
0.1358
-0.0433479
0.13108
-0.0320506
0.125965
-0.0186312
0.119988
-0.00430051
0.114365
0.0107969
0.11097
0.0274055
0.111322
0.0469856
0.11566
0.071167
0.123288
0.10134
0.133242
0.135976
0.146034
0.161661
0.16294
0.154507
0.181163
0.100972
0.194281
0.0222629
0.198564
-0.0520319
0.195369
-0.103778
0.187994
-0.13228
0.178924
-0.142669
0.169651
-0.145794
0.16167
-0.144769
0.154177
-0.132006
0.145491
-0.120333
0.137199
-0.108102
0.133534
-0.104615
0.136178
-0.0604358
0.141617
0.0130183
0.146706
0.128548
0.150315
0.242985
0.154053
0.300536
0.15842
0.288169
0.162502
0.139811
0.165978
0.00497308
0.167666
-0.13371
0.164954
-0.157727
0.156435
-0.19281
0.148897
-0.278138
0.145904
-0.180514
0.14218
-0.147868
0.139385
0.137815
0.243616
0.228934
0.000834877
-0.228935
0.228708
-0.00244138
0.228384
-0.00599598
0.227798
-0.00978806
0.226767
-0.014003
0.22518
-0.0186913
0.222968
-0.0237801
0.220079
-0.0291418
0.21648
-0.0346273
0.212173
-0.0400647