/*--------------------------------*- C++ -*----------------------------------*\
| =========                 |                                                 |
| \\      /  F ield         | OpenFOAM: The Open Source CFD Toolbox           |
|  \\    /   O peration     | Version:  2512                                  |
|   \\  /    A nd           | Website:  www.openfoam.com                      |
|    \\/     M anipulation  |                                                 |
\*---------------------------------------------------------------------------*/
FoamFile
{
    version     2.0;
    format      ascii;
    arch        "LSB;label=32;scalar=64";
    class       volVectorField;
    location    "170";
    object      U;
}
// * * * * * * * * * * * * * * * * * * * * * * * * * * * * * * * * * * * * * //

dimensions      [0 1 -1 0 0 0 0];

internalField   nonuniform List<vector> 
13248
(
(-0.0133404 0.0113906 6.76712e-20)
(-0.0259143 0.0231116 0)
(-0.0254086 0.0281592 -1.27869e-19)
(-0.0116745 0.0294394 1.20455e-19)
(0.0154891 0.0288589 1.12362e-19)
(0.0562237 0.0276916 0)
(0.11054 0.0268173 0)
(0.178142 0.0268424 2.64658e-19)
(0.258247 0.0281521 -2.57873e-21)
(0.349436 0.0309357 -2.28875e-19)
(0.449592 0.0351854 2.10082e-19)
(0.555937 0.0406952 -1.30985e-19)
(0.665173 0.047074 0)
(0.773711 0.0537792 -2.24622e-19)
(0.877947 0.0601706 4.20421e-19)
(0.974541 0.0655781 -9.92481e-20)
(1.06067 0.0693791 -1.82362e-19)
(1.13426 0.0710425 1.71196e-19)
(1.19407 0.0702804 0)
(1.23982 0.0666616 0)
(1.27211 0.0610684 0)
(1.29229 0.0507312 0)
(1.3019 0.0437798 5.57133e-20)
(1.30418 0.0190415 2.08087e-19)
(-0.0140741 0.0109998 -2.04539e-19)
(-0.0229286 0.0206578 1.39646e-19)
(-0.0139817 0.0237742 -1.36179e-21)
(0.0120435 0.023475 -1.8439e-19)
(0.0548144 0.0219176 -1.12238e-19)
(0.113968 0.0206007 -1.06061e-19)
(0.188795 0.0205336 -1.92679e-19)
(0.277958 0.0223394 1.82811e-19)
(0.37927 0.0263075 0)
(0.489632 0.0324115 1.20421e-21)
(0.60515 0.040326 3.13499e-21)
(0.721424 0.0494657 1.32459e-19)
(0.833946 0.0590564 0)
(0.938535 0.068232 0)
(1.03171 0.0761437 1.55538e-19)
(1.111 0.0820635 -2.92181e-19)
(1.17509 0.0854654 1.77543e-19)
(1.22384 0.0860718 -1.66687e-19)
(1.25821 0.0838552 -7.46367e-20)
(1.28002 0.0790163 -1.38619e-19)
(1.29157 0.0719299 -5.93656e-20)
(1.2955 0.0628616 -1.12475e-19)
(1.29351 0.0536949 1.61823e-19)
(1.28976 0.0402527 4.70492e-20)
(-0.0134697 0.00972185 0)
(-0.0157789 0.0165769 0)
(0.00479723 0.0179913 6.52348e-20)
(0.0465585 0.017003 5.98704e-20)
(0.108371 0.015833 -1.79648e-21)
(0.188915 0.0160685 -1.10399e-19)
(0.286138 0.0186912 0)
(0.396931 0.024148 -9.06019e-20)
(0.517047 0.0323982 8.53127e-20)
(0.641315 0.0429592 1.28098e-21)
(0.764117 0.0549911 -1.43767e-19)
(0.880009 0.0674287 -1.31368e-19)
(0.984332 0.079145 2.39503e-21)
(1.07369 0.0891156 -1.0902e-19)
(1.1462 0.0965535 2.61004e-19)
(1.20157 0.100992 0)
(1.2409 0.102308 -1.72216e-19)
(1.26633 0.100671 8.32908e-20)
(1.28063 0.0965095 7.45779e-20)
(1.28668 0.0902546 0)
(1.28716 0.0827544 6.24914e-20)
(1.28405 0.0736752 -2.16968e-19)
(1.27869 0.0659747 2.0368e-19)
(1.27315 0.0535037 1.30644e-19)
(-0.0111455 0.00764154 -7.29737e-20)
(-0.00350393 0.0110911 -7.55772e-20)
(0.0321684 0.0111952 6.80233e-20)
(0.0930309 0.010614 0)
(0.176737 0.0114172 0)
(0.280368 0.0150666 -2.84434e-21)
(0.399761 0.0222512 0)
(0.529353 0.0329296 -2.79487e-19)
(0.662508 0.0464255 2.58991e-19)
(0.792224 0.0615807 -3.18294e-19)
(0.912033 0.0769769 7.22737e-20)
(1.01682 0.0911922 0)
(1.10339 0.103034 1.20453e-19)
(1.1706 0.1117 -2.23165e-19)
(1.21926 0.116843 5.29011e-20)
(1.25162 0.11854 1.37146e-19)
(1.2708 0.117191 -5.25049e-21)
(1.28021 0.113379 -1.53554e-19)
(1.28292 0.107726 0)
(1.28143 0.100821 0)
(1.27746 0.0931483 -5.60505e-20)
(1.27206 0.0848701 5.06189e-20)
(1.26576 0.0773704 1.84325e-19)
(1.25959 0.06671 -1.7304e-19)
(-0.0067543 0.00498312 -7.74711e-20)
(0.0147488 0.00481698 -7.69819e-20)
(0.069147 0.00436333 2.16319e-19)
(0.152157 0.00561746 -1.30794e-19)
(0.259613 0.0102196 1.23111e-19)
(0.3862 0.0191786 2.22581e-19)
(0.52491 0.0325021 -1.57453e-19)
(0.667418 0.0492842 -1.90908e-19)
(0.805079 0.0679651 4.35409e-21)
(0.930186 0.0866843 2.4227e-19)
(1.03705 0.103663 0)
(1.12263 0.117522 6.66347e-20)
(1.18653 0.127461 0)
(1.23059 0.133287 -1.08298e-19)
(1.2581 0.135306 1.52134e-19)
(1.27298 0.134142 1.24146e-21)
(1.279 0.130543 -4.02469e-20)
(1.27933 0.125219 7.55002e-20)
(1.27631 0.118763 6.55062e-20)
(1.27143 0.111597 -5.90438e-20)
(1.26559 0.10406 5.6039e-20)
(1.25921 0.096203 -5.06079e-20)
(1.25251 0.0889121 0)
(1.24606 0.0793846 -3.86172e-20)
(3.10383e-05 0.00206327 7.74599e-20)
(0.0396798 -0.00133413 8.15925e-20)
(0.116358 -0.00107794 -7.25588e-20)
(0.223852 0.0038147 1.35185e-19)
(0.355393 0.0141595 -1.27236e-19)
(0.502478 0.0300513 1.14661e-19)
(0.654907 0.0503626 -5.52564e-20)
(0.802049 0.0730336 1.43432e-19)
(0.934572 0.0956249 -9.0442e-20)
(1.0459 0.115884 1.59383e-19)
(1.13294 0.132176 -3.67637e-19)
(1.1959 0.143683 1.35276e-19)
(1.23756 0.150374 -1.17769e-19)
(1.26213 0.152795 1.10622e-19)
(1.2742 0.151804 9.56193e-20)
(1.27792 0.148314 8.41141e-20)
(1.27653 0.143131 -2.34423e-19)
(1.2723 0.136869 1.45542e-19)
(1.26665 0.129954 -6.55104e-20)
(1.26035 0.122669 1.71867e-19)
(1.25379 0.115189 -5.55061e-20)
(1.24714 0.107614 -1.36199e-19)
(1.24043 0.100371 1.25917e-19)
(1.23388 0.0916635 3.86062e-20)
(0.00950945 -0.000737072 0)
(0.0717365 -0.0062646 8.37034e-22)
(0.173803 -0.00348082 1.52849e-19)
(0.306912 0.00711809 -1.43213e-19)
(0.460876 0.0249827 -1.28797e-19)
(0.623548 0.0487549 2.39177e-19)
(0.781963 0.0758198 -1.10979e-19)
(0.924612 0.102975 1.47206e-19)
(1.04348 0.127291 -3.406e-21)
(1.13498 0.146727 -8.3284e-20)
(1.19968 0.160367 1.80646e-19)
(1.24115 0.168311 -2.66866e-19)
(1.26447 0.171356 0)
(1.27491 0.170608 -5.23403e-20)
(1.27704 0.16718 -1.39598e-19)
(1.2743 0.161995 4.39468e-20)
(1.26902 0.155731 1.66862e-21)
(1.26257 0.148835 -9.68957e-20)
(1.2557 0.14159 5.75648e-21)
(1.24877 0.134166 1.12258e-19)
(1.24189 0.126672 -5.04244e-20)
(1.23511 0.119192 -1.9276e-20)
(1.22836 0.111877 5.9044e-20)
(1.22173 0.103766 0)
(0.0219037 -0.00298029 0)
(0.110977 -0.00877779 4.15396e-20)
(0.240655 -0.00119213 -2.00361e-19)
(0.398858 0.0171942 7.27347e-20)
(0.571411 0.0438238 -6.84536e-20)
(0.742794 0.0754285 -6.25857e-20)
(0.898681 0.107874 -1.10036e-19)
(1.02879 0.137253 5.52044e-20)
(1.12838 0.160841 4.76139e-20)
(1.19793 0.177448 0)
(1.2416 0.187236 1.07834e-19)
(1.26534 0.191243 -1.60549e-19)
(1.27522 0.19087 1.19278e-19)
(1.27637 0.187474 5.23686e-20)
(1.27258 0.182157 -4.30035e-20)
(1.26633 0.1757 -3.59011e-20)
(1.25908 0.168605 -3.35591e-20)
(1.25158 0.161174 1.00394e-19)
(1.24417 0.153583 0)
(1.23697 0.145936 5.06518e-20)
(1.22999 0.138305 4.28133e-20)
(1.22319 0.130752 -1.06138e-19)
(1.21651 0.123287 -7.30969e-20)
(1.20991 0.11557 6.74108e-20)
(0.0372926 -0.0041799 -4.5354e-20)
(0.156936 -0.00766288 -1.94439e-21)
(0.315159 0.00725521 4.08939e-20)
(0.496059 0.0351965 1.14501e-19)
(0.681515 0.0709915 3.32344e-20)
(0.85385 0.109306 -6.42992e-20)
(0.999523 0.144914 5.85233e-20)
(1.11159 0.173981 -5.10295e-20)
(1.18975 0.194722 9.144e-20)
(1.23846 0.207203 3.86826e-20)
(1.26453 0.212685 -1.1014e-19)
(1.27499 0.212911 3.22742e-20)
(1.27576 0.20957 5.50208e-20)
(1.27119 0.204013 -2.7081e-20)
(1.26405 0.197187 0)
(1.25596 0.189684 4.02272e-20)
(1.24774 0.181851 6.80326e-20)
(1.23974 0.173878 1.16101e-20)
(1.23209 0.165874 -5.67207e-20)
(1.22479 0.157907 2.36982e-20)
(1.2178 0.150028 0)
(1.21104 0.142266 -1.86436e-20)
(1.20444 0.13459 -1.78074e-20)
(1.1979 0.127068 0)
(0.0555456 -0.00382299 0)
(0.208545 -0.00179358 2.38204e-20)
(0.394684 0.0229778 4.40889e-20)
(0.594134 0.0616179 -1.17172e-19)
(0.78573 0.105992 3.79956e-20)
(0.951683 0.14902 0)
(1.08151 0.185214 5.66039e-20)
(1.17301 0.21168 -7.90365e-20)
(1.2304 0.228081 -4.5764e-20)
(1.26127 0.235816 2.05628e-20)
(1.27378 0.237025 -3.29022e-20)
(1.27495 0.233834 7.98821e-20)
(1.26991 0.227955 3.97579e-20)
(1.26198 0.22058 -2.77358e-20)
(1.25303 0.212449 -2.69389e-21)
(1.24402 0.203979 -7.53202e-20)
(1.23534 0.195394 3.42672e-20)
(1.22713 0.186814 -9.05331e-22)
(1.21941 0.178307 0)
(1.21213 0.169919 -2.37232e-20)
(1.20522 0.161682 0)
(1.19857 0.153597 5.36102e-20)
(1.19212 0.145665 -6.37403e-20)
(1.18571 0.138152 2.90526e-20)
(0.0762766 -0.00140773 -1.25497e-20)
(0.264122 0.00976672 -6.02623e-20)
(0.475924 0.0466205 6.86913e-20)
(0.688494 0.0962653 4.0234e-20)
(0.87939 0.147715 -1.91886e-20)
(1.0331 0.192957 3.21572e-20)
(1.14395 0.227266 -1.56116e-20)
(1.2149 0.249372 2.5835e-20)
(1.25396 0.26058 0)
(1.27061 0.263439 5.81503e-20)
(1.27329 0.260646 -2.51968e-21)
(1.2683 0.254423 -4.6713e-20)
(1.25974 0.246332 1.99094e-20)
(1.24993 0.237337 -2.23681e-20)
(1.24006 0.227977 -8.42838e-21)
(1.23063 0.218531 9.83088e-21)
(1.22178 0.209139 -7.52807e-21)
(1.21356 0.199873 -4.0838e-20)
(1.2059 0.190777 2.50024e-20)
(1.19874 0.181882 5.0895e-21)
(1.19197 0.173199 4.4737e-21)
(1.18551 0.164716 3.93471e-21)
(1.17924 0.156497 0)
(1.17301 0.148801 0)
(0.0989061 0.0035218 1.25583e-20)
(0.321603 0.0276814 -1.25421e-20)
(0.55538 0.0782884 -2.29163e-20)
(0.775024 0.138331 0)
(0.959158 0.194681 -9.54633e-21)
(1.09669 0.239554 -8.61351e-21)
(1.18766 0.26992 -1.46549e-20)
(1.23972 0.286512 0)
(1.26361 0.292181 0)
(1.26954 0.290317 0)
(1.26544 0.283857 0)
(1.25658 0.274914 0)
(1.24601 0.264809 -1.25012e-20)
(1.23526 0.254274 5.68779e-21)
(1.22501 0.243681 9.8364e-21)
(1.21548 0.233204 4.59518e-21)
(1.20668 0.222926 1.13075e-20)
(1.19859 0.21289 0)
(1.19113 0.203121 -2.6859e-21)
(1.1842 0.193639 -2.57595e-21)
(1.1777 0.184435 -4.48085e-21)
(1.17153 0.1755 -3.94102e-21)
(1.16555 0.166968 0)
(1.15961 0.158929 2.79861e-21)
(-0.00162859 -0.0014032 8.69643e-21)
(-0.00821698 0.00797579 -9.02216e-21)
(-0.0198722 0.0245511 -1.70683e-20)
(-0.0340186 0.044607 0)
(-0.0493067 0.0656037 -2.28644e-20)
(-0.0650713 0.0861823 7.23185e-21)
(-0.0808161 0.105928 -1.34591e-20)
(-0.0961336 0.125032 0)
(-0.110689 0.143962 0)
(-0.124198 0.163202 0)
(-0.136413 0.18309 0)
(-0.147114 0.203756 0)
(-0.156087 0.22512 1.61656e-22)
(-0.163121 0.246914 -8.91138e-21)
(-0.167998 0.26871 1.65332e-20)
(-0.170486 0.289937 2.35113e-20)
(-0.170347 0.309896 7.28654e-21)
(-0.167346 0.327772 0)
(-0.161267 0.342658 6.68095e-21)
(-0.151937 0.353599 -1.88444e-20)
(-0.139231 0.359661 -1.1995e-20)
(-0.123033 0.359994 -1.14771e-20)
(-0.103289 0.353874 0)
(-0.0804965 0.341091 0)
(-0.00160888 0.00303617 -2.59662e-20)
(-0.00797743 0.0180678 4.48642e-20)
(-0.0185684 0.0382573 -1.66553e-20)
(-0.0311496 0.0606373 -3.18373e-20)
(-0.0445117 0.0830779 4.51465e-20)
(-0.0580342 0.104426 -2.82098e-20)
(-0.0712596 0.12436 3.99873e-20)
(-0.0838054 0.143113 2.46422e-20)
(-0.0953371 0.161182 0)
(-0.105547 0.17908 -2.23415e-20)
(-0.114145 0.197179 -1.00472e-23)
(-0.120855 0.215638 1.97497e-20)
(-0.125413 0.234393 2.73561e-20)
(-0.127558 0.253178 3.4546e-20)
(-0.127033 0.271562 -1.63621e-20)
(-0.123579 0.288971 -4.61714e-20)
(-0.11695 0.304713 1.44905e-20)
(-0.106917 0.318005 -5.46932e-20)
(-0.093288 0.327991 0)
(-0.075924 0.333792 1.25514e-20)
(-0.0547607 0.334574 1.19741e-20)
(-0.0298038 0.32963 1.14566e-20)
(-0.0009069 0.318532 0)
(0.0317879 0.301625 0)
(-0.00192537 0.00622396 0)
(-0.0083883 0.0253127 8.77022e-20)
(-0.0178935 0.0481196 -3.31179e-20)
(-0.0286362 0.0721948 3.14352e-20)
(-0.0395843 0.0957011 -8.78567e-20)
(-0.0501796 0.117609 0)
(-0.0600206 0.137618 -5.17522e-20)
(-0.0687738 0.155939 2.40591e-20)
(-0.0761334 0.173043 -4.50791e-20)
(-0.0817972 0.189444 2.05595e-20)
(-0.0854609 0.205536 1.20033e-19)
(-0.0868208 0.221515 -5.63603e-20)
(-0.0855818 0.237359 -8.91142e-20)
(-0.0814596 0.252841 -3.32e-20)
(-0.0741844 0.267564 -3.85332e-22)
(-0.0635062 0.280992 1.1947e-19)
(-0.0491939 0.292486 -5.63409e-20)
(-0.0310686 0.301324 5.68688e-22)
(-0.00901442 0.306739 0)
(0.0170253 0.307955 -4.91587e-20)
(0.0470057 0.304237 0)
(0.0807739 0.294964 -4.796e-20)
(0.118455 0.279826 1.79421e-19)
(0.161035 0.259201 3.31201e-21)
(-0.00241016 0.00811346 0)
(-0.00921983 0.0295443 -4.46815e-22)
(-0.0178207 0.0538053 3.2409e-20)
(-0.0267743 0.078754 -3.03582e-20)
(-0.0351975 0.10275 2.92481e-20)
(-0.0425856 0.124834 1.61768e-19)
(-0.0485964 0.144678 -5.07898e-20)
(-0.0529608 0.16242 -4.7001e-20)
(-0.0554305 0.178463 8.903e-20)
(-0.0557471 0.193279 -1.25509e-19)
(-0.0536351 0.207262 3.86402e-20)
(-0.0488008 0.220643 3.6169e-20)
(-0.0409574 0.233452 0)
(-0.0298344 0.245525 3.29221e-20)
(-0.0151774 0.256538 0)
(0.00323102 0.266034 5.72036e-20)
(0.0255644 0.273458 -1.11287e-19)
(0.0519348 0.278186 2.46121e-20)
(0.0823801 0.279567 9.99784e-20)
(0.11686 0.276954 4.90969e-20)
(0.155243 0.269736 0)
(0.197321 0.257365 -1.39067e-19)
(0.242442 0.239606 4.33348e-20)
(0.295254 0.216171 0)
(-0.00293759 0.00889306 0)
(-0.0102955 0.031072 -1.0272e-19)
(-0.0183397 0.0555515 -3.19917e-20)
(-0.0258332 0.0803738 -6.03567e-20)
(-0.0319693 0.104056 5.68303e-20)
(-0.03627 0.125693 -5.35876e-20)
(-0.0384427 0.144919 9.91306e-20)
(-0.0382863 0.161782 4.64477e-20)
(-0.0356297 0.176585 -1.31125e-19)
(-0.0302918 0.18973 8.11212e-20)
(-0.0220663 0.201578 -1.14659e-19)
(-0.0107258 0.212372 2.48074e-19)
(0.00396437 0.222188 -1.33882e-19)
(0.0222277 0.230939 6.20396e-20)
(0.0442638 0.238388 1.77967e-19)
(0.0702315 0.244175 -5.58893e-20)
(0.100238 0.247857 -5.10834e-20)
(0.134327 0.248927 -5.10716e-20)
(0.172472 0.24686 0)
(0.214586 0.241131 -9.64596e-20)
(0.260428 0.231251 -9.66577e-20)
(0.310353 0.216706 1.3165e-19)
(0.361326 0.197462 1.78464e-19)
(0.425214 0.171892 -1.66247e-19)
(-0.00347147 0.00892272 0)
(-0.0115661 0.0305731 -1.34926e-19)
(-0.0194975 0.0540833 6.7416e-22)
(-0.0260255 0.0776733 1.1964e-19)
(-0.0303442 0.100039 0)
(-0.0319736 0.120363 0)
(-0.0306525 0.13827 0)
(-0.0262432 0.15373 -4.5623e-20)
(-0.018658 0.166949 6.35674e-22)
(-0.00781039 0.178236 7.96154e-20)
(0.00640755 0.187899 -1.12227e-19)
(0.0241283 0.196168 2.62897e-22)
(0.0454994 0.20315 0)
(0.070668 0.208819 -6.2008e-20)
(0.0997657 0.213024 5.72069e-20)
(0.132895 0.21551 -1.62377e-19)
(0.170121 0.215942 2.08649e-19)
(0.211468 0.21393 5.20824e-20)
(0.256911 0.209059 4.88571e-21)
(0.306468 0.200913 -1.8156e-19)
(0.359572 0.18907 -8.77893e-20)
(0.418279 0.17309 3.05764e-19)
(0.47487 0.15325 -2.05817e-19)
(0.552887 0.126047 0)
(-0.00408236 0.00863858 6.49349e-20)
(-0.0131253 0.028932 6.73504e-20)
(-0.0213759 0.0504623 -6.27842e-20)
(-0.0274317 0.0717349 -1.1775e-19)
(-0.0304278 0.0917068 1.10867e-19)
(-0.0298717 0.109712 -1.02638e-19)
(-0.0255229 0.125418 1.4428e-19)
(-0.017293 0.138763 -4.5404e-20)
(-0.0051648 0.149876 8.3693e-20)
(0.010863 0.158987 0)
(0.030808 0.166343 7.08774e-20)
(0.0547166 0.172145 -1.33581e-19)
(0.0826626 0.176513 1.26212e-19)
(0.114739 0.179462 -1.18534e-19)
(0.151051 0.180911 0)
(0.191701 0.180691 1.05841e-19)
(0.236784 0.178561 2.01455e-19)
(0.286389 0.174227 -1.9053e-19)
(0.340545 0.167354 -9.10634e-20)
(0.399589 0.157655 -9.32197e-20)
(0.462178 0.14462 2.57672e-19)
(0.533169 0.128141 8.5334e-20)
(0.597055 0.108335 -7.70436e-20)
(0.694015 0.0810196 7.68571e-20)
(-0.00491188 0.00844675 -6.49439e-20)
(-0.015144 0.0270335 1.99467e-19)
(-0.0239932 0.0458545 -6.25545e-20)
(-0.0298394 0.0639051 1.16716e-19)
(-0.0317481 0.0805184 -1.09893e-19)
(-0.0292218 0.0952558 1.5311e-22)
(-0.0220323 0.107894 4.76455e-20)
(-0.0101144 0.118396 1.73839e-19)
(0.00651759 0.126861 -1.98914e-21)
(0.0278307 0.133466 -7.74786e-20)
(0.0538118 0.138414 0)
(0.0844882 0.141878 -6.46656e-20)
(0.119933 0.143976 1.23328e-19)
(0.160258 0.144751 1.15509e-19)
(0.205608 0.144164 -5.47148e-20)
(0.25614 0.142103 -1.27512e-21)
(0.311996 0.13839 -4.95827e-20)
(0.373294 0.132802 9.24247e-20)
(0.439922 0.125022 9.10559e-20)
(0.512331 0.114958 -8.78162e-20)
(0.587821 0.101776 8.25132e-20)
(0.67376 0.0863516 -7.9591e-20)
(0.746242 0.0672429 0)
(0.861084 0.0431969 -7.6836e-20)
(-0.00610866 0.00862958 6.44563e-20)
(-0.0177278 0.0255452 -6.64988e-20)
(-0.0271279 0.0412719 6.2301e-20)
(-0.0325389 0.0555272 0)
(-0.0330002 0.0681338 0)
(-0.0280251 0.078953 9.98849e-20)
(-0.0173784 0.0879364 -9.45448e-20)
(-0.000968736 0.0951293 8.52989e-20)
(0.0212293 0.100653 -4.03123e-19)
(0.0492338 0.104675 7.93807e-22)
(0.0830899 0.107376 6.90788e-20)
(0.122883 0.108914 0)
(0.168735 0.109403 -1.20476e-19)
(0.220776 0.108888 2.263e-19)
(0.279109 0.107349 -1.60014e-19)
(0.343763 0.104687 -2.53433e-19)
(0.414625 0.100746 -2.89701e-21)
(0.491423 0.0953319 1.79463e-19)
(0.573439 0.0881262 0)
(0.660465 0.0792262 0)
(0.748661 0.0674475 -8.2515e-20)
(0.844764 0.0549006 7.95921e-20)
(0.922853 0.0374449 -3.04335e-19)
(1.04021 0.0198776 2.85021e-19)
(-0.00774302 0.00925843 0)
(-0.0207502 0.0247485 0)
(-0.0301358 0.0373427 -1.86508e-19)
(-0.034166 0.0476546 5.94201e-20)
(-0.0319252 0.0560756 1.28117e-21)
(-0.0229468 0.0628217 1.01391e-19)
(-0.00695454 0.0680712 0)
(0.016227 0.072001 -8.65259e-20)
(0.0467276 0.0747994 8.03897e-20)
(0.084663 0.0766611 -1.46981e-19)
(0.130139 0.0777692 6.19355e-22)
(0.183227 0.0782723 1.27473e-19)
(0.243922 0.0782642 -5.48833e-22)
(0.312079 0.0777687 1.1188e-19)
(0.387352 0.0767309 -1.57638e-19)
(0.469126 0.0750199 0)
(0.556473 0.072439 1.90244e-19)
(0.648138 0.0687487 -2.69276e-19)
(0.742416 0.0636299 8.51117e-20)
(0.837733 0.0570564 0)
(0.930373 0.0480099 7.74186e-20)
(1.02285 0.0385967 3.04568e-19)
(1.09719 0.023525 -2.8583e-19)
(1.19246 0.0121154 -3.39634e-19)
(-0.00971505 0.0101668 1.94065e-19)
(-0.023727 0.0244724 -2.66799e-19)
(-0.0318866 0.0341717 8.35867e-22)
(-0.032753 0.0408188 5.91139e-20)
(-0.0255372 0.0453889 -1.09326e-19)
(-0.00979878 0.0484795 -1.00983e-19)
(0.0147897 0.0505232 1.85714e-19)
(0.0484856 0.051856 -3.13832e-21)
(0.0914724 0.0527592 -1.61518e-19)
(0.14383 0.0534697 2.95821e-19)
(0.205477 0.0541731 -1.82891e-21)
(0.276104 0.0549869 -1.28456e-19)
(0.355093 0.0559436 0)
(0.441464 0.056979 0)
(0.533843 0.0579288 -5.25134e-20)
(0.630463 0.0585348 -9.86835e-20)
(0.729216 0.0584736 -1.88056e-19)
(0.827716 0.0573439 1.76515e-19)
(0.92343 0.0548369 -8.51505e-20)
(1.01382 0.0504536 1.60955e-19)
(1.09622 0.0441076 -7.58642e-20)
(1.16969 0.0359047 1.45994e-19)
(1.22741 0.0235342 -3.37228e-19)
(1.28496 0.0142612 6.61905e-20)
(-0.0117261 0.0110075 6.52463e-20)
(-0.0258097 0.0241645 0)
(-0.0308723 0.0313559 1.26008e-19)
(-0.0260206 0.0349486 -1.18706e-19)
(-0.0106915 0.0364435 1.09426e-19)
(0.0154864 0.0368078 0)
(0.0528097 0.0367157 0)
(0.101452 0.0366586 -8.61688e-20)
(0.161376 0.0370002 2.56483e-21)
(0.232222 0.0379929 7.61136e-20)
(0.313202 0.0397766 -6.87237e-20)
(0.403032 0.0423664 1.29371e-19)
(0.4999 0.0456422 0)
(0.601512 0.0493496 2.23781e-19)
(0.705184 0.0531136 -4.20034e-19)
(0.807992 0.0564662 2.9583e-19)
(0.906947 0.0589022 1.85658e-19)
(0.999176 0.0598668 -1.74275e-19)
(1.08216 0.0590394 0)
(1.15379 0.055635 0)
(1.21282 0.0505089 0)
(1.25862 0.0412099 0)
(1.29116 0.031817 6.58053e-20)
(1.31483 0.0184589 -2.36868e-19)
(-0.0520034 0.319347 -7.65811e-21)
(-0.0148924 0.279634 7.70702e-21)
(0.026469 0.223851 -2.53341e-22)
(0.0717835 0.152724 0)
(0.119796 0.0672179 -7.69948e-21)
(0.169221 -0.0303362 1.4883e-20)
(0.219485 -0.137016 -2.45709e-22)
(0.269625 -0.248119 -6.75229e-21)
(0.318638 -0.356906 0)
(0.36507 -0.454512 0)
(0.40658 -0.532024 -2.7953e-22)
(0.440371 -0.583301 -2.28136e-22)
(0.464035 -0.607422 -2.85533e-21)
(0.475219 -0.610101 2.59676e-21)
(0.470473 -0.603145 0)
(0.447998 -0.597422 0)
(0.414546 -0.590241 1.78007e-21)
(0.387462 -0.560232 1.56418e-22)
(0.386016 -0.479935 -1.72143e-21)
(0.417646 -0.337867 -1.2221e-22)
(0.47485 -0.148083 0)
(0.544394 0.0578739 0)
(0.614421 0.243816 0)
(0.675755 0.381322 0)
(0.722208 0.463023 0)
(0.751465 0.498342 0)
(0.767134 0.502407 2.92349e-22)
(0.772001 0.493875 -4.714e-22)
(0.761173 0.495725 0)
(0.730066 0.513663 0)
(0.689433 0.514881 -4.62875e-22)
(0.662787 0.447138 4.49874e-22)
(0.667074 0.286589 3.0035e-22)
(0.698402 0.0704161 0)
(0.744247 -0.14089 0)
(0.786232 -0.293789 4.07509e-22)
(0.820195 -0.379618 -3.9611e-22)
(0.841383 -0.409565 0)
(0.845585 -0.423658 2.15163e-22)
(0.820935 -0.439768 -3.06716e-22)
(0.773969 -0.44074 9.52923e-23)
(0.727936 -0.388736 0)
(0.711623 -0.246152 -2.54769e-22)
(0.724483 -0.0689129 2.47736e-22)
(0.765661 0.119769 0)
(0.806077 0.234585 0)
(0.83293 0.323763 -7.16521e-23)
(0.81889 0.373383 1.99074e-22)
(0.783233 0.388083 0)
(0.750299 0.351929 0)
(0.75721 0.185182 -6.37766e-23)
(0.78107 0.0592426 -8.30908e-24)
(0.822967 -0.137574 -6.32905e-24)
(0.818793 -0.230389 4.45618e-23)
(0.809565 -0.324929 0)
(0.792271 -0.375861 0)
(0.799292 -0.212575 0)
(0.793808 -0.177235 0)
(0.805823 0.121714 0)
(0.785867 0.231156 0)
(0.0698389 0.277343 -7.65408e-22)
(0.112946 0.235051 -3.38503e-20)
(0.158667 0.177175 -8.51938e-22)
(0.206985 0.104683 3.25541e-20)
(0.256512 0.0187852 5.2872e-22)
(0.306115 -0.0784279 0)
(0.355125 -0.184388 -2.94852e-20)
(0.402803 -0.294534 5.64843e-20)
(0.447915 -0.401501 -2.69879e-20)
(0.488226 -0.495575 2.056e-20)
(0.520709 -0.567023 -1.9704e-20)
(0.542623 -0.609744 1.34144e-20)
(0.552717 -0.623475 -1.30922e-20)
(0.551136 -0.613808 -2.97299e-22)
(0.536869 -0.592221 -7.3985e-21)
(0.506754 -0.572937 7.19069e-21)
(0.461718 -0.560982 -6.28756e-21)
(0.414085 -0.540763 5.93285e-21)
(0.384681 -0.481956 -7.09118e-21)
(0.389202 -0.362839 1.43964e-20)
(0.427457 -0.189105 -7.28013e-21)
(0.488157 0.00958656 -4.27777e-22)
(0.557564 0.196618 -6.33251e-21)
(0.623952 0.342121 1.13733e-20)
(0.67898 0.435437 -5.07232e-21)
(0.718779 0.481819 2.18603e-22)
(0.745285 0.494638 3.13979e-21)
(0.758826 0.494557 4.35844e-23)
(0.753713 0.505761 -5.84146e-21)
(0.728104 0.530468 6.31778e-21)
(0.696042 0.530711 -3.291e-21)
(0.680317 0.454084 5.59543e-22)
(0.694285 0.281712 -3.00964e-22)
(0.731333 0.0562861 6.74589e-22)
(0.778528 -0.158569 0)
(0.816941 -0.309403 0)
(0.843798 -0.390326 -1.32104e-21)
(0.85655 -0.413951 1.00018e-21)
(0.855159 -0.419458 6.19336e-22)
(0.827313 -0.426738 3.70229e-23)
(0.777005 -0.4241 -8.32391e-22)
(0.725678 -0.377296 1.87105e-22)
(0.703181 -0.245451 0)
(0.714291 -0.078589 0)
(0.755645 0.105626 0)
(0.799384 0.223283 0)
(0.826912 0.321223 2.78766e-22)
(0.81479 0.37968 -1.29515e-22)
(0.781003 0.396993 0)
(0.750213 0.356083 0)
(0.760417 0.181656 0)
(0.784514 0.0515395 -1.30915e-22)
(0.830531 -0.141818 2.3421e-24)
(0.825654 -0.229187 -9.4587e-23)
(0.81631 -0.321727 0)
(0.797289 -0.374633 0)
(0.800978 -0.213022 4.24118e-23)
(0.794303 -0.177541 1.05751e-22)
(0.801876 0.122857 0)
(0.783297 0.232473 0)
(0.203533 0.233385 3.95399e-21)
(0.249984 0.190242 -6.72652e-20)
(0.297639 0.132661 7.20553e-20)
(0.347052 0.0613792 -6.7362e-20)
(0.396999 -0.0225572 -5.32233e-22)
(0.446287 -0.117424 0)
(0.494058 -0.221077 -6.33025e-20)
(0.539503 -0.328754 6.19923e-20)
(0.580689 -0.432594 4.09023e-22)
(0.614414 -0.522156 7.23657e-22)
(0.637133 -0.587219 6.01283e-22)
(0.646524 -0.621998 4.76723e-22)
(0.642466 -0.627436 -2.1996e-20)
(0.626973 -0.609611 2.16772e-20)
(0.602107 -0.578132 0)
(0.56605 -0.54664 3.76667e-22)
(0.515368 -0.526046 -1.08878e-20)
(0.455068 -0.509885 1.07599e-20)
(0.403028 -0.470517 0)
(0.380495 -0.378057 0)
(0.396296 -0.22656 -1.30139e-20)
(0.443775 -0.0398824 2.52808e-20)
(0.508915 0.144732 -2.26604e-20)
(0.577606 0.296585 1.71261e-21)
(0.639329 0.401073 1.60467e-20)
(0.688724 0.458984 -1.37866e-20)
(0.725467 0.481851 1.15592e-20)
(0.747358 0.491601 -2.0734e-22)
(0.748438 0.512603 -5.56708e-21)
(0.729484 0.543749 0)
(0.706846 0.543409 0)
(0.701943 0.459635 3.9272e-21)
(0.725215 0.277992 -4.93546e-21)
(0.76746 0.0456332 3.59854e-23)
(0.815258 -0.1718 4.64773e-21)
(0.849691 -0.320466 -4.51647e-21)
(0.869297 -0.397099 0)
(0.873493 -0.415707 2.8504e-22)
(0.866436 -0.41394 1.86465e-21)
(0.835953 -0.413085 -3.36489e-21)
(0.783292 -0.40691 1.37603e-21)
(0.727442 -0.365603 1.4071e-22)
(0.698848 -0.245236 -1.92685e-21)
(0.70782 -0.0895883 1.52573e-21)
(0.748591 0.0898969 3.28131e-22)
(0.794915 0.210766 2.87597e-22)
(0.82281 0.317765 -2.79484e-22)
(0.812778 0.38533 0)
(0.781256 0.405453 0)
(0.752826 0.360375 -1.23061e-21)
(0.766174 0.178566 6.00935e-22)
(0.790028 0.0440092 -6.21528e-22)
(0.839723 -0.145869 7.91391e-22)
(0.834051 -0.227678 7.8885e-22)
(0.824183 -0.317966 -1.74097e-22)
(0.803024 -0.373134 2.3285e-22)
(0.803581 -0.213173 -1.68145e-22)
(0.795918 -0.177512 4.66236e-23)
(0.799094 0.124067 0)
(0.781749 0.233734 0)
(0.338194 0.190029 -1.39123e-19)
(0.385702 0.147051 -5.5442e-21)
(0.434058 0.0909312 1.3779e-19)
(0.483918 0.0219512 -1.11432e-21)
(0.534115 -0.0580207 0)
(0.583465 -0.149361 0)
(0.630751 -0.249712 -1.29334e-19)
(0.674692 -0.353876 6.79359e-21)
(0.712234 -0.453443 1.66033e-19)
(0.739086 -0.537406 -7.13674e-21)
(0.75142 -0.595478 -4.30129e-20)
(0.747812 -0.622525 -2.72951e-20)
(0.729717 -0.620757 2.74711e-20)
(0.700564 -0.597396 0)
(0.66457 -0.560651 -1.33735e-20)
(0.622948 -0.520676 1.22632e-20)
(0.571106 -0.489772 0)
(0.506464 -0.470852 0)
(0.439566 -0.445077 8.93279e-21)
(0.392666 -0.379927 8.19267e-22)
(0.383738 -0.256474 -8.88236e-21)
(0.413554 -0.0881052 -1.00965e-20)
(0.470077 0.0900993 9.97626e-21)
(0.537798 0.245951 -7.86859e-21)
(0.603972 0.36051 1.21334e-21)
(0.661577 0.430022 6.20857e-21)
(0.707551 0.463889 6.52504e-22)
(0.737298 0.484327 2.70867e-23)
(0.744949 0.515102 0)
(0.733478 0.552392 7.24957e-21)
(0.720684 0.552349 -7.53198e-21)
(0.726388 0.46405 5.94422e-22)
(0.758665 0.276349 0)
(0.805581 0.0386348 -7.18894e-22)
(0.853495 -0.180746 9.73211e-21)
(0.883969 -0.327496 -1.59569e-20)
(0.896455 -0.400378 9.47551e-22)
(0.89213 -0.415121 1.30188e-21)
(0.879207 -0.407529 3.60255e-21)
(0.846439 -0.39929 3.56373e-22)
(0.792451 -0.389299 -2.47585e-21)
(0.733131 -0.353277 2.07594e-21)
(0.698666 -0.245042 5.35749e-23)
(0.705016 -0.101574 1.2963e-21)
(0.744347 0.0728435 -1.58961e-21)
(0.792532 0.197106 -1.85793e-21)
(0.820583 0.313271 5.50721e-22)
(0.812848 0.390148 1.04876e-21)
(0.784037 0.413352 -2.20886e-21)
(0.758227 0.364878 1.77078e-21)
(0.774537 0.176142 -6.40251e-22)
(0.797623 0.0368307 7.1158e-22)
(0.850452 -0.14972 6.48466e-22)
(0.843894 -0.225882 -1.23545e-21)
(0.83315 -0.313615 4.58491e-23)
(0.809406 -0.371306 -2.12948e-22)
(0.807011 -0.213052 0)
(0.798576 -0.177176 -7.45767e-23)
(0.797424 0.125343 8.47272e-23)
(0.781202 0.234953 0)
(0.467277 0.146924 1.38185e-19)
(0.51476 0.105647 -2.77413e-19)
(0.563414 0.0518555 1.3694e-19)
(0.614945 -0.01292 1.43174e-19)
(0.66653 -0.0884933 -2.81658e-19)
(0.716023 -0.175714 2.0614e-21)
(0.763234 -0.271407 1.33644e-19)
(0.8056 -0.370083 1.17021e-19)
(0.838724 -0.463082 -1.14586e-19)
(0.857562 -0.539463 0)
(0.858554 -0.589743 -7.14183e-20)
(0.841623 -0.609964 1.25964e-19)
(0.810205 -0.603083 -5.49817e-20)
(0.769129 -0.576804 0)
(0.723184 -0.538879 0)
(0.675715 -0.495877 3.57361e-22)
(0.62431 -0.457114 -1.62703e-20)
(0.562111 -0.4309 1.5808e-20)
(0.490001 -0.410134 0)
(0.425104 -0.367545 1.43682e-20)
(0.391167 -0.275115 -2.83056e-20)
(0.399216 -0.131664 2.89565e-20)
(0.442647 0.0350687 -2.84514e-20)
(0.505675 0.191485 1.24966e-21)
(0.573588 0.314251 2.24128e-20)
(0.637439 0.394928 -1.03957e-20)
(0.691203 0.440339 -3.08808e-22)
(0.728126 0.471932 -4.83687e-21)
(0.742565 0.512281 -9.3739e-22)
(0.739107 0.555698 5.77138e-21)
(0.736276 0.557367 4.94028e-22)
(0.752227 0.46759 -1.08949e-20)
(0.79283 0.2769 2.26242e-20)
(0.844352 0.0354302 -1.32149e-20)
(0.892586 -0.185192 0)
(0.919134 -0.330318 -8.90401e-21)
(0.92475 -0.400023 8.40077e-21)
(0.912168 -0.412059 -3.56504e-21)
(0.893294 -0.400219 4.47331e-21)
(0.858514 -0.385672 -3.19239e-22)
(0.80411 -0.371724 0)
(0.742474 -0.340469 -2.46748e-22)
(0.702464 -0.244582 8.24997e-22)
(0.705688 -0.114151 0)
(0.742718 0.0547224 2.50636e-21)
(0.792041 0.182303 -1.01379e-21)
(0.820126 0.30755 4.81857e-22)
(0.814908 0.393895 4.72175e-22)
(0.789297 0.420564 0)
(0.766393 0.369625 0)
(0.785502 0.174552 -2.16628e-21)
(0.807284 0.0303666 3.43872e-21)
(0.862553 -0.153302 -1.87724e-21)
(0.855067 -0.223765 5.42765e-22)
(0.843169 -0.308587 7.65657e-22)
(0.816365 -0.369092 2.13147e-22)
(0.811176 -0.212702 -2.23563e-22)
(0.80219 -0.176564 0)
(0.796797 0.126685 -1.39659e-22)
(0.781628 0.236138 -1.85121e-23)
(0.593921 0.103408 1.35811e-19)
(0.640731 0.0650391 -1.35343e-19)
(0.690695 0.0147905 1.10444e-21)
(0.743569 -0.0445846 -1.06296e-21)
(0.795551 -0.115913 1.10367e-21)
(0.8453 -0.197858 -1.07674e-21)
(0.891529 -0.287044 1.96036e-21)
(0.930476 -0.377897 0)
(0.95688 -0.46194 -1.63222e-21)
(0.965708 -0.529056 1.41469e-21)
(0.954449 -0.571211 1.1832e-21)
(0.924648 -0.585859 -9.8488e-22)
(0.881399 -0.576329 0)
(0.830767 -0.549705 0)
(0.777484 -0.513217 4.37764e-22)
(0.724966 -0.471442 0)
(0.67343 -0.429294 -2.42709e-22)
(0.616597 -0.39514 0)
(0.547988 -0.371594 -9.7683e-21)
(0.474662 -0.342622 1.91337e-20)
(0.419263 -0.279315 -1.92385e-20)
(0.402685 -0.165864 9.74149e-21)
(0.428134 -0.0168638 9.78659e-21)
(0.4823 0.134949 -9.50455e-21)
(0.548774 0.263082 -8.22542e-21)
(0.616325 0.353897 7.96361e-21)
(0.676045 0.41099 0)
(0.719276 0.453916 2.37668e-22)
(0.740497 0.503561 0)
(0.745265 0.553276 0)
(0.752215 0.558375 1.6866e-20)
(0.77773 0.470254 -1.728e-20)
(0.826054 0.279612 1.44031e-21)
(0.882476 0.0368736 1.53849e-21)
(0.931484 -0.185031 -1.4001e-21)
(0.954502 -0.329066 -7.97278e-21)
(0.953692 -0.396226 7.741e-21)
(0.933297 -0.406608 -4.73622e-21)
(0.908446 -0.392092 4.02063e-21)
(0.87182 -0.372462 6.25885e-22)
(0.817735 -0.354475 -1.94116e-21)
(0.754983 -0.327234 -1.84808e-22)
(0.709953 -0.243533 1.3185e-21)
(0.709538 -0.126796 0)
(0.7434 0.0357882 -8.7843e-22)
(0.793173 0.166319 1.23939e-21)
(0.821263 0.30038 -1.63884e-21)
(0.818783 0.396316 -4.752e-22)
(0.796882 0.42694 0)
(0.777169 0.374581 7.97822e-22)
(0.798979 0.173972 -1.47955e-21)
(0.818961 0.0246159 4.0449e-23)
(0.875842 -0.156565 -6.62161e-22)
(0.867429 -0.221319 8.24829e-22)
(0.854185 -0.302813 -7.81048e-22)
(0.823837 -0.366414 0)
(0.815979 -0.212163 2.23665e-22)
(0.806666 -0.175708 0)
(0.797136 0.128086 0)
(0.782994 0.237294 2.71299e-23)
(0.732017 0.0608137 -1.32591e-19)
(0.77557 0.0249504 1.31196e-19)
(0.824733 -0.0201133 -1.01895e-21)
(0.876571 -0.0743847 1.08825e-21)
(0.926263 -0.140024 0)
(0.973119 -0.214866 0)