/*--------------------------------*- C++ -*----------------------------------*\
| =========                 |                                                 |
| \\      /  F ield         | OpenFOAM: The Open Source CFD Toolbox           |
|  \\    /   O peration     | Version:  2512                                  |
|   \\  /    A nd           | Website:  www.openfoam.com                      |
|    \\/     M anipulation  |                                                 |
\*---------------------------------------------------------------------------*/
FoamFile
{
    version     2.0;
    format      ascii;
    arch        "LSB;label=32;scalar=64";
    class       volVectorField;
    location    "108.5";
    object      U;
}
// * * * * * * * * * * * * * * * * * * * * * * * * * * * * * * * * * * * * * //

dimensions      [0 1 -1 0 0 0 0];

internalField   nonuniform List<vector> 
13248
(
(-0.0142183 0.0124885 8.00898e-20)
(-0.0268819 0.0262269 0)
(-0.0240573 0.0334284 -1.51089e-19)
(-0.00584797 0.0365214 1.42325e-19)
(0.0277149 0.0371795 1.32819e-19)
(0.076544 0.0365609 0)
(0.140367 0.035484 0)
(0.218542 0.0345302 3.17533e-19)
(0.309841 0.0340821 -1.31891e-21)
(0.412289 0.0343275 -2.77804e-19)
(0.523095 0.035254 2.59603e-19)
(0.63872 0.0366542 -1.62339e-19)
(0.755093 0.038153 0)
(0.867924 0.0392596 -2.86737e-19)
(0.973074 0.0394393 5.38175e-19)
(1.06693 0.0381925 -1.28237e-19)
(1.14673 0.035132 -2.34464e-19)
(1.21078 0.0300212 2.20121e-19)
(1.25861 0.022883 0)
(1.29087 0.0136119 0)
(1.30938 0.00334805 0)
(1.31595 -0.0107507 0)
(1.3138 -0.0194208 6.7507e-20)
(1.30355 -0.0486326 2.43982e-19)
(-0.0144864 0.0114845 -2.41883e-19)
(-0.0223675 0.0217249 1.64899e-19)
(-0.0101682 0.0255274 -1.62832e-21)
(0.0211846 0.0257823 -2.17677e-19)
(0.071155 0.0245023 -1.32674e-19)
(0.139125 0.0230975 -1.25598e-19)
(0.224005 0.0225072 -2.29652e-19)
(0.323918 0.0232979 2.17737e-19)
(0.435981 0.0257034 0)
(0.556275 0.0296371 6.42415e-22)
(0.680051 0.034716 1.708e-21)
(0.802124 0.0403179 1.62926e-19)
(0.917398 0.0456757 0)
(1.02138 0.0499953 0)
(1.11064 0.0525755 1.96862e-19)
(1.18309 0.0529085 -3.70081e-19)
(1.23811 0.0507412 2.24173e-19)
(1.27646 0.0460916 -2.10476e-19)
(1.30004 0.0392039 -9.31414e-20)
(1.3115 0.0305126 -1.72187e-19)
(1.31367 0.0205161 -7.16389e-20)
(1.30934 0.00961446 -1.35272e-19)
(1.30037 -0.000135269 1.97259e-19)
(1.28949 -0.0140974 5.61813e-20)
(-0.0134643 0.009826 0)
(-0.0136201 0.0162792 0)
(0.01143 0.017369 7.70272e-20)
(0.0597215 0.0160646 7.08068e-20)
(0.129838 0.0145199 -1.8837e-21)
(0.220055 0.0142587 -1.30519e-19)
(0.327703 0.016181 0)
(0.448853 0.0206327 -1.08212e-19)
(0.578304 0.0274565 1.02269e-19)
(0.709941 0.036053 1.13706e-21)
(0.837378 0.0454924 -1.74952e-19)
(0.954718 0.0546785 -1.61426e-19)
(1.05725 0.0625361 2.12035e-21)
(1.1419 0.0681828 -1.35877e-19)
(1.20749 0.0710508 3.24472e-19)
(1.25459 0.0709374 0)
(1.2852 0.0679853 -2.1438e-19)
(1.30225 0.0625933 1.04244e-19)
(1.30899 0.055344 9.30718e-20)
(1.30848 0.0467564 0)
(1.30329 0.0376865 7.69898e-20)
(1.29506 0.0277522 -2.6317e-19)
(1.28512 0.0200236 2.47055e-19)
(1.27432 0.00710213 1.54682e-19)
(-0.0106663 0.0074759 -8.58369e-20)
(0.000452737 0.00988155 -8.88466e-20)
(0.042044 0.00905086 8.01621e-20)
(0.110839 0.00765588 0)
(0.204009 0.00773829 0)
(0.317949 0.0106974 -3.26981e-21)
(0.44756 0.0171044 0)
(0.586195 0.0267582 -3.33416e-19)
(0.726178 0.038813 3.09902e-19)
(0.859748 0.0519742 -3.82447e-19)
(0.980119 0.0647646 8.76812e-20)
(1.08236 0.0758072 0)
(1.16386 0.0840573 1.47357e-19)
(1.22438 0.0889359 -2.73465e-19)
(1.26566 0.0903472 6.51077e-20)
(1.29078 0.0885984 1.69181e-19)
(1.30341 0.0842557 -6.46826e-21)
(1.30715 0.0779945 -1.88336e-19)
(1.30504 0.0704573 0)
(1.29933 0.0622129 0)
(1.29147 0.0536969 -6.83229e-20)
(1.28232 0.0450562 6.14458e-20)
(1.27241 0.0376961 2.21817e-19)
(1.26222 0.0269379 -2.08267e-19)
(-0.00567592 0.00459243 -9.07516e-20)
(0.0207816 0.00298287 -9.04218e-20)
(0.0826539 0.00130462 2.54154e-19)
(0.174987 0.00155888 -1.54157e-19)
(0.292817 0.0053431 1.45098e-19)
(0.429784 0.0135643 2.63393e-19)
(0.577647 0.0260507 -1.86411e-19)
(0.726917 0.0416841 -2.27103e-19)
(0.868152 0.0587279 4.43533e-21)
(0.993415 0.0752422 2.90025e-19)
(1.09739 0.0894956 0)
(1.17782 0.100271 8.02132e-20)
(1.23537 0.106999 0)
(1.27281 0.109724 -1.31813e-19)
(1.29415 0.108942 1.85523e-19)
(1.30367 0.105389 1.91093e-21)
(1.3052 0.0998487 -4.90761e-20)
(1.30175 0.0930123 9.26554e-20)
(1.29539 0.0854289 7.99081e-20)
(1.28741 0.077485 -7.19509e-20)
(1.27857 0.0694903 6.83083e-20)
(1.26922 0.0615002 -6.14317e-20)
(1.25961 0.0543773 0)
(1.24996 0.0449126 -4.65266e-20)
(0.00186274 0.00147555 9.07385e-20)
(0.0480686 -0.00357979 9.54438e-20)
(0.133755 -0.0045928 -8.52274e-20)
(0.251731 -0.000654021 1.59065e-19)
(0.394045 0.00893616 -1.49709e-19)
(0.550804 0.0240907 1.35473e-19)
(0.710463 0.0434381 -6.51466e-20)
(0.861471 0.0647007 1.70485e-19)
(0.994271 0.0853379 -1.07383e-19)
(1.10277 0.103151 1.90361e-19)
(1.18483 0.116686 -4.39611e-19)
(1.24179 0.125371 1.61687e-19)
(1.27741 0.129402 -1.42039e-19)
(1.29653 0.129483 1.33421e-19)
(1.30401 0.12654 1.15954e-19)
(1.30396 0.121485 1.02397e-19)
(1.29943 0.115074 -2.84879e-19)
(1.29246 0.107872 1.77077e-19)
(1.28426 0.100266 -7.9913e-20)
(1.27549 0.0925186 2.09188e-19)
(1.26646 0.0848012 -6.75383e-20)
(1.25733 0.0772245 -1.65203e-19)
(1.24814 0.0701922 1.52645e-19)
(1.23895 0.0616914 4.65136e-20)
(0.0122399 -0.00147674 0)
(0.0826953 -0.00870872 9.35502e-22)
(0.195153 -0.00705239 1.79017e-19)
(0.33949 0.0027874 -1.67776e-19)
(0.503958 0.0200209 -1.51473e-19)
(0.674833 0.0430117 2.81544e-19)
(0.837999 0.0688778 -1.30762e-19)
(0.981596 0.0942792 1.74189e-19)
(1.0981 0.116338 -3.77514e-21)
(1.185 0.133217 -9.87732e-20)
(1.24408 0.144268 2.157e-19)
(1.27992 0.149824 -3.18666e-19)
(1.29823 0.150822 0)
(1.30452 0.148412 -6.28651e-20)
(1.3033 0.143676 -1.68482e-19)
(1.29781 0.137474 5.29122e-20)
(1.29014 0.130424 1.99735e-21)
(1.28149 0.12293 -1.17807e-19)
(1.2725 0.115252 6.87127e-21)
(1.26345 0.107555 1.36501e-19)
(1.25444 0.0999525 -6.13148e-20)
(1.24549 0.0925364 -2.33912e-20)
(1.23658 0.0854285 7.18863e-20)
(1.22772 0.0775813 0)
(0.0256433 -0.00379743 0)
(0.124602 -0.0111739 4.85657e-20)
(0.265784 -0.00443359 -2.33725e-19)
(0.435436 0.0134563 8.51147e-20)
(0.617555 0.0395479 -8.0104e-20)
(0.795134 0.0702283 -7.3291e-20)
(0.95321 0.101159 -1.29436e-19)
(1.08188 0.128456 6.46503e-20)
(1.1775 0.149618 5.61529e-20)
(1.24184 0.163753 0)
(1.2802 0.17128 1.282e-19)
(1.29919 0.173386 -1.91138e-19)
(1.30515 0.171506 1.4229e-19)
(1.30316 0.166953 6.28996e-20)
(1.29683 0.160754 -5.18463e-20)
(1.28842 0.153618 -4.36307e-20)
(1.2792 0.145997 -4.08889e-20)
(1.26981 0.138165 1.21741e-19)
(1.26053 0.13029 0)
(1.25145 0.122478 6.17087e-20)
(1.24258 0.114809 5.22516e-20)
(1.23387 0.107351 -1.29379e-19)
(1.22529 0.100098 -8.90426e-20)
(1.21677 0.092689 8.22426e-20)
(0.0421034 -0.00497278 -5.24752e-20)
(0.173182 -0.00973224 -2.05548e-21)
(0.34366 0.00471946 4.76284e-20)
(0.535679 0.0324218 1.33374e-19)
(0.729243 0.0676817 3.88378e-20)
(0.90559 0.104835 -7.5016e-20)
(1.05125 0.138605 6.8462e-20)
(1.1603 0.165372 -5.99761e-20)
(1.23381 0.18369 1.0756e-19)
(1.2775 0.19393 4.58383e-20)
(1.29898 0.197536 -1.30185e-19)
(1.30562 0.196296 3.83938e-20)
(1.30334 0.191855 6.57648e-20)
(1.29632 0.18548 -3.23069e-20)
(1.28713 0.178034 0)
(1.2772 0.170049 4.85582e-20)
(1.26724 0.161838 8.25166e-20)
(1.25754 0.153577 1.43561e-20)
(1.24818 0.145374 -6.90011e-20)
(1.23917 0.137303 2.90101e-20)
(1.23047 0.129421 0)
(1.222 0.12176 -2.29344e-20)
(1.2137 0.114282 -2.179e-20)
(1.20548 0.107062 0)
(0.0614339 -0.00447243 0)
(0.227215 -0.00324737 2.75083e-20)
(0.42595 0.0214873 5.10001e-20)
(0.63571 0.0600845 -1.36129e-19)
(0.833687 0.103821 4.40081e-20)
(1.00164 0.145403 0)
(1.12985 0.179503 6.61051e-20)
(1.21752 0.203593 -9.23023e-20)
(1.27028 0.21771 -5.37496e-20)
(1.29668 0.2235 2.42716e-20)
(1.30538 0.223188 -3.90169e-20)
(1.30349 0.218868 9.46453e-20)
(1.29602 0.212167 4.75375e-20)
(1.28607 0.20418 -3.29585e-20)
(1.27535 0.195577 -3.01231e-21)
(1.26469 0.186731 -9.10084e-20)
(1.25441 0.177846 4.14964e-20)
(1.24463 0.169037 -1.03337e-21)
(1.23534 0.160374 0)
(1.22649 0.151908 -2.90405e-20)
(1.21801 0.143678 0)
(1.20983 0.135685 6.61602e-20)
(1.20185 0.127935 -7.88917e-20)
(1.19395 0.120706 3.6011e-20)
(0.0831917 -0.00178916 -1.43723e-20)
(0.284887 0.0091986 -6.95006e-20)
(0.50922 0.0464499 7.91246e-20)
(0.730956 0.0961561 4.65389e-20)
(0.9265 0.146785 -2.22162e-20)
(1.08059 0.190315 3.73431e-20)
(1.18885 0.222378 -1.81305e-20)
(1.25574 0.242155 3.017e-20)
(1.29053 0.251291 0)
(1.30337 0.252495 6.84759e-20)
(1.30292 0.248468 -2.77638e-21)
(1.29544 0.241353 -5.53552e-20)
(1.28484 0.232608 2.37619e-20)
(1.27328 0.223116 -2.6902e-20)
(1.26181 0.213359 -1.03192e-20)
(1.25084 0.203587 1.18297e-20)
(1.24051 0.193931 -9.20226e-21)
(1.2308 0.184461 -5.00379e-20)
(1.22168 0.175224 3.06864e-20)
(1.21307 0.166256 6.32208e-21)
(1.20487 0.157571 5.58514e-21)
(1.197 0.14916 4.93607e-21)
(1.18935 0.141096 0)
(1.18178 0.133641 0)
(0.106746 0.00352712 1.43823e-20)
(0.344036 0.0282256 -1.44062e-20)
(0.589923 0.0796299 -2.6384e-20)
(0.817427 0.139748 0)
(1.00466 0.195063 -1.10396e-20)
(1.14143 0.238021 -9.94679e-21)
(1.22931 0.266097 -1.70178e-20)
(1.27748 0.280486 0)
(1.29759 0.284311 0)
(1.30031 0.281039 0)
(1.29362 0.273553 0)
(1.28266 0.263865 0)
(1.27031 0.253198 -1.49674e-20)
(1.25797 0.242218 6.82462e-21)
(1.24623 0.231256 1.18885e-20)
(1.23525 0.22047 5.55757e-21)
(1.22505 0.209937 1.38227e-20)
(1.21557 0.1997 0)
(1.20674 0.189787 -3.34392e-21)
(1.19846 0.180219 -3.19268e-21)
(1.19064 0.170992 -5.59403e-21)
(1.18317 0.162104 -4.94395e-21)
(1.17594 0.153693 0)
(1.16879 0.145847 3.58327e-21)
(-0.00189207 0.0360868 9.12967e-21)
(-0.0069114 0.0925719 -9.4333e-21)
(-0.0148547 0.136572 -1.78099e-20)
(-0.0247405 0.169644 0)
(-0.0358423 0.19361 -2.37452e-20)
(-0.0476173 0.210549 7.43763e-21)
(-0.0595555 0.222504 -1.4124e-20)
(-0.0712085 0.231209 0)
(-0.0822171 0.237928 0)
(-0.0923079 0.24342 0)
(-0.101277 0.24799 0)
(-0.108966 0.251588 0)
(-0.115245 0.253918 -2.87365e-23)
(-0.119991 0.254527 -9.65786e-21)
(-0.123078 0.252871 1.87936e-20)
(-0.124374 0.248361 2.69039e-20)
(-0.123742 0.240398 8.8502e-21)
(-0.121045 0.228396 0)
(-0.116151 0.211821 7.79256e-21)
(-0.108944 0.190244 -2.25089e-20)
(-0.0993528 0.163403 -1.45547e-20)
(-0.0872885 0.13113 -1.39147e-20)
(-0.0726807 0.0936185 0)
(-0.0557644 0.0516649 0)
(-0.00379229 0.0374612 -2.75022e-20)
(-0.0105544 0.096721 4.72324e-20)
(-0.0177793 0.143437 -1.79454e-20)
(-0.0255048 0.17893 -3.37236e-20)
(-0.0335817 0.20482 4.75825e-20)
(-0.0417773 0.223057 -3.00413e-20)
(-0.0497807 0.235647 4.23734e-20)
(-0.0572504 0.244356 2.68687e-20)
(-0.0638579 0.250532 0)
(-0.0693091 0.255035 -2.42534e-20)
(-0.0733502 0.258261 -5.56007e-22)
(-0.0757683 0.260234 2.13824e-20)
(-0.0763819 0.260702 3.12083e-20)
(-0.0750321 0.259235 4.01046e-20)
(-0.0715773 0.2553 -1.7993e-20)
(-0.0658919 0.248314 -5.40491e-20)
(-0.0578699 0.237684 1.82666e-20)
(-0.0474296 0.222837 -6.74981e-20)
(-0.0344976 0.203259 0)
(-0.0189932 0.178523 1.51677e-20)
(-0.0010475 0.148332 1.45293e-20)
(0.0192768 0.112591 1.38901e-20)
(0.0422954 0.0716187 0)
(0.0684309 0.0266142 0)
(-0.00564442 0.036945 0)
(-0.0142682 0.0966185 9.56782e-20)
(-0.0209554 0.144709 -3.60405e-20)
(-0.026579 0.181963 3.38473e-20)
(-0.0314827 0.209565 -9.59386e-20)
(-0.0357232 0.229161 0)
(-0.0392038 0.242566 -5.70787e-20)
(-0.0417226 0.251477 2.68445e-20)
(-0.0430205 0.257259 -5.10776e-20)
(-0.0428219 0.260846 2.43666e-20)
(-0.0408509 0.262735 1.39053e-19)
(-0.0368608 0.263047 -6.54039e-20)
(-0.0306427 0.261614 -1.05787e-19)
(-0.0220163 0.258076 -4.21043e-20)
(-0.0108394 0.251955 -1.81723e-21)
(0.0029919 0.242717 1.48971e-19)
(0.0195413 0.229816 -7.08277e-20)
(0.038828 0.212731 -7.19133e-22)
(0.0608297 0.190993 0)
(0.0854917 0.164204 -6.51339e-20)
(0.112672 0.13203 0)
(0.142194 0.09439 -6.05444e-20)
(0.174097 0.0515499 2.29173e-19)
(0.210703 0.00451479 1.57197e-21)
(-0.00721397 0.0347853 0)
(-0.0176259 0.092594 2.72444e-22)
(-0.0240468 0.140537 3.63321e-20)
(-0.0278721 0.178595 -3.41725e-20)
(-0.029782 0.207392 3.19987e-20)
(-0.030061 0.228148 1.81444e-19)
(-0.0288144 0.242376 -5.69574e-20)
(-0.0260043 0.251599 -5.38808e-20)
(-0.0214831 0.257123 1.02056e-19)
(-0.0150373 0.25991 -1.46106e-19)
(-0.00642429 0.260544 4.56414e-20)
(0.0045944 0.259248 4.39937e-20)
(0.0182297 0.255971 0)
(0.0346554 0.250454 4.03557e-20)
(0.0539982 0.242311 0)
(0.0763349 0.231093 7.49586e-20)
(0.101691 0.216328 -1.47126e-19)
(0.130043 0.197562 3.06413e-20)
(0.16132 0.174381 1.33587e-19)
(0.195418 0.146429 6.50512e-20)
(0.23215 0.113435 0)
(0.271534 0.0752592 -1.83552e-19)
(0.312288 0.0321007 5.72607e-20)
(0.361913 -0.0153647 0)
(-0.00835785 0.0314219 0)
(-0.0203343 0.0854123 -1.16035e-19)
(-0.026812 0.131622 -3.62864e-20)
(-0.0293323 0.169264 -6.83373e-20)
(-0.0287141 0.198398 6.43415e-20)
(-0.025379 0.219784 -6.04495e-20)
(-0.019597 0.234575 1.1419e-19)
(-0.0114965 0.244043 5.44159e-20)
(-0.00107308 0.249364 -1.52493e-19)
(0.0117758 0.251471 9.72343e-20)
(0.0272113 0.25099 -1.38279e-19)
(0.0454158 0.248241 3.07478e-19)
(0.0665636 0.243283 -1.66366e-19)
(0.0908008 0.235975 8.01004e-20)
(0.118233 0.226046 2.342e-19)
(0.148924 0.213141 -7.07418e-20)
(0.182893 0.196875 -6.75313e-20)
(0.220127 0.176861 -6.82786e-20)
(0.260569 0.152735 0)
(0.304194 0.124198 -1.32627e-19)
(0.350713 0.0910237 -1.31113e-19)
(0.401147 0.0531335 1.79741e-19)
(0.450547 0.0104285 2.34788e-19)
(0.516249 -0.0363097 -2.19383e-19)
(-0.0090587 0.0274049 0)
(-0.022305 0.0761397 -1.55521e-19)
(-0.0291576 0.11912 3.50073e-22)
(-0.0309448 0.154959 1.37254e-19)
(-0.0284316 0.183268 0)
(-0.0220789 0.204409 0)
(-0.0122659 0.219175 0)
(0.00073422 0.228562 -5.39719e-20)
(0.0167759 0.233563 -6.49842e-22)
(0.035825 0.235026 9.53921e-20)
(0.0579296 0.233572 -1.38699e-19)
(0.0831878 0.229577 -1.06877e-21)
(0.111719 0.22319 0)
(0.143643 0.214376 -8.00582e-20)
(0.179067 0.202966 7.80357e-20)
(0.218089 0.1887 -2.18613e-19)
(0.260782 0.171272 2.86793e-19)
(0.307216 0.150364 7.44803e-20)
(0.357428 0.125673 7.76808e-21)
(0.411622 0.0969655 -2.53594e-19)
(0.468892 0.0638982 -1.22298e-19)
(0.532246 0.0268887 4.17594e-19)
(0.590477 -0.01497 -2.79885e-19)
(0.674272 -0.0597968 0)
(-0.00943023 0.0233103 7.61866e-20)
(-0.0236697 0.0659808 7.78889e-20)
(-0.0311418 0.104477 -7.31272e-20)
(-0.0326935 0.137117 -1.36667e-19)
(-0.0288916 0.163272 1.28671e-19)
(-0.0201565 0.183026 -1.20139e-19)
(-0.00691523 0.196886 1.69273e-19)
(0.010459 0.205587 -5.39006e-20)
(0.031698 0.209925 9.99104e-20)
(0.0566481 0.210626 0)
(0.0852579 0.208264 9.02192e-20)
(0.11756 0.203221 -1.68212e-19)
(0.153647 0.195699 1.64673e-19)
(0.193661 0.185731 -1.54655e-19)
(0.237763 0.173229 0)
(0.28614 0.158015 1.44444e-19)
(0.338977 0.139862 2.81195e-19)
(0.396446 0.118512 -2.65473e-19)
(0.458506 0.0936842 -1.28127e-19)
(0.525462 0.0653375 -1.30355e-19)
(0.595283 0.0328552 3.60325e-19)
(0.673008 -0.00212207 1.15163e-19)
(0.740149 -0.0423215 -1.06158e-19)
(0.840133 -0.0826304 1.00177e-19)
(-0.00968876 0.0196493 -7.61972e-20)
(-0.0247216 0.056081 2.33881e-19)
(-0.032892 0.0892044 -7.3636e-20)
(-0.0344412 0.117432 1.36535e-19)
(-0.0296689 0.140135 -1.28547e-19)
(-0.018905 0.157288 8.23047e-23)
(-0.00256498 0.169215 5.61762e-20)
(0.0189452 0.176455 2.09483e-19)
(0.0453051 0.179627 3.54692e-22)
(0.0763127 0.179328 -9.35498e-20)
(0.111891 0.176051 0)
(0.15208 0.170152 -8.43375e-20)
(0.197013 0.16184 1.58712e-19)
(0.246898 0.151191 1.54615e-19)
(0.30198 0.138175 -7.25751e-20)
(0.362476 0.122665 -1.6612e-21)
(0.428487 0.104484 -6.8859e-20)
(0.499977 0.0834646 1.2919e-19)
(0.576458 0.0593906 1.28109e-19)
(0.657764 0.032593 -1.23298e-19)
(0.740495 0.00208002 1.1365e-19)
(0.829823 -0.0289005 -1.07764e-19)
(0.903365 -0.0659353 0)
(1.00911 -0.0981395 -1.0016e-19)
(-0.0100877 0.0167821 7.63181e-20)
(-0.0257741 0.0473293 -7.81767e-20)
(-0.0344238 0.074631 7.34006e-20)
(-0.0357147 0.0975858 0)
(-0.0296872 0.115811 0)
(-0.0165578 0.129334 1.18766e-19)
(0.00333203 0.138422 -1.11979e-19)
(0.0296338 0.143498 1.03713e-19)
(0.0620806 0.145053 -4.89493e-19)
(0.10053 0.14357 -2.94817e-22)
(0.144967 0.139462 8.65326e-20)
(0.195497 0.133038 0)
(0.252292 0.124499 -1.5834e-19)
(0.315516 0.113923 3.00163e-19)
(0.385225 0.101293 -2.14842e-19)
(0.461287 0.0865319 -3.48807e-19)
(0.543246 0.0695392 -6.17444e-21)
(0.630249 0.0502663 2.47811e-19)
(0.720805 0.0286006 0)
(0.813466 0.00510056 0)
(0.904099 -0.0213689 -1.13654e-19)
(0.99525 -0.0466095 1.07769e-19)
(1.06774 -0.0786337 -3.92233e-19)
(1.16053 -0.100721 3.67308e-19)
(-0.0108207 0.014848 0)
(-0.0269623 0.0402011 0)
(-0.0354051 0.0616767 -2.19949e-19)
(-0.0354605 0.0789852 7.01157e-20)
(-0.0269758 0.0921849 1.25693e-21)
(-0.0100427 0.101497 1.20096e-19)
(0.0151326 0.107244 0)
(0.0483476 0.109818 -1.03892e-19)
(0.0894731 0.109645 9.76072e-20)
(0.138472 0.107129 -1.82397e-19)
(0.19537 0.102618 -5.43663e-22)
(0.260183 0.0963683 1.63905e-19)
(0.33281 0.0885367 2.04136e-21)
(0.412929 0.079183 1.51268e-19)
(0.499858 0.0682971 -2.09615e-19)
(0.592466 0.0558209 0)
(0.689114 0.0416858 2.60577e-19)
(0.787647 0.02585 -3.69974e-19)
(0.88542 0.00829988 1.15081e-19)
(0.979636 -0.0106093 0)
(1.06651 -0.03151 1.02206e-19)
(1.1454 -0.0510923 3.94245e-19)
(1.20541 -0.0769308 -3.70024e-19)
(1.26802 -0.0906795 -4.14742e-19)
(-0.0119177 0.0137328 2.30382e-19)
(-0.0280564 0.0346763 -3.16104e-19)
(-0.034983 0.0507078 1.17009e-21)
(-0.0319424 0.0625316 6.99338e-20)
(-0.0186915 0.0707603 -1.29271e-19)
(0.00479577 0.0759068 -1.19643e-19)
(0.0384697 0.0784317 2.22081e-19)
(0.0822767 0.0787721 -1.79494e-21)
(0.136162 0.0773379 -1.94888e-19)
(0.200016 0.0744882 3.64786e-19)
(0.273568 0.0705049 7.83139e-22)
(0.356264 0.0655722 -1.61483e-19)
(0.447136 0.0597742 0)
(0.544709 0.0530973 0)
(0.646957 0.0454495 -6.99761e-20)
(0.751334 0.0366844 -1.30661e-19)
(0.854878 0.0266533 -2.52578e-19)
(0.954359 0.015189 2.37085e-19)
(1.04657 0.00232598 -1.15146e-19)
(1.12847 -0.0120962 2.1141e-19)
(1.19762 -0.027656 -1.03511e-19)
(1.25271 -0.0437319 1.80982e-19)
(1.29073 -0.0634093 -4.2516e-19)
(1.3196 -0.0739184 8.15374e-20)
(-0.0131832 0.0131008 7.74915e-20)
(-0.0283742 0.0302727 0)
(-0.031779 0.0415145 1.48961e-19)
(-0.0229022 0.0485038 -1.40324e-19)
(-0.00154455 0.0524204 1.29392e-19)
(0.0323684 0.0541084 0)
(0.0788401 0.0542092 0)
(0.137764 0.0532373 -1.04181e-19)
(0.20882 0.0516055 1.0633e-21)
(0.291323 0.0496185 9.19079e-20)
(0.384083 0.047459 -8.61685e-20)
(0.485294 0.0451755 1.61561e-19)
(0.592505 0.0426836 0)
(0.702684 0.0397815 2.90214e-19)
(0.812373 0.0361826 -5.46947e-19)
(0.917916 0.0315592 3.88433e-19)
(1.01574 0.0256106 2.4391e-19)
(1.10265 0.0180527 -2.28968e-19)
(1.17614 0.00889469 0)
(1.23449 -0.00229632 0)
(1.27742 -0.014257 0)
(1.3052 -0.0293006 0)
(1.31994 -0.042993 8.16459e-20)
(1.32524 -0.0576707 -2.81821e-19)
(-0.0349697 -0.000393524 -8.57306e-21)
(-0.0121197 -0.0707856 8.63981e-21)
(0.0131755 -0.149363 -2.69177e-22)
(0.0406518 -0.232168 0)
(0.0689611 -0.315213 -6.90423e-21)
(0.0966786 -0.394161 1.28851e-20)
(0.122008 -0.46466 -5.93519e-22)
(0.142588 -0.523228 -5.2569e-21)
(0.15607 -0.568087 0)
(0.161212 -0.599381 0)
(0.159355 -0.617003 -1.93031e-22)
(0.156037 -0.617632 -1.68667e-22)
(0.160399 -0.593209 -2.79994e-21)
(0.181859 -0.53335 2.57091e-21)
(0.224651 -0.431964 0)
(0.285551 -0.292036 0)
(0.357266 -0.124199 2.8422e-21)
(0.432967 0.0564601 -9.94652e-23)
(0.50723 0.230055 -2.44288e-21)
(0.574624 0.37312 -1.22959e-22)
(0.629744 0.470208 0)
(0.668746 0.520891 0)
(0.691957 0.535235 0)
(0.702903 0.527477 0)
(0.700957 0.517506 0)
(0.680646 0.52269 0)
(0.644083 0.535597 3.92464e-22)
(0.609791 0.514158 -6.40882e-22)
(0.601174 0.413378 0)
(0.626187 0.228611 0)
(0.674676 0.00526609 -6.98326e-22)
(0.730296 -0.196307 6.78662e-22)
(0.778527 -0.338425 2.73175e-22)
(0.810644 -0.413703 0)
(0.829641 -0.43858 0)
(0.834823 -0.437983 2.47778e-22)
(0.819037 -0.447834 -2.40858e-22)
(0.777219 -0.460272 0)
(0.726716 -0.440265 2.7076e-22)
(0.695638 -0.334534 -3.98272e-22)
(0.697388 -0.158195 1.46767e-22)
(0.726163 0.0383634 0)
(0.769794 0.201659 -2.29967e-22)
(0.810537 0.295994 2.23615e-22)
(0.833186 0.36406 0)
(0.81633 0.391659 0)
(0.774558 0.418451 -7.2979e-23)
(0.738614 0.345088 2.26765e-22)
(0.732924 0.21325 0)
(0.761774 0.0344848 0)
(0.806026 -0.136167 -6.10464e-23)
(0.822215 -0.218483 -3.60467e-24)
(0.815723 -0.348483 -7.50054e-24)
(0.782909 -0.327722 3.33486e-23)
(0.77719 -0.330668 0)
(0.786551 -0.18638 0)
(0.80231 0.00692457 0)
(0.793786 0.0899669 0)
(0.797961 0.352291 0)
(0.781064 0.241132 0)
(0.09771 -0.0271669 -9.08847e-22)
(0.124692 -0.0987128 -3.7359e-20)
(0.152564 -0.178635 1.18426e-21)
(0.181568 -0.262375 3.39022e-20)
(0.209916 -0.345287 4.98274e-22)
(0.236104 -0.422509 0)
(0.258373 -0.489032 -2.26547e-20)
(0.274381 -0.5409 4.19675e-20)
(0.281498 -0.576623 -1.92955e-20)
(0.277366 -0.597751 1.36419e-20)
(0.261012 -0.607606 -1.30674e-20)
(0.235453 -0.607406 9.90955e-21)
(0.209359 -0.591712 -9.61655e-21)
(0.195563 -0.548454 -2.53275e-22)
(0.204701 -0.465494 -9.26027e-21)
(0.239413 -0.339684 8.99939e-21)
(0.294497 -0.179709 -9.54085e-21)
(0.362519 -0.0018824 9.01072e-21)
(0.436115 0.1733 -8.18234e-21)
(0.508165 0.323275 1.46798e-20)
(0.572027 0.431737 -6.55539e-21)
(0.622331 0.49534 -2.79967e-22)
(0.657993 0.521034 -3.82332e-21)
(0.680098 0.523107 7.25545e-21)
(0.685776 0.523398 -3.44021e-21)
(0.671036 0.537885 2.24519e-22)
(0.642361 0.553708 4.5559e-21)
(0.620809 0.525465 1.10585e-21)
(0.626475 0.411511 -1.12014e-20)
(0.662496 0.213887 1.23231e-20)
(0.716579 -0.0174925 -6.23636e-21)
(0.77207 -0.219909 7.21959e-22)
(0.815633 -0.356719 -2.73708e-22)
(0.839683 -0.424674 4.36951e-22)
(0.849274 -0.443041 0)
(0.846662 -0.435176 0)
(0.827121 -0.436046 -8.65794e-22)
(0.782153 -0.442091 6.443e-22)
(0.726756 -0.424032 7.53848e-22)
(0.687867 -0.328216 2.73306e-22)
(0.683931 -0.163979 -1.18935e-21)
(0.711079 0.0243275 2.46163e-22)
(0.757199 0.185623 0)
(0.802244 0.284598 0)
(0.826845 0.362409 0)
(0.812887 0.399574 0)
(0.772901 0.429398 2.99514e-22)
(0.742139 0.351654 -1.55941e-22)
(0.738309 0.210801 0)
(0.768495 0.0258948 0)
(0.813418 -0.1441 0)
(0.829381 -0.219538 -1.009e-22)
(0.824299 -0.343887 1.87874e-23)
(0.788239 -0.323519 -7.48208e-23)
(0.783013 -0.330912 0)
(0.788131 -0.188795 0)
(0.800739 0.00591479 4.58138e-23)
(0.790977 0.0906414 1.1381e-22)
(0.793062 0.35359 0)
(0.778629 0.242006 0)
(0.244017 -0.0503902 1.40158e-21)
(0.274488 -0.122759 -7.98542e-20)
(0.30396 -0.202725 7.62631e-20)
(0.33365 -0.285877 -7.13098e-20)
(0.361299 -0.367549 -5.01553e-22)
(0.385052 -0.442672 0)
(0.403229 -0.505694 -4.82854e-20)
(0.413819 -0.551981 4.72377e-20)
(0.414845 -0.579446 2.78418e-22)
(0.404359 -0.589698 4.4847e-22)
(0.380131 -0.588101 3.57193e-22)
(0.341611 -0.580752 3.14796e-22)
(0.293545 -0.567919 -1.57364e-20)
(0.248261 -0.539662 1.55495e-20)
(0.221453 -0.479583 0)
(0.223614 -0.376142 3.91102e-22)
(0.255012 -0.231706 -1.51286e-20)
(0.308993 -0.0617165 1.49633e-20)
(0.376984 0.111526 0)
(0.450097 0.266351 0)
(0.519908 0.385184 -9.64755e-21)
(0.579819 0.461663 1.74853e-20)
(0.626873 0.499823 -1.46533e-20)
(0.659244 0.513648 2.26996e-22)
(0.672387 0.525489 1.347e-20)
(0.664347 0.548979 -1.50271e-20)
(0.64527 0.566867 1.65172e-20)
(0.637174 0.532457 1.52821e-21)
(0.656619 0.408045 -1.093e-20)
(0.703015 0.201193 0)
(0.761992 -0.0355964 0)
(0.816363 -0.237871 3.9522e-21)
(0.854431 -0.369571 -5.283e-21)
(0.870249 -0.430968 1.27454e-23)
(0.870537 -0.444127 2.38643e-21)
(0.860111 -0.430592 -2.31925e-21)
(0.837156 -0.423468 0)
(0.790066 -0.42325 1.98104e-22)
(0.730879 -0.407083 1.88715e-21)
(0.68455 -0.321759 -3.89785e-21)
(0.674683 -0.170646 1.80779e-21)
(0.69967 0.00842821 1.79155e-22)
(0.74756 0.167539 -1.87794e-21)
(0.796134 0.271572 1.4618e-21)
(0.822383 0.359654 2.94152e-22)
(0.811603 0.406556 2.85929e-22)
(0.774022 0.439638 -3.00289e-22)
(0.748738 0.358236 0)
(0.746866 0.209096 0)
(0.777799 0.0184217 -1.42932e-21)
(0.822725 -0.151532 6.59424e-22)
(0.838169 -0.220252 -5.09886e-22)
(0.834316 -0.338876 5.79806e-22)
(0.794597 -0.31908 5.43088e-22)
(0.789594 -0.330919 -1.38139e-22)
(0.790747 -0.190998 1.86954e-22)
(0.800511 0.0051959 -1.59228e-22)
(0.789375 0.0914094 4.45795e-23)
(0.789117 0.354786 0)
(0.77709 0.242794 0)
(0.395896 -0.0700148 -1.68279e-19)
(0.428994 -0.143042 2.47302e-21)
(0.460601 -0.22249 1.5785e-19)
(0.491182 -0.303814 -1.14382e-21)
(0.518 -0.383072 0)
(0.538871 -0.455282 0)
(0.552105 -0.514504 -9.84249e-20)
(0.555959 -0.555834 1.32441e-20)
(0.549224 -0.57685 1.1195e-19)
(0.531457 -0.578431 -6.35477e-21)
(0.501774 -0.565416 -2.55178e-20)
(0.458232 -0.546149 -1.55059e-20)
(0.400258 -0.527521 1.55803e-20)
(0.334336 -0.506662 0)
(0.275899 -0.468227 -1.0839e-20)
(0.242542 -0.393328 9.86304e-21)
(0.243541 -0.273817 0)
(0.276494 -0.119557 0)
(0.333148 0.0474231 1.01337e-20)
(0.402818 0.204261 -9.54741e-22)
(0.475071 0.331656 -8.35246e-21)
(0.542116 0.420381 -6.85861e-21)
(0.598629 0.471704 6.77755e-21)
(0.639838 0.498606 -6.48947e-21)
(0.660182 0.522543 -5.43676e-22)
(0.659789 0.554341 6.66513e-21)
(0.651498 0.57389 1.049e-21)
(0.657067 0.534882 -4.55608e-24)
(0.689795 0.403668 0)
(0.745775 0.191125 1.43765e-20)
(0.809188 -0.0489231 -1.48578e-20)
(0.862187 -0.250556 7.65128e-22)
(0.894396 -0.377724 0)
(0.902031 -0.433249 -4.54946e-22)
(0.893303 -0.442186 4.78258e-21)
(0.875032 -0.424585 -7.8267e-21)
(0.848725 -0.410704 1.62287e-22)
(0.800467 -0.40415 1.66712e-22)
(0.738922 -0.389176 2.37824e-21)
(0.685939 -0.314533 4.08148e-22)
(0.669926 -0.177583 -3.25552e-21)
(0.69204 -0.00884685 2.73542e-21)
(0.740788 0.147705 5.2235e-23)
(0.792096 0.256982 1.20295e-21)
(0.819741 0.355625 -1.46472e-21)
(0.812425 0.412323 -2.07587e-21)
(0.777835 0.448985 5.45324e-22)
(0.758285 0.364885 1.61659e-21)
(0.758511 0.208325 -3.2078e-21)
(0.789604 0.0120954 2.34424e-21)
(0.833855 -0.158392 -5.18588e-22)
(0.848444 -0.220712 7.4835e-22)
(0.845657 -0.333465 5.12615e-22)
(0.80189 -0.314299 -8.00984e-22)
(0.796774 -0.330634 1.94266e-23)
(0.794259 -0.193036 -1.33242e-22)
(0.801557 0.00473554 0)
(0.788929 0.0922953 -7.92953e-23)
(0.786106 0.355905 9.61805e-23)
(0.776472 0.243508 0)
(0.549507 -0.0891336 1.6938e-19)
(0.583975 -0.160912 -3.30909e-19)
(0.618027 -0.237908 1.59066e-19)
(0.649635 -0.315498 1.45025e-19)
(0.675067 -0.39063 -2.73118e-19)
(0.692263 -0.458397 1.32788e-20)
(0.699636 -0.512721 1.12689e-19)
(0.695604 -0.548972 8.08507e-20)
(0.679637 -0.565109 -7.91482e-20)
(0.652624 -0.561742 0)
(0.615902 -0.542093 -3.83429e-20)
(0.569443 -0.51281 6.60747e-20)
(0.510765 -0.483312 -2.80386e-20)
(0.438876 -0.459183 0)
(0.361718 -0.43313 0)
(0.297271 -0.385533 2.78745e-22)
(0.2638 -0.298104 -1.46599e-20)
(0.268482 -0.16902 1.4243e-20)
(0.307166 -0.0147606 0)
(0.368228 0.139201 1.31206e-20)
(0.438931 0.272364 -2.37691e-20)
(0.509808 0.37205 2.14234e-20)
(0.572966 0.436629 -2.07995e-20)
(0.621137 0.477291 -1.12422e-21)
(0.648274 0.513358 2.39767e-20)
(0.656263 0.552849 -1.28278e-20)
(0.659512 0.574265 -5.2727e-22)
(0.678603 0.533077 -1.1141e-20)
(0.723664 0.398787 -2.4163e-21)
(0.788572 0.183666 1.34711e-20)
(0.856696 -0.0573963 9.0258e-22)
(0.90855 -0.257704 -1.16731e-20)
(0.934763 -0.38086 2.03027e-20)
(0.934361 -0.431391 -9.64668e-21)
(0.917138 -0.437142 0)
(0.891254 -0.417095 -4.07215e-21)
(0.86164 -0.398007 3.85898e-21)
(0.813 -0.385423 -2.1596e-21)
(0.750549 -0.370799 2.70309e-21)
(0.69204 -0.306457 -2.85996e-22)
(0.669779 -0.184361 0)
(0.688165 -0.0271432 -3.02499e-22)
(0.736689 0.126375 8.76989e-22)
(0.789945 0.240799 0)
(0.818781 0.350066 2.73129e-21)
(0.815194 0.416561 -1.03978e-21)
(0.784149 0.457256 6.49068e-22)
(0.770487 0.371616 8.30547e-22)
(0.772984 0.208586 0)
(0.803782 0.00692794 0)
(0.846701 -0.164546 -1.94699e-21)
(0.860048 -0.220898 2.73676e-21)
(0.8582 -0.327588 -1.32612e-21)
(0.810057 -0.309069 3.30394e-22)
(0.804414 -0.330034 4.5407e-22)
(0.798514 -0.194973 1.33367e-22)
(0.803786 0.00449528 -1.60475e-22)
(0.789578 0.0933234 0)
(0.784012 0.356966 -1.54134e-22)
(0.776791 0.244151 -1.64887e-23)
(0.705421 -0.109684 1.67163e-19)
(0.739364 -0.177786 -1.66575e-19)
(0.774301 -0.249526 1.24611e-21)
(0.805124 -0.321061 -1.12445e-21)
(0.82711 -0.390174 1.07291e-21)
(0.838687 -0.451912 -9.55597e-22)
(0.838662 -0.500366 1.59573e-21)
(0.825839 -0.531413 0)
(0.800414 -0.54341 -1.08966e-21)
(0.764128 -0.53716 8.56575e-22)
(0.719459 -0.515319 6.5042e-22)
(0.668582 -0.48204 -5.00116e-22)
(0.611174 -0.4442 0)
(0.543481 -0.410667 0)
(0.464013 -0.38437 1.48453e-22)
(0.382229 -0.353866 0)
(0.318015 -0.297818 -8.11414e-23)
(0.289455 -0.201566 0)
(0.301692 -0.0699551 -7.96915e-21)
(0.347024 0.0743191 1.53196e-20)
(0.411612 0.209136 -1.4713e-20)
(0.482461 0.317606 7.13124e-21)
(0.549082 0.394887 7.94216e-21)
(0.602261 0.449367 -7.71254e-21)
(0.635732 0.497239 -1.17119e-20)
(0.652596 0.54396 1.14511e-20)
(0.667766 0.567893 0)
(0.699819 0.527226 6.10149e-22)
(0.755995 0.393732 0)
(0.8294 0.179421 0)
(0.902896 -0.0609175 2.63877e-20)
(0.954354 -0.259389 -2.73858e-20)
(0.974813 -0.379147 1.28487e-21)
(0.966671 -0.425716 9.50425e-22)
(0.94164 -0.429229 -6.73399e-22)
(0.908539 -0.408184 -3.45907e-21)
(0.875586 -0.385549 3.35885e-21)
(0.827149 -0.36748 -2.47194e-21)
(0.765159 -0.352295 2.10918e-21)
(0.702549 -0.297387 5.23687e-22)
(0.674122 -0.190538 -2.25577e-21)
(0.687896 -0.0460233 -1.39699e-22)
(0.735023 0.103792 1.52419e-21)
(0.789435 0.222957 0)
(0.819299 0.342694 -9.82826e-22)
(0.819661 0.41897 1.91004e-21)
(0.792651 0.46426 -2.39328e-21)
(0.784929 0.378348 -8.35862e-22)
(0.78989 0.210022 0)
(0.820111 0.00357985 7.26158e-22)
(0.86115 -0.169812 -1.6056e-21)
(0.872794 -0.220802 1.53905e-23)
(0.871783 -0.321219 -4.00988e-22)
(0.819051 -0.30328 4.19526e-22)
(0.8124 -0.32906 -4.27548e-22)
(0.80335 -0.196878 0)
(0.80709 0.00442123 1.6055e-22)
(0.791254 0.0945117 0)
(0.782811 0.357978 0)
(0.778067 0.244721 2.58902e-23)
(0.865799 -0.128964 -1.62395e-19)
(0.895022 -0.191476 1.6073e-19)
(0.926638 -0.255413 -1.14751e-21)
(0.952627 -0.318804 1.15114e-21)
(0.967669 -0.380316 0)