/*--------------------------------*- C++ -*----------------------------------*\
| =========                 |                                                 |
| \\      /  F ield         | OpenFOAM: The Open Source CFD Toolbox           |
|  \\    /   O peration     | Version:  2512                                  |
|   \\  /    A nd           | Website:  www.openfoam.com                      |
|    \\/     M anipulation  |                                                 |
\*---------------------------------------------------------------------------*/
FoamFile
{
    version     2.0;
    format      ascii;
    arch        "LSB;label=32;scalar=64";
    class       volVectorField;
    location    "107";
    object      U;
}
// * * * * * * * * * * * * * * * * * * * * * * * * * * * * * * * * * * * * * //

dimensions      [0 1 -1 0 0 0 0];

internalField   nonuniform List<vector> 
13248
(
(-0.0138884 0.0127588 9.18168e-20)
(-0.0244876 0.0269821 0)
(-0.0174941 0.0347649 -1.73256e-19)
(0.00652481 0.0379297 1.63202e-19)
(0.0471293 0.0378918 1.52561e-19)
(0.103871 0.0357693 0)
(0.176089 0.0324209 0)
(0.262704 0.0285024 3.70028e-19)
(0.361984 0.024483 -3.96784e-22)
(0.471378 0.0206389 -3.25729e-19)
(0.587462 0.01705 3.06042e-19)
(0.706077 0.0136167 -1.91696e-19)
(0.822631 0.0100993 0)
(0.932508 0.0061792 -3.36542e-19)
(1.03152 0.00153066 6.29388e-19)
(1.11635 -0.00410789 -1.50757e-19)
(1.18482 -0.010877 -2.67402e-19)
(1.23613 -0.0187785 2.51057e-19)
(1.2708 -0.0276232 0)
(1.29042 -0.0373456 0)
(1.29762 -0.0469522 0)
(1.29437 -0.0588579 0)
(1.28473 -0.0650033 7.08709e-20)
(1.26645 -0.08962 2.46964e-19)
(-0.0133441 0.0109397 -2.77103e-19)
(-0.0179464 0.020328 1.88717e-19)
(-0.000815918 0.0236865 -1.76987e-21)
(0.0368211 0.0233622 -2.49198e-19)
(0.0941022 0.0211044 -1.52397e-19)
(0.170038 0.0182338 -1.44344e-19)
(0.263061 0.015669 -2.65717e-19)
(0.370708 0.0139898 2.51394e-19)
(0.489425 0.0134596 0)
(0.614604 0.0140331 5.07453e-22)
(0.740874 0.015386 8.99699e-22)
(0.862617 0.0169857 1.90713e-19)
(0.974571 0.0181972 0)
(1.07241 0.0184036 0)
(1.15319 0.0171183 2.27137e-19)
(1.21556 0.0140637 -4.27056e-19)
(1.25979 0.00920447 2.53878e-19)
(1.28751 0.00273218 -2.38376e-19)
(1.30131 -0.00499812 -1.0362e-19)
(1.30426 -0.0135212 -1.88145e-19)
(1.29932 -0.0223417 -7.56186e-20)
(1.28913 -0.0311834 -1.41747e-19)
(1.27551 -0.0379191 2.10762e-19)
(1.25964 -0.048927 5.88296e-20)
(-0.0115952 0.00876125 0)
(-0.007255 0.0134216 0)
(0.0236029 0.0132824 8.81818e-20)
(0.0787705 0.0108763 8.12609e-20)
(0.1565 0.00811821 -1.85129e-21)
(0.254603 0.00641803 -1.49227e-19)
(0.36978 0.00660632 0)
(0.497357 0.00898148 -1.25181e-19)
(0.631379 0.0133565 1.18012e-19)
(0.765114 0.0191287 5.53474e-22)
(0.89182 0.0254081 -2.03085e-19)
(1.0056 0.0311964 -1.87079e-19)
(1.10209 0.0355763 2.95615e-21)
(1.17889 0.03787 -1.5562e-19)
(1.23563 0.0377323 3.73484e-19)
(1.27372 0.0351659 0)
(1.29586 0.0304678 -2.41592e-19)
(1.3054 0.0241245 1.18087e-19)
(1.30577 0.0167255 1.03543e-19)
(1.29993 0.00877256 0)
(1.29026 0.000976788 8.37112e-20)
(1.27814 -0.00697627 -2.82203e-19)
(1.26491 -0.0124999 2.64921e-19)
(1.2505 -0.0229224 1.61724e-19)
(-0.00811305 0.00611205 -9.769e-20)
(0.00874214 0.00614855 -1.00985e-19)
(0.0571084 0.00359866 9.14423e-20)
(0.13343 0.000787213 0)
(0.234438 -0.000461757 0)
(0.355897 0.00111315 -3.27176e-21)
(0.491912 0.00596354 0)
(0.63502 0.0137839 -3.82914e-19)
(0.776916 0.023658 3.56152e-19)
(0.909553 0.0342813 -4.40363e-19)
(1.02628 0.044245 1.01376e-19)
(1.1227 0.052318 0)
(1.19699 0.0576561 1.68895e-19)
(1.24975 0.0598955 -3.12866e-19)
(1.28348 0.0591284 7.46908e-20)
(1.30177 0.0557897 1.91172e-19)
(1.30852 0.0505021 -8.77e-21)
(1.30731 0.0439327 -2.11364e-19)
(1.301 0.0366775 0)
(1.29165 0.0292347 0)
(1.28056 0.0219807 -7.4861e-20)
(1.26849 0.0150027 6.68171e-20)
(1.25602 0.00959152 2.37472e-19)
(1.24305 0.000831415 -2.22995e-19)
(-0.00242904 0.00307429 -1.02698e-19)
(0.0310198 -0.00117877 -1.02561e-19)
(0.100642 -0.00478486 2.88459e-19)
(0.201065 -0.00605082 -1.75463e-19)
(0.326699 -0.00360094 1.6515e-19)
(0.470356 0.0032969 3.00762e-19)
(0.622921 0.0143027 -2.12631e-19)
(0.774231 0.0281633 -2.59052e-19)
(0.91459 0.0430834 4.98206e-21)
(1.03631 0.0571664 3.32171e-19)
(1.13474 0.0688205 0)
(1.20852 0.0770281 9.13459e-20)
(1.25915 0.0814281 0)
(1.29009 0.0822324 -1.49641e-19)
(1.30574 0.0800361 2.1069e-19)
(1.31046 0.0756033 2.37755e-21)
(1.30798 0.0696903 -5.5101e-20)
(1.30111 0.0629369 1.03648e-19)
(1.29175 0.0558337 8.88666e-20)
(1.28107 0.0487227 -7.95852e-20)
(1.26974 0.0418626 7.48436e-20)
(1.25811 0.0353032 -6.68004e-20)
(1.24642 0.0297693 0)
(1.23462 0.0219479 -5.02213e-20)
(0.0058463 -0.000101299 1.02683e-19)
(0.060278 -0.00783753 1.07707e-19)
(0.154584 -0.0107581 -9.66576e-20)
(0.280964 -0.00828061 1.80437e-19)
(0.430624 3.5138e-05 -1.69822e-19)
(0.592725 0.0138803 1.53968e-19)
(0.754961 0.0316904 -7.38574e-20)
(0.905499 0.0510803 1.94418e-19)
(1.03509 0.0695286 -1.22141e-19)
(1.1384 0.0849739 2.16412e-19)
(1.21428 0.0961679 -4.99333e-19)
(1.26495 0.102742 1.83182e-19)
(1.2948 0.105042 -1.6089e-19)
(1.30898 0.103849 1.51131e-19)
(1.31238 0.100092 1.30718e-19)
(1.30895 0.0946404 1.14918e-19)
(1.30157 0.0881957 -3.19311e-19)
(1.29207 0.0812702 1.98275e-19)
(1.28156 0.0742129 -8.88708e-20)
(1.27064 0.0672584 2.31193e-19)
(1.2596 0.0605576 -7.4666e-20)
(1.24857 0.0542036 -1.80898e-19)
(1.23763 0.0485316 1.66874e-19)
(1.22669 0.0414514 5.02068e-20)
(0.0170039 -0.0030301 0)
(0.0968455 -0.012792 9.20617e-22)
(0.218574 -0.0128624 2.01895e-19)
(0.371257 -0.00433503 -1.89354e-19)
(0.542137 0.011678 -1.71279e-19)
(0.716599 0.0332844 3.18428e-19)
(0.88013 0.0574405 -1.47926e-19)
(1.02115 0.0807956 1.97251e-19)
(1.13296 0.100608 -4.29652e-21)
(1.21411 0.115259 -1.11732e-19)
(1.26734 0.12431 2.44177e-19)
(1.29788 0.128241 -3.60171e-19)
(1.31172 0.128046 0)
(1.31437 0.124862 -7.07981e-20)
(1.31019 0.119718 -1.89506e-19)
(1.30221 0.113411 5.95203e-20)
(1.29235 0.106507 2.39531e-21)
(1.2817 0.0993738 -1.31276e-19)
(1.27082 0.0922483 8.21396e-21)
(1.25997 0.0852806 1.51823e-19)
(1.24925 0.078571 -6.76802e-20)
(1.2387 0.0722003 -2.5614e-20)
(1.2283 0.066244 7.93218e-20)
(1.21799 0.0596021 0)
(0.031202 -0.00524347 0)
(0.140569 -0.0148451 5.46823e-20)
(0.291375 -0.00955166 -2.62505e-19)
(0.468894 0.00719262 9.57388e-20)
(0.656093 0.0320563 -9.01025e-20)
(0.83536 0.0611848 -8.2287e-20)
(0.991876 0.0901802 -1.45705e-19)
(1.11656 0.115288 7.26181e-20)
(1.20691 0.13424 6.33485e-20)
(1.26575 0.146383 0)
(1.29909 0.152293 1.44415e-19)
(1.31388 0.153212 -2.14892e-19)
(1.31645 0.150552 1.60142e-19)
(1.31175 0.145564 7.08367e-20)
(1.30317 0.139201 -5.81409e-20)
(1.2928 0.132115 -4.88213e-20)
(1.2818 0.12472 -4.56605e-20)
(1.27073 0.117268 1.36258e-19)
(1.25983 0.109913 0)
(1.24921 0.102756 6.86118e-20)
(1.23887 0.095868 5.77405e-20)
(1.22879 0.0893078 -1.43315e-19)
(1.21891 0.083044 -9.79291e-20)
(1.20916 0.0766817 9.0601e-20)
(0.0484313 -0.00622212 -5.84569e-20)
(0.190733 -0.0127744 -2.0142e-21)
(0.370848 0.000553902 5.33656e-20)
(0.569878 0.0272374 1.49148e-19)
(0.766976 0.0611774 4.34026e-20)
(0.943263 0.0965546 -8.38005e-20)
(1.08598 0.128189 7.6678e-20)
(1.19038 0.152716 -6.73507e-20)
(1.25873 0.168968 1.2055e-19)
(1.2976 0.177507 5.15049e-20)
(1.31499 0.179852 -1.45938e-19)
(1.31836 0.177771 4.31527e-20)
(1.31349 0.172836 7.38393e-20)
(1.30436 0.166232 -3.6285e-20)
(1.29336 0.158754 0)
(1.28181 0.15089 5.45013e-20)
(1.27031 0.142927 9.24938e-20)
(1.25915 0.13503 1.60049e-20)
(1.24838 0.1273 -7.72527e-20)
(1.23803 0.119806 3.24646e-20)
(1.22804 0.112601 0)
(1.21836 0.105707 -2.5586e-20)
(1.20892 0.0990731 -2.41119e-20)
(1.19964 0.0927505 0)
(0.0684597 -0.0054347 0)
(0.24602 -0.0054722 3.05768e-20)
(0.454068 0.0184591 5.66899e-20)
(0.669719 0.0560899 -1.51719e-19)
(0.869697 0.0983424 4.88835e-20)
(1.03621 0.137925 0)
(1.16069 0.169765 7.37054e-20)
(1.24365 0.191668 -1.02861e-19)
(1.29175 0.203929 -6.01144e-20)
(1.31411 0.208308 2.72446e-20)
(1.31956 0.207029 -4.36263e-20)
(1.31511 0.202114 1.05925e-19)
(1.30559 0.195094 5.33221e-20)
(1.29392 0.186989 -3.69444e-20)
(1.28168 0.178412 -3.35493e-21)
(1.26959 0.169705 -1.02184e-19)
(1.25797 0.161057 4.65964e-20)
(1.24689 0.152576 -1.11011e-21)
(1.23635 0.144328 0)
(1.22631 0.136363 -3.24983e-20)
(1.2167 0.128713 0)
(1.20743 0.121374 7.39168e-20)
(1.19845 0.114347 -8.81468e-20)
(1.18962 0.10789 4.02111e-20)
(0.0908015 -0.00238181 -1.58141e-20)
(0.304542 0.0079358 -7.69771e-20)
(0.537579 0.0446633 8.74687e-20)
(0.763974 0.0933741 5.1569e-20)
(0.960182 0.14232 -2.46685e-20)
(1.11191 0.183673 4.14269e-20)
(1.21615 0.213448 -2.01424e-20)
(1.27865 0.231169 3.35844e-20)
(1.30943 0.23868 0)
(1.31897 0.238727 7.63864e-20)
(1.31593 0.233952 -3.02007e-21)
(1.3064 0.226399 -6.18797e-20)
(1.29412 0.217434 2.66237e-20)
(1.2811 0.207871 -3.01961e-20)
(1.26828 0.198153 -1.16333e-20)
(1.25604 0.188509 1.32738e-20)
(1.2445 0.17906 -1.03712e-20)
(1.23363 0.169873 -5.63164e-20)
(1.22339 0.160992 3.45565e-20)
(1.21371 0.152449 7.14095e-21)
(1.2045 0.144255 6.31044e-21)
(1.19566 0.136395 5.57764e-21)
(1.18712 0.128945 0)
(1.17871 0.122144 0)
(0.114794 0.00337055 1.5825e-20)
(0.364098 0.0280131 -1.58849e-20)
(0.617874 0.0791093 -2.91328e-20)
(0.848836 0.13814 0)
(1.0357 0.191582 -1.22298e-20)
(1.16959 0.232263 -1.09774e-20)
(1.25355 0.258103 -1.88504e-20)
(1.2978 0.270611 0)
(1.31455 0.273031 0)
(1.3146 0.268803 0)
(1.30582 0.260718 0)
(1.29317 0.250683 0)
(1.27939 0.239838 -1.67754e-20)
(1.26576 0.228795 7.65338e-21)
(1.25281 0.217859 1.33635e-20)
(1.24069 0.207173 6.24502e-21)
(1.22939 0.196807 1.55825e-20)
(1.21885 0.186803 0)
(1.20901 0.177185 -3.78632e-21)
(1.19977 0.167971 -3.59746e-21)
(1.19103 0.159152 -6.32044e-21)
(1.1827 0.150723 -5.5865e-21)
(1.17465 0.142833 0)
(1.16675 0.135536 4.06799e-21)
(-0.00230135 0.0473464 9.51916e-21)
(-0.00789109 0.111709 -9.83998e-21)
(-0.0165819 0.153939 -1.85886e-20)
(-0.027322 0.179275 0)
(-0.0393016 0.192283 -2.47705e-20)
(-0.0519661 0.196824 7.71162e-21)
(-0.0648476 0.195886 -1.48435e-20)
(-0.0775707 0.191529 0)
(-0.0898573 0.184964 0)
(-0.101505 0.176715 0)
(-0.112363 0.166821 0)
(-0.122309 0.155026 0)
(-0.131239 0.140928 -2.00594e-22)
(-0.139049 0.124084 -1.01108e-20)
(-0.145633 0.104076 1.99261e-20)
(-0.150883 0.0805555 2.82189e-20)
(-0.154697 0.0532745 9.39268e-21)
(-0.156997 0.0221011 0)
(-0.157601 -0.0129785 7.80776e-21)
(-0.156343 -0.0516948 -2.26698e-20)
(-0.153237 -0.0935863 -1.44152e-20)
(-0.148258 -0.137963 -1.34745e-20)
(-0.141438 -0.183879 0)
(-0.133058 -0.229958 0)
(-0.0049694 0.0489419 -2.88471e-20)
(-0.0130186 0.116716 4.94613e-20)
(-0.0213325 0.162225 -1.90522e-20)
(-0.0300867 0.190363 -3.55958e-20)
(-0.0391668 0.205516 5.00796e-20)
(-0.0483783 0.211498 -3.18663e-20)
(-0.0574561 0.211356 4.481e-20)
(-0.0661195 0.207255 2.89382e-20)
(-0.0741102 0.200523 0)
(-0.0812056 0.191789 -2.578e-20)
(-0.0872201 0.181172 -7.17704e-22)
(-0.0920012 0.168466 2.26927e-20)
(-0.095422 0.153295 3.38202e-20)
(-0.0973739 0.135225 4.32252e-20)
(-0.0977616 0.113832 -1.91928e-20)
(-0.0965011 0.0887564 -5.77412e-20)
(-0.0935165 0.0597347 1.95569e-20)
(-0.0887429 0.0266477 -7.18936e-20)
(-0.0821404 -0.0104571 0)
(-0.073646 -0.0513867 1.53156e-20)
(-0.0632939 -0.0956318 1.43918e-20)
(-0.0511411 -0.142384 1.34524e-20)
(-0.0369906 -0.19039 0)
(-0.0207357 -0.237687 0)
(-0.00756649 0.0486017 0)
(-0.0181166 0.117575 1.025e-19)
(-0.0260322 0.165304 -3.85699e-20)
(-0.0325951 0.19589 3.6119e-20)
(-0.0383421 0.213223 -1.03367e-19)
(-0.0434449 0.220863 0)
(-0.0478627 0.221775 -6.19766e-20)
(-0.05144 0.218155 2.93844e-20)
(-0.053966 0.211425 -5.63841e-20)
(-0.0552175 0.202326 2.76076e-20)
(-0.0549864 0.191086 1.53977e-19)
(-0.053093 0.177588 -7.24662e-20)
(-0.0493897 0.161519 -1.16939e-19)
(-0.0437598 0.142485 -4.71766e-20)
(-0.0361143 0.120088 -1.78555e-21)
(-0.0263891 0.093983 1.64177e-19)
(-0.0145385 0.0639146 -7.78574e-20)
(-0.000571176 0.0297497 -1.75128e-21)
(0.0154599 -0.00848643 0)
(0.0335707 -0.0505483 -6.93287e-20)
(0.0536322 -0.0959557 0)
(0.075418 -0.143906 -5.83959e-20)
(0.0991105 -0.193007 2.23201e-19)
(0.126204 -0.241048 -2.06063e-21)
(-0.00982682 0.0464232 0)
(-0.0227123 0.114278 8.75085e-22)
(-0.0302882 0.162907 3.97479e-20)
(-0.0346832 0.195297 -3.76158e-20)
(-0.0369635 0.214598 3.44344e-20)
(-0.037622 0.22394 1.99582e-19)
(-0.0368574 0.226064 -6.26453e-20)
(-0.0346704 0.223107 -6.02072e-20)
(-0.0309349 0.216537 1.1369e-19)
(-0.0254621 0.2072 -1.63445e-19)
(-0.018048 0.195443 5.16957e-20)
(-0.00850379 0.181261 5.02284e-20)
(0.00332888 0.164432 0)
(0.0175723 0.14463 4.5278e-20)
(0.0343115 0.121504 0)
(0.0535967 0.0947352 8.55935e-20)
(0.0754434 0.064085 -1.64351e-19)
(0.0998159 0.0294306 3.54633e-20)
(0.126647 -0.0091695 1.47461e-19)
(0.155836 -0.0514682 6.92397e-20)
(0.187129 -0.097008 0)
(0.220248 -0.145007 -1.85481e-19)
(0.25443 -0.19409 5.82699e-20)
(0.295246 -0.24153 0)
(-0.0115513 0.0427234 0)
(-0.0264254 0.107263 -1.27382e-19)
(-0.0338001 0.155286 -4.02058e-20)
(-0.0362672 0.18852 -7.55617e-20)
(-0.0352399 0.209269 7.11445e-20)
(-0.0314648 0.220103 -6.68039e-20)
(-0.0253646 0.223425 1.28205e-19)
(-0.0171173 0.221221 6.15733e-20)
(-0.00671871 0.21494 -1.72003e-19)
(0.00594606 0.205499 1.11226e-19)
(0.0210433 0.193352 -1.58175e-19)
(0.0387487 0.178612 3.55836e-19)
(0.0592221 0.161165 -1.92098e-19)
(0.0825944 0.140771 9.35816e-20)
(0.108957 0.117143 2.71574e-19)
(0.138373 0.0899921 -8.16046e-20)
(0.170868 0.0591394 -7.94865e-20)
(0.206406 0.0244918 -7.76262e-20)
(0.244879 -0.01388 0)
(0.286091 -0.0557041 -1.43848e-19)
(0.329553 -0.100464 -1.35128e-19)
(0.375342 -0.147228 1.90512e-19)
(0.419573 -0.195175 2.31366e-19)
(0.476581 -0.239961 -2.17156e-19)
(-0.0126537 0.0379841 0)
(-0.0290459 0.0973563 -1.73443e-19)
(-0.0363827 0.143193 -3.06688e-22)
(-0.0373043 0.176046 1.53024e-19)
(-0.0333561 0.197389 0)
(-0.0254439 0.209193 0)
(-0.0141752 0.213456 0)
(9.71671e-05 0.211934 -6.17114e-20)
(0.0172354 0.20599 -1.57449e-21)
(0.0372535 0.196553 1.10044e-19)
(0.0602577 0.184155 -1.61107e-19)
(0.0863993 0.16901 -1.62415e-21)
(0.115843 0.151105 0)
(0.148748 0.130285 -9.35268e-20)
(0.185219 0.106329 9.23327e-20)
(0.225372 0.0790589 -2.57346e-19)
(0.269276 0.048316 3.33048e-19)
(0.316834 0.0140436 8.32331e-20)
(0.367828 -0.0236268 3.56386e-21)
(0.421942 -0.0643012 -2.85125e-19)
(0.477994 -0.10747 -1.33298e-19)
(0.537134 -0.151551 4.35956e-19)
(0.589946 -0.197299 -2.89693e-19)
(0.662491 -0.237192 0)
(-0.0131804 0.0327771 8.59365e-20)
(-0.0305727 0.0856517 8.70474e-20)
(-0.0379892 0.127805 -8.25044e-20)
(-0.0377527 0.158885 -1.54272e-19)
(-0.0313407 0.179683 1.45246e-19)
(-0.0197142 0.191623 -1.37067e-19)
(-0.00360215 0.19629 1.93584e-19)
(0.0165013 0.19516 -6.18422e-20)
(0.0403305 0.189452 1.15682e-19)
(0.067805 0.180053 0)
(0.0989791 0.167521 1.07706e-19)
(0.133991 0.152135 -2.00128e-19)
(0.173023 0.133962 1.96394e-19)
(0.216274 0.112939 -1.84447e-19)
(0.263947 0.0889502 0)
(0.316119 0.0618717 1.71392e-19)
(0.372729 0.0315974 3.30401e-19)
(0.433564 -0.00179301 -3.11218e-19)
(0.498041 -0.0380561 -1.47184e-19)
(0.565514 -0.0765559 -1.42559e-19)
(0.633571 -0.117001 3.97135e-19)
(0.704521 -0.156579 1.18305e-19)
(0.76328 -0.198634 -1.13118e-19)
(0.845537 -0.231062 9.87895e-20)
(-0.0132993 0.0276695 -8.59484e-20)
(-0.0311954 0.0733295 2.65016e-19)
(-0.0386698 0.110541 -8.36442e-20)
(-0.0374823 0.138457 1.55244e-19)
(-0.0288945 0.157424 -1.46159e-19)
(-0.013828 0.168446 -1.60693e-23)
(0.00694825 0.172739 6.45776e-20)
(0.0328684 0.171504 2.45269e-19)
(0.0635973 0.165779 2.31591e-21)
(0.0990074 0.156363 -1.0934e-19)
(0.139147 0.143787 0)
(0.184168 0.128371 -1.01879e-19)
(0.234283 0.110249 1.90448e-19)
(0.289692 0.0894355 1.86115e-19)
(0.350484 0.0658884 -8.72828e-20)
(0.416566 0.0395639 -1.57862e-21)
(0.487529 0.0105408 -8.14479e-20)
(0.5626 -0.0209478 1.51261e-19)
(0.64043 -0.0545385 1.47148e-19)
(0.71964 -0.0892902 -1.38593e-19)
(0.796604 -0.125278 1.24311e-19)
(0.873594 -0.158451 -1.14316e-19)
(0.93345 -0.195051 0)
(1.01359 -0.217899 -9.87573e-20)
(-0.0132513 0.0231266 8.70085e-20)
(-0.0311973 0.0614509 -8.8744e-20)
(-0.0384446 0.09283 8.37617e-20)
(-0.036108 0.116383 0)
(-0.0251584 0.132297 0)
(-0.00640115 0.141318 1.37734e-19)
(0.0194473 0.144387 -1.29339e-19)
(0.0518483 0.142467 1.2246e-19)
(0.0904889 0.136416 -5.76667e-19)
(0.135256 0.126918 -1.06898e-21)
(0.18621 0.11448 1.03603e-19)
(0.243503 0.0994209 0)
(0.307227 0.0819095 -1.91392e-19)
(0.377331 0.0620274 3.62707e-19)
(0.453484 0.0398434 -2.59291e-19)
(0.534943 0.0154654 -4.16599e-19)
(0.620462 -0.0108979 -3.4648e-21)
(0.708261 -0.0388775 2.9168e-19)
(0.795963 -0.0680189 0)
(0.881155 -0.0972796 0)
(0.9598 -0.126943 -1.24314e-19)
(1.03272 -0.152632 1.14323e-19)
(1.08603 -0.182374 -3.95273e-19)
(1.14941 -0.19555 3.70352e-19)
(-0.0132683 0.0194298 0)
(-0.0307886 0.0507713 0)
(-0.0371042 0.0758698 -2.51458e-19)
(-0.0327744 0.0942438 7.9995e-20)
(-0.0184765 0.106181 8.42784e-22)
(0.00515433 0.112346 1.38598e-19)
(0.0375394 0.11352 0)
(0.0782538 0.110492 -1.21636e-19)
(0.127062 0.103979 1.1509e-19)
(0.183883 0.0945788 -2.17748e-19)
(0.248663 0.0827388 -1.19023e-21)
(0.321254 0.0687539 1.97692e-19)
(0.401277 0.0528363 2.74404e-21)
(0.487936 0.0351409 1.82101e-19)
(0.579907 0.0158122 -2.53208e-19)
(0.675283 -0.00496838 0)
(0.771598 -0.026939 3.05526e-19)
(0.865935 -0.0497377 -4.33098e-19)
(0.955129 -0.0729055 1.30807e-19)
(1.03614 -0.0957057 0)
(1.10571 -0.118188 1.10868e-19)
(1.16344 -0.137143 4.10599e-19)
(1.20179 -0.159832 -3.85399e-19)
(1.23854 -0.166151 -4.08385e-19)
(-0.0134702 0.0166242 2.64344e-19)
(-0.0299137 0.0416146 -3.62457e-19)
(-0.034014 0.0604409 1.24114e-21)
(-0.026005 0.0733332 8.02148e-20)
(-0.00633018 0.0808839 -1.48768e-19)
(0.0245614 0.0838249 -1.38219e-19)
(0.0662598 0.0828928 2.59074e-19)
(0.118447 0.0787869 -2.23682e-22)
(0.180867 0.0721296 -2.28973e-19)
(0.253204 0.0634344 4.33791e-19)
(0.334924 0.0530831 2.41143e-21)
(0.425079 0.0413578 -1.9339e-19)
(0.522179 0.0284506 0)
(0.624104 0.0144926 0)
(0.72812 -0.000408005 -8.39418e-20)
(0.831003 -0.0161338 -1.5409e-19)
(0.929265 -0.0325172 -2.93601e-19)
(1.01942 -0.0493639 2.75608e-19)
(1.09841 -0.0663086 -1.30888e-19)
(1.16374 -0.0831561 2.31642e-19)
(1.21407 -0.0993296 -1.17464e-19)
(1.24936 -0.114039 1.83756e-19)
(1.26833 -0.130609 -4.42476e-19)
(1.27971 -0.134947 8.14237e-20)
(-0.0137762 0.0145174 8.90019e-20)
(-0.0281075 0.0338477 0)
(-0.0280184 0.0468166 1.7092e-19)
(-0.0137351 0.0544927 -1.61005e-19)
(0.0144108 0.0578792 1.48908e-19)
(0.0560895 0.057878 0)
(0.110947 0.0552651 0)
(0.178549 0.0507073 -1.22337e-19)
(0.258234 0.0447576 -1.81451e-22)
(0.348928 0.0378426 1.07813e-19)
(0.448957 0.0302517 -1.02453e-19)
(0.555937 0.0221471 1.92326e-19)
(0.666781 0.0135793 0)
(0.777841 0.00451764 3.44438e-19)
(0.885153 -0.00510875 -6.4683e-19)
(0.98478 -0.0153698 4.57869e-19)
(1.07319 -0.0262838 2.80772e-19)
(1.14757 -0.0378328 -2.63588e-19)
(1.20621 -0.049786 0)
(1.24845 -0.0622681 0)
(1.27528 -0.0741692 0)
(1.2879 -0.0872756 0)
(1.28964 -0.0982561 8.42399e-20)
(1.2846 -0.107399 -2.82145e-19)
(-0.122805 -0.282215 -7.36866e-21)
(-0.116393 -0.34574 7.42633e-21)
(-0.108004 -0.407141 -2.17765e-22)
(-0.0989916 -0.462816 0)
(-0.0892483 -0.509582 -5.2792e-21)
(-0.0776811 -0.544052 9.91498e-21)
(-0.0621115 -0.562211 -2.60068e-22)
(-0.0394708 -0.55945 -4.26701e-21)
(-0.00659719 -0.531221 0)
(0.0385092 -0.474034 0)
(0.0948632 -0.385606 -2.24911e-22)
(0.159463 -0.269852 -2.2384e-22)
(0.229725 -0.133956 -4.08159e-21)
(0.302124 0.0162007 3.75116e-21)
(0.373975 0.170901 0)
(0.443271 0.315828 0)
(0.506421 0.434186 2.32598e-21)
(0.558773 0.514246 -3.98986e-22)
(0.596977 0.554787 -1.7124e-21)
(0.621075 0.563171 -8.00235e-23)
(0.631916 0.553445 0)
(0.626314 0.545092 0)
(0.601588 0.549975 0)
(0.566517 0.552979 0)
(0.54301 0.512967 0)
(0.550804 0.394592 0)
(0.590602 0.202471 6.56755e-22)
(0.649356 -0.0201651 -1.08769e-21)
(0.711125 -0.218486 0)
(0.763596 -0.358275 0)
(0.798432 -0.434642 -4.38957e-22)
(0.816489 -0.461679 4.26615e-22)
(0.822984 -0.458638 1.5188e-22)
(0.815135 -0.454295 0)
(0.78456 -0.46669 0)
(0.735354 -0.472293 2.92199e-22)
(0.691795 -0.420706 -2.84043e-22)
(0.677461 -0.276303 0)
(0.694268 -0.0791109 3.62661e-22)
(0.732245 0.119255 -5.13448e-22)
(0.775446 0.256606 1.32523e-22)
(0.815253 0.340851 0)
(0.834283 0.38314 -1.73655e-22)
(0.817617 0.416455 1.68863e-22)
(0.775196 0.430271 0)
(0.73495 0.365631 0)
(0.723372 0.240402 -9.64843e-23)
(0.749019 0.0329728 2.9276e-22)
(0.788218 -0.110053 0)
(0.824762 -0.244056 0)
(0.824873 -0.311943 -5.03679e-23)
(0.79391 -0.352987 1.73229e-24)
(0.769313 -0.365378 -3.31114e-24)
(0.76639 -0.212639 3.12716e-23)
(0.789089 -0.130064 0)
(0.806525 0.102521 0)
(0.801398 0.208034 0)
(0.788966 0.292053 0)
(0.790949 0.378733 0)
(0.780605 0.113472 0)
(-0.00496948 -0.289592 -8.13389e-22)
(0.00056651 -0.352803 -3.09812e-20)
(0.00621635 -0.414155 2.31034e-21)
(0.00945495 -0.46938 2.68516e-20)
(0.00920914 -0.515919 3.67834e-22)
(0.00581289 -0.551468 0)
(0.00112165 -0.573107 -1.68508e-20)
(-0.00155473 -0.577051 3.20676e-20)
(0.00257067 -0.558538 -1.52023e-20)
(0.0197806 -0.51292 1.36585e-20)
(0.051968 -0.436947 -1.30505e-20)
(0.0962267 -0.328069 1.30615e-20)
(0.152817 -0.196169 -1.26091e-20)
(0.218702 -0.0471876 -3.49877e-22)
(0.289083 0.107951 -1.1204e-20)
(0.360907 0.256377 1.08879e-20)
(0.430403 0.382103 -8.10602e-21)
(0.49257 0.4733 7.67102e-21)
(0.543197 0.526547 -5.57394e-21)
(0.580423 0.547305 1.01723e-20)
(0.602009 0.550033 -4.63484e-21)
(0.603745 0.554042 -2.67877e-22)
(0.58636 0.567118 -4.88822e-21)
(0.56353 0.568673 1.03631e-20)
(0.557802 0.517129 -5.45425e-21)
(0.583382 0.383563 4.50007e-22)
(0.635746 0.179287 7.96006e-21)
(0.7005 -0.0494899 -4.50061e-23)
(0.761515 -0.247077 -1.31705e-20)
(0.808038 -0.38008 1.07903e-20)
(0.834117 -0.447232 -4.69132e-21)
(0.842046 -0.466659 3.92076e-22)
(0.839053 -0.457457 -1.52177e-22)
(0.825303 -0.445268 2.50947e-22)
(0.79187 -0.449323 0)
(0.738739 -0.452274 0)
(0.687961 -0.4077 -1.19372e-21)
(0.664852 -0.276008 8.67472e-22)
(0.676417 -0.0902879 9.78303e-22)
(0.713237 0.102199 3.69935e-23)
(0.760603 0.239511 -1.22792e-21)
(0.805099 0.329494 1.9748e-22)
(0.828175 0.381853 0)
(0.813894 0.424997 0)
(0.775084 0.442672 0)
(0.740527 0.373875 0)
(0.73205 0.239712 4.4699e-22)
(0.759758 0.0248909 -1.99114e-22)
(0.796653 -0.120247 0)
(0.833707 -0.248559 0)
(0.83272 -0.30857 0)
(0.801281 -0.346033 -7.60696e-23)
(0.775846 -0.362179 1.92743e-23)
(0.769529 -0.214938 -6.92578e-23)
(0.790944 -0.134428 0)
(0.802873 0.101439 0)
(0.798233 0.209344 3.93202e-23)
(0.784917 0.293127 8.82147e-23)
(0.787586 0.379355 0)
(0.780312 0.114301 0)
(0.14599 -0.293036 -2.40312e-21)
(0.153212 -0.354312 -7.03552e-20)
(0.157873 -0.4135 6.03349e-20)
(0.158517 -0.465812 -5.64315e-20)
(0.152586 -0.508926 -3.70256e-22)
(0.139401 -0.541516 0)
(0.119587 -0.562518 -3.3112e-20)
(0.0952517 -0.570396 3.23688e-20)
(0.0708472 -0.561548 2.1651e-22)
(0.0541006 -0.529989 3.31057e-22)
(0.0545768 -0.470473 2.9862e-22)
(0.0717835 -0.377822 3.68037e-22)
(0.105926 -0.256385 -2.03597e-20)
(0.157919 -0.112902 2.01383e-20)
(0.221466 0.0400754 0)
(0.292104 0.190107 4.56894e-22)
(0.364582 0.321832 -1.34595e-20)
(0.433731 0.42327 1.32858e-20)
(0.494424 0.489343 0)
(0.542514 0.524064 0)
(0.573181 0.541254 -8.80763e-21)
(0.582485 0.558151 1.78292e-20)
(0.574685 0.578035 -1.87846e-20)
(0.566618 0.576807 -1.70498e-21)
(0.579354 0.514998 2.50551e-20)
(0.621685 0.369942 -2.98945e-20)
(0.685493 0.158169 3.08324e-20)
(0.755191 -0.073385 -1.66371e-21)
(0.814418 -0.268696 -1.49218e-20)
(0.853962 -0.395139 0)
(0.870851 -0.454161 0)
(0.868931 -0.467315 2.05203e-21)
(0.85669 -0.453669 -2.76423e-21)
(0.837189 -0.435138 -1.12181e-23)
(0.80171 -0.431317 1.74336e-21)
(0.745991 -0.431342 -1.69433e-21)
(0.688903 -0.393834 0)
(0.656955 -0.275733 2.94102e-22)
(0.66275 -0.102838 2.5514e-21)
(0.697792 0.0828362 -4.66057e-21)
(0.748677 0.219911 1.93314e-21)
(0.797087 0.316132 1.618e-22)
(0.823899 0.379169 -1.67004e-21)
(0.812365 0.432304 1.3047e-21)
(0.777791 0.45411 3.57332e-22)
(0.749311 0.381836 4.25794e-22)
(0.744057 0.239868 -4.48135e-22)
(0.773418 0.0184177 0)
(0.807446 -0.129314 0)
(0.84437 -0.252411 -1.16417e-21)
(0.842177 -0.304872 5.2422e-22)
(0.810054 -0.338734 -3.52809e-22)
(0.783498 -0.358916 4.07838e-22)
(0.773724 -0.217112 4.26058e-22)
(0.794128 -0.138536 -1.25023e-22)
(0.800667 0.100445 1.76955e-22)
(0.796358 0.21067 -1.49075e-22)
(0.781737 0.294054 4.96458e-23)
(0.785119 0.37971 0)
(0.781036 0.114987 0)
(0.315476 -0.293553 -1.50135e-19)
(0.325216 -0.354233 1.03961e-20)
(0.329816 -0.410625 1.32768e-19)
(0.329419 -0.458319 -8.77674e-22)
(0.321179 -0.495444 0)
(0.303603 -0.521158 0)
(0.275884 -0.535915 -6.33248e-20)
(0.238032 -0.541063 9.00434e-21)
(0.192856 -0.536221 7.19501e-20)
(0.147169 -0.516939 -2.90172e-21)
(0.111661 -0.475733 -1.8074e-20)
(0.0939216 -0.407412 -1.48079e-20)
(0.0979513 -0.305416 1.47792e-20)
(0.126831 -0.175495 0)
(0.176055 -0.0287952 -1.3363e-20)
(0.240024 0.1195 1.22e-20)
(0.311288 0.255209 0)
(0.383769 0.365611 0)
(0.451096 0.44436 8.0564e-21)
(0.506898 0.493938 -1.39491e-22)
(0.544841 0.52634 -7.21897e-21)
(0.562153 0.555474 -8.89232e-21)
(0.565942 0.580567 8.92918e-21)
(0.57434 0.576231 -1.23504e-20)
(0.60545 0.506785 -2.36182e-21)
(0.663315 0.355124 1.40247e-20)
(0.737213 0.139853 2.11424e-21)
(0.811194 -0.0918637 -2.20861e-23)
(0.868491 -0.28399 0)
(0.900717 -0.404416 1.04037e-20)
(0.908239 -0.45635 -1.06576e-20)
(0.896895 -0.46421 4.01559e-22)
(0.875787 -0.447569 0)
(0.850482 -0.424447 -2.42618e-22)
(0.81347 -0.413358 3.13838e-21)
(0.756675 -0.409615 -5.85168e-21)
(0.694752 -0.378485 -8.00619e-22)
(0.654153 -0.274706 -4.44799e-22)
(0.653637 -0.116069 3.28773e-21)
(0.68615 0.0616293 4.95561e-22)
(0.739629 0.198117 -2.98817e-21)
(0.791112 0.300831 2.54199e-21)
(0.821362 0.374881 2.06802e-23)
(0.812939 0.438019 1.39423e-21)
(0.783087 0.464324 -1.7141e-21)
(0.760971 0.389513 -3.25369e-21)
(0.759104 0.24116 8.22673e-22)
(0.789741 0.0136684 1.85578e-21)
(0.82044 -0.137124 -3.29592e-21)
(0.856603 -0.255681 2.07745e-21)
(0.853085 -0.300939 -3.59289e-22)
(0.820078 -0.331065 5.41176e-22)
(0.792061 -0.355442 3.31324e-22)
(0.778746 -0.219123 -5.70974e-22)
(0.798498 -0.142441 -5.4892e-24)
(0.799851 0.0995052 -1.22993e-22)
(0.795746 0.212066 0)
(0.779426 0.294871 -6.54499e-23)
(0.78359 0.379786 1.02931e-22)
(0.78282 0.115524 0)
(0.493688 -0.290773 1.52693e-19)
(0.503532 -0.350774 -2.89291e-19)
(0.508351 -0.404409 1.34883e-19)
(0.506696 -0.447733 1.07581e-19)
(0.496102 -0.479549 -1.96158e-19)
(0.475883 -0.498728 1.42914e-20)
(0.445281 -0.50546 7.30646e-20)
(0.403069 -0.502278 4.69762e-20)
(0.349085 -0.492382 -4.60035e-20)
(0.286222 -0.476729 0)
(0.222435 -0.450312 -2.32547e-20)
(0.169584 -0.405467 4.25671e-20)
(0.13728 -0.330829 -1.95418e-20)
(0.133614 -0.224559 0)
(0.158082 -0.0930497 0)
(0.206717 0.0482685 3.27561e-22)
(0.27113 0.184634 -1.44542e-20)
(0.342323 0.302075 1.40418e-20)
(0.412157 0.392682 0)
(0.472414 0.456947 1.29403e-20)
(0.516278 0.504157 -2.60159e-20)
(0.54233 0.544299 2.91862e-20)
(0.559403 0.573434 -3.49922e-20)
(0.585206 0.566794 -5.11744e-21)
(0.633885 0.493331 5.27052e-20)
(0.705468 0.339917 -2.90804e-20)
(0.788408 0.124714 -1.07928e-21)
(0.866843 -0.104816 -1.52787e-20)
(0.922456 -0.292727 2.15231e-21)
(0.947332 -0.40747 1.33258e-20)
(0.945468 -0.453579 5.56103e-22)
(0.925291 -0.457362 -5.70082e-21)
(0.896056 -0.439109 9.79081e-21)
(0.865075 -0.413272 -4.57282e-21)
(0.826853 -0.396067 0)
(0.770318 -0.387944 -3.04399e-21)
(0.705337 -0.36199 2.98605e-21)
(0.656789 -0.272542 -2.84451e-21)
(0.6494 -0.129395 3.54337e-21)
(0.678324 0.0390305 -3.48404e-22)
(0.733292 0.174384 0)
(0.786986 0.283529 -2.85557e-22)
(0.820379 0.368668 8.86032e-22)
(0.81542 0.441788 0)
(0.790633 0.473095 4.16665e-21)
(0.775057 0.396897 -1.45951e-21)
(0.776687 0.243612 1.05152e-21)
(0.808396 0.0109738 1.10233e-21)
(0.835509 -0.143502 0)
(0.870231 -0.258291 0)
(0.865274 -0.296744 -1.29064e-21)
(0.831235 -0.322959 1.72861e-21)
(0.801368 -0.351651 -7.96045e-22)
(0.784372 -0.22098 1.86784e-22)
(0.803884 -0.146216 2.87585e-22)
(0.800343 0.0985925 1.23111e-22)
(0.796359 0.213579 -1.7142e-22)
(0.777985 0.29561 0)
(0.78304 0.37956 -1.59233e-22)
(0.785699 0.115904 -5.34558e-23)
(0.674153 -0.285636 1.52038e-19)
(0.681391 -0.342654 -1.51329e-19)
(0.684867 -0.392022 1.02651e-21)
(0.680334 -0.430924 -8.73876e-22)
(0.665631 -0.458736 7.68374e-22)
(0.641386 -0.473837 -6.36829e-22)
(0.607903 -0.475466 9.85188e-22)
(0.564615 -0.465175 0)
(0.510569 -0.446743 -5.57523e-22)
(0.445084 -0.425051 3.89844e-22)
(0.370085 -0.40141 2.57944e-22)
(0.293707 -0.37148 -2.67639e-22)
(0.227851 -0.323514 0)
(0.186309 -0.247747 0)
(0.176241 -0.142254 6.30326e-23)
(0.198555 -0.0160586 0)
(0.246656 0.114743 -6.51178e-23)
(0.309656 0.23537 0)
(0.376961 0.335519 -7.9833e-21)
(0.438654 0.413111 1.68112e-20)
(0.487611 0.473848 -1.9739e-20)
(0.523192 0.523604 1.07075e-20)
(0.554677 0.556194 1.74019e-20)
(0.597944 0.548798 -1.68978e-20)
(0.662741 0.475195 -2.90244e-20)
(0.746138 0.324451 2.83754e-20)
(0.837443 0.113208 0)
(0.920603 -0.112266 1.058e-21)
(0.975048 -0.295133 0)
(0.992919 -0.404574 0)
(0.981904 -0.446254 1.45785e-20)
(0.953596 -0.447215 -1.52361e-20)
(0.917174 -0.42847 5.76025e-22)
(0.880726 -0.40166 4.4692e-22)
(0.841397 -0.379793 -3.21576e-22)
(0.786226 -0.366931 -2.27953e-21)
(0.72014 -0.344585 2.21351e-21)
(0.664782 -0.26885 -2.92735e-21)
(0.650137 -0.142209 2.50765e-21)
(0.674336 0.0155874 6.34827e-22)
(0.729454 0.148971 -2.24005e-21)
(0.784472 0.264138 -2.43288e-22)
(0.820709 0.360207 1.56865e-21)
(0.819513 0.443269 0)
(0.799992 0.480258 -1.52032e-21)
(0.790995 0.403919 3.33461e-21)
(0.796318 0.247136 -4.16407e-21)
(0.829008 0.010386 -1.10933e-21)
(0.852365 -0.14829 0)
(0.885037 -0.260173 4.81979e-22)
(0.878544 -0.292305 -1.15302e-21)
(0.843403 -0.314364 -8.77083e-24)
(0.811288 -0.347402 -1.88564e-22)
(0.790388 -0.22268 1.80732e-22)
(0.810089 -0.149951 -2.27207e-22)
(0.80204 0.0976602 0)
(0.798156 0.21524 1.71501e-22)
(0.777419 0.296297 0)
(0.783504 0.379005 0)
(0.789702 0.116118 6.59544e-23)