/*--------------------------------*- C++ -*----------------------------------*\
| =========                 |                                                 |
| \\      /  F ield         | OpenFOAM: The Open Source CFD Toolbox           |
|  \\    /   O peration     | Version:  2512                                  |
|   \\  /    A nd           | Website:  www.openfoam.com                      |
|    \\/     M anipulation  |                                                 |
\*---------------------------------------------------------------------------*/
FoamFile
{
    version     2.0;
    format      ascii;
    arch        "LSB;label=32;scalar=64";
    class       volVectorField;
    location    "155";
    object      U;
}
// * * * * * * * * * * * * * * * * * * * * * * * * * * * * * * * * * * * * * //

dimensions      [0 1 -1 0 0 0 0];

internalField   nonuniform List<vector> 
13248
(
(-0.0140998 0.0128417 9.27607e-20)
(-0.0248465 0.0269649 0)
(-0.0177826 0.0345236 -1.74985e-19)
(0.00661881 0.0374695 1.64831e-19)
(0.0479986 0.0372564 1.54045e-19)
(0.105958 0.0349956 0)
(0.179847 0.0315255 0)
(0.268542 0.0274784 3.72971e-19)
(0.370209 0.0233011 -4.71315e-22)
(0.48213 0.0192491 -3.2818e-19)
(0.600675 0.0153836 3.08284e-19)
(0.721459 0.0115884 -1.93073e-19)
(0.839674 0.00761239 0)
(0.950538 0.00313312 -3.39041e-19)
(1.04977 -0.00216818 6.34074e-19)
(1.13405 -0.00853406 -1.51913e-19)
(1.20129 -0.0160755 -2.69354e-19)
(1.25086 -0.0247572 2.52892e-19)
(1.28351 -0.034355 0)
(1.30109 -0.0447663 0)
(1.3064 -0.0549893 0)
(1.30155 -0.0674249 0)
(1.29062 -0.0739583 7.12057e-20)
(1.27127 -0.0992343 2.47877e-19)
(-0.0136442 0.0111236 -2.79985e-19)
(-0.0183217 0.0204831 1.90696e-19)
(-0.00085046 0.0236164 -1.8094e-21)
(0.0375663 0.0230131 -2.51796e-19)
(0.0960961 0.0204837 -1.53877e-19)
(0.173746 0.0173665 -1.45789e-19)
(0.26889 0.0145774 -2.68126e-19)
(0.378935 0.0126823 2.53786e-19)
(0.500132 0.0119247 0)
(0.627631 0.0122353 5.2845e-22)
(0.755817 0.0132659 1.02498e-21)
(0.878864 0.0144645 1.92223e-19)
(0.991382 0.0151863 0)
(1.08902 0.0148183 0)
(1.16889 0.0128921 2.2876e-19)
(1.22983 0.00916059 -4.30136e-19)
(1.27231 0.00362522 2.55564e-19)
(1.29821 -0.00348673 -2.3996e-19)
(1.31033 -0.0117928 -1.04237e-19)
(1.31184 -0.0208098 -1.89194e-19)
(1.30577 -0.0300451 -7.5925e-20)
(1.29471 -0.0392043 -1.42312e-19)
(1.2804 -0.0462028 2.1172e-19)
(1.26399 -0.0574276 5.9026e-20)
(-0.0119177 0.00897646 0)
(-0.00750303 0.0136358 0)
(0.0240228 0.0132896 8.91111e-20)
(0.0804074 0.0105963 8.20923e-20)
(0.159865 0.00753643 -1.9028e-21)
(0.260121 0.0055487 -1.50893e-19)
(0.377721 0.0054684 0)
(0.507761 0.00758168 -1.26346e-19)
(0.644015 0.0116781 1.19164e-19)
(0.779485 0.0171272 6.37702e-22)
(0.907235 0.0230158 -2.04843e-19)
(1.02127 0.0283337 -1.88606e-19)
(1.11727 0.0321689 3.04463e-21)
(1.19297 0.0338657 -1.56715e-19)
(1.24823 0.0331128 3.76248e-19)
(1.28468 0.0299505 0)
(1.30525 0.0247085 -2.43118e-19)
(1.31344 0.0178935 1.18862e-19)
(1.31272 0.0101018 1.0416e-19)
(1.30606 0.00183038 0)
(1.29576 -0.00622207 8.41403e-20)
(1.28313 -0.0143852 -2.83354e-19)
(1.26943 -0.0200678 2.66002e-19)
(1.25453 -0.0307129 1.62107e-19)
(-0.00839079 0.00630241 -9.88096e-20)
(0.00876185 0.00631734 -1.02163e-19)
(0.0581542 0.00357463 9.2461e-20)
(0.136121 0.000493695 0)
(0.23927 -0.00104469 0)
(0.36318 0.000248005 -3.40042e-21)
(0.501688 0.00482367 0)
(0.647024 0.0123571 -3.86922e-19)
(0.790594 0.0219032 3.59794e-19)
(0.924153 0.0321321 -4.44669e-19)
(1.04099 0.0416246 1.02285e-19)
(1.13679 0.0491598 0)
(1.20992 0.0539217 1.70247e-19)
(1.26124 0.0555851 -3.15298e-19)
(1.29348 0.05428 7.5266e-20)
(1.31042 0.050469 1.92426e-19)
(1.31605 0.0447865 -8.92646e-21)
(1.31397 0.0378971 -2.12677e-19)
(1.30701 0.0303844 0)
(1.29713 0.0227323 0)
(1.2856 0.0153006 -7.52091e-20)
(1.27313 0.00818 6.70927e-20)
(1.26026 0.00264184 2.38251e-19)
(1.24689 -0.00626473 -2.23731e-19)
(-0.00260466 0.00320711 -1.03948e-19)
(0.0314299 -0.00112018 -1.038e-19)
(0.10245 -0.00491068 2.91903e-19)
(0.204903 -0.00641182 -1.7753e-19)
(0.332977 -0.00420996 1.67094e-19)
(0.479184 0.0024394 3.04194e-19)
(0.634054 0.0131809 -2.15085e-19)
(0.787094 0.0267304 -2.6193e-19)
(0.928392 0.0412651 5.14483e-21)
(1.05021 0.0548794 3.35575e-19)
(1.14801 0.065998 0)
(1.22065 0.0736392 9.21817e-20)
(1.26992 0.0774867 0)
(1.29951 0.0777908 -1.50793e-19)
(1.31396 0.0751699 2.1229e-19)
(1.31772 0.0703932 2.38471e-21)
(1.3145 0.0642081 -5.54646e-20)
(1.30706 0.0572381 1.04273e-19)
(1.29725 0.0499575 8.93708e-20)
(1.28618 0.0426962 -7.99985e-20)
(1.2745 0.0357054 7.51917e-20)
(1.26252 0.0290354 -6.7076e-20)
(1.2505 0.0233975 0)
(1.23833 0.0154642 -5.03728e-20)
(0.00581942 -3.70751e-05 1.03933e-19)
(0.0611779 -0.0079068 1.09057e-19)
(0.15725 -0.0109979 -9.78252e-20)
(0.285975 -0.00870492 1.8265e-19)
(0.438223 -0.00057838 -1.71904e-19)
(0.602756 0.0130589 1.55812e-19)
(0.76688 0.0306068 -7.47672e-20)
(0.918497 0.0496459 1.96585e-19)
(1.04829 0.0676442 -1.23516e-19)
(1.15106 0.0825617 2.18614e-19)
(1.22589 0.0931951 -5.04278e-19)
(1.27529 0.0992273 1.84959e-19)
(1.3039 0.101046 -1.62249e-19)
(1.317 0.0994542 1.52408e-19)
(1.31952 0.0953811 1.31688e-19)
(1.31543 0.0896843 1.15685e-19)
(1.30754 0.0830474 -3.21439e-19)
(1.29764 0.0759657 1.99558e-19)
(1.28678 0.0687756 -8.93751e-20)
(1.27554 0.0617049 2.32367e-19)
(1.26418 0.0549008 -7.50512e-20)
(1.25284 0.0484584 -1.81635e-19)
(1.24157 0.042702 1.67524e-19)
(1.23029 0.0355401 5.03585e-20)
(0.0171635 -0.00302877 0)
(0.0983091 -0.0129664 9.53733e-22)
(0.222148 -0.0131761 2.04485e-19)
(0.377391 -0.00476806 -1.91764e-19)
(0.550836 0.0111167 -1.73434e-19)
(0.727415 0.0325403 3.22397e-19)
(0.892273 0.0564116 -1.49753e-19)
(1.03371 0.0793606 1.99531e-19)
(1.14515 0.0986677 -4.41143e-21)
(1.22538 0.112766 -1.12958e-19)
(1.27745 0.121279 2.46571e-19)
(1.30683 0.124733 -3.6365e-19)
(1.31966 0.124147 0)
(1.3215 0.120659 -7.14038e-20)
(1.3167 0.115281 -1.90985e-19)
(1.30824 0.108795 6.00003e-20)
(1.298 0.101747 2.43597e-21)
(1.28702 0.0944919 -1.32065e-19)
(1.27584 0.0872591 8.34474e-21)
(1.26469 0.0801948 1.52695e-19)
(1.25368 0.0733983 -6.80088e-20)
(1.24283 0.0669509 -2.56999e-20)
(1.23213 0.0609207 7.96712e-20)
(1.2215 0.0542147 0)
(0.0315773 -0.00528899 0)
(0.14264 -0.0150757 5.53907e-20)
(0.29585 -0.00986686 -2.65935e-19)
(0.476021 0.00683068 9.69886e-20)
(0.665597 0.0316122 -9.12784e-20)
(0.846529 0.0605534 -8.33466e-20)
(1.00379 0.0892173 -1.47482e-19)
(1.12835 0.113863 7.35581e-20)
(1.21796 0.13228 6.41032e-20)
(1.27577 0.143886 0)
(1.30802 0.149313 1.4587e-19)
(1.32184 0.149835 -2.16981e-19)
(1.32364 0.146866 1.6166e-19)
(1.31834 0.141645 7.14429e-20)
(1.3093 0.135105 -5.85999e-20)
(1.29856 0.127879 -4.91544e-20)
(1.28724 0.120366 -4.59359e-20)
(1.27588 0.112811 1.37196e-19)
(1.2647 0.105362 0)
(1.25381 0.098119 6.89922e-20)
(1.24318 0.091155 5.79975e-20)
(1.23282 0.0845269 -1.44023e-19)
(1.22265 0.0782011 -9.83056e-20)
(1.21261 0.0717903 9.09609e-20)
(0.0490429 -0.00629199 -5.9238e-20)
(0.193423 -0.0129978 -2.05694e-21)
(0.376159 0.000322257 5.40739e-20)
(0.577802 0.0270272 1.51145e-19)
(0.77696 0.0609042 4.39626e-20)
(0.954409 0.0960599 -8.48917e-20)
(1.09735 0.127305 7.76579e-20)
(1.20126 0.151332 -6.81601e-20)
(1.26872 0.167049 1.21941e-19)
(1.30658 0.175094 5.20409e-20)
(1.32305 0.177025 -1.475e-19)
(1.32565 0.17462 4.35778e-20)
(1.32019 0.169442 7.4523e-20)
(1.3106 0.162654 -3.66237e-20)
(1.29924 0.155032 0)
(1.28737 0.14705 5.4932e-20)
(1.27559 0.138983 9.31774e-20)
(1.26415 0.130992 1.60835e-20)
(1.25312 0.123176 -7.77871e-20)
(1.2425 0.115604 3.26726e-20)
(1.23224 0.108329 0)
(1.22229 0.101372 -2.57246e-20)
(1.21258 0.0946834 -2.42185e-20)
(1.20303 0.0883185 0)
(0.0693174 -0.00550233 0)
(0.249304 -0.00562007 3.09883e-20)
(0.460098 0.0183933 5.74638e-20)
(0.678207 0.0560978 -1.53769e-19)
(0.879854 0.0982765 4.95526e-20)
(1.04706 0.137584 0)
(1.17138 0.168985 7.46206e-20)
(1.25365 0.19037 -1.04132e-19)
(1.30083 0.202122 -6.0812e-20)
(1.32229 0.206062 2.75421e-20)
(1.32698 0.204434 -4.40785e-20)
(1.32194 0.199255 1.07034e-19)
(1.31195 0.192037 5.38266e-20)
(1.29991 0.18378 -3.73129e-20)
(1.28735 0.175077 -3.4103e-21)
(1.27499 0.166262 -1.03052e-19)
(1.2631 0.157517 4.69816e-20)
(1.25176 0.148947 -1.10924e-21)
(1.24097 0.140617 0)
(1.23067 0.132578 -3.27065e-20)
(1.2208 0.124861 0)
(1.21128 0.117463 7.43183e-20)
(1.20204 0.110387 -8.8604e-20)
(1.19295 0.103892 4.04105e-20)
(0.0919029 -0.00241874 -1.60313e-20)
(0.308361 0.00792938 -7.80373e-20)
(0.544173 0.0448326 8.86793e-20)
(0.772784 0.0936462 5.22717e-20)
(0.970258 0.142483 -2.50074e-20)
(1.12228 0.183504 4.19626e-20)
(1.22612 0.212803 -2.04069e-20)
(1.28784 0.230011 3.39943e-20)
(1.31777 0.237053 0)
(1.32654 0.236716 7.72419e-20)
(1.32289 0.231647 -3.07202e-21)
(1.31288 0.223873 -6.25377e-20)
(1.30022 0.21474 2.68921e-20)
(1.28688 0.20504 -3.04843e-20)
(1.27379 0.195206 -1.17335e-20)
(1.26129 0.185459 1.33948e-20)
(1.24949 0.175915 -1.0462e-20)
(1.23837 0.16664 -5.67585e-20)
(1.22789 0.157679 3.48284e-20)
(1.21796 0.149064 7.19442e-21)
(1.2085 0.140806 6.35489e-21)
(1.19943 0.132886 5.61442e-21)
(1.19064 0.125392 0)
(1.182 0.118552 0)
(0.116124 0.00339253 1.60424e-20)
(0.368366 0.0282057 -1.6105e-20)
(0.624859 0.0795649 -2.95373e-20)
(0.857747 0.138703 0)
(1.0455 0.191987 -1.2397e-20)
(1.1794 0.232285 -1.1124e-20)
(1.26282 0.257632 -1.90903e-20)
(1.3063 0.269647 0)
(1.3223 0.27164 0)
(1.32171 0.267077 0)
(1.31242 0.258739 0)
(1.29938 0.248512 0)
(1.28527 0.237515 -1.69487e-20)
(1.27136 0.226344 7.73255e-21)
(1.25816 0.215295 1.34912e-20)
(1.24578 0.204506 6.30182e-21)
(1.23424 0.194046 1.57214e-20)
(1.22347 0.183954 0)
(1.21339 0.174256 -3.81671e-21)
(1.20391 0.16497 -3.62248e-21)
(1.19494 0.156086 -6.36497e-21)
(1.18638 0.147596 -5.62335e-21)
(1.1781 0.139665 0)
(1.16998 0.132328 4.09173e-21)
(-0.00227373 0.0508883 9.7439e-21)
(-0.00760608 0.121208 -1.00654e-20)
(-0.0158399 0.168339 -1.9006e-20)
(-0.0261486 0.197507 0)
(-0.0377863 0.21338 -2.53244e-20)
(-0.0501805 0.220008 7.88707e-21)
(-0.0628208 0.220588 -1.51823e-20)
(-0.0752825 0.217362 0)
(-0.0872412 0.211664 0)
(-0.0984552 0.20409 0)
(-0.108742 0.194698 0)
(-0.117956 0.183217 0)
(-0.125972 0.16921 -1.87668e-22)
(-0.132673 0.152188 -1.04422e-20)
(-0.137947 0.131691 2.06301e-20)
(-0.14168 0.107323 2.9299e-20)
(-0.143762 0.0787994 9.76997e-21)
(-0.144094 0.0459742 0)
(-0.142679 0.00886067 8.16904e-21)
(-0.1393 -0.0324355 -2.37158e-20)
(-0.133786 -0.0773319 -1.51009e-20)
(-0.126275 -0.125097 -1.41287e-20)
(-0.11676 -0.174702 0)
(-0.10547 -0.224569 0)
(-0.00506601 0.0519996 -2.95168e-20)
(-0.0129648 0.125293 5.05914e-20)
(-0.020695 0.175609 -1.94764e-20)
(-0.0287456 0.207658 -3.63702e-20)
(-0.0371209 0.225803 5.11755e-20)
(-0.0456385 0.233977 -3.2569e-20)
(-0.0540107 0.235397 4.58092e-20)
(-0.0619168 0.232395 2.95765e-20)
(-0.0690521 0.226427 0)
(-0.075151 0.218203 -2.64945e-20)
(-0.0799921 0.207873 -8.15585e-22)
(-0.0833955 0.195231 2.33245e-20)
(-0.0852158 0.179876 3.48216e-20)
(-0.0853333 0.161339 4.467e-20)
(-0.0836573 0.139173 -1.97793e-20)
(-0.0801144 0.112974 -5.98353e-20)
(-0.0746442 0.082446 2.03439e-20)
(-0.0672136 0.0474401 -7.47422e-20)
(-0.057798 0.00797567 0)
(-0.0463746 -0.0356906 1.60205e-20)
(-0.0329611 -0.083104 1.50756e-20)
(-0.0176476 -0.133449 1.41048e-20)
(-0.000218341 -0.185415 0)
(0.0199343 -0.236888 0)
(-0.00772503 0.051016 0)
(-0.0182103 0.124833 1.04679e-19)
(-0.0254704 0.177112 -3.93897e-20)
(-0.0311334 0.21159 3.6884e-20)
(-0.0358845 0.232005 -1.05446e-19)
(-0.0399249 0.241941 0)
(-0.0432175 0.244473 -6.32705e-20)
(-0.0455854 0.241937 2.99638e-20)
(-0.0467806 0.235879 -5.75521e-20)
(-0.0465432 0.227132 2.81439e-20)
(-0.0446345 0.215969 1.57738e-19)
(-0.0408542 0.202289 -7.4243e-20)
(-0.0350441 0.185773 -1.20293e-19)
(-0.02707 0.16601 -4.86628e-20)
(-0.0168728 0.142578 -2.01519e-21)
(-0.00443378 0.115108 1.6969e-19)
(0.0102796 0.0833272 -8.05485e-20)
(0.0272469 0.0470938 -1.66254e-21)
(0.0463402 0.00641982 0)
(0.0675593 -0.0384618 -7.19836e-20)
(0.0908253 -0.0870732 0)
(0.115843 -0.138641 -6.10974e-20)
(0.142659 -0.19178 2.32881e-19)
(0.173412 -0.244256 -2.21755e-21)
(-0.00997541 0.0481164 0)
(-0.022849 0.119959 8.27862e-22)
(-0.0297702 0.172714 4.04871e-20)
(-0.0331729 0.20885 -3.82862e-20)
(-0.0342699 0.231248 3.51227e-20)
(-0.0336036 0.242958 2.03191e-19)
(-0.0313941 0.24676 -6.38004e-20)
(-0.0276414 0.244895 -6.12613e-20)
(-0.0222035 0.23894 1.15888e-19)
(-0.0148715 0.229833 -1.66903e-19)
(-0.0054247 0.217984 5.26716e-20)
(0.00633403 0.203422 5.12817e-20)
(0.0205606 0.185939 0)
(0.0373659 0.165209 4.65325e-20)
(0.0568111 0.140862 0)
(0.0789089 0.112575 8.79185e-20)
(0.103645 0.0801034 -1.6961e-19)
(0.130963 0.0433125 3.64576e-20)
(0.160764 0.00223111 1.52419e-19)
(0.192925 -0.0428733 7.18904e-20)
(0.227201 -0.0915808 0)
(0.263373 -0.143112 -1.9273e-19)
(0.300123 -0.196167 6.06322e-20)
(0.344596 -0.24789 0)
(-0.0116273 0.0437081 0)
(-0.0265063 0.111287 -1.2974e-19)
(-0.0332929 0.16286 -4.08515e-20)
(-0.0347936 0.199548 -7.68379e-20)
(-0.0325344 0.223291 7.23451e-20)
(-0.0273123 0.236492 -6.79606e-20)
(-0.019586 0.241528 1.30275e-19)
(-0.00955545 0.240435 6.26791e-20)
(0.00277387 0.234748 -1.74912e-19)
(0.0175131 0.225468 1.13187e-19)
(0.0348247 0.213124 -1.61138e-19)
(0.0548755 0.197877 3.62453e-19)
(0.0778098 0.179644 -1.95901e-19)
(0.103736 0.158199 9.54355e-20)
(0.132716 0.13326 2.7787e-19)
(0.164791 0.104527 -8.35569e-20)
(0.199967 0.0718207 -8.11497e-20)
(0.238197 0.0350323 -7.98614e-20)
(0.279369 -0.00579641 0)
(0.323301 -0.050405 -1.48377e-19)
(0.369444 -0.0982978 -1.39665e-19)
(0.41814 -0.148458 1.9683e-19)
(0.464426 -0.200272 2.39475e-19)
(0.524786 -0.249023 -2.24377e-19)
(-0.0126187 0.0383539 0)
(-0.0290033 0.099824 -1.76228e-19)
(-0.0358743 0.148527 -1.58143e-22)
(-0.0359646 0.184388 1.55416e-19)
(-0.030877 0.208478 0)
(-0.0215526 0.222542 0)
(-0.00863995 0.22849 0)
(0.00746758 0.228079 -6.26274e-20)
(0.0265981 0.222726 -1.62469e-21)
(0.0487372 0.213432 1.11557e-19)
(0.0739654 0.200799 -1.63816e-19)
(0.10241 0.185097 -1.7521e-21)
(0.134212 0.166353 0)
(0.169512 0.144439 -9.538e-20)
(0.208383 0.119137 9.40402e-20)
(0.250943 0.0902829 -2.62353e-19)
(0.297282 0.057704 3.40545e-19)
(0.347305 0.0213148 8.53552e-20)
(0.400797 -0.0187797 4.063e-21)
(0.457483 -0.0621813 -2.92424e-19)
(0.516019 -0.108429 -1.36671e-19)
(0.577906 -0.155696 4.48227e-19)
(0.632479 -0.205087 -2.97575e-19)
(0.707509 -0.248446 0)
(-0.0130306 0.0326851 8.71924e-20)
(-0.0303916 0.0868152 8.84216e-20)
(-0.037502 0.131104 -8.36187e-20)
(-0.0366511 0.164627 -1.56303e-19)
(-0.0293095 0.187781 1.47157e-19)
(-0.0164485 0.201741 -1.38671e-19)
(0.00116667 0.207964 1.95764e-19)
(0.0229925 0.207889 -6.27166e-20)
(0.048713 0.202755 1.16938e-19)
(0.0782011 0.193499 0)
(0.111471 0.180737 1.08827e-19)
(0.148631 0.164803 -2.02145e-19)
(0.189839 0.145804 1.9905e-19)
(0.235287 0.123701 -1.8694e-19)
(0.285196 0.0983983 0)
(0.339653 0.0697734 1.74301e-19)
(0.3986 0.0376909 3.36358e-19)
(0.461857 0.00221878 -3.17099e-19)
(0.52882 -0.0364126 -1.50026e-19)
(0.598832 -0.07752 -1.46101e-19)
(0.669253 -0.120881 4.0649e-19)
(0.742494 -0.163322 1.20894e-19)
(0.802722 -0.208621 -1.15547e-19)
(0.885814 -0.243774 1.00927e-19)
(-0.0130676 0.0272982 -8.72045e-20)
(-0.0309209 0.0735424 2.68437e-19)
(-0.0382642 0.112183 -8.46957e-20)
(-0.036717 0.14191 1.57049e-19)
(-0.0274765 0.16273 -1.47858e-19)
(-0.0114465 0.175409 -4.88245e-23)
(0.010581 0.18102 6.51818e-20)
(0.0379948 0.180702 2.47173e-19)
(0.070407 0.175486 2.28456e-21)
(0.107642 0.166197 -1.10362e-19)
(0.149707 0.153411 0)
(0.196734 0.137483 -1.02756e-19)
(0.248926 0.118587 1.92278e-19)
(0.306495 0.0967555 1.88296e-19)
(0.369547 0.0719576 -8.83437e-20)
(0.438005 0.0441365 -1.82672e-21)
(0.511448 0.013372 -8.28046e-20)
(0.589068 -0.0200951 1.53549e-19)
(0.669418 -0.0558955 1.49992e-19)
(0.750979 -0.0930066 -1.41427e-19)
(0.82992 -0.131542 1.26509e-19)
(0.908175 -0.167096 -1.16371e-19)
(0.968764 -0.206335 0)
(1.04741 -0.231043 -1.00909e-19)
(-0.0130003 0.0226573 8.80681e-20)
(-0.030923 0.0611028 -8.98656e-20)
(-0.0382017 0.093294 8.469e-20)
(-0.0357426 0.118033 0)
(-0.0244105 0.135246 0)
(-0.0049681 0.145481 1.38782e-19)
(0.0218657 0.149545 -1.30451e-19)
(0.0555235 0.148327 1.23208e-19)
(0.0956544 0.142663 -5.80604e-19)
(0.142112 0.133245 -1.10382e-21)
(0.194934 0.120598 1.04256e-19)
(0.254259 0.105068 0)
(0.32018 0.0868453 -1.9302e-19)
(0.392644 0.0660241 3.65991e-19)
(0.471304 0.0426803 -2.61927e-19)
(0.555372 0.0169269 -4.21667e-19)
(0.64351 -0.0110152 -3.88455e-21)
(0.7338 -0.0407531 2.95189e-19)
(0.823676 -0.0717987 0)
(0.91049 -0.103032 0)
(0.990063 -0.134711 -1.26515e-19)
(1.06271 -0.162237 1.16381e-19)
(1.11538 -0.193909 -4.01383e-19)
(1.17509 -0.208248 3.76046e-19)
(-0.0130729 0.0190135 0)
(-0.0306228 0.0502211 0)
(-0.0370867 0.0756524 -2.54123e-19)
(-0.0327917 0.0946613 8.08912e-20)
(-0.0182879 0.107369 9.76727e-22)
(0.00585235 0.114292 1.3975e-19)
(0.0390724 0.116104 0)
(0.0809445 0.113526 -1.22435e-19)
(0.131219 0.107243 1.15831e-19)
(0.189796 0.0978439 -2.18963e-19)
(0.256606 0.0857815 -1.25126e-21)
(0.33148 0.0713636 1.98995e-19)
(0.414 0.0548112 2.91356e-21)
(0.503303 0.0362879 1.83794e-19)
(0.597965 0.0159475 -2.55307e-19)
(0.695934 -0.00601562 0)
(0.794562 -0.0293184 3.08975e-19)
(0.890726 -0.0535681 -4.38208e-19)
(0.98106 -0.078257 1.32276e-19)
(1.06233 -0.102599 0)
(1.13125 -0.126569 1.12129e-19)
(1.18716 -0.146897 4.15672e-19)
(1.22339 -0.170901 -3.90166e-19)
(1.25563 -0.178002 -4.12638e-19)
(-0.0133943 0.0163594 2.6708e-19)
(-0.0299354 0.0411339 -3.66182e-19)
(-0.0342189 0.0599713 1.31402e-21)
(-0.0262662 0.0730737 8.10112e-20)
(-0.00639108 0.0809548 -1.50104e-19)
(0.025033 0.0842547 -1.39355e-19)
(0.0676384 0.0836324 2.60867e-19)
(0.121124 0.0797331 -4.06146e-22)
(0.185228 0.0731471 -2.3041e-19)
(0.25961 0.0643722 4.36322e-19)
(0.343685 0.0537857 2.43925e-21)
(0.436422 0.0416687 -1.94539e-19)
(0.536212 0.0282143 0)
(0.640776 0.0135577 0)
(0.747192 -0.00218525 -8.46559e-20)
(0.852035 -0.0188835 -1.55395e-19)
(0.95162 -0.0363462 -2.9644e-19)
(1.04231 -0.0543484 2.78274e-19)
(1.12094 -0.0724776 -1.32361e-19)
(1.18503 -0.0905056 2.33967e-19)
(1.23334 -0.107775 -1.18848e-19)
(1.26598 -0.123528 1.85409e-19)
(1.28222 -0.140988 -4.46533e-19)
(1.28997 -0.145953 8.22508e-20)
(-0.0138503 0.0144382 8.99042e-20)
(-0.0283296 0.0335863 0)
(-0.0283517 0.0463929 1.72592e-19)
(-0.0139812 0.0539997 -1.6258e-19)
(0.0145647 0.0574021 1.50246e-19)
(0.0570306 0.0574586 0)
(0.113106 0.054899 0)
(0.182363 0.050352 -1.23177e-19)
(0.264109 0.0443433 -1.03087e-22)
(0.357189 0.0372805 1.08556e-19)
(0.459804 0.0294397 -1.03151e-19)
(0.569398 0.0209737 1.93562e-19)
(0.682687 0.0119264 0)
(0.795808 0.00226539 3.47025e-19)
(0.904603 -0.00807568 -6.51813e-19)
(1.00498 -0.0191529 4.61575e-19)
(1.09332 -0.030961 2.83112e-19)
(1.16682 -0.0434481 -2.65786e-19)
(1.22386 -0.0563441 0)
(1.26397 -0.0697368 0)
(1.28838 -0.0824689 0)
(1.29857 -0.0963634 0)
(1.29811 -0.107932 8.49197e-20)
(1.29102 -0.117695 -2.8383e-19)
(-0.0922606 -0.28074 -7.71179e-21)
(-0.0824562 -0.349339 7.77462e-21)
(-0.0711304 -0.415441 -2.26682e-22)
(-0.0601523 -0.475607 0)
(-0.0498367 -0.526701 -5.36883e-21)
(-0.0396597 -0.565482 1.00129e-20)
(-0.0275597 -0.588523 -3.25218e-22)
(-0.00991148 -0.591039 -4.21388e-21)
(0.0173056 -0.5683 0)
(0.0569042 -0.514616 0)
(0.10958 -0.42847 -2.13875e-22)
(0.173883 -0.312626 -2.14381e-22)
(0.245714 -0.172568 -3.97298e-21)
(0.320196 -0.0164472 3.65252e-21)
(0.394381 0.145766 0)
(0.465727 0.299006 0)
(0.530456 0.424958 2.32179e-21)
(0.583952 0.510606 -4.01251e-22)
(0.622745 0.554612 -1.70696e-21)
(0.646803 0.564933 -7.88147e-23)
(0.65834 0.554869 0)
(0.656078 0.543114 0)
(0.636126 0.545041 0)
(0.602472 0.552789 0)
(0.573329 0.528408 0)
(0.570501 0.429854 0)
(0.600372 0.250514 6.51143e-22)
(0.653002 0.0278686 -1.0773e-21)
(0.712613 -0.180819 0)
(0.765904 -0.334482 0)
(0.803199 -0.422323 -4.59291e-22)
(0.823838 -0.45723 4.46376e-22)
(0.832305 -0.457809 1.57596e-22)
(0.82764 -0.453559 0)
(0.801498 -0.464333 0)
(0.755146 -0.473864 2.85269e-22)
(0.709582 -0.432825 -2.77307e-22)
(0.688922 -0.301877 0)
(0.699342 -0.111324 3.63775e-22)
(0.733288 0.0900372 -5.16602e-22)
(0.775055 0.235517 1.35915e-22)
(0.815882 0.329899 0)
(0.837548 0.375472 -1.76878e-22)
(0.824938 0.412993 1.71996e-22)
(0.785408 0.427828 0)
(0.744508 0.373431 0)
(0.731221 0.254159 -9.59359e-23)
(0.753738 0.050902 2.91775e-22)
(0.791671 -0.0926496 0)
(0.827867 -0.235926 0)
(0.828271 -0.302587 -5.16432e-23)
(0.799739 -0.355648 1.36659e-24)
(0.778531 -0.362952 -3.40567e-24)
(0.776238 -0.217965 3.25816e-23)
(0.797006 -0.135758 0)
(0.810302 0.108618 0)
(0.806904 0.206569 0)
(0.795137 0.303362 0)
(0.79722 0.374954 0)
(0.785147 0.0993482 0)
(0.0385165 -0.29344 -8.49504e-22)
(0.0479571 -0.360646 -3.23005e-20)
(0.0578321 -0.425726 2.53015e-21)
(0.0642886 -0.483935 2.788e-20)
(0.0662418 -0.532646 3.77481e-22)
(0.0630161 -0.570091 0)
(0.0559047 -0.594204 -1.67982e-20)
(0.0479832 -0.602048 3.18003e-20)
(0.0451766 -0.588938 -1.49858e-20)
(0.0536178 -0.548697 1.3034e-20)
(0.0769653 -0.475855 -1.24547e-20)
(0.117465 -0.369835 1.25598e-20)
(0.173126 -0.235282 -1.2122e-20)
(0.238777 -0.0811032 -3.41332e-22)
(0.310344 0.0812256 -1.10972e-20)
(0.38379 0.23805 1.07842e-20)
(0.454789 0.371564 -8.07769e-21)
(0.518194 0.468766 7.64464e-21)
(0.569463 0.525982 -5.49776e-21)
(0.607034 0.548567 9.98784e-21)
(0.630414 0.549824 -4.52802e-21)
(0.636408 0.549475 -2.57526e-22)
(0.623127 0.560621 -4.66746e-21)
(0.599245 0.570032 9.86877e-21)
(0.585298 0.537187 -5.18242e-21)
(0.599326 0.424355 4.30434e-22)
(0.642271 0.231703 7.87531e-21)
(0.701972 0.00115114 1.23007e-22)
(0.762049 -0.208736 -1.3453e-20)
(0.810397 -0.357057 1.11947e-20)
(0.83945 -0.436228 -4.90071e-21)
(0.850254 -0.463365 4.12066e-22)
(0.849021 -0.457775 -1.57904e-22)
(0.837827 -0.446099 2.59024e-22)
(0.808257 -0.448493 0)
(0.758252 -0.454133 0)
(0.706101 -0.418272 -1.16799e-21)
(0.677147 -0.299062 8.47794e-22)
(0.682201 -0.120449 9.84483e-22)
(0.714604 0.0740197 5.4754e-23)
(0.760183 0.21844 -1.25144e-21)
(0.805458 0.317805 2.02018e-22)
(0.831437 0.373011 0)
(0.821128 0.420442 0)
(0.785351 0.439809 0)
(0.749626 0.381939 0)
(0.739569 0.254231 4.40526e-22)
(0.764167 0.0433973 -1.98662e-22)
(0.800038 -0.102537 0)
(0.837007 -0.240443 0)
(0.836101 -0.299519 0)
(0.807178 -0.349328 -7.83107e-23)
(0.784501 -0.360254 1.97529e-23)
(0.778992 -0.220079 -7.14105e-23)
(0.798141 -0.13946 0)
(0.80621 0.107797 0)
(0.803836 0.207567 4.04286e-23)
(0.791216 0.304271 8.9065e-23)
(0.794897 0.375694 0)
(0.785681 0.100502 0)
(0.195686 -0.301631 -2.6068e-21)
(0.207477 -0.367118 -7.32677e-20)
(0.216032 -0.429693 6.24541e-20)
(0.220474 -0.484025 -5.8417e-20)
(0.217867 -0.527632 -3.79959e-22)
(0.206772 -0.559726 0)
(0.186778 -0.580048 -3.33622e-20)
(0.159276 -0.588715 3.26136e-20)
(0.128951 -0.58288 2.10844e-22)
(0.10389 -0.557136 3.19277e-22)
(0.0928275 -0.503062 2.84612e-22)
(0.101447 -0.414973 3.51525e-22)
(0.1321 -0.293587 -1.97285e-20)
(0.181053 -0.146692 1.95164e-20)
(0.244054 0.0130174 0)
(0.315362 0.170427 4.51797e-22)
(0.388858 0.309801 -1.33765e-20)
(0.459166 0.41758 1.32041e-20)
(0.520773 0.487963 0)
(0.570153 0.524132 0)
(0.603972 0.538844 -8.45828e-21)
(0.618012 0.551138 1.70673e-20)
(0.612912 0.570852 -1.78635e-20)
(0.601006 0.580666 -1.57789e-21)
(0.603241 0.539966 2.37448e-20)
(0.633417 0.415961 -2.86566e-20)
(0.688495 0.214528 3.01546e-20)
(0.754414 -0.0206246 -1.29246e-21)
(0.814093 -0.229891 -1.51149e-20)
(0.856518 -0.372845 0)
(0.876811 -0.444333 0)
(0.877952 -0.464986 2.15342e-21)
(0.867287 -0.454852 -2.90331e-21)
(0.849715 -0.437257 -9.57269e-24)
(0.817431 -0.43189 1.76354e-21)
(0.765025 -0.433536 -1.71393e-21)
(0.707245 -0.402972 0)
(0.670061 -0.29629 2.88743e-22)
(0.669302 -0.130727 2.56251e-21)
(0.699597 0.0558082 -4.71601e-21)
(0.748317 0.198858 1.96857e-21)
(0.797245 0.303654 1.64101e-22)
(0.827196 0.369088 -1.67854e-21)
(0.819509 0.426621 1.31074e-21)
(0.788079 0.450823 3.50642e-22)
(0.757969 0.390133 4.15525e-22)
(0.75125 0.255062 -4.41654e-22)
(0.777556 0.0374016 0)
(0.810786 -0.11131 0)
(0.847873 -0.244297 -1.19118e-21)
(0.84557 -0.296071 5.37422e-22)
(0.816014 -0.342565 -3.66382e-22)
(0.791525 -0.357446 4.21723e-22)
(0.782785 -0.222021 4.50009e-22)
(0.800626 -0.142949 -1.30752e-22)
(0.803545 0.106988 1.88562e-22)
(0.802023 0.208514 -1.56812e-22)
(0.788216 0.304927 5.26375e-23)
(0.793543 0.376116 0)
(0.787295 0.10153 0)
(0.366311 -0.304843 -1.5559e-19)
(0.379686 -0.37078 1.10341e-20)
(0.387838 -0.431029 1.37407e-19)
(0.390664 -0.480931 -9.04883e-22)
(0.385433 -0.51844 0)
(0.370558 -0.542704 0)
(0.344793 -0.554553 -6.37292e-20)
(0.307282 -0.556632 9.73168e-21)
(0.259577 -0.550787 7.11116e-20)
(0.207603 -0.534444 -3.06109e-21)
(0.16209 -0.499733 -1.74186e-20)
(0.133904 -0.436219 -1.42248e-20)
(0.131071 -0.337769 1.41977e-20)
(0.154639 -0.207246 0)
(0.200804 -0.0560499 -1.31164e-20)
(0.263652 0.0985783 1.19714e-20)
(0.335556 0.241655 0)
(0.409047 0.35843 0)
(0.477811 0.441476 7.82239e-21)
(0.536155 0.492009 -2.25044e-22)
(0.578396 0.521393 -6.9251e-21)
(0.600199 0.54652 -8.42925e-21)
(0.604598 0.573714 8.45963e-21)
(0.606247 0.583294 -1.15978e-20)
(0.624975 0.536549 -2.3127e-21)
(0.670493 0.405634 1.32629e-20)
(0.736566 0.19964 2.05788e-21)
(0.808084 -0.0372727 -2.01422e-23)
(0.867319 -0.244822 0)
(0.90357 -0.382781 1.08964e-20)
(0.914895 -0.447576 -1.11658e-20)
(0.906689 -0.462715 4.23377e-22)
(0.887006 -0.449368 0)
(0.863059 -0.427541 -2.52448e-22)
(0.828475 -0.415223 3.21022e-21)
(0.775013 -0.412285 -5.9212e-21)
(0.71308 -0.386341 -7.59656e-22)
(0.668072 -0.292783 -4.58165e-22)
(0.661009 -0.141673 3.26765e-21)
(0.68839 0.0358217 5.02777e-22)
(0.739376 0.177089 -3.04858e-21)
(0.791123 0.287532 2.59382e-21)
(0.824723 0.363511 2.29479e-23)
(0.819993 0.431184 1.37233e-21)
(0.79337 0.460597 -1.68609e-21)
(0.769237 0.398008 -3.17604e-21)
(0.765999 0.256871 8.01917e-22)
(0.793688 0.033079 1.85727e-21)
(0.823771 -0.118825 -3.32007e-21)
(0.86031 -0.247548 2.11298e-21)
(0.856515 -0.292332 -3.73441e-22)
(0.826111 -0.335329 5.5897e-22)
(0.79942 -0.35438 3.45774e-22)
(0.787414 -0.223776 -6.08996e-22)
(0.804333 -0.14627 -5.37314e-24)
(0.802256 0.106172 -1.37178e-22)
(0.801434 0.209457 0)
(0.786128 0.305356 -6.57545e-23)
(0.793191 0.376208 1.13343e-22)
(0.790022 0.102427 0)
(0.542918 -0.304427 1.57468e-19)
(0.555311 -0.369357 -2.98271e-19)
(0.5629 -0.426803 1.38971e-19)
(0.563316 -0.472538 1.10266e-19)
(0.554202 -0.505251 -2.00655e-19)
(0.535307 -0.523575 1.49616e-20)
(0.506233 -0.527552 7.41976e-20)
(0.465749 -0.520066 4.70368e-20)
(0.41278 -0.506043 -4.60589e-20)
(0.348411 -0.488677 0)
(0.279331 -0.465113 -2.25638e-20)
(0.217527 -0.424943 4.12471e-20)
(0.176724 -0.35596 -1.89021e-20)
(0.165756 -0.252375 0)
(0.185597 -0.119713 0)
(0.232192 0.0269682 3.21703e-22)
(0.29647 0.169602 -1.43154e-20)
(0.368533 0.292951 1.39071e-20)
(0.44042 0.387555 0)
(0.504216 0.452419 1.23011e-20)
(0.55274 0.496723 -2.46623e-20)
(0.582098 0.534196 2.7536e-20)
(0.59712 0.567903 -3.28281e-20)
(0.613372 0.577466 -4.71949e-21)
(0.648345 0.527429 4.93678e-20)
(0.707865 0.394095 -2.73459e-20)
(0.783912 0.187414 -1.04903e-21)
(0.861155 -0.0486829 -1.54531e-20)
(0.920368 -0.253333 1.87244e-21)
(0.950553 -0.386444 1.37615e-20)
(0.952895 -0.445683 5.86039e-22)
(0.935813 -0.456533 -6.03081e-21)
(0.907851 -0.44129 1.03459e-20)
(0.877748 -0.417002 -4.82523e-21)
(0.841148 -0.399021 0)
(0.787789 -0.391191 -3.08919e-21)
(0.723406 -0.368812 3.02238e-21)
(0.671329 -0.288242 -2.84651e-21)
(0.657558 -0.152708 3.54657e-21)
(0.681069 0.0145616 -3.56244e-22)
(0.733213 0.153418 0)
(0.786898 0.269407 -2.88804e-22)
(0.823823 0.35598 8.81988e-22)
(0.822381 0.433772 0)
(0.800898 0.468882 4.04439e-21)
(0.783002 0.405521 -1.4192e-21)
(0.78334 0.259762 1.03145e-21)
(0.812229 0.0307427 1.09247e-21)
(0.838852 -0.124905 0)
(0.874138 -0.250113 0)
(0.868762 -0.288278 -1.33848e-21)
(0.837363 -0.327544 1.80236e-21)
(0.808035 -0.350955 -8.33313e-22)
(0.792677 -0.225362 2.01304e-22)
(0.809107 -0.149489 3.13543e-22)
(0.802268 0.105332 1.37309e-22)
(0.80203 0.210441 -1.89802e-22)
(0.784946 0.305583 0)
(0.793866 0.375948 -1.73609e-22)
(0.793886 0.103181 -6.80848e-23)
(0.7199 -0.300977 1.55997e-19)
(0.728771 -0.362192 -1.55321e-19)
(0.734082 -0.414737 1.05445e-21)
(0.730519 -0.45572 -8.92663e-22)
(0.71584 -0.484447 7.85209e-22)
(0.691148 -0.499197 -6.48302e-22)
(0.657306 -0.499174 1.00081e-21)
(0.614345 -0.485812 0)
(0.561677 -0.463165 -5.65741e-22)
(0.497796 -0.43716 3.96049e-22)
(0.422875 -0.411906 2.62865e-22)
(0.342744 -0.383763 -2.61689e-22)
(0.270528 -0.340781 0)
(0.221702 -0.269743 0)
(0.206151 -0.165857 6.86828e-23)
(0.225477 -0.0372082 0)
(0.272961 0.0980781 -7.11034e-23)
(0.337312 0.22386 0)
(0.407376 0.32765 -7.64285e-21)
(0.473066 0.40582 1.59728e-20)
(0.526131 0.46442 -1.85832e-20)
(0.563056 0.513343 1.00608e-20)
(0.589605 0.552862 1.61339e-20)
(0.620959 0.563225 -1.5667e-20)
(0.671388 0.512998 -2.70841e-20)
(0.743449 0.381583 2.64926e-20)
(0.82872 0.177856 0)
(0.912038 -0.055075 1.05196e-21)
(0.971941 -0.255701 0)
(0.996541 -0.384109 0)
(0.990165 -0.439032 1.54142e-20)
(0.964802 -0.446873 -1.61068e-20)
(0.929476 -0.430839 6.1206e-22)
(0.893541 -0.405709 4.71835e-22)
(0.855042 -0.383584 -3.40664e-22)
(0.802704 -0.370815 -2.34586e-21)
(0.737688 -0.350668 2.27791e-21)
(0.679786 -0.282363 -2.95048e-21)
(0.659048 -0.163087 2.53006e-21)
(0.677558 -0.0072837 6.5148e-22)
(0.72957 0.128138 -2.27937e-21)
(0.784314 0.249214 -2.03765e-22)
(0.824239 0.34619 1.5708e-21)
(0.826376 0.434041 0)
(0.810234 0.475482 -1.46932e-21)
(0.798706 0.41256 3.24749e-21)
(0.802788 0.26375 -4.0498e-21)
(0.832776 0.0304482 -1.09941e-21)
(0.855751 -0.129383 0)
(0.889136 -0.251917 4.99474e-22)
(0.882104 -0.28393 -1.18514e-21)
(0.849654 -0.319155 -8.09591e-24)
(0.817257 -0.34703 -2.00741e-22)
(0.798381 -0.226793 2.09081e-22)
(0.814771 -0.152681 -2.53754e-22)
(0.803484 0.104436 0)
(0.803764 0.211496 1.89891e-22)
(0.78466 0.305624 0)
(0.795587 0.375307 0)
(0.798908 0.103784 8.23672e-23)
(0.88976 -0.292568 -1.51904e-19)
(0.891774 -0.348093 1.50275e-19)