/*--------------------------------*- C++ -*----------------------------------*\
| =========                 |                                                 |
| \\      /  F ield         | OpenFOAM: The Open Source CFD Toolbox           |
|  \\    /   O peration     | Version:  2512                                  |
|   \\  /    A nd           | Website:  www.openfoam.com                      |
|    \\/     M anipulation  |                                                 |
\*---------------------------------------------------------------------------*/
FoamFile
{
    version     2.0;
    format      ascii;
    arch        "LSB;label=32;scalar=64";
    class       surfaceScalarField;
    location    "75.25";
    object      phi;
}
// * * * * * * * * * * * * * * * * * * * * * * * * * * * * * * * * * * * * * //

dimensions      [0 3 -1 0 0 0 0];

oriented        oriented;

internalField   nonuniform List<scalar> 
26232
(
-1.99824e-05
0.000900947
-0.000880964
0.000127158
0.00166592
-0.00181306
0.00062761
0.00157814
-0.00207859
0.00165851
0.000702362
-0.00173327
0.00339318
-0.000933927
-0.000800738
0.00600097
-0.00332279
0.000714999
0.0096421
-0.00646332
0.00282219
0.0144573
-0.0103487
0.00553348
0.0205544
-0.0149538
0.00885678
0.0279926
-0.0202258
0.0127876
0.0367698
-0.0260801
0.0173029
0.0468135
-0.0324016
0.0223579
0.0579793
-0.0390513
0.0278855
0.0700569
-0.0458765
0.0337989
0.0827833
-0.052723
0.0399966
0.095861
-0.0594469
0.0463692
0.10898
-0.0659252
0.0528061
0.12184
-0.0720643
0.0592038
0.134175
-0.0778017
0.065467
0.145764
-0.0831233
0.0715346
0.156453
-0.08801
0.0773212
0.166129
-0.0925942
0.0829182
0.174729
-0.0966713
0.0880715
-0.100956
0.0938085
0.181876
5.04432e-05
0.000850503
0.000414742
0.00130162
0.001297
0.000695886
0.00289457
-0.000895207
0.00539882
-0.00343818
0.00898762
-0.00691159
0.0138112
-0.0112869
0.0199732
-0.0165108
0.0275115
-0.022492
0.0363817
-0.029096
0.0464509
-0.0361493
0.0575016
-0.0434523
0.0692476
-0.0507972
0.0813586
-0.0579876
0.0934913
-0.0648557
0.10532
-0.0712757
0.116566
-0.0771713
0.12702
-0.0825178
0.136556
-0.0873379
0.145129
-0.0916967
0.152794
-0.0956744
0.159614
-0.0994144
0.165819
-0.102876
-0.106597
0.171459
0.000133241
0.000717263
0.000754392
0.000680467
0.00208448
-0.000634201
0.00433602
-0.00314675
0.0077055
-0.00680766
0.0123551
-0.0115612
0.0183882
-0.0173199
0.0258235
-0.0239461
0.0345768
-0.0312454
0.0444563
-0.0389756
0.0551751
-0.0468681
0.0663793
-0.0546566
0.0776879
-0.0621057
0.0887346
-0.0690342
0.0992076
-0.0753288
0.10888
-0.0809478
0.117625
-0.0859162
0.125419
-0.0903125
0.132332
-0.0942504
0.138496
-0.0978612
0.144087
-0.101266
0.14927
-0.104597
0.154236
-0.107843
-0.111392
0.159032
0.000228795
0.000488468
0.00114393
-0.000234667
0.00297907
-0.00246934
0.00594989
-0.00611757
0.0102346
-0.0110923
0.0159427
-0.0172694
0.0230824
-0.0244596
0.0315373
-0.0324009
0.0410636
-0.0407717
0.0513125
-0.0492244
0.0618729
-0.0574286
0.0723271
-0.0651107
0.0823043
-0.0720829
0.0915247
-0.0782546
0.0998245
-0.0836286
0.107161
-0.0882843
0.113598
-0.0923528
0.119274
-0.0959888
0.12437
-0.0993459
0.129066
-0.102558
0.133526
-0.105725
0.137859
-0.10893
0.142177
-0.112161
-0.115663
0.146448
0.000338222
0.000150245
0.00158183
-0.00147827
0.00396628
-0.0048538
0.00768918
-0.00984047
0.0128754
-0.0162785
0.0195348
-0.0239288
0.0275319
-0.0324567
0.036582
-0.041451
0.0462827
-0.0504724
0.0561733
-0.059115
0.0658065
-0.0670618
0.0748138
-0.074118
0.0829498
-0.080219
0.0901097
-0.0854145
0.096318
-0.0898369
0.101697
-0.0936633
0.106424
-0.0970797
0.110689
-0.100254
0.114662
-0.103319
0.118475
-0.106371
0.122219
-0.109469
0.125943
-0.112653
0.129694
-0.115912
-0.119396
0.133427
0.00046248
-0.000312234
0.0020636
-0.0030794
0.00502098
-0.00781118
0.00948229
-0.0143018
0.0154746
-0.0222708
0.0228611
-0.0313154
0.0313317
-0.0409273
0.04044
-0.0505594
0.0496793
-0.0597116
0.058572
-0.0680078
0.0667474
-0.0752371
0.0739857
-0.0813563
0.080226
-0.0864592
0.0855394
-0.090728
0.0900841
-0.0943815
0.0940537
-0.0976329
0.0976358
-0.100662
0.100985
-0.103603
0.104212
-0.106547
0.107391
-0.10955
0.110563
-0.112642
0.113749
-0.115839
0.116973
-0.119136
-0.122612
0.120188
0.00060062
-0.000912854
0.00257692
-0.0050557
0.00609948
-0.0113337
0.0112253
-0.0194276
0.0178382
-0.0288837
0.0256234
-0.0391005
0.034103
-0.0494069
0.0427253
-0.0591817
0.050975
-0.0679613
0.0584648
-0.0754976
0.0649834
-0.0817557
0.0704941
-0.086867
0.075096
-0.0910611
0.0789667
-0.0945987
0.082307
-0.0977218
0.0852993
-0.100625
0.0880869
-0.103449
0.0907692
-0.106285
0.0934086
-0.109186
0.0960408
-0.112182
0.0986848
-0.115286
0.101348
-0.118502
0.10404
-0.121828
-0.125296
0.106724
0.000748698
-0.00166155
0.00309914
-0.00740614
0.00713798
-0.0153726
0.0127883
-0.025078
0.019757
-0.0358523
0.0275527
-0.0468963
0.0355816
-0.0574358
0.0432782
-0.0668782
0.0502181
-0.0749012
0.0561747
-0.0814543
0.0611147
-0.0866956
0.0651482
-0.0909006
0.0684634
-0.0943763
0.071265
-0.0974002
0.0737333
-0.10019
0.0760058
-0.102898
0.0781757
-0.105619
0.0802999
-0.108409
0.0824107
-0.111297
0.0845247
-0.114296
0.0866495
-0.117411
0.0887875
-0.12064
0.0909419
-0.123982
-0.127441
0.0930873
0.000899615
-0.00256117
0.00359837
-0.0101049
0.00805908
-0.0198333
0.0140348
-0.0310538
0.0210476
-0.0428651
0.0284706
-0.0543192
0.0356767
-0.0646419
0.0421796
-0.0733812
0.0477097
-0.0804312
0.0522128
-0.0859574
0.0557955
-0.0902784
0.0586494
-0.0937545
0.0609833
-0.0967102
0.0629797
-0.0993966
0.0647755
-0.101986
0.066462
-0.104584
0.0680942
-0.107251
0.0697025
-0.110018
0.0713027
-0.112897
0.0729025
-0.115896
0.0745048
-0.119013
0.0761107
-0.122246
0.0777198
-0.125591
-0.129038
0.0793167
0.00104372
-0.00360489
0.00403736
-0.0130985
0.00878375
-0.0245797
0.0148477
-0.0371178
0.0215912
-0.0496086
0.0283222
-0.0610502
0.0344675
-0.0707873
0.0396821
-0.0785958
0.043864
-0.084613
0.047098
-0.0891915
0.049572
-0.0927524
0.0514994
-0.0956818
0.0530686
-0.0982794
0.0544213
-0.100749
0.055651
-0.103216
0.0568135
-0.105747
0.0579394
-0.108377
0.0590443
-0.111122
0.0601364
-0.113989
0.0612193
-0.116978
0.0622943
-0.120088
0.0633615
-0.123313
0.0644186
-0.126648
-0.130077
0.0654581
0.00117054
-0.00477543
0.00438012
-0.0163081
0.00924593
-0.0294455
0.0151511
-0.0430229
0.0213511
-0.0558086
0.0271689
-0.0668679
0.0321498
-0.0757682
0.03611
-0.082556
0.0390894
-0.0875924
0.0412606
-0.0913627
0.0428397
-0.0943315
0.0440248
-0.0968669
0.0449665
-0.0992212
0.0457654
-0.101548
0.0464808
-0.103931
0.0471453
-0.106411
0.0477753
-0.109007
0.0483794
-0.111727
0.048962
-0.114572
0.0495253
-0.117542
0.0500698
-0.120633
0.0505947
-0.123838
0.0510966
-0.12715
-0.130553
0.0515724
0.00127292
-0.00604835
0.00460036
-0.0196356
0.00940459
-0.0342497
0.0149206
-0.0485389
0.0203685
-0.0612565
0.0251547
-0.0716541
0.0289734
-0.0795869
0.0317866
-0.0853692
0.0337329
-0.0895387
0.0350245
-0.0926542
0.0358697
-0.0951768
0.0364335
-0.0974306
0.0368275
-0.0996152
0.0371185
-0.101839
0.0373428
-0.104155
0.0375186
-0.106587
0.037655
-0.109144
0.037757
-0.111829
0.0378275
-0.114642
0.0378683
-0.117583
0.0378799
-0.120644
0.0378617
-0.12382
0.0378102
-0.127099
0.0377255
-0.130469
-0.000251867
-0.000978744
0.00123061
-0.000870725
-0.00209092
0.00270978
-0.00177308
-0.00260244
0.00350479
-0.00289798
-0.00266935
0.00379425
-0.00420024
-0.00242471
0.00372698
-0.00564693
-0.0019722
0.00341889
-0.00721402
-0.00138327
0.00295036
-0.00888335
-0.000698376
0.0023677
-0.0106401
6.85302e-05
0.0016882
-0.012469
0.000923359
0.0009056
-0.0143582
0.00188392
5.23543e-06
-0.0162911
0.00297513
-0.00104226
-0.0182488
0.00422303
-0.00226534
-0.020209
0.00565158
-0.00369131
-0.0221453
0.00728085
-0.00534455
-0.0240259
0.00912562
-0.00724509
-0.0258136
0.0111939
-0.0094061
-0.0274673
0.0134856
-0.0118319
-0.0289431
0.0159916
-0.0145159
-0.0301975
0.0186931
-0.0174387
-0.0311918
0.021562
-0.0205677
-0.0318959
0.0245612
-0.0238572
-0.0322964
0.027653
-0.0272524
0.0308259
-0.0324255
-0.0306968
-0.000252168
-0.000726576
-0.000863745
-0.00147934
-0.00174338
-0.00172281
-0.00282428
-0.00158845
-0.00405761
-0.00119138
-0.00540796
-0.000621849
-0.00684905
5.78209e-05
-0.00835985
0.000812432
-0.00992141
0.00163009
-0.0115143
0.00251628
-0.0131179
0.00348746
-0.0147079
0.00456519
-0.0162565
0.00577162
-0.0177312
0.00712628
-0.0190946
0.00864419
-0.0203035
0.0103346
-0.0213096
0.0122
-0.0220594
0.0142353
-0.0224953
0.0164275
-0.0225581
0.018756
-0.0221903
0.0211943
-0.021342
0.0237129
-0.0199736
0.0262846
0.0289056
-0.0180533
-0.000238746
-0.00048783
-0.00081179
-0.000906297
-0.00162452
-0.000910075
-0.00260614
-0.000606829
-0.00370417
-9.33497e-05
-0.00487976
0.000553734
-0.0061029
0.00128097
-0.00734827
0.00205779
-0.0085916
0.00287342
-0.00980726
0.00373194
-0.0109665
0.00464672
-0.0120366
0.00563525
-0.0129799
0.00671499
-0.0137541
0.00790043
-0.0143111
0.0092012
-0.0145974
0.0106209
-0.0145539
0.0121564
-0.0141158
0.0137972
-0.0132132
0.0155249
-0.0117713
0.0173141
-0.00971289
0.0191359
-0.00695889
0.0209589
-0.00344154
0.0227672
0.0246466
0.000817443
-0.000217467
-0.000270362
-0.000733697
-0.000390067
-0.00145317
-0.000190607
-0.00230182
0.000241826
-0.00322325
0.00082808
-0.00417421
0.0015047
-0.00511999
0.00222675
-0.00603001
0.0029678
-0.00687416
0.00371758
-0.00762023
0.00447801
-0.00823211
0.0052586
-0.00866893
0.00607206
-0.0088846
0.00693066
-0.00882777
0.0078436
-0.00844182
0.00881526
-0.00766481
0.00984393
-0.00642902
0.0109206
-0.00466276
0.0120309
-0.00228886
0.013151
0.000774858
0.0142504
0.00461916
0.0152916
0.00933869
0.0162393
0.0150385
0.0170674
0.0178185
0.0218666
-0.000194572
-7.579e-05
-0.000649124
6.44845e-05
-0.00126733
0.000427597
-0.00197172
0.000946216
-0.00270142
0.00155778
-0.00340814
0.00221142
-0.00405173
0.00287034
-0.00459592
0.003512
-0.00500471
0.00412637
-0.00523966
0.00471296
-0.00525818
0.00527712
-0.00501259
0.00582647
-0.00444979
0.00636786
-0.00351136
0.00690516
-0.00213378
0.00743768
-0.000248994
0.00795914
0.00221423
0.0084574
0.00533372
0.00891145
0.00918964
0.00929509
0.0138667
0.00957334
0.0194552
0.00970304
0.0260577
0.00963683
0.0337766
0.00934842
0.00869322
0.0429019
-0.000175177
9.93872e-05
-0.000574005
0.000463312
-0.00109765
0.000951242
-0.00166443
0.001513
-0.00220841
0.00210175
-0.00267568
0.00267869
-0.00302021
0.00321487
-0.00319969
0.00369148
-0.00317208
0.00409877
-0.00289294
0.00443381
-0.0023136
0.00469778
-0.0013803
0.00489316
-3.38275e-05
0.00502139
0.00179029
0.00508104
0.00416154
0.00506643
0.00715382
0.00496686
0.0108453
0.00476589
0.015317
0.00443981
0.0206528
0.00395927
0.0269392
0.00328688
0.0342636
0.00237866
0.0427386
0.00116188
0.0523852
-0.000298159
-0.00268435
0.0637627
-0.000161868
0.000261255
-0.000516157
0.000817601
-0.000958762
0.00139385
-0.00140255
0.00195679
-0.00177569
0.00247488
-0.00201788
0.00292089
-0.00207631
0.00327329
-0.00190157
0.00351674
-0.00144433
0.00364152
-0.000652613
0.0036421
0.000529951
0.00351522
0.00216518
0.00325793
0.00432071
0.00286587
0.00706987
0.00233188
0.0104913
0.00164504
0.0146682
0.000789957
0.0196859
-0.000251852
0.0256366
-0.00151092
0.0326097
-0.00301379
0.0406972
-0.00480059
0.0499758
-0.00690002
0.0605874
-0.00944969
0.0723885
-0.0120993
-0.0164857
0.0861899
-0.000153864
0.00041512
-0.000472484
0.00113622
-0.000843501
0.00176486
-0.00117265
0.00228594
-0.00138064
0.00268288
-0.001399
0.00293925
-0.00116572
0.00304001
-0.000621222
0.00297225
0.000294993
0.00272531
0.00164702
0.00229007
0.00350424
0.001658
0.0059422
0.000819967
0.00904275
-0.000234675
0.0128934
-0.00151879
0.0175863
-0.00304787
0.0232164
-0.00484007
0.0298808
-0.00691628
0.0376705
-0.00930064
0.0466745
-0.0120178
0.0569759
-0.015102
0.0686154
-0.0185396
0.0817326
-0.0225669
0.096029
-0.0263956
-0.0327521
0.112295
-0.000147022
0.000562142
-0.000428987
0.00141819
-0.000722687
0.00205856
-0.000924385
0.00248764
-0.000944502
0.00270299
-0.000702661
0.00269741
-0.000122998
0.00246034
0.000869925
0.00197933
0.00235435
0.00124089
0.00441345
0.000230962
0.00713624
-0.00106478
0.0106173
-0.00266114
0.0149557
-0.00457298
0.0202517
-0.00681483
0.0266043
-0.00940049
0.0341066
-0.0123424
0.0428413
-0.015651
0.0528753
-0.0193346
0.0642541
-0.0233966
0.0770015
-0.0278495
0.0910869
-0.0326249
0.106523
-0.0380032
0.123031
-0.0429038
-0.0506142
0.140893
-0.000135028
0.00069717
-0.000364485
0.00164764
-0.000552377
0.00224646
-0.000582431
0.00251769
-0.000350449
0.00247101
0.000241159
0.0021058
0.00128834
0.00141317
0.00288893
0.000378736
0.00514462
-0.00101481
0.00816131
-0.00278572
0.0120477
-0.00495117
0.0169118
-0.00752523
0.0228561
-0.0105173
0.0299719
-0.0139306
0.0383327
-0.0177612
0.0479879
-0.0219976
0.0589576
-0.0266206
0.0712274
-0.0316044
0.0847454
-0.0369146
0.0994188
-0.0425229
0.115122
-0.0483276
0.131641
-0.0545223
0.148878
-0.060141
-0.0680117
0.166275
-0.000111545
0.000808715
-0.000257344
0.00179344
-0.000287292
0.0022764
-6.91037e-05
0.0022995
0.000520475
0.00188143
0.00160173
0.00102454
0.00329523
-0.000280331
0.00572343
-0.00204946
0.00900982
-0.0043012
0.013275
-0.00705095
0.0186308
-0.0103069
0.025172
-0.0140664
0.0329681
-0.0183135
0.0420552
-0.0230177
0.0524287
-0.0281347
0.0640393
-0.0336083
0.0767911
-0.0393724
0.0905431
-0.0453564
0.105113
-0.0514844
0.120285
-0.0576945
0.135839
-0.0638818
0.151446
-0.0701298
0.16715
-0.0758445
-0.0826629
0.181801
-7.2249e-05
-9.18656e-05
0.000105945
0.000672181
0.00175288
0.00349241
0.00603427
0.00951829
0.0140739
0.0198105
0.0268065
0.0350979
0.04467
0.0554512
0.0673131
0.080074
0.0935077
0.107355
0.121338
0.135178
0.148617
0.161405
0.173632
0.184778
-0.0307355
0.0450132
-0.0467032
-0.0283658
0.0501295
-0.0524991
-0.0252177
0.0544963
-0.0576445
-0.021204
0.0576651
-0.0616787
-0.0161949
0.0590308
-0.0640399
-0.0101866
0.0581143
-0.0641226
-0.00315922
0.0542354
-0.0612628
0.00480085
0.0468764
-0.0548364
0.0135679
0.035618
-0.044385
0.0229016
0.0202445
-0.0295783
0.0325649
0.000874208
-0.0105375
0.0423566
-0.0219951
0.0122034
0.0520388
-0.0476472
0.037965
0.0613742
-0.0743975
0.0650621
0.0700278
-0.0998596
0.091206
0.0774136
-0.121424
0.114038
0.0828136
-0.137155
0.131755
0.0854149
-0.146636
0.144034
0.0843875
-0.151501
0.152529
0.0796472
-0.155086
0.159826
0.073013
-0.159607
0.166241
0.0681749
-0.16203
0.166868
0.0686135
-0.153502
0.153063
0.0752033
-0.12524
0.118651
0.0864501
-0.0758224
0.0645757
0.100093
-0.0124023
-0.00124098
0.113927
0.0533599
-0.0671936
0.12582
0.10985
-0.121743
0.134378
0.150822
-0.159379
0.139618
0.17543
-0.18067
0.141845
0.18666
-0.188887
0.140152
0.193346
-0.191653
0.133905
0.206255
-0.200009
0.125443
0.22243
-0.213967
0.11964
0.218928
-0.213126
0.119981
0.170942
-0.171283
0.126155
0.0795537
-0.0857276
0.134991
-0.0282065
0.0193707
0.143366
-0.121755
0.11338
0.14978
-0.183909
0.177495
0.153119
-0.213908
0.21057
0.151428
-0.227385
0.229076
0.144136
-0.244367
0.251658
0.134392
-0.255315
0.26506
0.127779
-0.233712
0.240325
0.12782
-0.149346
0.149305
0.13401
-0.0326847
0.0264943
0.142253
0.0899616
-0.098205
0.147052
0.17672
-0.181519
0.145388
0.248403
-0.246739
0.138604
0.298737
-0.291953
0.132042
0.299522
-0.29296
0.131063
0.243739
-0.24276
0.13462
0.0880487
-0.0916051
0.138198
-0.0241853
0.0206069
0.138202
-0.196819
0.196815
0.134021
-0.260799
0.26498
0.130748
-0.317673
0.320946
0.128832
-0.309239
0.311154
-0.0487287
0.0502388
-0.0149353
0.0418951
-0.0111029
0.0462971
-0.00647482
0.0498682
-0.00102041
0.0522107
0.00514201
0.0528684
0.0121012
0.0511551
0.019749
0.0465876
0.0279413
0.0386841
0.0364739
0.0270854
0.0451393
0.0115791
0.0536731
-0.00765957
0.0620193
-0.0303414
0.0700093
-0.0556372
0.0774736
-0.0818619
0.0840797
-0.106466
0.0893139
-0.126658
0.0926523
-0.140494
0.0936145
-0.147598
0.0915249
-0.149412
0.0857101
-0.149271
0.0768717
-0.150768
0.0682201
-0.153378
0.0642754
-0.149557
0.0676892
-0.128654
0.0777227
-0.0858559
0.0917934
-0.0264729
0.107025
0.0381281
0.120806
0.0960689
0.131483
0.140145
0.138763
0.16815
0.142473
0.18295
0.141679
0.19414
0.136348
0.211586
0.129227
0.229551
0.124723
0.223432
0.125532
0.170133
0.131226
0.0738601
0.138905
-0.0358858
0.145699
-0.128549
0.15043
-0.188641
0.152545
-0.216023
0.150261
-0.225101
0.142649
-0.236754
0.132541
-0.245206
0.125656
-0.226827
0.125941
-0.149631
0.132871
-0.0396145
0.141905
0.0809269
0.147238
0.171387
0.145896
0.249745
0.139299
0.305335
0.132692
0.306128
0.131519
0.244912
0.135072
0.0844952
0.138694
-0.027807
0.138743
-0.196868
0.134545
-0.256602
0.131489
-0.314617
0.129812
-0.307562
-0.0471001
0.0052612
0.0374514
0.0102664
0.041292
0.0159034
0.0442312
0.0221948
0.0459192
0.029131
0.0459322
0.0365526
0.0437334
0.0443202
0.03882
0.052255
0.0307492
0.0601554
0.0191851
0.0678172
0.00391733
0.0750974
-0.0149398
0.0819017
-0.0371456
0.0881476
-0.0618831
0.0936708
-0.087385
0.0981443
-0.110939
0.10112
-0.129634
0.102226
-0.141599
0.101341
-0.146713
0.0982484
-0.146319
0.0921247
-0.143147
0.0824974
-0.141141
0.071308
-0.142189
0.0632107
-0.14146
0.0626434
-0.128087
0.0704471
-0.0936596
0.0841513
-0.0401772
0.100294
0.0219853
0.115712
0.0806513
0.12845
0.127406
0.137749
0.158851
0.142978
0.177722
0.143316
0.193802
0.139254
0.215648
0.133682
0.235123
0.130386
0.226728
0.131399
0.16912
0.136306
0.0689533
0.142689
-0.0422685
0.147887
-0.133747
0.150951
-0.191704
0.151872
-0.216945
0.149128
-0.222357
0.141399
-0.229026
0.131097
-0.234904
0.123967
-0.219697
0.124379
-0.150044
0.131868
-0.0471028
0.141595
0.0711992
0.147488
0.165494
0.146548
0.250685
0.140205
0.311678
0.13357
0.312762
0.132155
0.246327
0.135654
0.0809966
0.139342
-0.0314948
0.139449
-0.196975
0.135206
-0.252358
0.132308
-0.311719
0.130868
-0.306122
-0.0453712
0.0271639
0.0321541
0.03298
0.0354759
0.0393142
0.037897
0.0461467
0.0390867
0.0533856
0.0386933
0.0608701
0.0362489
0.0684246
0.0312655
0.075858
0.0233158
0.0829381
0.0121049
0.0896613
-0.00280586
0.095722
-0.0210005
0.101104
-0.042528
0.105703
-0.0664821
0.109314
-0.0909958
0.11161
-0.113236
0.112257
-0.130281
0.111098
-0.14044
0.10829
-0.143905
0.10408
-0.142109
0.0980033
-0.137071
0.0888628
-0.132001
0.0768572
-0.130183
0.0656109
-0.130213
0.060663
-0.123139
0.0651041
-0.0981008
0.0774133
-0.0524863
0.0938498
0.00554887
0.110586
0.0639154
0.125243
0.112748
0.13648
0.147615
0.143273
0.170929
0.144985
0.19209
0.142508
0.218125
0.138621
0.23901
0.136422
0.228927
0.137409
0.168133
0.141309
0.0650531
0.146265
-0.0472244
0.149897
-0.137379
0.151344
-0.193151
0.151089
-0.21669
0.147973
-0.219241
0.140313
-0.221366
0.129995
-0.224585
0.12266
-0.212363
0.123076
-0.15046
0.130966
-0.0549926
0.141292
0.0608739
0.147779
0.159007
0.147337
0.251127
0.141334
0.317681
0.134705
0.319391
0.132992
0.24804
0.136377
0.077612
0.140131
-0.0352486
0.14031
-0.197155
0.135997
-0.248044
0.133195
-0.308917
0.131981
-0.304908
-0.0435643
0.048723
0.026333
0.0549612
0.0292377
0.0616388
0.0312194
0.0687035
0.032022
0.0760094
0.0313874
0.0833776
0.0288807
0.0906222
0.0240209
0.097568
0.0163701
0.10397
0.00570313
0.109856
-0.00869234
0.114912
-0.0260563
0.119049
-0.0466653
0.122081
-0.0695137
0.123742
-0.092657
0.123759
-0.113252
0.122024
-0.128547
0.118696
-0.137112
0.11413
-0.139339
0.108793
-0.136771
0.10272
-0.130998
0.0947461
-0.124027
0.0836294
-0.119066
0.070994
-0.117578
0.0621329
-0.114278
0.0622471
-0.0982151
0.0719584
-0.0621976
0.0878613
-0.0103541
0.10546
0.0463166
0.121759
0.096449
0.134776
0.134598
0.14318
0.162526
0.146506
0.188764
0.14588
0.218751
0.143781
0.241109
0.142595
0.230113
0.143391
0.167337
0.146116
0.062328
0.149558
-0.0506664
0.151668
-0.139489
0.151577
-0.193061
0.150171
-0.215283
0.146757
-0.215828
0.139333
-0.213941
0.129164
-0.214416
0.121674
-0.204874
0.121988
-0.150774
0.130113
-0.0631177
0.140952
0.0500354
0.148077
0.151881
0.148242
0.250962
0.142685
0.323238
0.136109
0.325966
0.134053
0.250096
0.137244
0.0744215
0.14105
-0.0390553
0.141311
-0.197415
0.136913
-0.243647
0.134143
-0.306148
0.133136
-0.303902
-0.0417045
0.0695231
0.0205726
0.0756649
0.0230959
0.0822444
0.0246399
0.0891782
0.0250882
0.0962833
0.0242823
0.103369
0.0217954
0.110231
0.0171591
0.116667
0.00993386
0.122661
-0.000291528
0.127787
-0.0138176
0.131974
-0.0302433
0.134962
-0.0496537
0.136465
-0.0710168
0.13618
-0.092372
0.133946
-0.111018
0.129925
-0.124526
0.124607
-0.131794
0.11857
-0.133302
0.112315
-0.130517
0.106136
-0.124819
0.0993668
-0.117257
0.0902301
-0.10993
0.078233
-0.105581
0.0669208
-0.102966
0.06246
-0.0937543
0.0683051
-0.0680427
0.0824326
-0.0244815
0.10027
0.0284796
0.117797
0.0789213
0.132382
0.120013
0.142424
0.152483
0.14758
0.183607
0.149033
0.217298
0.14883
0.241313
0.148626
0.230317
0.149123
0.166839
0.150619
0.060832
0.152491
-0.0525385
0.153133
-0.140131
0.151615
-0.191543
0.149091
-0.212759
0.145423
-0.21216
0.138382
-0.206899
0.128514
-0.204548
0.120919
-0.197278
0.121036
-0.150891
0.129247
-0.0713286
0.140519
0.0387636
0.148334
0.144066
0.149229
0.250067
0.144236
0.328232
0.137782
0.33242
0.135347
0.252532
0.138258
0.0715097
0.142086
-0.042883
0.142432
-0.197761
0.137947
-0.239162
0.135147
-0.303347
0.134319
-0.303073
-0.0398192
0.0910574
0.015705
0.0964257
0.0177277
0.102338
0.0187277
0.108647
0.0187786
0.115155
0.017775
0.121671
0.0152795
0.127998
0.0108315
0.133796
0.00413605
0.13929
-0.00578606
0.143607
-0.018134
0.146817
-0.0334533
0.148531
-0.051368
0.148387
-0.0708726
0.146108
-0.0900934
0.141711
-0.10662
0.135628
-0.118443
0.128616
-0.124782
0.121437
-0.126123
0.11458
-0.12366
0.108312
-0.118551
0.102431
-0.111376
0.0955039
-0.103002
0.0857353
-0.0958123
0.0741504
-0.0913806
0.0660136
-0.0856174
0.0670182
-0.0690473
0.077925
-0.0353883
0.0949216
0.0114829
0.1131
0.0607427
0.129009
0.104105
0.140711
0.14078
0.14788
0.176439
0.151594
0.213585
0.153373
0.239533
0.154185
0.229505
0.15441
0.166615
0.15466
0.0605818
0.154989
-0.0528677
0.154222
-0.139364
0.151414
-0.188735
0.147824
-0.209169
0.143918
-0.208253
0.13738
-0.200362
0.127954
-0.195122
0.120295
-0.189619
0.120129
-0.150726
0.128289
-0.0794885
0.139926
0.0271268
0.148488
0.135503
0.150249
0.248307
0.145951
0.332529
0.139706
0.338666
0.136869
0.255368
0.139422
0.0689574
0.143223
-0.0466842
0.143654
-0.198192
0.139091
-0.234599
0.136202
-0.300459
0.135516
-0.302387
-0.0379376
0.115429
0.0125719
0.119302
0.0138541
0.123864
0.0141662
0.128891
0.0137509
0.134208
0.0124583
0.139624
0.00986373
0.14488
0.00557565
0.149945
-0.000928888
0.154197
-0.010038
0.157412
-0.0213488
0.159275
-0.0353163
0.159387
-0.0514809
0.157383
-0.0688684
0.153086
-0.0857965
0.14672
-0.100254
0.13895
-0.110673
0.130687
-0.116518
0.122754
-0.11819
0.115615
-0.116521
0.109403
-0.112339
0.104083
-0.106057
0.0989118
-0.0978309
0.0919831
-0.0888837
0.0822145
-0.0816119
0.0724465
-0.0758495
0.0687507
-0.0653515
0.0750274
-0.041665
0.0896083
-0.00309794
0.107524
0.0428271
0.124405
0.0872233
0.137765
0.12742
0.147082
0.167122
0.153175
0.207491
0.157004
0.235705
0.15887
0.227638
0.158982
0.166504
0.158136
0.061428
0.156981
-0.051713
0.154859
-0.137242
0.150918
-0.184794
0.146339
-0.20459
0.142182
-0.204096
0.136243
-0.194423
0.127391
-0.18627
0.119702
-0.181929
0.119171
-0.150195
0.127154
-0.0874724
0.139099
0.0151826
0.148467
0.126135
0.151233
0.245541
0.147776
0.335985
0.141838
0.344605
0.138605
0.258601
0.140724
0.0668381
0.144443
-0.0504026
0.144955
-0.198705
0.140332
-0.229975
0.137302
-0.297429
0.136719
-0.301805
-0.0360912
0.142042
0.0114234
0.144087
0.0118094
0.146817
0.0114356
0.150017
0.0105511
0.153592
0.0088831
0.157378
0.00607783
0.16098
0.00197344
0.164516
-0.00446461
0.167059
-0.0125811
0.168602
-0.0228915
0.168672
-0.0353868
0.166878
-0.049687
0.162915
-0.0649055
0.156756
-0.0796371
0.148808
-0.0923055
0.139875
-0.101741
0.130894
-0.107537
0.122624
-0.10992
0.115467
-0.109364
0.109471
-0.106343
0.104564
-0.10115
0.100495
-0.093762
0.0960439
-0.0844329
0.0892738
-0.0748418
0.0803436
-0.0669193
0.0736086
-0.0586165
0.0746981
-0.0427545
0.085128
-0.0135279
0.101351
0.0266039
0.118518
0.0700564
0.133378
0.112561
0.144937
0.155563
0.153556
0.198872
0.159468
0.229792
0.162368
0.224739
0.162505
0.166366
0.160875
0.0630587
0.158369
-0.0492076
0.154947
-0.13382
0.150034
-0.179882
0.144582
-0.199138
0.140146
-0.19966
0.134873
-0.189151
0.126741
-0.178137
0.119054
-0.174242
0.118067
-0.149208
0.125757
-0.0951616
0.137959
0.00298009
0.14819
0.115904
0.152109
0.241622
0.149644
0.33845
0.144123
0.350126
0.140524
0.2622
0.142148
0.0652135
0.145725
-0.0539795
0.146311
-0.19929
0.141654
-0.225318
0.138438
-0.294213
0.137918
-0.301285
-0.0343142
0.166006
0.0116923
0.166527
0.0112886
0.167498
0.0104647
0.168852
0.00919715
0.170557
0.00717815
0.172439
0.00419573
0.174315
9.79125e-05
0.175673
-0.00582241
0.176285
-0.0131934
0.175833
-0.0224393
0.173923
-0.0334774
0.170208
-0.0459719
0.16449
-0.0591877
0.156887
-0.0720338
0.147921
-0.0833398
0.138416
-0.0922352
0.129221
-0.0983425
0.120967
-0.101666
0.113975
-0.102372
0.108284
-0.100653
0.103781
-0.0966467
0.100377
-0.0903575
0.097603
-0.081659
0.0938581
-0.0710968
0.0876129
-0.0606742
0.0804605
-0.0514641
0.0774632
-0.0397573
0.0827445
-0.0188091
0.09554
0.0138083
0.111772
0.0538244
0.127606
0.0967269
0.141258
0.141911
0.152349
0.187781
0.160384
0.221757
0.164459
0.220664
0.164823
0.166002
0.162783
0.0650989
0.159115
-0.0455399
0.154436
-0.12914
0.14869
-0.174135
0.142518
-0.192966
0.137771
-0.194913
0.133186
-0.184566
0.125933
-0.170884
0.118306
-0.166615
0.116749
-0.147651
0.12401
-0.102423
0.136433
-0.00944231
0.147577
0.10476
0.15278
0.236419
0.151458
0.339772
0.146487
0.355097
0.142567
0.26612
0.143684
0.0640966
0.147048
-0.0573436
0.1477
-0.199942
0.143039
-0.220657
0.139603
-0.290777
0.139106
-0.300788
-0.0326437
0.181117
0.0123761
0.180818
0.0115877
0.180678
0.0106052
0.180801
0.009074
0.181146
0.00683256
0.181507
0.00383517
0.181512
9.24385e-05
0.18122
-0.00553024
0.180132
-0.0121051
0.177968
-0.0202758
0.174412
-0.0299212
0.169221
-0.0407812
0.162329
-0.0522949
0.15396
-0.0636656
0.144669
-0.0740489
0.135195
-0.0827604
0.126231
-0.0893791
0.118265
-0.0936995
0.111538
-0.0956448
0.106113
-0.095228
0.101924
-0.0924568
0.0988986
-0.0873325
0.0969857
-0.0797461
0.0954136
-0.0695247
0.0923732
-0.0576338
0.0871455
-0.0462363
0.0825345
-0.0351464
0.0833266
-0.0196011
0.0914684
0.00566643
0.105157
0.0401359
0.120905
0.0809789
0.136305
0.126511
0.149977
0.174109
0.160175
0.211559
0.165236
0.215604
0.166038
0.165199
0.16395
0.0671875
0.159419
-0.0410091
0.153524
-0.123246
0.147049
-0.16766
0.140326
-0.186243
0.135208
-0.189795
0.131221
-0.180579
0.124968
-0.164631
0.117482
-0.159129
0.115225
-0.145395
0.121844
-0.109041
0.134452
-0.0220503
0.14654
0.0926711
0.153191
0.229768
0.153157
0.339806
0.148838
0.359417
0.144695
0.270263
0.145305
0.0634873
0.148396
-0.0604356
0.149113
-0.200659
0.144469
-0.216012
0.14079
-0.287098
0.140285
-0.300282
-0.0311184
0.184443
0.0127108
0.183916
0.0121148
0.183516
0.0110054
0.183147
0.00944351
0.182719
0.00725988
0.182174
0.00438074
0.181662
0.000603578
0.180197
-0.0040643
0.178044
-0.00995239
0.174862
-0.0170944
0.170438
-0.0254966
0.164632
-0.0349754
0.157485
-0.0451476
0.149278
-0.0554585
0.140508
-0.0652795
0.13176
-0.0740116
0.123544
-0.081164
0.11622
-0.086375
0.109971
-0.0893956
0.104863
-0.0901203
0.100892
-0.0884862
0.0979971
-0.0844372
0.0962362
-0.0779852
0.0955393
-0.0688279
0.0947655
-0.0568601
0.0922353
-0.043706
0.0883549
-0.031266
0.0864929
-0.0177392
0.0901967
0.00196269
0.100043
0.0302892
0.113954
0.0670682
0.129658
0.110807
0.145108
0.158658
0.157296
0.199372
0.16395
0.208949
0.166063
0.163086
0.164628
0.0686231
0.159278
-0.0356592
0.152274
-0.116242
0.145268
-0.160654
0.138201
-0.179177
0.132661
-0.184254
0.129079
-0.176997
0.123865
-0.159416
0.116619
-0.151883
0.113573
-0.142349
0.119463
-0.114931
0.13202
-0.0346072
0.144997
0.0796942
0.153162
0.221602
0.154603
0.338365
0.151103
0.362917
0.146845
0.27452
0.147008
0.0633246
0.149747
-0.0631747
0.150538
-0.20145
0.145913
-0.211387
0.142006
-0.283191
0.141457
-0.299734
-0.0297774
0.200388
0.012963
-0.20064
0.200736
0.0117663
0.201191
0.0105507
0.201842
0.00879253
0.202686
0.006416
0.203637
0.00342957
0.204553
-0.000312129
0.205428
-0.00493966
0.20601
-0.0105344
0.206082
-0.0171666
0.205386
-0.0248
0.203679
-0.0332684
0.200799
-0.0422679
0.196712
-0.0513717
0.191519
-0.0600862
0.185415
-0.0679083
0.17864
-0.0743889
0.171439
-0.079174
0.16404
-0.0819964
0.156641
-0.0827207
0.149413
-0.0812582
0.142451
-0.0774753
0.135842
-0.0713767
0.1298
-0.062786
0.124128
-0.0511874
0.11765
-0.0372284
0.109432
-0.0230478
0.100801
-0.00910791
0.0945785
0.00818478
0.0928384
0.0320293
0.0956684
0.0642382
0.10193
0.104545
0.110564
0.150024
0.121285
0.188651
0.135772
0.194462
0.15401
0.144847
0.169739
0.0528936
0.177815
-0.0437351
0.178076
-0.116502
0.173194
-0.155773
0.165126
-0.171109
0.15656
-0.175688
0.149308
-0.169745
0.141296
-0.151404
0.131355
-0.141942
0.123909
-0.134903
0.122894
-0.113916
0.126973
-0.0386859
0.131203
0.0754634
0.132869
0.219937
0.132838
0.338396
0.13331
0.362445
0.13631
0.27152
0.141437
0.0581972
0.145978
-0.0677155
0.146328
-0.2018
0.140319
-0.205378
0.134541
-0.277413
0.130766
-0.29596
-0.0267738
0.212445
0.012644
-0.212126
0.212958
0.0112537
0.213745
0.00976366
0.214624
0.00791371
0.215491
0.00554853
0.216321
0.00259934
0.217052
-0.00104243
0.217551
-0.00543875
0.217657
-0.0106406
0.217186
-0.0166959
0.215948
-0.0235619
0.213776
-0.0310958
0.210562
-0.039054
0.206287
-0.0470965
0.201022
-0.0548221
0.194922
-0.0618081
0.188193
-0.0676597
0.18107
-0.0720506
0.173785
-0.0747122
0.166539
-0.0754743
0.1595
-0.0742191
0.152788
-0.0707634
0.146454
-0.0650426
0.140646
-0.0569782
0.135478
-0.0460194
0.130301
-0.0320511
0.123822
-0.0165693
0.115769
-0.00105499
0.108349
0.0156054
0.104299
0.0360793
0.105272
0.0632648
0.11111
0.0987076
0.120646
0.140488
0.133518
0.175779
0.150859
0.17712
0.170651
0.125055
0.186356
0.0371886
0.193069
-0.0504479
0.191618
-0.115051
0.185251
-0.149405
0.176163
-0.162021
0.166707
-0.166232
0.158965
-0.162003
0.151031
-0.143471
0.140953
-0.131864
0.132689
-0.12664
0.130932
-0.112159
0.134822
-0.0425758
0.139454
0.0708316
0.141814
0.217576
0.142724
0.337486
0.144198
0.360971
0.14778
0.267939
0.153035
0.0529418