/*--------------------------------*- C++ -*----------------------------------*\
| =========                 |                                                 |
| \\      /  F ield         | OpenFOAM: The Open Source CFD Toolbox           |
|  \\    /   O peration     | Version:  2512                                  |
|   \\  /    A nd           | Website:  www.openfoam.com                      |
|    \\/     M anipulation  |                                                 |
\*---------------------------------------------------------------------------*/
FoamFile
{
    version     2.0;
    format      ascii;
    arch        "LSB;label=32;scalar=64";
    class       volScalarField;
    location    "140";
    object      p;
}
// * * * * * * * * * * * * * * * * * * * * * * * * * * * * * * * * * * * * * //

dimensions      [0 2 -2 0 0 0 0];

internalField   nonuniform List<scalar> 
13248
(
-0.457698
-0.45469
-0.451827
-0.449241
-0.447025
-0.445267
-0.443879
-0.44259
-0.440994
-0.438592
-0.434854
-0.429283
-0.421486
-0.411223
-0.398444
-0.383284
-0.366034
-0.347095
-0.326912
-0.305936
-0.284487
-0.262952
-0.240824
-0.218636
-0.466605
-0.462928
-0.45926
-0.455755
-0.45251
-0.449611
-0.446946
-0.444203
-0.440936
-0.43663
-0.43079
-0.423015
-0.413057
-0.400857
-0.386537
-0.370367
-0.352715
-0.333989
-0.314582
-0.294845
-0.275045
-0.255435
-0.235922
-0.217095
-0.476726
-0.472224
-0.467695
-0.463268
-0.458982
-0.454886
-0.450811
-0.446393
-0.44116
-0.434633
-0.42642
-0.416279
-0.404154
-0.390168
-0.374579
-0.357734
-0.340001
-0.321733
-0.303235
-0.284758
-0.266483
-0.248597
-0.231035
-0.214046
-0.488388
-0.482869
-0.477404
-0.472023
-0.466638
-0.461208
-0.455486
-0.449066
-0.441501
-0.432422
-0.421612
-0.409039
-0.394843
-0.37929
-0.362714
-0.345457
-0.327832
-0.310102
-0.292474
-0.27511
-0.258132
-0.241663
-0.225655
-0.210373
-0.501709
-0.494983
-0.488492
-0.482088
-0.475469
-0.468467
-0.460762
-0.45195
-0.441691
-0.429809
-0.416317
-0.4014
-0.385352
-0.368513
-0.351214
-0.333737
-0.316308
-0.299095
-0.282218
-0.265768
-0.249816
-0.234422
-0.219557
-0.205393
-0.5166
-0.508521
-0.500916
-0.493369
-0.485289
-0.476367
-0.46625
-0.454626
-0.441357
-0.426529
-0.410398
-0.393322
-0.375678
-0.357803
-0.339966
-0.322365
-0.305131
-0.28835
-0.272077
-0.256352
-0.241201
-0.226649
-0.212677
-0.199398
-0.532785
-0.523271
-0.514467
-0.505598
-0.495725
-0.484426
-0.471411
-0.456576
-0.440082
-0.422297
-0.403684
-0.384699
-0.365717
-0.347015
-0.328773
-0.311093
-0.294028
-0.277599
-0.261812
-0.246667
-0.23216
-0.218284
-0.20503
-0.192426
-0.549787
-0.538831
-0.528745
-0.518298
-0.506195
-0.491986
-0.475589
-0.457238
-0.437439
-0.416817
-0.395963
-0.375338
-0.355254
-0.335891
-0.317332
-0.299596
-0.282671
-0.266531
-0.251145
-0.236482
-0.222514
-0.209218
-0.19658
-0.184554
-0.566922
-0.554591
-0.543123
-0.530761
-0.515909
-0.49825
-0.478079
-0.456063
-0.433044
-0.409825
-0.387023
-0.365033
-0.34406
-0.324178
-0.305378
-0.287614
-0.270823
-0.254942
-0.23991
-0.225674
-0.212187
-0.199414
-0.187326
-0.175817
-0.583283
-0.569702
-0.556716
-0.54203
-0.523895
-0.502335
-0.478179
-0.452551
-0.426559
-0.401072
-0.376644
-0.353554
-0.331886
-0.311612
-0.292651
-0.2749
-0.258259
-0.242634
-0.227943
-0.214113
-0.20108
-0.188798
-0.177215
-0.166196
-0.59777
-0.583085
-0.568398
-0.550937
-0.529037
-0.503289
-0.475141
-0.446131
-0.417516
-0.390128
-0.364394
-0.340453
-0.318273
-0.297739
-0.278707
-0.261035
-0.244589
-0.229253
-0.214925
-0.201513
-0.188944
-0.177156
-0.166059
-0.155536
-0.609188
-0.59358
-0.576992
-0.556305
-0.530229
-0.500124
-0.468091
-0.435991
-0.405119
-0.376182
-0.349447
-0.324903
-0.302408
-0.281771
-0.262799
-0.245311
-0.22915
-0.214177
-0.200274
-0.187339
-0.175288
-0.164043
-0.153488
-0.143565
-0.340149
-0.342989
-0.344711
-0.345833
-0.346799
-0.34773
-0.348675
-0.349651
-0.350648
-0.351637
-0.352583
-0.353449
-0.354204
-0.354828
-0.355318
-0.355687
-0.355972
-0.356232
-0.356553
-0.357046
-0.357808
-0.35886
-0.360278
-0.362573
-0.347857
-0.350973
-0.352983
-0.354456
-0.35586
-0.357299
-0.358796
-0.360341
-0.361893
-0.363381
-0.364721
-0.365816
-0.366563
-0.36686
-0.366611
-0.365732
-0.364161
-0.361866
-0.358865
-0.355225
-0.351005
-0.34618
-0.340969
-0.336693
-0.357108
-0.360249
-0.36242
-0.364188
-0.366001
-0.367943
-0.370005
-0.372147
-0.374293
-0.376331
-0.378125
-0.379514
-0.38032
-0.380352
-0.379414
-0.377318
-0.373893
-0.369001
-0.362572
-0.354611
-0.345131
-0.334045
-0.321639
-0.310136
-0.367699
-0.370602
-0.372783
-0.374757
-0.376917
-0.379311
-0.381901
-0.384616
-0.387342
-0.389925
-0.392177
-0.393876
-0.394768
-0.394577
-0.393012
-0.389781
-0.384611
-0.377265
-0.367578
-0.355497
-0.341019
-0.324057
-0.304762
-0.285738
-0.379223
-0.381645
-0.383674
-0.385733
-0.388127
-0.39087
-0.393894
-0.397086
-0.400298
-0.403339
-0.405966
-0.407898
-0.408813
-0.408355
-0.406149
-0.401818
-0.395006
-0.3854
-0.372753
-0.357009
-0.33817
-0.316268
-0.291217
-0.264474
-0.391139
-0.392892
-0.394611
-0.396603
-0.399072
-0.401999
-0.405285
-0.408784
-0.412304
-0.415622
-0.418438
-0.420418
-0.421176
-0.420292
-0.417326
-0.411842
-0.403446
-0.39182
-0.376466
-0.357762
-0.33552
-0.309938
-0.28114
-0.249409
-0.402879
-0.403852
-0.405118
-0.40687
-0.409216
-0.412109
-0.415425
-0.418989
-0.422577
-0.425896
-0.428627
-0.430379
-0.430713
-0.429156
-0.425225
-0.418456
-0.408443
-0.394874
-0.37756
-0.356555
-0.332035
-0.304266
-0.274097
-0.240403
-0.413963
-0.414124
-0.414822
-0.416154
-0.418151
-0.420757
-0.423833
-0.427174
-0.43052
-0.433549
-0.435887
-0.437102
-0.436715
-0.434221
-0.429122
-0.420963
-0.409383
-0.394154
-0.375227
-0.352745
-0.327108
-0.298581
-0.268883
-0.235565
-0.424093
-0.423484
-0.423533
-0.424274
-0.425699
-0.427761
-0.430318
-0.433146
-0.435955
-0.438389
-0.440032
-0.440416
-0.439031
-0.435364
-0.428931
-0.419331
-0.406291
-0.389713
-0.3697
-0.346536
-0.32081
-0.292784
-0.264472
-0.233194
-0.43322
-0.431927
-0.431275
-0.431283
-0.431942
-0.43323
-0.435018
-0.437073
-0.43908
-0.44065
-0.441328
-0.440616
-0.437991
-0.432953
-0.425068
-0.414025
-0.399682
-0.382093
-0.361517
-0.338384
-0.313359
-0.286801
-0.260409
-0.232009
-0.441554
-0.439663
-0.438281
-0.437452
-0.437195
-0.437531
-0.43835
-0.439419
-0.440397
-0.440863
-0.440329
-0.438275
-0.434184
-0.4276
-0.418177
-0.405731
-0.390267
-0.371989
-0.351278
-0.328662
-0.304775
-0.28015
-0.255964
-0.230677
-0.449528
-0.447084
-0.444953
-0.443226
-0.441969
-0.441246
-0.44097
-0.440897
-0.440662
-0.439806
-0.437813
-0.434156
-0.428356
-0.420039
-0.408987
-0.395167
-0.378737
-0.360021
-0.339454
-0.317564
-0.294836
-0.271876
-0.249331
-0.227117
-0.366867
-0.373355
-0.379785
-0.384534
-0.385917
-0.382254
-0.371044
-0.351716
-0.324328
-0.290339
-0.253262
-0.217437
-0.186785
-0.16395
-0.150191
-0.146165
-0.152599
-0.169226
-0.192344
-0.213603
-0.221441
-0.215137
-0.19046
-0.157245
-0.125207
-0.100184
-0.0839517
-0.0758485
-0.0744094
-0.0794772
-0.0926417
-0.112597
-0.1309
-0.136558
-0.126231
-0.105807
-0.085517
-0.0713243
-0.0636902
-0.061924
-0.0679384
-0.0811893
-0.0924372
-0.091826
-0.0826595
-0.0681892
-0.0563998
-0.0479493
-0.0451736
-0.0463915
-0.0470435
-0.045699
-0.0426593
-0.037486
-0.0335061
-0.0297349
-0.0260463
-0.0265584
-0.0225688
-0.00732612
-0.334078
-0.332817
-0.332717
-0.332475
-0.330757
-0.325531
-0.315807
-0.300285
-0.278803
-0.25188
-0.222882
-0.195157
-0.17193
-0.155574
-0.147599
-0.149241
-0.161505
-0.183577
-0.210762
-0.234358
-0.245403
-0.23272
-0.203895
-0.166742
-0.131233
-0.103275
-0.084379
-0.0737083
-0.0697546
-0.0719935
-0.0817213
-0.0982794
-0.114583
-0.12076
-0.112743
-0.0958478
-0.079185
-0.0682323
-0.0632914
-0.06412
-0.0728524
-0.0887812
-0.101698
-0.10013
-0.0900989
-0.0727686
-0.0583709
-0.0476023
-0.0429193
-0.0420103
-0.0415983
-0.0404156
-0.0383291
-0.0350258
-0.0325689
-0.0311183
-0.0285556
-0.0297544
-0.0256564
-0.00834422
-0.300668
-0.290496
-0.282691
-0.276097
-0.270054
-0.263006
-0.253255
-0.240402
-0.225841
-0.206039
-0.185305
-0.165713
-0.150023
-0.140457
-0.138756
-0.14655
-0.164726
-0.191717
-0.222098
-0.246992
-0.256776
-0.243728
-0.212603
-0.172887
-0.134985
-0.104868
-0.0838451
-0.070941
-0.0646515
-0.0642092
-0.070562
-0.0836459
-0.0978364
-0.104293
-0.0984874
-0.0851111
-0.0720604
-0.0643418
-0.0621273
-0.0655946
-0.0769978
-0.095476
-0.110146
-0.109149
-0.0970678
-0.0769281
-0.0599995
-0.0470782
-0.040701
-0.0378942
-0.0364578
-0.0352571
-0.0339639
-0.0324451
-0.0315338
-0.0324802
-0.0310356
-0.0328454
-0.0286466
-0.0093412
-0.270313
-0.25094
-0.234954
-0.22105
-0.209531
-0.199231
-0.189595
-0.17744
-0.166563
-0.154558
-0.141526
-0.129743
-0.121618
-0.119074
-0.123997
-0.138079
-0.161814
-0.19299
-0.225864
-0.251778
-0.261415
-0.248411
-0.216433
-0.175578
-0.136469
-0.105065
-0.0825426
-0.06785
-0.0595141
-0.0566136
-0.0597962
-0.0694401
-0.0813365
-0.0877565
-0.0839024
-0.0739293
-0.0643402
-0.0597289
-0.0601442
-0.0661493
-0.0800541
-0.100941
-0.117446
-0.117438
-0.103375
-0.0805985
-0.0612784
-0.046394
-0.0385482
-0.0340933
-0.0316787
-0.0302958
-0.0296164
-0.0297727
-0.0304079
-0.0338114
-0.0334676
-0.0357976
-0.0315048
-0.0103057
-0.245808
-0.218106
-0.194461
-0.173
-0.155799
-0.140825
-0.128609
-0.116785
-0.107769
-0.101415
-0.0948553
-0.090138
-0.0891304
-0.0934794
-0.104976
-0.125021
-0.153567
-0.187981
-0.222621
-0.249303
-0.25936
-0.247075
-0.215617
-0.175073
-0.135984
-0.104138
-0.0806968
-0.0646705
-0.054649
-0.0496223
-0.049913
-0.0562222
-0.0656896
-0.0717163
-0.0693638
-0.0626151
-0.0562004
-0.0544397
-0.0572723
-0.0656125
-0.0817826
-0.104919
-0.12327
-0.123692
-0.108823
-0.0837237
-0.0622208
-0.0455759
-0.0364776
-0.0306274
-0.0272986
-0.0256013
-0.0253425
-0.0270368
-0.0291975
-0.0351009
-0.0358291
-0.038572
-0.0341954
-0.0112266
-0.227411
-0.193853
-0.163455
-0.134767
-0.115
-0.0944391
-0.0760776
-0.0688135
-0.0571713
-0.0531667
-0.0510818
-0.0518373
-0.0567494
-0.0671381
-0.0844091
-0.10942
-0.141553
-0.177977
-0.213468
-0.240676
-0.251398
-0.240387
-0.210581
-0.17172
-0.133815
-0.102338
-0.0785201
-0.0615706
-0.0502232
-0.043447
-0.0412688
-0.0444637
-0.0514321
-0.0567342
-0.0551616
-0.0514833
-0.0478252
-0.0485467
-0.0535076
-0.0639181
-0.0820478
-0.107216
-0.127466
-0.129198
-0.113292
-0.0862489
-0.0628377
-0.0446435
-0.0344904
-0.0274934
-0.0233358
-0.021235
-0.0211928
-0.0242621
-0.0279079
-0.0363331
-0.0380942
-0.0411322
-0.0366859
-0.0120924
-0.216213
-0.180955
-0.146302
-0.114813
-0.0875631
-0.0633911
-0.0432694
-0.0293444
-0.0187759
-0.0157912
-0.0158797
-0.0199497
-0.0288688
-0.0435762
-0.0649637
-0.0932819
-0.127426
-0.164536
-0.199955
-0.227276
-0.238578
-0.229258
-0.20205
-0.166019
-0.130292
-0.0999059
-0.076196
-0.0586775
-0.0463224
-0.0381404
-0.0339503
-0.0344084
-0.0389224
-0.0433498
-0.0415824
-0.0408636
-0.039426
-0.0422
-0.0489384
-0.0610641
-0.0807859
-0.107719
-0.12991
-0.13809
-0.116655
-0.0881144
-0.0631339
-0.0436111
-0.0325821
-0.0246634
-0.0197834
-0.0172459
-0.0172108
-0.0214711
-0.0265413
-0.0374893
-0.0402383
-0.0434465
-0.0389458
-0.0128921
-0.210768
-0.176438
-0.141089
-0.107913
-0.0776469
-0.0505467
-0.0276208
-0.0100853
0.00224376
0.00710586
0.00725314
0.00226904
-0.00833053
-0.0250917
-0.0484189
-0.0780578
-0.112551
-0.149086
-0.183519
-0.209897
-0.221981
-0.214656
-0.19077
-0.158445
-0.12567
-0.0969713
-0.0738034
-0.056039
-0.0429634
-0.0336934
-0.0279142
-0.0260844
-0.0283294
-0.0320552
-0.0356134
-0.0311587
-0.0312563
-0.0355988
-0.0436957
-0.0571343
-0.0780379
-0.106383
-0.13005
-0.138353
-0.118465
-0.0892716
-0.0631186
-0.0424935
-0.0307555
-0.0221137
-0.0166148
-0.0136609
-0.0134297
-0.0186841
-0.0250981
-0.0385513
-0.0422376
-0.0454842
-0.0409471
-0.0136167
-0.208888
-0.177041
-0.143916
-0.111478
-0.0805774
-0.052163
-0.0273018
-0.00716592
0.00722412
0.0158116
0.0179839
0.0141786
0.00414266
-0.012385
-0.0354537
-0.064485
-0.0978068
-0.132669
-0.165393
-0.190795
-0.202837
-0.197626
-0.177588
-0.149575
-0.120291
-0.093738
-0.0714949
-0.0537862
-0.0402482
-0.0301673
-0.0231676
-0.0194963
-0.0196732
-0.0221988
-0.0244874
-0.0218842
-0.0235372
-0.0289678
-0.0379571
-0.0521939
-0.0738639
-0.103303
-0.128094
-0.136567
-0.118855
-0.0897566
-0.0628748
-0.0413553
-0.0290357
-0.0198532
-0.0138321
-0.0104935
-0.00986791
-0.015919
-0.0235754
-0.0395029
-0.0440672
-0.0472176
-0.0426635
-0.0142601
-0.20878
-0.180241
-0.151024
-0.121347
-0.0917765
-0.0637341
-0.0383529
-0.016592
-3.88735e-05
0.0125141
0.0177899
0.0166977
0.00903347
-0.00534187
-0.0262747
-0.0530204
-0.0838188
-0.116047
-0.146184
-0.170209
-0.182197
-0.179402
-0.163646
-0.140345
-0.114903
-0.0908284
-0.0698151
-0.0523982
-0.0385664
-0.0278468
-0.0198723
-0.0147091
-0.0130214
-0.0141505
-0.0154688
-0.013304
-0.0164999
-0.0224838
-0.0319086
-0.0465462
-0.0685364
-0.0985832
-0.124294
-0.133309
-0.117941
-0.0896546
-0.062548
-0.0403229
-0.0274623
-0.0178668
-0.0114649
-0.00781157
-0.00653498
-0.0131907
-0.0219737
-0.0403216
-0.0456979
-0.0486223
-0.0440656
-0.0148135
-0.209004
-0.184334
-0.159342
-0.132563
-0.104882
-0.0780158
-0.0527382
-0.0298003
-0.0105537
0.00285684
0.010354
0.0128029
0.00869296
-0.00225068
-0.0197045
-0.0430396
-0.0705897
-0.0996597
-0.127096
-0.14877
-0.160509
-0.16031
-0.149158
-0.130887
-0.109592
-0.0882733
-0.0687327
-0.0517999
-0.0377952
-0.0265497
-0.0178004
-0.011426
-0.00807048
-0.00784615
-0.00859903
-0.00551055
-0.010475
-0.0164215
-0.025683
-0.0400416
-0.0620125
-0.0927783
-0.119063
-0.128567
-0.115628
-0.088719
-0.0619399
-0.0392865
-0.025955
-0.0159697
-0.00937272
-0.00566036
-0.00350724
-0.0105097
-0.0202643
-0.0410033
-0.0470956
-0.0496751
-0.0451201
-0.0152509
-0.209279
-0.190637
-0.170259
-0.146534
-0.121925
-0.0979995
-0.0747277
-0.0522592
-0.0322796
-0.0149403
-0.00341881
0.00196877
0.00184446
-0.00439315
-0.0169261
-0.0350576
-0.0574365
-0.0818773
-0.106006
-0.125328
-0.136638
-0.138536
-0.131717
-0.118239
-0.101028
-0.08264
-0.0649524
-0.0490197
-0.0353668
-0.0240663
-0.0150597
-0.00803795
-0.00345518
-0.00207333
-0.00298453
-0.00700969
-0.00560528
-0.0110566
-0.0199515
-0.033694
-0.0550077
-0.0855878
-0.111977
-0.122185
-0.1114
-0.0861227
-0.0600289
-0.0374423
-0.0240981
-0.0138146
-0.00716053
-0.00355515
-0.000653096
-0.00795759
-0.0185027
-0.041481
-0.0482388
-0.0503622
-0.0458395
-0.0155333
-0.195177
-0.187166
-0.167878
-0.144781
-0.121926
-0.0998293
-0.0781759
-0.057251
-0.0386195
-0.0229117
-0.0118456
-0.00534895
-0.00383501
-0.00807591
-0.0182713
-0.033929
-0.0537447
-0.0756664
-0.0968972
-0.113862
-0.123463
-0.124749
-0.118302
-0.1061
-0.0906527
-0.0741024
-0.0580414
-0.0433823
-0.0305997
-0.0197848
-0.0109875
-0.00389552
0.00120335
0.00353845
0.0032688
0.000650776
0.000784082
-0.00400056
-0.0118449
-0.0248101
-0.0463037
-0.078756
-0.107495
-0.119304
-0.108661
-0.0829677
-0.0569789
-0.0346527
-0.0218413
-0.0115679
-0.00492649
-0.00093039
0.00278297
-0.00493804
-0.0163431
-0.0417626
-0.0494354
-0.0507917
-0.046331
-0.0156763
-0.182354
-0.176803
-0.15896
-0.13753
-0.11701
-0.0977025
-0.0790093
-0.0609304
-0.0446948
-0.0308711
-0.0204778
-0.0140212
-0.0120711
-0.0151036
-0.0232252
-0.0360042
-0.0522741
-0.070212
-0.0873841
-0.10056
-0.108011
-0.108604
-0.10297
-0.09267
-0.0795897
-0.0653627
-0.0512789
-0.0381365
-0.0263952
-0.0162287
-0.00780424
-0.000818232
0.00452321
0.00735347
0.00739019
0.00535118
0.0048292
0.00089434
-0.00587132
-0.0178231
-0.0389544
-0.0722631
-0.101868
-0.113399
-0.103035
-0.0780817
-0.0532009
-0.0317918
-0.0195047
-0.00938206
-0.00302028
0.00115596
0.0050787
-0.00258846
-0.0146166
-0.041905
-0.0504011
-0.0507606
-0.0463238
-0.0156961
-0.169767
-0.16504
-0.149797
-0.130979
-0.112952
-0.09621
-0.0801187
-0.0645928
-0.0503294
-0.038063
-0.028643
-0.0226383
-0.0204415
-0.0223487
-0.0283914
-0.0381526
-0.0506277
-0.064301
-0.0771523
-0.0875392
-0.0932442
-0.0936792
-0.0892205
-0.0808494
-0.0699123
-0.0576874
-0.0452732
-0.0334157
-0.022593
-0.0130047
-0.00490754
0.00190666
0.00731651
0.0105151
0.0109583
0.00951051
0.00860265
0.00500154
-0.00123007
-0.0126585
-0.0333098
-0.0657814
-0.0944045
-0.105593
-0.0960669
-0.0725172
-0.0491009
-0.0287754
-0.017083
-0.00722719
-0.00114068
0.00308181
0.0069752
-0.000683183
-0.0132822
-0.0419157
-0.0510616
-0.0502849
-0.0458534
-0.0156311
-0.156068
-0.15331
-0.141007
-0.124825
-0.109047
-0.0944777
-0.0806278
-0.0673005
-0.0549221
-0.0441749
-0.0357438
-0.030089
-0.0275185
-0.0282502
-0.0322798
-0.0392534
-0.0484033
-0.0585888
-0.0682924
-0.0760667
-0.0804556
-0.0807958
-0.0771814
-0.0702576
-0.0610287
-0.0505008
-0.039583
-0.028931
-0.0190145
-0.0100325
-0.00229477
0.00428923
0.00966216
0.01316
0.0141295
0.0132526
0.0123253
0.0091229
0.00331013
-0.00768672
-0.0273586
-0.0580538
-0.0856677
-0.09675
-0.0880236
-0.0661924
-0.0445475
-0.025574
-0.0145897
-0.0050887
0.000724137
0.00485547
0.00872638
0.00107976
-0.0119422
-0.041596
-0.0513541
-0.0493951
-0.0448973
-0.0154492
-0.143067
-0.142126
-0.132212
-0.118393
-0.104679
-0.0921558
-0.0803639
-0.0690239
-0.0583884
-0.0490085
-0.0414323
-0.0360571
-0.0331517
-0.0328794
-0.0352277
-0.0399232
-0.0463862
-0.0537055
-0.0607752
-0.0664344
-0.0696158
-0.0696852
-0.0666193
-0.0608289
-0.0530233
-0.0439569
-0.034363
-0.0248026
-0.0157362
-0.00735993
5.98674e-06
0.0063425
0.0116054
0.0152971
0.0167676
0.016466
0.0158693
0.0132794
0.00809836
-0.00206917
-0.0202549
-0.049165
-0.0758837
-0.0866987
-0.0789371
-0.0591717
-0.0396162
-0.0222341
-0.012051
-0.00298145
0.00256764
0.00646318
0.0103127
0.00281597
-0.0103925
-0.0408098
-0.0511774
-0.0480329
-0.0433915
-0.0151143
-0.131151
-0.131134
-0.123245
-0.111681
-0.100018
-0.0893383
-0.0793559
-0.0697578
-0.0606665
-0.0525002
-0.045713
-0.0406528
-0.0375465
-0.0365155
-0.0375421
-0.0404151
-0.044693
-0.0496701
-0.0545327
-0.0584154
-0.0604935
-0.0602306
-0.0575242
-0.0525939
-0.0459203
-0.0380633
-0.0296128
-0.0210346
-0.0127624
-0.00498972
0.00198437
0.00806615
0.0131758
0.0169569
0.0188598
0.0191665
0.0191483
0.0173682
0.0130899
0.00410046
-0.0124641
-0.0395438
-0.0651006
-0.0755712
-0.0690143
-0.0516107
-0.0343861
-0.0187934
-0.00949111
-0.000925035
0.00437912
0.00791892
0.0116973
0.00451902
-0.00862204
-0.0394212
-0.0503609
-0.046123
-0.041294
-0.0145941
-0.1196
-0.120347
-0.114299
-0.104807
-0.095013
-0.0859976
-0.0776002
-0.0695217
-0.0617969
-0.0547338
-0.0487019
-0.0439951
-0.040802
-0.0392146
-0.0392149
-0.0406458
-0.043168
-0.0462829
-0.0493684
-0.0517869
-0.0529071
-0.0522833
-0.0497665
-0.0454544
-0.0396671
-0.0328095
-0.0253462
-0.0176506
-0.0101134
-0.00292878
0.00363489
0.00945433
0.0144024
0.0182033
0.0204487
0.0213361
0.0220324
0.0212393
0.0180742
0.0103926
-0.00452394
-0.0295187
-0.0536449
-0.0636863
-0.0585418
-0.0437099
-0.028966
-0.0153012
-0.00693691
0.00106288
0.00615092
0.00925514
0.012865
0.00615869
-0.00662504
-0.0372435
-0.0487074
-0.0436153
-0.0385928
-0.0138615
-0.108471
-0.109998
-0.105529
-0.097832
-0.0896912
-0.082156
-0.0751492
-0.0683985
-0.0618811
-0.0558148
-0.0504917
-0.0461553
-0.0429634
-0.040992
-0.0402295
-0.040557
-0.0417158
-0.0433765
-0.0450705
-0.0463055
-0.0466066
-0.0456154
-0.0431749
-0.0393077
-0.0342162
-0.0281818
-0.0215632
-0.0146551
-0.00779467
-0.00117303
0.00496954
0.0105108
0.0152996
0.0190852
0.0215914
0.0229824
0.0243639
0.0246576
0.022795
0.0165178
0.00322392
-0.0195898
-0.0420308
-0.051603
-0.0478765
-0.0357185
-0.0234902
-0.0118114
-0.00441256
0.00296969
0.00787601
0.0105187
0.0138302
0.00774723
-0.00433327
-0.0340864
-0.0460222
-0.0404848
-0.0353156
-0.012901
-0.0981686
-0.100188
-0.0969617
-0.0907925
-0.0841037
-0.0778741
-0.0720823
-0.0664856
-0.0610253
-0.0558489
-0.0511831
-0.0472283
-0.0441173
-0.0419151
-0.0406157
-0.0401288
-0.0402853
-0.0408274
-0.0414317
-0.0417225
-0.0413465
-0.0400207
-0.0375962
-0.0340508
-0.0295046
-0.0241468
-0.0182493
-0.0120413
-0.00580344
0.000284933
0.00600791
0.0112518
0.0158739
0.0196276
0.022333
0.024082
0.0260572
0.0273541
0.0268736
0.0220298
0.0102336
-0.0103377
-0.0306965
-0.0396682
-0.0374112
-0.0279117
-0.0181107
-0.00838291
-0.00193953
0.00478836
0.00954675
0.0117718
0.0146561
0.00934864
-0.00166803
-0.0298207
-0.0421515
-0.0367385
-0.0315393
-0.0117148
-0.0886229
-0.0908553
-0.0886167
-0.0837511
-0.0783255
-0.0732325
-0.0684913
-0.0638901
-0.0593492
-0.0549632
-0.0509056
-0.0473387
-0.0443737
-0.0420657
-0.0404138
-0.0393559
-0.0387787
-0.0384972
-0.0382729
-0.0378358
-0.0369243
-0.0353169
-0.0328812
-0.0295734
-0.0254594
-0.0206618
-0.0153812
-0.0097942
-0.00412745
0.00145804
0.00677084
0.0117041
0.0161399
0.0198441
0.0226988
0.0247554
0.0270994
0.0291301
0.0297733
0.0261769
0.0158556
-0.00215537
-0.0199869
-0.0283294
-0.0275481
-0.0205607
-0.0129839
-0.00507838
0.000459488
0.0065171
0.011155
0.0130848
0.0154551
0.0110463
0.00140387
-0.0244375
-0.0370438
-0.032431
-0.027393
-0.0103289
-0.0796124
-0.0819986
-0.0805711
-0.0767972
-0.0724447
-0.0683233
-0.0644801
-0.0607314
-0.0569855
-0.0532974
-0.0497977
-0.0466164
-0.0438453
-0.0415318
-0.0396805
-0.0382453
-0.0371576
-0.0362847
-0.0354573
-0.0344819
-0.0331658
-0.0313389
-0.0288903
-0.0257688
-0.0220058
-0.0176771
-0.0129273
-0.00789062
-0.00274703
0.00236533
0.00728084
0.0118977
0.0161212
0.0197449
0.0226942
0.0249839
0.0275055
0.0298836
0.0311299
0.0284833
0.019775
0.00472237
-0.0103244
-0.018073
-0.0186603
-0.0138956
-0.00824982
-0.00196032
0.00275422
0.0081516
0.0126887
0.0145123
0.0163643
0.0129126
0.0048422
-0.018104
-0.0308183
-0.0276795
-0.0230526
-0.0087956
-0.0711988
-0.0736831
-0.0728851
-0.0699979
-0.0665398
-0.0632381
-0.0601548
-0.05713
-0.0540663
-0.0509895
-0.0479965
-0.0451906
-0.0426478
-0.0404071
-0.0384576
-0.03681
-0.0353949
-0.0341243
-0.0328809
-0.0315277
-0.029925
-0.0279453
-0.0254991
-0.0225365
-0.019068
-0.0151382
-0.0108496
-0.00630178
-0.00163672
0.00303103
0.00756301
0.0118619
0.0158478
0.0193535
0.0223327
0.0247647
0.0273077
0.0296946
0.0310627
0.0291069
0.0220709
0.0100541
-0.00223318
-0.00934451
-0.0110171
-0.00806666
-0.00400979
0.000916318
0.00490735
0.00967508
0.0141194
0.0160572
0.0175014
0.014988
0.00851489
-0.0112025
-0.0238244
-0.0226659
-0.0187168
-0.0071906
-0.0634512
-0.0659093
-0.0655691
-0.0633957
-0.0606797
-0.0580638
-0.0556174
-0.0532017
-0.0507186
-0.048173
-0.0456348
-0.0431868
-0.0408954
-0.0388151
-0.0368439
-0.0350881
-0.0334865
-0.0319728
-0.0304654
-0.0288688
-0.0270839
-0.0250169
-0.022598
-0.019783
-0.0165717
-0.0129887
-0.00910527
-0.00499469
-0.000767124
0.00348392
0.0076448
0.011626
0.0153575
0.0187089
0.0216428
0.0241146
0.0265635
0.0287546
0.0299811
0.0285136
0.0229923
0.0137019
0.0039445
-0.00237428
-0.00471782
-0.00312809
-0.000316179
0.00350783
0.00688189
0.0110612
0.0153916
0.0176297
0.0189005
0.0172471
0.0121958
-0.00429781
-0.0166281
-0.0176312
-0.014578
-0.0056029
-0.0562775
-0.0586381
-0.0586356
-0.0570368
-0.0549312
-0.0528829
-0.0509644
-0.0490564
-0.0470634
-0.0449751
-0.0428391
-0.0407159
-0.0386499
-0.0366529
-0.0348448
-0.0331068
-0.0314375
-0.0298045
-0.0281555
-0.0264262
-0.024548
-0.0224537
-0.0200911
-0.0174237
-0.0144466
-0.0111721
-0.00764992
-0.00393298
-0.000106562
0.00375481
0.00755726
0.0112234
0.0146887
0.0178511
0.0206701
0.02309
0.0253659
0.0272744
0.0282727
0.0271391
0.0228768
0.0158448
0.00827706
0.00290923
0.000288636
0.000941313
0.00282286
0.00578219
0.00864463
0.0122858
0.0164374
0.0190457
0.020414
0.0195207
0.0155679
0.00198881
-0.00986496
-0.0128319
-0.0107987
-0.00411952
-0.0496226
-0.051866
-0.0521096
-0.0509646
-0.0493527
-0.0477679
-0.0462825
-0.0447941
-0.043212
-0.0415164
-0.0397388
-0.0379265
-0.0361191
-0.0343423
-0.0326204
-0.0309354
-0.0292737
-0.0276116
-0.0259147
-0.0241405
-0.0222425
-0.0201739
-0.0178969
-0.0153833
-0.012627
-0.00963369
-0.00643849
-0.00307904
0.000378218
0.00387538
0.00733416
0.0106894
0.0138782
0.0168226
0.0194778
0.021776
0.0238343
0.0254533
0.0262321
0.0253404
0.0220974
0.0168501
0.0111015
0.00677454
0.00414555
0.00420477
0.00542731
0.00771952
0.0101643
0.0133276
0.0172075
0.020103
0.0216829
0.0214298
0.0182239
0.00714723
-0.00400879
-0.00847877
-0.00748911
-0.00281082
-0.0434947
-0.0455921
-0.0459989
-0.0452049
-0.0439885
-0.0427791
-0.041646
-0.0405016
-0.0392615
-0.0379001
-0.0364374
-0.0349095
-0.0333481
-0.0317735
-0.0301953
-0.0286125
-0.027017
-0.0253937
-0.0237202
-0.0219692
-0.0201102
-0.0181115
-0.015947
-0.013596
-0.0110536
-0.00832214
-0.00542708
-0.0023953
0.000721162
0.00387777
0.00700794
0.0100587
0.0129684
0.0156772
0.018133
0.0202638
0.0220959
0.0234624
0.024072
0.023381
0.0209505
0.0170766
0.0127837
0.00952104
0.00700517
0.00674217
0.0075307
0.00931197
0.011414
0.0141564
0.017668
0.0206686
0.0223843
0.0225273
0.0197883
0.0108898
0.000720713
-0.00470778
-0.0047037
-0.00172201
-0.0378645
-0.0397915
-0.0402982
-0.0397743
-0.0388733
-0.0379657
-0.0371166
-0.0362516
-0.0352936
-0.034214
-0.0330242
-0.0317509
-0.030419
-0.0290435
-0.0276303
-0.0261814
-0.0246933
-0.0231573
-0.0215595
-0.0198828
-0.0181079
-0.0162145
-0.0141853
-0.0120062
-0.00967412
-0.0071903
-0.0045742
-0.00184518
0.000955212
0.0037929
0.00661095
0.00936709
0.0120023
0.0144673
0.0167041
0.0186462
0.0202669
0.0214326
0.021932
0.0214237
0.0196379
0.0167983
0.013575
0.0108756
0.00897673
0.00863888
0.00917103
0.0105647
0.0123739
0.01474
0.017797
0.0206785
0.0223135
0.022602
0.020166
0.0131844
0.00427448
-0.00159178
-0.00245038
-0.000867915
-0.0326901
-0.0344419
-0.0350043
-0.0346856
-0.0340335
-0.0333663
-0.0327441
-0.0321039
-0.0313765
-0.0305326
-0.0295767
-0.0285285
-0.0274073
-0.0262242
-0.024983
-0.0236854
-0.0223308
-0.0209147
-0.0194287
-0.0178626
-0.0162049
-0.0144432
-0.0125671
-0.0105674
-0.00844346
-0.00619632
-0.00384189
-0.00139447
0.00111191
0.00365114
0.00617496
0.00864933
0.0110183
0.0132404
0.0152559
0.0170072
0.0184409
0.0194557
0.0198969
0.0195588
0.0182851
0.0162226
0.0137739
0.0113098
0.0102614
0.00999725
0.0103935
0.0114952
0.0130357
0.0150613
0.0176168
0.0201828
0.0215829
0.0218234
0.0196053
0.0142173
0.00670084
0.000844767
-0.000699477
-0.000232621
-0.0279486
-0.0295259
-0.0301095
-0.0299437
-0.0294862
-0.029009
-0.0285665
-0.0281057
-0.0275655
-0.0269167
-0.0261601
-0.0253088
-0.0243773
-0.023375
-0.0223043
-0.0211654
-0.0199583
-0.0186814
-0.0173301
-0.0158986
-0.0143804
-0.0127686
-0.0110576
-0.00924236
-0.00732408
-0.00530428
-0.00319663
-0.00101218
0.00122076
0.00348177
0.00572949
0.00793639
0.0100512
0.0120394
0.0138423
0.0154119
0.0166868
0.0175912
0.0180131
0.0178334
0.0169674
0.0155067
0.0137224
0.0118716
0.0111325
0.0109297
0.0112498
0.0121287
0.0134147
0.0151224
0.0171773
0.0193181
0.0204193
0.0205209
0.0184828
0.0143029
0.00813714
0.00263267
0.000609904
0.000220157
-0.0236147
-0.0250209
-0.0256007
-0.0255472
-0.025241
-0.0249131
-0.0246118
-0.0242932
-0.0239035
-0.0234153
-0.0228264
-0.0221458
-0.0213835
-0.0205474
-0.0196398
-0.0186587
-0.0176037
-0.016475
-0.0152706
-0.0139872
-0.0126216
-0.0111703
-0.00963128
-0.0080022
-0.00628579
-0.00448429
-0.0026097
-0.000671142
0.00130759
0.00331025
0.00530089
0.00725707
0.009133
0.0109005
0.0125055
0.013908
0.0150504
0.0158751
0.0163031
0.0162665
0.0157241
0.0147379
0.0135212
0.0122945
0.0116848
0.011522
0.0117905
0.0124941
0.0135428
0.0149489
0.0165448
0.0182294
0.0190193
0.01897
0.0171032
0.0137752
0.00880199
0.00385409
0.00155158
0.000530658
-0.0196607
-0.020904
-0.0214637
-0.0214911
-0.0213017
-0.0210902
-0.0208992
-0.0206922
-0.0204228
-0.0200657
-0.0196171
-0.019083
-0.01847
-0.0177841
-0.0170279
-0.0161981
-0.0152929
-0.0143135
-0.0132596
-0.0121297
-0.010922
-0.00963545
-0.00827002
-0.0068254
-0.00530528
-0.00371245
-0.00205763
-0.000348697
0.00139414
0.00315752
0.00491078
0.00663526
0.00829044
0.00985352
0.0112768
0.0125288
0.0135604
0.0143268
0.0147722
0.0148577
0.0145725
0.0139568
0.0131806
0.0123894
0.0119488
0.0118327
0.0120624
0.0126258
0.0134591
0.0145831
0.0157777
0.0170314
0.0175266
0.0173466
0.0156542
0.0129113
0.00892639
0.00461309
0.00219413
0.000733505
-0.0160627
-0.0171538
-0.0176824
-0.0177669
-0.0176669
-0.0175456
-0.0174401
-0.0173202
-0.0171463
-0.0168958
-0.0165638
-0.0161542
-0.0156715
-0.0151198
-0.0145001
-0.0138108
-0.0130489
-0.0122144
-0.0113084
-0.0103305
-0.00928015
-0.00815702
-0.00696237
-0.00569717
-0.00436559
-0.00297072
-0.00152227
-2.71328e-05
0.00149757
0.00304034
0.00457542
0.00608758
0.00754189
0.00891846
0.0101778
0.0113025
0.012233
0.0129512
0.0134145
0.0136004
0.0135157
0.0131824
0.0127312
0.0122506
0.0119732
0.0119104
0.0121106
0.0125595
0.0132029
0.0140698
0.0149225
0.0157746
0.0160394
0.0157537
0.0142367
0.0119073
0.0087007
0.00500793
0.00259493
0.000854861
-0.0127975
-0.0137485
-0.0142398
-0.0143633
-0.0143313
-0.0142796
-0.0142399
-0.0141874
-0.0140888
-0.0139243
-0.0136885
-0.013384
-0.0130135
-0.0125783
-0.0120798
-0.0115186
-0.0108905
-0.0101934
-0.00942843
-0.00859652
-0.00769782
-0.00673249
-0.00570212
-0.00460839
-0.00345549
-0.0022468
-0.00099077
0.000306384
0.00162994
0.00297052
0.00430637
0.00562438
0.00689625
0.00810554
0.00921635
0.0102148
0.0110633
0.011742
0.0122198
0.0124839
0.0125487
0.0124241
0.0122091
0.0119511
0.01181
0.0117998
0.0119763
0.0123303
0.012811
0.0134529
0.0140286
0.014581
0.0146279
0.0142491
0.0129007
0.0108821
0.0082635
0.00512537
0.00274389
0.000912691
-0.00984336
-0.0106671
-0.0111182
-0.0112674
-0.011287
-0.0112886
-0.0112991
-0.0112986
-0.011259
-0.0111633
-0.0110065
-0.0107894
-0.0105141
-0.010181
-0.00979028
-0.00934194
-0.0088344
-0.0082641
-0.00763072
-0.00693552
-0.00617939
-0.00536281
-0.0044873
-0.00355467
-0.00256892
-0.00153337
-0.000455363
0.0006595
0.00179905
0.0029551
0.00410963
0.00525204
0.0063583
0.00741589
0.00839552
0.00928223
0.0100526
0.01069
0.0111752
0.0114947
0.011665
0.0116903
0.0116437
0.0115447
0.0115073
0.0115419
0.0116975
0.0119722
0.012317
0.0127688
0.0131232
0.0134353
0.0133204
0.0128631
0.0116664
0.0098973
0.00771465
0.00505946
0.00282937
0.000933431
-0.00718006
-0.00788978
-0.00830026
-0.00846536
-0.0085236
-0.00856585
-0.00861454
-0.00865355
-0.00865991
-0.00861914
-0.00852649
-0.00838213
-0.0081873
-0.00794205
-0.00764463
-0.0072946
-0.00689366
-0.0064381
-0.00592537
-0.00535586
-0.00473096
-0.00405163
-0.00331931
-0.00253562
-0.00170404
-0.000827698
8.7157e-05
0.00103568
0.00200775