/*--------------------------------*- C++ -*----------------------------------*\
| =========                 |                                                 |
| \\      /  F ield         | OpenFOAM: The Open Source CFD Toolbox           |
|  \\    /   O peration     | Version:  2512                                  |
|   \\  /    A nd           | Website:  www.openfoam.com                      |
|    \\/     M anipulation  |                                                 |
\*---------------------------------------------------------------------------*/
FoamFile
{
    version     2.0;
    format      ascii;
    arch        "LSB;label=32;scalar=64";
    class       surfaceScalarField;
    location    "140";
    object      phi;
}
// * * * * * * * * * * * * * * * * * * * * * * * * * * * * * * * * * * * * * //

dimensions      [0 3 -1 0 0 0 0];

oriented        oriented;

internalField   nonuniform List<scalar> 
26232
(
0.000198504
0.000884725
-0.00108323
0.000895277
0.00136585
-0.00206262
0.0022034
0.00067848
-0.00198661
0.00424581
-0.00112559
-0.000916819
0.0071564
-0.00400454
0.00109396
0.0110704
-0.00792078
0.00400674
0.0161068
-0.012829
0.00779269
0.0223444
-0.0186596
0.012422
0.0297983
-0.0253029
0.017849
0.0384
-0.0325994
0.0239977
0.0479893
-0.0403417
0.0307523
0.0583209
-0.0482868
0.0379553
0.0690849
-0.0561775
0.0454135
0.0799397
-0.0637674
0.0529126
0.09055
-0.0708456
0.0602354
0.100624
-0.0772557
0.0671818
0.109943
-0.0829066
0.0735869
0.118383
-0.0877746
0.0793349
0.125915
-0.0918951
0.0843635
0.132596
-0.0953541
0.0886725
0.138547
-0.0982457
0.0922951
0.143918
-0.100731
0.0953605
0.148697
-0.102732
0.0979521
-0.104746
0.100482
0.152961
0.000226171
0.000658554
0.00106713
0.000524885
0.00268145
-0.000935837
0.00522452
-0.00366866
0.00884739
-0.00762742
0.0136791
-0.0127525
0.0197994
-0.0189493
0.0272091
-0.0260694
0.0358077
-0.0339015
0.0453857
-0.0421774
0.0556378
-0.0505938
0.0661948
-0.0588438
0.0766684
-0.0666511
0.0866997
-0.0737987
0.0960019
-0.0801479
0.10439
-0.0856442
0.111795
-0.0903107
0.118252
-0.0942324
0.12389
-0.0975332
0.12889
-0.100354
0.133472
-0.102828
0.137832
-0.105092
0.142267
-0.107166
-0.109433
0.146953
0.000277416
0.000381138
0.00131625
-0.000513949
0.00331275
-0.00293234
0.00644465
-0.00680056
0.0108599
-0.0120427
0.0166469
-0.0185395
0.0237992
-0.0261015
0.0321883
-0.0344586
0.0415584
-0.0432715
0.0515466
-0.0521656
0.0617291
-0.0607762
0.0716795
-0.0687943
0.0810285
-0.076
0.0895091
-0.0822793
0.0969823
-0.0876211
0.103438
-0.0920999
0.108976
-0.0958484
0.11377
-0.0990266
0.118032
-0.101795
0.121976
-0.104297
0.125792
-0.106644
0.129629
-0.108928
0.133621
-0.111159
-0.113571
0.13776
0.000357364
2.37743e-05
0.00165586
-0.00181244
0.00411267
-0.00538915
0.00790508
-0.010593
0.0131427
-0.0172803
0.0198259
-0.0252227
0.0278121
-0.0340878
0.0368092
-0.0434556
0.0464042
-0.0528665
0.0561239
-0.0618853
0.0655097
-0.070162
0.0741866
-0.0774712
0.0819106
-0.083724
0.0885859
-0.0889546
0.0942532
-0.0932883
0.099055
-0.0969017
0.103191
-0.0999848
0.106877
-0.102713
0.11031
-0.105228
0.11365
-0.107638
0.117021
-0.110014
0.120504
-0.112412
0.124176
-0.11483
-0.117438
0.128042
0.000464668
-0.000440894
0.00207808
-0.00342585
0.00505307
-0.00836414
0.00953197
-0.0150719
0.0155399
-0.0232883
0.0229404
-0.0326231
0.0314216
-0.0425689
0.0405304
-0.0525644
0.0497476
-0.0620837
0.0585804
-0.0707181
0.0666433
-0.0782249
0.073707
-0.0845349
0.0797074
-0.0897244
0.0847205
-0.0939677
0.0889154
-0.0974832
0.0925029
-0.100489
0.0956919
-0.103174
0.0986616
-0.105682
0.10155
-0.108117
0.104457
-0.110544
0.107447
-0.113005
0.110562
-0.115526
0.11384
-0.118108
-0.120852
0.117254
0.000594113
-0.00103501
0.00256012
-0.00539185
0.00607417
-0.0118782
0.0112005
-0.0201982
0.0178317
-0.0299195
0.0256595
-0.0404509
0.0342047
-0.0511141
0.0429044
-0.0612641
0.0512244
-0.0704037
0.0587559
-0.0782496
0.0652687
-0.0847377
0.0707144
-0.0899806
0.0751894
-0.0941994
0.0788777
-0.0976561
0.0819943
-0.1006
0.0847412
-0.103236
0.0872843
-0.105717
0.0897463
-0.108144
0.0922115
-0.110582
0.0947355
-0.113068
0.0973536
-0.115623
0.100087
-0.11826
0.102958
-0.120979
-0.123837
0.105943
0.000738194
-0.0017732
0.00307035
-0.00772401
0.00709785
-0.0159057
0.0127612
-0.0258616
0.0197829
-0.0369412
0.0276783
-0.0483463
0.0358457
-0.0592816
0.0436994
-0.0691178
0.0507881
-0.0774924
0.0568593
-0.0843208
0.0618611
-0.0897395
0.0658961
-0.0940156
0.0691555
-0.0974588
0.071856
-0.100357
0.074196
-0.10294
0.0763333
-0.105373
0.0783813
-0.107765
0.0804158
-0.110179
0.082485
-0.112651
0.0846191
-0.115202
0.0868371
-0.117841
0.0891497
-0.120572
0.0915677
-0.123397
-0.126338
0.0940693
0.000888401
-0.0026616
0.00357271
-0.0104083
0.00803905
-0.020372
0.0140649
-0.0318875
0.0211885
-0.0440647
0.0287819
-0.0559398
0.0361994
-0.066699
0.0429241
-0.0758426
0.0486548
-0.0832231
0.0533133
-0.0889793
0.0569941
-0.0934203
0.0598889
-0.0969104
0.062217
-0.0997869
0.0641771
-0.102317
0.0659249
-0.104688
0.0675698
-0.107018
0.0691831
-0.109378
0.0708089
-0.111805
0.0724746
-0.114317
0.0741971
-0.116925
0.0759871
-0.119631
0.0778516
-0.122437
0.0797966
-0.125342
-0.128349
0.0818076
0.00103534
-0.00369694
0.00402929
-0.0134023
0.00881511
-0.0251579
0.014984
-0.0380564
0.0219071
-0.0509878
0.0288784
-0.0629111
0.0352936
-0.0731142
0.0407712
-0.0813202
0.0451794
-0.0876312
0.0485864
-0.0923864
0.0511774
-0.0960113
0.0531742
-0.0989072
0.0547804
-0.101393
0.0561547
-0.103691
0.0574076
-0.10594
0.0586095
-0.10822
0.0598028
-0.110571
0.061013
-0.113015
0.0622558
-0.11556
0.0635416
-0.11821
0.064877
-0.120966
0.0662667
-0.123827
0.0677133
-0.126789
-0.129845
0.0692086
0.00116869
-0.00486563
0.00440287
-0.0166364
0.00935479
-0.0301098
0.0154294
-0.044131
0.021878
-0.0574363
0.027994
-0.0690271
0.0332828
-0.078403
0.0375244
-0.0855618
0.0407367
-0.0908436
0.043086
-0.0947356
0.0447946
-0.0977199
0.0460743
-0.100187
0.0470926
-0.102411
0.0479657
-0.104564
0.0487666
-0.106741
0.0495384
-0.108992
0.0503063
-0.111339
0.0510851
-0.113794
0.0518849
-0.11636
0.0527122
-0.119038
0.0535716
-0.121826
0.0544663
-0.124721
0.0553975
-0.12772
-0.13081
0.0563631
0.00127844
-0.00614407
0.0046617
-0.0200197
0.00960761
-0.0350557
0.0153605
-0.0498839
0.0211171
-0.0631929
0.0262411
-0.0741512
0.0303843
-0.0825462
0.0334798
-0.0886573
0.0356548
-0.0930185
0.037125
-0.0962059
0.0381117
-0.0987065
0.0387957
-0.100871
0.0393041
-0.10292
0.0397169
-0.104977
0.0400802
-0.107105
0.04042
-0.109332
0.0407512
-0.11167
0.0410835
-0.114126
0.0414234
-0.1167
0.0417757
-0.11939
0.0421435
-0.122194
0.0425284
-0.125106
0.0429299
-0.128122
-0.13123
0.0433494
0.00135875
-0.00750282
0.0047862
-0.0234472
0.00955083
-0.0398203
0.0147849
-0.0551179
0.0197012
-0.0681093
0.0237826
-0.0782326
0.0268325
-0.0855961
0.0289068
-0.0907315
0.030198
-0.0943098
0.0309335
-0.0969413
0.0313109
-0.0990839
0.0314736
-0.101034
0.0315131
-0.102959
0.0314819
-0.104946
0.0314085
-0.107031
0.0313085
-0.109232
0.0311913
-0.111553
0.0310633
-0.113998
0.0309295
-0.116566
0.0307938
-0.119254
0.0306588
-0.122059
0.0305256
-0.124973
0.0303927
-0.127989
0.0302635
-0.1311
-0.000328584
0.000326487
2.09749e-06
-0.0011183
0.000110615
0.000679102
-0.00225942
-0.000654069
0.00179519
-0.00367855
-0.00173841
0.00315754
-0.00532284
-0.00298626
0.00463054
-0.00715137
-0.00431371
0.00614225
-0.00912994
-0.00569628
0.00767485
-0.011228
-0.00714966
0.00924773
-0.0134172
-0.00870951
0.0108987
-0.0156702
-0.0104147
0.0126678
-0.0179596
-0.0122968
0.0145863
-0.0202563
-0.0143748
0.0166715
-0.0225275
-0.0166538
0.018925
-0.0247354
-0.019125
0.0213329
-0.0268356
-0.0217651
0.0238652
-0.0287763
-0.0245354
0.026476
-0.030498
-0.0273798
0.0291015
-0.0319345
-0.0302225
0.031659
-0.0330144
-0.0329665
0.0340464
-0.0336644
-0.0354948
0.0361447
-0.0338125
-0.0376745
0.0378225
-0.033394
-0.039358
0.0389396
-0.0323702
-0.0403742
0.0393505
-0.0405669
-0.0307577
0.0389544
-0.000354431
0.000680917
-0.00121172
0.000967901
-0.00245366
0.000587877
-0.00399814
-0.000193929
-0.00578469
-0.00119972
-0.00776781
-0.00233059
-0.00991239
-0.00355169
-0.0121907
-0.00487133
-0.0145801
-0.00632013
-0.0170608
-0.00793403
-0.019614
-0.00974362
-0.0222198
-0.0117691
-0.0248552
-0.0140184
-0.027493
-0.0164872
-0.0301002
-0.0191579
-0.0326375
-0.0219981
-0.0350586
-0.0249587
-0.0373105
-0.0279706
-0.039334
-0.0309429
-0.0410675
-0.0337613
-0.0424512
-0.0362907
-0.0434297
-0.0383796
-0.0439548
-0.0398491
-0.0405048
-0.044017
-0.000346094
0.00102701
-0.00119516
0.00181696
-0.00243291
0.00182563
-0.00397428
0.00134744
-0.00575337
0.000579371
-0.00772001
-0.000363951
-0.00983592
-0.00143579
-0.0120729
-0.00263433
-0.0144094
-0.00398362
-0.0168282
-0.00551526
-0.0193137
-0.00725813
-0.0218499
-0.00923279
-0.0244191
-0.0114493
-0.0270001
-0.0139061
-0.0295684
-0.0165896
-0.032095
-0.0194716
-0.0345453
-0.0225083
-0.036879
-0.0256369
-0.0390485
-0.0287735
-0.0410013
-0.0318085
-0.0426869
-0.0346051
-0.0440596
-0.0370069
-0.045064
-0.0388446
-0.0398857
-0.0456831
-0.000303106
0.00133012
-0.00106643
0.00258029
-0.0021923
0.0029515
-0.00359932
0.00275446
-0.00521909
0.00219914
-0.00699538
0.00141234
-0.00888392
0.000452751
-0.0108527
-0.000665558
-0.012875
-0.00196127
-0.0149299
-0.00346039
-0.0169982
-0.00518983
-0.019061
-0.00717001
-0.0210983
-0.00941192
-0.023089
-0.0119155
-0.0250107
-0.0146679
-0.02684
-0.0176423
-0.0285523
-0.020796
-0.0301203
-0.0240689
-0.0315113
-0.0273825
-0.0326853
-0.0306345
-0.0335974
-0.033693
-0.0342079
-0.0363964
-0.0344663
-0.0385862
-0.0400786
-0.0342734
-0.000231299
0.00156142
-0.000841324
0.00319032
-0.00175899
0.00386917
-0.00291215
0.00390762
-0.00423185
0.00351884
-0.0056568
0.00283729
-0.00713573
0.00193169
-0.0086233
0.000822006
-0.0100858
-0.000498803
-0.0114916
-0.00205451
-0.0128113
-0.00387019
-0.0140156
-0.00596567
-0.0150755
-0.00835207
-0.0159619
-0.011029
-0.0166476
-0.0139822
-0.0171085
-0.0171814
-0.0173252
-0.0205793
-0.0172836
-0.0241105
-0.0169696
-0.0276964
-0.0163718
-0.0312324
-0.0154626
-0.0346021
-0.0142094
-0.0376496
-0.0126031
-0.0401926
-0.0421106
-0.010571
-0.000141305
0.00170272
-0.00055016
0.00359917
-0.00118661
0.00450562
-0.00199126
0.00471227
-0.00289693
0.0044245
-0.00383688
0.00377723
-0.00474939
0.0028442
-0.00557951
0.00165213
-0.00627442
0.000196111
-0.00679158
-0.00153735
-0.00708453
-0.00357725
-0.00710941
-0.00594078
-0.00682321
-0.00863828
-0.00618478
-0.0116675
-0.00515699
-0.01501
-0.00371
-0.0186284
-0.0018234
-0.0224659
0.00051197
-0.0264459
0.00328594
-0.0304703
0.00648871
-0.0344351
0.0101033
-0.0382167
0.0141447
-0.0416911
0.0186013
-0.0446492
-0.0470223
0.023513
-4.64523e-05
0.00174917
-0.0002321
0.00378482
-0.000545778
0.0048193
-0.000941287
0.00510778
-0.00135422
0.00483744
-0.00171298
0.00413599
-0.00194548
0.0030767
-0.00198232
0.00168898
-0.00175872
-2.74911e-05
-0.0012084
-0.00208768
-0.000271647
-0.004514
0.00111106
-0.00732349
0.00299629
-0.0105235
0.00543444
-0.0141056
0.00846646
-0.018042
0.0121214
-0.0222834
0.0164129
-0.0267574
0.0213372
-0.0313702
0.026877
-0.0360101
0.032996
-0.0405541
0.0396511
-0.0448718
0.0468165
-0.0488564
0.0544279
-0.0522606
-0.0554541
0.0628597
4.01245e-05
0.00170905
7.30443e-05
0.0037519
8.9644e-05
0.0048027
0.000126531
0.00507089
0.000246039
0.00471793
0.000524291
0.00385774
0.00104338
0.00255761
0.00188661
0.000845745
0.00313598
-0.00127686
0.00487222
-0.00382392
0.00717125
-0.00681303
0.0101035
-0.0102558
0.01373
-0.01415
0.0180983
-0.0184739
0.0232381
-0.0231818
0.0291567
-0.028202
0.0358376
-0.0334382
0.0432406
-0.0387732
0.0513058
-0.0440753
0.0599598
-0.0492081
0.0691229
-0.0540349
0.0787316
-0.0584652
0.0887152
-0.0622442
-0.0660464
0.0993074
0.000108048
0.001601
0.000332274
0.00352767
0.000658179
0.00447679
0.00111893
0.00461014
0.00177767
0.00405919
0.00271624
0.00291917
0.00402692
0.00124692
0.00580652
-0.000933858
0.0081519
-0.00362224
0.011156
-0.00682798
0.0149029
-0.01056
0.0194629
-0.0148158
0.0248855
-0.0195726
0.0311932
-0.0247817
0.0383766
-0.0303652
0.0463916
-0.0362169
0.0551603
-0.042207
0.0645769
-0.0481898
0.0745164
-0.0540148
0.084845
-0.0595367
0.0954414
-0.0646313
0.10619
-0.0692134
0.117039
-0.0730934
-0.0769449
0.127937
0.000152818
0.00144818
0.00053016
0.00315033
0.00112789
0.00387907
0.00198549
0.00375254
0.00317256
0.00287212
0.00477971
0.00131203
0.00691052
-0.000883892
0.00967408
-0.00369742
0.0131771
-0.00712525
0.017516
-0.0111669
0.0227678
-0.0158118
0.02898
-0.0210279
0.0361617
-0.0267543
0.0442772
-0.0328972
0.0532432
-0.0393312
0.0629322
-0.0459059
0.0731809
-0.0524557
0.0838044
-0.0588133
0.094613
-0.0648234
0.10543
-0.0703533
0.116109
-0.075311
0.126526
-0.0796302
0.136692
-0.0832597
-0.0865974
0.146345
0.000176542
0.00127164
0.000671044
0.00265583
0.00150547
0.00304464
0.00273604
0.00252197
0.00444607
0.00116209
0.00673921
-0.00098111
0.00973092
-0.0038756
0.0135373
-0.00750384
0.0182636
-0.0118515
0.0239896
-0.0168929
0.0307559
-0.0225781
0.0385514
-0.0288235
0.0473058
-0.0355087
0.0568879
-0.0424792
0.0671125
-0.0495559
0.077755
-0.0565484
0.0885711
-0.0632717
0.0993205
-0.0695627
0.10979
-0.0752927
0.119817
-0.0803804
0.129297
-0.0847909
0.1382
-0.0885334
0.146586
-0.0916453
-0.0941977
0.154186
0.00018841
0.00078162
0.00183965
0.0034448
0.00570085
0.00872648
0.0126436
0.0175617
0.0235592
0.0306639
0.0388382
0.04797
0.0578748
0.0683082
0.0789877
0.089621
0.0999362
0.109708
0.118779
0.127071
0.134575
0.141403
0.147709
0.153994
-0.0258319
-0.0554466
0.0505207
-0.0197298
-0.0513138
0.0452116
-0.0125389
-0.0439842
0.0367933
-0.00436348
-0.0332906
0.0251152
0.00474596
-0.019185
0.0100755
0.0144527
-0.00184158
-0.00786512
0.0244489
0.0186083
-0.0286046
0.0345677
0.0410936
-0.0512123
0.0445364
0.0643708
-0.0743395
0.0541137
0.0866033
-0.0961806
0.0627212
0.106306
-0.114914
0.0696023
0.122352
-0.129233
0.0739479
0.134569
-0.138914
0.0752363
0.143903
-0.145191
0.0739571
0.151407
-0.150128
0.0721305
0.15619
-0.154363
0.0726899
0.154128
-0.154687
0.0777686
0.139345
-0.144423
0.0872849
0.108147
-0.117663
0.0995732
0.0611848
-0.0734732
0.112908
0.00323731
-0.0165723
0.125608
-0.0568009
0.0441013
0.136367
-0.109223
0.0984642
0.144066
-0.14628
0.13858
0.148303
-0.167184
0.162948
0.149668
-0.175998
0.174632
0.149028
-0.177411
0.178052
0.146176
-0.176417
0.179268
0.140231
-0.179812
0.185757
0.131914
-0.18912
0.197438
0.124544
-0.191693
0.199063
0.12183
-0.166579
0.169293
0.124989
-0.103293
0.100134
0.132501
-0.0159288
0.00841749
0.141385
0.0722847
-0.0811689
0.149495
0.138911
-0.147021
0.155432
0.180168
-0.186105
0.157797
0.201716
-0.204081
0.155258
0.222084
-0.219544
0.148385
0.243664
-0.23679
0.140595
0.248354
-0.240564
0.136008
0.212196
-0.207609
0.136528
0.1199
-0.12042
0.141636
0.00908964
-0.0141976
0.148453
-0.103418
0.096601
0.153338
-0.168528
0.163643
0.152771
-0.218751
0.219319
0.146931
-0.246734
0.252574
0.140078
-0.257101
0.263955
0.137444
-0.234394
0.237027
0.140415
-0.12085
0.11788
0.145715
-0.0319207
0.0266202
0.147874
0.122171
-0.124329
0.14598
0.199853
-0.197959
0.143165
0.281571
-0.278756
0.14217
0.315757
-0.314762
0.14277
0.172739
-0.17334
0.14305
0.140497
-0.140777
0.14148
-0.13548
0.13705
-0.226601
0.228497
-0.0411695
-0.058294
-0.0368362
-0.0556471
-0.0310298
-0.0497905
-0.023703
-0.0406175
-0.0149827
-0.0279052
-0.00505072
-0.0117736
0.00621193
0.00734566
0.0181365
0.029169
0.0298268
0.0526805
0.0412484
0.0751818
0.0516502
0.0959045
0.0602631
0.113739
0.0664259
0.128406
0.0700605
0.140268
0.0721914
0.149276
0.0748985
0.153483
0.0803352
0.148691
0.0892893
0.130391
0.100757
0.096679
0.113093
0.0488488
0.124864
-0.00853325
0.135296
-0.0672331
0.143316
-0.117243
0.148303
-0.151266
0.150176
-0.169057
0.14959
-0.175412
0.147492
-0.175314
0.143784
-0.172708
0.137303
-0.173331
0.128248
-0.180065
0.119844
-0.18329
0.116372
-0.163108
0.119589
-0.10651
0.128003
-0.0243427
0.138354
0.0619335
0.148177
0.129088
0.1557
0.172645
0.159271
0.198145
0.15768
0.223676
0.151686
0.249658
0.144627
0.255412
0.140175
0.216649
0.14
0.120075
0.143805
0.00528482
0.149267
-0.10888
0.15331
-0.172571
0.152322
-0.217763
0.146302
-0.240714
0.139324
-0.250123
0.136854
-0.231924
0.140007
-0.124003
0.14542
-0.0373333
0.147695
0.119895
0.145894
0.201654
0.143251
0.284214
0.142319
0.31669
0.143217
0.171841
0.143797
0.139918
0.142305
-0.133988
-0.224723
-0.0454627
-0.0585144
-0.0437731
-0.0573368
-0.0404018
-0.0531618
-0.0351585
-0.0458608
-0.0279617
-0.035102
-0.0189172
-0.0208181
-0.00817114
-0.00340041
0.00386161
0.0171362
0.0167696
0.0397725
0.0296001
0.0623512
0.0416578
0.0838468
0.0522235
0.103173
0.0608322
0.119797
0.0677128
0.133388
0.0740043
0.142985
0.0813648
0.146122
0.0909887
0.139067
0.102651
0.118728
0.114956
0.084374
0.126475
0.0373294
0.13642
-0.018478
0.144336
-0.0751486
0.149568
-0.122476
0.151891
-0.153589
0.151557
-0.168723
0.149249
-0.173104
0.145889
-0.171954
0.141534
-0.168353
0.134867
-0.166665
0.125452
-0.17065
0.116137
-0.173975
0.111697
-0.158668
0.114622
-0.109434
0.123578
-0.0332995
0.135211
0.0503011
0.14665
0.117648
0.155747
0.163549
0.160627
0.193264
0.160198
0.224105
0.155286
0.25457
0.149018
0.261679
0.144657
0.22101
0.143694
0.121038
0.146096
0.00288264
0.150112
-0.112896
0.153292
-0.175752
0.151955
-0.216427
0.145837
-0.234596
0.138752
-0.243038
0.136386
-0.229558
0.139667
-0.127285
0.145208
-0.0428738
0.14764
0.117463
0.145925
0.203369
0.143415
0.286725
0.142556
0.317549
0.143794
0.170603
0.144716
0.138996
0.143306
-0.132578
-0.222861
-0.0367555
-0.0560324
-0.0381061
-0.0559862
-0.0378245
-0.0534434
-0.0355955
-0.0480898
-0.0311621
-0.0395354
-0.0243694
-0.0276108
-0.0154117
-0.0123581
-0.00456849
0.00629302
0.00797267
0.0272314
0.0213334
0.0489905
0.0346591
0.0705211
0.0471873
0.0906448
0.0585374
0.108447
0.0689725
0.122953
0.0793634
0.132594
0.0907259
0.13476
0.103416
0.126378
0.116606
0.105538
0.128803
0.072177
0.139059
0.0270734
0.147018
-0.026437
0.152478
-0.0806088
0.15504
-0.125038
0.154823
-0.153372
0.152448
-0.166348
0.14864
-0.169297
0.144191
-0.167504
0.139311
-0.163472
0.132737
-0.160091
0.123415
-0.161328
0.113478
-0.164038
0.107898
-0.153088
0.110098
-0.111634
0.119236
-0.0424377
0.13191
0.0376275
0.14484
0.104718
0.155483
0.152906
0.161779
0.186968
0.162718
0.223166
0.159064
0.258224
0.153633
0.26711
0.149308
0.225334
0.147511
0.122836
0.148464
0.00192937
0.150972
-0.115403
0.153262
-0.178042
0.15163
-0.214795
0.145482
-0.228447
0.138301
-0.235858
0.135972
-0.227229
0.13935
-0.130662
0.145053
-0.0485768
0.147698
0.114818
0.146073
0.204994
0.143666
0.289132
0.14289
0.318325
0.144501
0.168991
0.145804
0.137693
0.14448
-0.131255
-0.221012
-0.0153878
-0.0512155
-0.0196121
-0.0517619
-0.0224499
-0.0506056
-0.0235184
-0.0470213
-0.0225842
-0.0404696
-0.0190816
-0.0311133
-0.0129456
-0.0184941
-0.00428971
-0.00236292
0.00672591
0.0162157
0.0194728
0.0362436
0.0331789
0.056815
0.0470322
0.0767916
0.0606212
0.0948581
0.0740031
0.109571
0.0875948
0.119002
0.101766
0.120589
0.116255
0.111888
0.129951
0.0918429
0.141547
0.0605809
0.150352
0.0182684
0.156419
-0.0325039
0.15954
-0.0837301
0.159558
-0.125056
0.156961
-0.150774
0.152739
-0.162126
0.147678
-0.164235
0.142359
-0.162185
0.137066
-0.15818
0.130762
-0.153787
0.121946
-0.152512
0.111807
-0.153898
0.105099
-0.14638
0.106159
-0.112694
0.115034
-0.0513124
0.128426
0.0242351
0.142656
0.0904886
0.15479
0.140772
0.162598
0.179159
0.165098
0.220666
0.162857
0.260465
0.158309
0.271659
0.153987
0.229656
0.151323
0.1255
0.150855
0.0023974
0.151816
-0.116365
0.153189
-0.179415
0.151307
-0.212913
0.145192
-0.222333
0.137918
-0.228583
0.135554
-0.224865
0.139004
-0.134113
0.144919
-0.0544914
0.147849
0.111887
0.146337
0.206506
0.144013
0.291456
0.143327
0.319011
0.145338
0.166981
0.147057
0.135974
0.145823
-0.13002
-0.219173
0.0168382
-0.0445407
0.0101507
-0.0450745
0.00416424
-0.044619
-0.000509126
-0.0423479
-0.00279073
-0.038188
-0.00285011
-0.031054
-0.0002797
-0.0210645
0.00604621
-0.00868883
0.0149677
0.00729426
0.0259646
0.0252467
0.038784
0.0439956
0.052763
0.0628126
0.0673959
0.0802252
0.0824406
0.094526
0.0978283
0.103614
0.113375
0.105043
0.128412
0.0968506
0.141765
0.0784896
0.152404
0.0499424
0.159956
0.0107161
0.164324
-0.0368722
0.165281
-0.0846865
0.162939
-0.122715
0.158203
-0.146039
0.152371
-0.156294
0.146295
-0.15816
0.140328
-0.156218
0.134715
-0.152568
0.128759
-0.14783
0.120777
-0.144531
0.110936
-0.144057
0.103323
-0.138767
0.102966
-0.112337
0.111038
-0.0593841
0.124746
0.0105269
0.139998
0.0752361
0.153525
0.127245
0.162921
0.169763
0.16715
0.216437
0.16647
0.261145
0.162865
0.275264
0.158518
0.234004
0.155033
0.128985
0.153182
0.00424831
0.152608
-0.115791
0.153037
-0.179843
0.150938
-0.210815
0.144921
-0.216316
0.137553
-0.221215
0.135074
-0.222385
0.138575
-0.137615
0.14476
-0.0606759
0.148068
0.10858
0.146713
0.20786
0.144465
0.293703
0.143873
0.319604
0.146301
0.164553
0.14847
0.133804
0.147325
-0.128875
-0.217342
0.0556333
-0.0373143
0.0484335
-0.0378746
0.0413728
-0.0375584
0.0349715
-0.0359466
0.0295877
-0.0328042
0.0261884
-0.0276547
0.0254366
-0.0203126
0.0273025
-0.0105547
0.032504
0.00209269
0.0405029
0.0172478
0.0511708
0.0333277
0.0639243
0.0500591
0.0781731
0.0659764
0.093398
0.0793011
0.10911
0.0879025
0.1247
0.0894529
0.139264
0.0822861
0.151705
0.0660488
0.161254
0.0403934
0.167647
0.00432349
0.170499
-0.0397245
0.169486
-0.0836734
0.165032
-0.118261
0.158456
-0.139463
0.151284
-0.149122
0.144424
-0.151299
0.13803
-0.149824
0.132199
-0.146736
0.126571
-0.142202
0.119603
-0.137563
0.110563
-0.135017
0.102471
-0.130675
0.1006
-0.110466
0.107369
-0.0661526
0.12088
-0.00298399
0.13679
0.0593253
0.151554
0.112481
0.16257
0.158747
0.168671
0.210336
0.169705
0.260111
0.167117
0.277851
0.162764
0.238357
0.158541
0.133208
0.155332
0.00745722
0.153302
-0.11376
0.152763
-0.179305
0.150478
-0.208529
0.144625
-0.210464
0.137166
-0.213756
0.134487
-0.219705
0.138011
-0.141139
0.144526
-0.0671911
0.148322
0.104784
0.147194
0.208988
0.145029
0.295868
0.14453
0.320103
0.147386
0.161697
0.150034
0.131156
0.148977
-0.127818
-0.215516
0.0923783
-0.0303851
0.0855066
-0.031003
0.0786131
-0.0306649
0.0717988
-0.0291323
0.0654148
-0.0264202
0.0600915
-0.0223314
0.0564431
-0.0166642
0.0550208
-0.00913245
0.0565346
0.000578884
0.0610414
0.012741
0.0686646
0.0257044
0.0790443
0.0396795
0.0916233
0.0533975
0.10571
0.0652141
0.120514
0.0730987
0.135131
0.0748357
0.148535
0.0688826
0.159761
0.054823
0.168206
0.0319476
0.173499
-0.000969238
0.17489
-0.0411153
0.172038
-0.0808213
0.165729
-0.111952
0.157652
-0.131385
0.149445
-0.140915
0.142014
-0.143869
0.135389
-0.143199
0.129457
-0.140804
0.124094
-0.136839
0.118146
-0.131615
0.110298
-0.127169
0.102288
-0.122665
0.0990524
-0.107231
0.10422
-0.07132
0.116811
-0.0155748
0.132995
0.0431404
0.148771
0.0967055
0.161382
0.146137
0.169444
0.202274
0.172319
0.257236
0.170851
0.27932
0.166563
0.242644
0.161666
0.138105
0.157284
0.0118394
0.153853
-0.11033
0.152325
-0.177776
0.149871
-0.206075
0.14426
-0.204853
0.136725
-0.206221
0.133757
-0.216737
0.137263
-0.144645
0.144161
-0.0740889
0.148574
0.100371
0.147767
0.209795
0.145707
0.297928
0.145304
0.320505
0.14859
0.158411
0.15174
0.128006
0.150767
-0.126845
-0.213695
0.12154
-0.0239875
0.11528
-0.0247434
0.10909
-0.0244749
0.103023
-0.0230651
0.0972326
-0.0206297
0.0919833
-0.0170822
0.0876554
-0.0123362
0.0847957
-0.00627277
0.0837651
0.00160946
0.0852337
0.0112724
0.0896027
0.0213355
0.0969117
0.0323704
0.106838
0.0434714
0.118724
0.0533283
0.13166
0.0601623
0.144582
0.0619134
0.156407
0.0570575
0.16625
0.04498
0.173513
0.0246851
0.177568
-0.00502445
0.177412
-0.0409591
0.172804
-0.0762134
0.164914
-0.104062
0.155696
-0.122167
0.146773
-0.131992
0.138971
-0.136067
0.13227
-0.136499
0.126369
-0.134902
0.121219
-0.131688
0.116168
-0.126565
0.109722
-0.120723
0.102366
-0.115309
0.09818
-0.103045
0.101516
-0.0746561
0.112739
-0.0267981
0.128637
0.0272429
0.145105
0.0802377
0.159203
0.132039
0.1693
0.192177
0.174171
0.252365
0.17392
0.279571
0.169776
0.246789
0.164322
0.143558
0.158922
0.0172397
0.154202
-0.10561
0.151666
-0.17524
0.149055
-0.203463
0.143778
-0.199576
0.136202
-0.198645
0.132863
-0.213397
0.136292
-0.148074
0.143607
-0.081404
0.14878
0.0951976
0.148413
0.210162
0.1465
0.299842
0.146193
0.320812
0.149907
0.154698
0.153577
0.124337
0.152684
-0.125953
-0.211882
0.140706
-0.0183487
0.135205
-0.019242
0.129815
-0.019085
0.12479
-0.0180407
0.12026
-0.0160995
0.116251
-0.0130732
0.112866
-0.00895106
0.110319
-0.00372565
0.108764
0.00316442
0.109054
0.0109817
0.111346
0.0190444
0.116038
0.0276776
0.12312
0.0363893
0.13223
0.0442188
0.142638
0.0497546
0.153321
0.0512297
0.163201
0.0471775
0.171431
0.0367506
0.177318
0.0187976
0.179854
-0.00755997
0.177956
-0.0390615
0.171675
-0.0699316
0.162508
-0.0948962
0.152511
-0.11217
0.143175
-0.122655
0.135181
-0.128073
0.128519
-0.129836
0.122781
-0.129165
0.117843
-0.126749
0.113503
-0.122225
0.108473
-0.115693
0.102243
-0.109078
0.0976646
-0.098467
0.0992725
-0.076264
0.108715
-0.0362402
0.123788
0.0121697
0.140547
0.0634788
0.155936
0.116649
0.168008
0.180105
0.174935
0.245438
0.17607
0.278435
0.172225
0.250634
0.166391
0.149391
0.160196
0.0234349
0.154315
-0.0997283
0.150758
-0.171684
0.147981
-0.200686
0.143134
-0.194729
0.135588
-0.191099
0.131806
-0.209616
0.135071
-0.151339
0.142808
-0.0891404
0.148892
0.0891128
0.149108
0.209947
0.147404
0.301546
0.147198
0.321018
0.151334
0.150561
0.155528
0.120143
0.154715
-0.12514
-0.210081
0.149523
-0.0136856
0.144834
-0.0145535
0.140265
-0.0145161
0.136248
-0.0140232
0.132893
-0.0127443
0.130212
-0.0103924
0.128283
-0.00702198
0.127328
-0.00277047
0.127201
0.00329115
0.127879
0.0103037
0.12966
0.0172637
0.133105
0.0242319
0.138313
0.0311817
0.145143
0.0373882
0.153089
0.0418086
0.161379
0.0429398
0.169106
0.039451
0.175445
0.030411
0.17939
0.0148532
0.180237
-0.00840703
0.176588
-0.0354127
0.168914
-0.0622577
0.158907
-0.0848893
0.148538
-0.1018
0.139082
-0.113199
0.131052
-0.120043
0.124467
-0.123252
0.118946
-0.123644
0.114211
-0.122014
0.11034
-0.118354
0.10652
-0.111873
0.101663
-0.104221
0.0972472
-0.0940511
0.0973928
-0.0764096
0.104838
-0.0436854
0.118553
-0.00154574
0.135107
0.0469252
0.151545
0.100211
0.165652
0.165998
0.174816
0.236275
0.177395
0.275856
0.173874
0.254155
0.167926
0.155339
0.161073
0.0302884
0.154266
-0.0929217
0.149678
-0.167096
0.146696
-0.197704
0.142333
-0.190367
0.134909
-0.183674
0.130645
-0.205352
0.133627
-0.154321
0.14171
-0.0972231
0.148855
0.0819678
0.149821
0.208981
0.14841
0.302956
0.148312
0.321117
0.152862
0.14601
0.157581
0.115424
0.156848
-0.124406
-0.208298
0.150778
-0.0104696
0.146981
-0.0107561
0.143374
-0.0109092
0.140181
-0.0108302
0.137543
-0.0101062
0.135645
-0.00849491
0.134552
-0.00592823
0.134185
-0.00240389
0.134965
0.00251085
0.13696
0.00830868
0.139888
0.0143357
0.143614
0.020506
0.148312
0.0264838
0.153988
0.0317126
0.160388
0.0354084
0.166906
0.0364218
0.172786
0.0335713
0.177292
0.0259043
0.179725
0.012421
0.178361
-0.00704323
0.173094
-0.0301463
0.164528
-0.0536918
0.154361
-0.0747222
0.144208
-0.0916466
0.135034
-0.104025
0.127183
-0.112193
0.120711
-0.11678
0.115379
-0.118313
0.110813
-0.117448
0.107156
-0.114698
0.104169
-0.108886
0.100666
-0.100719
0.0968402
-0.0902248
0.0959625
-0.0755319
0.101447
-0.0491701
0.113164
-0.0132621
0.129001
0.0310872
0.145768
0.0834452
0.161398
0.150368
0.172864
0.224808
0.177296
0.271425
0.174498
0.256953
0.168636
0.161201
0.161588
0.0373364
0.153982
-0.0853152
0.148483
-0.161597
0.145276
-0.194496
0.141404
-0.186495
0.134175
-0.176445
0.129438
-0.200615
0.132063
-0.156946
0.14036
-0.105521
0.148631
0.0736969
0.150508
0.207103
0.149497
0.303967
0.149536
0.321078
0.154486
0.141061
0.159717
0.110193
0.15908
-0.123769
-0.206521
0.183801
-0.00659417
-0.187676
0.180558
-0.0075132
0.177367
-0.00771905
0.174087
-0.00754988
0.170803
-0.00682193
0.167647
-0.00533931
0.16473
-0.00301074
0.162178
0.000147618
0.160365
0.00432376
0.159398
0.00927576
0.159206
0.0145281
0.159931
0.0197809
0.161778
0.0246373
0.16494
0.0285497
0.169554
0.0307946
0.175541
0.0304352
0.182553
0.026559
0.189986
0.0184711
0.196699
0.00570849
0.201376
-0.0117207
0.202874
-0.0316444
0.200966
-0.0517835
0.196266
-0.0700221
0.189695
-0.0850752
0.182107
-0.0964369
0.174115
-0.104201
0.166171
-0.108836
0.158538
-0.110679
0.15109
-0.11
0.143915
-0.107524
0.137226
-0.102196
0.130242
-0.0937347
0.122135
-0.0821179
0.11463
-0.0680271
0.111394
-0.0459344
0.114141
-0.0160091
0.120822
0.0244067
0.128372
0.0758955
0.134963
0.143776
0.140351
0.21942
0.145517
0.266259
0.152142
0.250328
0.160383
0.15296
0.165936
0.0317835
0.166755
-0.0861339
0.163702
-0.158545
0.159019
-0.189813
0.152576
-0.180052
0.143781
-0.16765
0.136028
-0.192863
0.133496
-0.154413
0.134791
-0.106816
0.136491
0.0719973
0.135224
0.20837
0.133732
0.30546
0.136467
0.318343
0.142999
0.134529
0.148886
0.104305
0.147826
-0.122709
-0.202786
0.194241
-0.00382198
-0.197013
0.191476
-0.00474837
0.188797
-0.00503974
0.186094
-0.00484702
0.183444
-0.00417258
0.180999
-0.00289428
0.178927
-0.000938373
0.177272
0.00180269
0.176299
0.00529626
0.176156
0.00941902
0.176886
0.013798
0.178556
0.0181107
0.181235
0.0219587
0.184969
0.0248157
0.18974
0.0260233
0.19535
0.024825
0.201384
0.0205256
0.207224
0.0126308
0.212028
0.000904798
0.214641
-0.0143341
0.214482
-0.0314849
0.211517
-0.0488186
0.206234
-0.0647391
0.199353
-0.0781944
0.191617
-0.0887008
0.183584
-0.0961677
0.175614
-0.100866
0.167974
-0.10304
0.160572
-0.102598
0.15333
-0.100282
0.146568
-0.0954342
0.139998
-0.0871645
0.132549
-0.0746691
0.124986
-0.0604638
0.120676
-0.041625
0.12204
-0.0173727
0.128149
0.0182976
0.135894
0.0681506
0.143367
0.136304
0.149971
0.212816
0.156548
0.259682
0.164477
0.242399
0.17346
0.143977
0.179504
0.0257392
0.179747
-0.0863764
0.175665
-0.154463
0.169989
-0.184137
0.163042
-0.173104
0.153735
-0.158344
0.145321
-0.184449
0.14211
-0.151202
0.143342
-0.108048
0.145547
0.069792
0.144697
0.20922
0.143502
0.306654
0.146625
0.31522
0.153712
0.127442
0.160119
0.0978985
0.158658
-0.121247
-0.198585
0.204867
-0.00158316
-0.207106
0.202469
-0.00234986
0.20011
-0.00268062
0.197835
-0.00257263
0.195684